   14   14    1    1
  0.1021960E+02  0.5697000E-09  0.4047900E-09  0.6204200E-09  0.5000000E-15
  1.000000000000000E-004
  CAR 
 Kpoints                                 
     42   1260     48
 
  0.0000000E+00  0.0000000E+00  0.0000000E+00  0.1146657E-03
      1        -12.733206   1.000000
      2        -11.576183   1.000000
      3         -8.662199   1.000000
      4         -8.424931   1.000000
      5         -6.077606   1.000000
      6         -5.059590   1.000000
      7         -4.638524   1.000000
      8         -4.349780   1.000000
      9         -3.973728   1.000000
     10         -3.598875   1.000000
     11         -2.422164   1.000000
     12         -2.242767   1.000000
     13         -2.183572   1.000000
     14         -1.053167   1.000000
     15         -0.037671   1.000000
     16         -0.003808   1.000000
     17          0.149146   1.000000
     18          0.172657   1.000000
     19          0.564305   1.000000
     20          2.079227   0.000000
     21          2.125432   0.000000
     22          2.214251   0.000000
     23          5.411019   0.000000
     24          5.801194   0.000000
     25          5.816717   0.000000
     26          5.910132   0.000000
     27          6.785230   0.000000
     28          7.672183   0.000000
     29          7.700657   0.000000
     30          8.633659   0.000000
     31          8.752121   0.000000
     32          8.852512   0.000000
     33          9.040132   0.000000
     34         10.029093   0.000000
     35         11.143988   0.000000
     36         11.398908   0.000000
     37         11.768818   0.000000
     38         11.801369   0.000000
     39         11.898496   0.000000
     40         12.354027   0.000000
     41         12.804046   0.000000
     42         13.393963   0.000000
     43         13.572822   0.000000
     44         15.553801   0.000000
     45         15.567034   0.000000
     46         15.941329   0.000000
     47         16.357594   0.000000
     48         16.597881   0.000000
 
  0.5263158E-01  0.0000000E+00  0.0000000E+00  0.2293315E-03
      1        -12.727106   1.000000
      2        -11.586820   1.000000
      3         -8.659377   1.000000
      4         -8.423115   1.000000
      5         -6.064755   1.000000
      6         -5.141561   1.000000
      7         -4.670347   1.000000
      8         -4.253014   1.000000
      9         -3.965176   1.000000
     10         -3.539700   1.000000
     11         -2.419539   1.000000
     12         -2.244472   1.000000
     13         -2.203538   1.000000
     14         -1.099285   1.000000
     15         -0.031561   1.000000
     16          0.006380   1.000000
     17          0.153903   1.000000
     18          0.156296   1.000000
     19          0.550264   1.000000
     20          2.066278   0.000000
     21          2.113994   0.000000
     22          2.197785   0.000000
     23          5.424915   0.000000
     24          5.793250   0.000000
     25          5.796640   0.000000
     26          5.991397   0.000000
     27          6.771983   0.000000
     28          7.496605   0.000000
     29          7.846233   0.000000
     30          8.653978   0.000000
     31          8.807809   0.000000
     32          8.889386   0.000000
     33          9.043052   0.000000
     34         10.047409   0.000000
     35         11.154291   0.000000
     36         11.339116   0.000000
     37         11.664179   0.000000
     38         11.765811   0.000000
     39         11.931293   0.000000
     40         12.366210   0.000000
     41         12.873682   0.000000
     42         13.502856   0.000000
     43         13.515526   0.000000
     44         15.362244   0.000000
     45         15.601699   0.000000
     46         16.079480   0.000000
     47         16.344460   0.000000
     48         16.373501   0.000000
 
  0.1052632E+00  0.0000000E+00  0.0000000E+00  0.2293315E-03
      1        -12.708858   1.000000
      2        -11.618090   1.000000
      3         -8.650737   1.000000
      4         -8.417994   1.000000
      5         -6.031382   1.000000
      6         -5.313879   1.000000
      7         -4.739216   1.000000
      8         -4.036734   1.000000
      9         -3.939594   1.000000
     10         -3.384925   1.000000
     11         -2.411574   1.000000
     12         -2.261378   1.000000
     13         -2.249548   1.000000
     14         -1.231930   1.000000
     15         -0.013466   1.000000
     16          0.035385   1.000000
     17          0.098497   1.000000
     18          0.175686   1.000000
     19          0.508751   1.000000
     20          2.028642   0.000010
     21          2.080657   0.000000
     22          2.148265   0.000000
     23          5.463770   0.000000
     24          5.771431   0.000000
     25          5.813921   0.000000
     26          6.155702   0.000000
     27          6.734369   0.000000
     28          7.299374   0.000000
     29          7.968552   0.000000
     30          8.711868   0.000000
     31          8.957021   0.000000
     32          8.994672   0.000000
     33          9.050163   0.000000
     34         10.103652   0.000000
     35         11.168255   0.000000
     36         11.185621   0.000000
     37         11.409666   0.000000
     38         11.703007   0.000000
     39         12.026436   0.000000
     40         12.402330   0.000000
     41         13.023795   0.000000
     42         13.356390   0.000000
     43         13.770676   0.000000
     44         15.058514   0.000000
     45         15.695184   0.000000
     46         16.062915   0.000000
     47         16.245560   0.000000
     48         16.419622   0.000000
 
  0.1578947E+00  0.0000000E+00  0.0000000E+00  0.2293315E-03
      1        -12.678673   1.000000
      2        -11.668164   1.000000
      3         -8.635932   1.000000
      4         -8.410540   1.000000
      5         -5.992947   1.000000
      6         -5.502620   1.000000
      7         -4.795169   1.000000
      8         -3.897199   1.000000
      9         -3.776340   1.000000
     10         -3.172880   1.000000
     11         -2.397959   1.000000
     12         -2.351621   1.000000
     13         -2.257847   1.000000
     14         -1.436443   1.000000
     15          0.008895   1.000000
     16          0.015884   1.000000
     17          0.079047   1.000000
     18          0.196001   1.000000
     19          0.448470   1.000000
     20          1.969999   0.004488
     21          2.028233   0.000010
     22          2.065774   0.000000
     23          5.520070   0.000000
     24          5.741296   0.000000
     25          5.896623   0.000000
     26          6.369189   0.000000
     27          6.678231   0.000000
     28          7.113378   0.000000
     29          8.065489   0.000000
     30          8.797008   0.000000
     31          9.030533   0.000000
     32          9.161813   0.000000
     33          9.179687   0.000000
     34         10.203765   0.000000
     35         10.908242   0.000000
     36         11.092195   0.000000
     37         11.237754   0.000000
     38         11.677747   0.000000
     39         12.167099   0.000000
     40         12.468708   0.000000
     41         13.122491   0.000000
     42         13.133159   0.000000
     43         14.113814   0.000000
     44         14.819252   0.000000
     45         15.757286   0.000000
     46         15.826430   0.000000
     47         16.320383   0.000000
     48         16.491912   0.000000
 
  0.2105263E+00  0.0000000E+00  0.0000000E+00  0.2293315E-03
      1        -12.636917   1.000000
      2        -11.734317   1.000000
      3         -8.614808   1.000000
      4         -8.402342   1.000000
      5         -5.971686   1.000000
      6         -5.680980   1.000000
      7         -4.795254   1.000000
      8         -3.838360   1.000000
      9         -3.502197   1.000000
     10         -2.930500   1.000000
     11         -2.467018   1.000000
     12         -2.378193   1.000000
     13         -2.269005   1.000000
     14         -1.693545   1.000000
     15         -0.110954   1.000000
     16          0.055167   1.000000
     17          0.131744   1.000000
     18          0.172290   1.000000
     19          0.413708   1.000000
     20          1.896338   0.298226
     21          1.951760   0.017993
     22          1.961056   0.009137
     23          5.583850   0.000000
     24          5.710416   0.000000
     25          6.045882   0.000000
     26          6.611836   0.000000
     27          6.621616   0.000000
     28          6.949549   0.000000
     29          8.148697   0.000000
     30          8.886729   0.000000
     31          8.995371   0.000000
     32          9.391577   0.000000
     33          9.406955   0.000000
     34         10.360419   0.000000
     35         10.583352   0.000000
     36         10.773124   0.000000
     37         11.304888   0.000000
     38         11.722360   0.000000
     39         12.302589   0.000000
     40         12.600657   0.000000
     41         12.839252   0.000000
     42         13.079047   0.000000
     43         14.486940   0.000000
     44         14.746687   0.000000
     45         15.441210   0.000000
     46         15.977701   0.000000
     47         16.215776   0.000000
     48         16.489982   0.000000
 
  0.2631579E+00  0.0000000E+00  0.0000000E+00  0.2293315E-03
      1        -12.584120   1.000000
      2        -11.813223   1.000000
      3         -8.587707   1.000000
      4         -8.395520   1.000000
      5         -5.983315   1.000000
      6         -5.837872   1.000000
      7         -4.714811   1.000000
      8         -3.763619   1.000000
      9         -3.233956   1.000000
     10         -2.675992   1.000000
     11         -2.600037   1.000000
     12         -2.353392   1.000000
     13         -2.281698   1.000000
     14         -1.978782   1.000000
     15         -0.255332   1.000000
     16          0.058057   1.000000
     17          0.102330   1.000000
     18          0.187274   1.000000
     19          0.453940   1.000000
     20          1.810072   0.971964
     21          1.815653   0.960164
     22          1.884650   0.421158
     23          5.644948   0.000000
     24          5.686191   0.000000
     25          6.257526   0.000000
     26          6.544703   0.000000
     27          6.811206   0.000000
     28          6.905736   0.000000
     29          8.223248   0.000000
     30          8.929403   0.000000
     31          8.934936   0.000000
     32          9.632802   0.000000
     33          9.667562   0.000000
     34         10.212790   0.000000
     35         10.516878   0.000000
     36         10.588830   0.000000
     37         11.369515   0.000000
     38         11.840791   0.000000
     39         12.389820   0.000000
     40         12.525382   0.000000
     41         12.823516   0.000000
     42         12.841112   0.000000
     43         14.831761   0.000000
     44         14.867813   0.000000
     45         15.128528   0.000000
     46         15.966354   0.000000
     47         16.094429   0.000000
     48         16.136205   0.000000
 
  0.3157895E+00  0.0000000E+00  0.0000000E+00  0.2293315E-03
      1        -12.520974   1.000000
      2        -11.901319   1.000000
      3         -8.555726   1.000000
      4         -8.392485   1.000000
      5         -6.024043   1.000000
      6         -5.967037   1.000000
      7         -4.554478   1.000000
      8         -3.673698   1.000000
      9         -3.002999   1.000000
     10         -2.743797   1.000000
     11         -2.434725   1.000000
     12         -2.372251   1.000000
     13         -2.284886   1.000000
     14         -2.207646   1.000000
     15         -0.415394   1.000000
     16         -0.112597   1.000000
     17          0.154363   1.000000
     18          0.239153   1.000000
     19          0.541790   1.000000
     20          1.647121   1.000000
     21          1.737319   0.999964
     22          1.805446   0.979389
     23          5.673706   0.000000
     24          5.694299   0.000000
     25          6.486784   0.000000
     26          6.524604   0.000000
     27          6.697356   0.000000
     28          7.215788   0.000000
     29          8.290904   0.000000
     30          8.841324   0.000000
     31          8.869611   0.000000
     32          9.818525   0.000000
     33          9.883493   0.000000
     34          9.936145   0.000000
     35         10.397414   0.000000
     36         10.896939   0.000000
     37         11.403546   0.000000
     38         12.021693   0.000000
     39         12.194223   0.000000
     40         12.455455   0.000000
     41         12.502185   0.000000
     42         13.082041   0.000000
     43         14.840038   0.000000
     44         14.954096   0.000000
     45         15.242992   0.000000
     46         15.601613   0.000000
     47         15.658491   0.000000
     48         16.288368   0.000000
 
  0.3684211E+00  0.0000000E+00  0.0000000E+00  0.2293315E-03
      1        -12.448395   1.000000
      2        -11.995101   1.000000
      3         -8.520798   1.000000
      4         -8.395586   1.000000
      5         -6.076811   1.000000
      6         -6.064394   1.000000
      7         -4.330720   1.000000
      8         -3.569574   1.000000
      9         -2.920425   1.000000
     10         -2.892442   1.000000
     11         -2.525889   1.000000
     12         -2.349310   1.000000
     13         -2.177511   1.000000
     14         -2.154592   1.000000
     15         -0.575327   1.000000
     16         -0.308386   1.000000
     17          0.207023   1.000000
     18          0.280641   1.000000
     19          0.656760   1.000000
     20          1.471099   1.000000
     21          1.671340   1.000000
     22          1.730671   0.999984
     23          5.674670   0.000000
     24          5.725017   0.000000
     25          6.447334   0.000000
     26          6.605313   0.000000
     27          6.838508   0.000000
     28          7.547164   0.000000
     29          8.354023   0.000000
     30          8.652582   0.000000
     31          8.743925   0.000000
     32          9.418790   0.000000
     33         10.142582   0.000000
     34         10.191718   0.000000
     35         10.450567   0.000000
     36         11.275314   0.000000
     37         11.386199   0.000000
     38         11.856009   0.000000
     39         12.129342   0.000000
     40         12.252933   0.000000
     41         12.509550   0.000000
     42         13.288268   0.000000
     43         14.617523   0.000000
     44         15.012794   0.000000
     45         15.135860   0.000000
     46         15.333505   0.000000
     47         15.601443   0.000000
     48         16.411965   0.000000
 
  0.4210526E+00  0.0000000E+00  0.0000000E+00  0.2293315E-03
      1        -12.367541   1.000000
      2        -12.091319   1.000000
      3         -8.485556   1.000000
      4         -8.406552   1.000000
      5         -6.127663   1.000000
      6         -6.124332   1.000000
      7         -4.061516   1.000000
      8         -3.452473   1.000000
      9         -3.134121   1.000000
     10         -3.041154   1.000000
     11         -2.503948   1.000000
     12         -2.367875   1.000000
     13         -2.058530   1.000000
     14         -1.975389   1.000000
     15         -0.703675   1.000000
     16         -0.505607   1.000000
     17          0.254710   1.000000
     18          0.305369   1.000000
     19          0.792579   1.000000
     20          1.290629   1.000000
     21          1.627108   1.000000
     22          1.668223   1.000000
     23          5.687323   0.000000
     24          5.734341   0.000000
     25          6.432672   0.000000
     26          6.532650   0.000000
     27          7.189348   0.000000
     28          7.896192   0.000000
     29          8.327095   0.000000
     30          8.416848   0.000000
     31          8.648281   0.000000
     32          9.023308   0.000000
     33         10.394886   0.000000
     34         10.416125   0.000000
     35         10.634407   0.000000
     36         11.331213   0.000000
     37         11.519784   0.000000
     38         11.682229   0.000000
     39         11.783004   0.000000
     40         12.509256   0.000000
     41         12.513439   0.000000
     42         13.311043   0.000000
     43         14.539669   0.000000
     44         14.815233   0.000000
     45         14.971709   0.000000
     46         15.026863   0.000000
     47         15.930589   0.000000
     48         16.467259   0.000000
 
  0.4736842E+00  0.0000000E+00  0.0000000E+00  0.2293315E-03
      1        -12.279853   1.000000
      2        -12.187072   1.000000
      3         -8.452994   1.000000
      4         -8.425962   1.000000
      5         -6.156683   1.000000
      6         -6.153821   1.000000
      7         -3.761723   1.000000
      8         -3.445213   1.000000
      9         -3.323969   1.000000
     10         -3.186033   1.000000
     11         -2.444249   1.000000
     12         -2.400015   1.000000
     13         -1.935281   1.000000
     14         -1.890845   1.000000
     15         -0.747029   1.000000
     16         -0.669684   1.000000
     17          0.290790   1.000000
     18          0.308929   1.000000
     19          0.945960   1.000000
     20          1.113504   1.000000
     21          1.611392   1.000000
     22          1.626187   1.000000
     23          5.706808   0.000000
     24          5.725558   0.000000
     25          6.444000   0.000000
     26          6.478432   0.000000
     27          7.565565   0.000000
     28          7.952231   0.000000
     29          8.259995   0.000000
     30          8.484476   0.000000
     31          8.561082   0.000000
     32          8.636330   0.000000
     33         10.573399   0.000000
     34         10.576217   0.000000
     35         10.893675   0.000000
     36         11.195004   0.000000
     37         11.316436   0.000000
     38         11.469266   0.000000
     39         12.092523   0.000000
     40         12.381375   0.000000
     41         12.802244   0.000000
     42         13.101171   0.000000
     43         14.621031   0.000000
     44         14.736646   0.000000
     45         14.779066   0.000000
     46         14.851235   0.000000
     47         16.210238   0.000000
     48         16.403208   0.000000
 
  0.0000000E+00  0.3703704E-01  0.0000000E+00  0.2293315E-03
      1        -12.729892   1.000000
      2        -11.573200   1.000000
      3         -8.659596   1.000000
      4         -8.421722   1.000000
      5         -6.073931   1.000000
      6         -5.054456   1.000000
      7         -4.635471   1.000000
      8         -4.359270   1.000000
      9         -4.049664   1.000000
     10         -3.595433   1.000000
     11         -2.601213   1.000000
     12         -2.324210   1.000000
     13         -1.810111   1.000000
     14         -1.052531   1.000000
     15         -0.077943   1.000000
     16         -0.051330   1.000000
     17          0.151590   1.000000
     18          0.195255   1.000000
     19          0.580434   1.000000
     20          2.026740   0.000012
     21          2.088177   0.000000
     22          2.235022   0.000000
     23          5.446933   0.000000
     24          5.759037   0.000000
     25          5.860383   0.000000
     26          5.877109   0.000000
     27          6.827970   0.000000
     28          7.727765   0.000000
     29          7.728766   0.000000
     30          8.508609   0.000000
     31          8.751884   0.000000
     32          8.920335   0.000000
     33          9.048348   0.000000
     34         10.114926   0.000000
     35         11.177646   0.000000
     36         11.387282   0.000000
     37         11.757630   0.000000
     38         11.816729   0.000000
     39         11.912646   0.000000
     40         12.393946   0.000000
     41         12.805603   0.000000
     42         13.348205   0.000000
     43         13.525525   0.000000
     44         15.538142   0.000000
     45         15.548588   0.000000
     46         15.952783   0.000000
     47         16.331109   0.000000
     48         16.482761   0.000000
 
  0.5263158E-01  0.3703704E-01  0.0000000E+00  0.4586630E-03
      1        -12.723788   1.000000
      2        -11.583836   1.000000
      3         -8.656769   1.000000
      4         -8.419914   1.000000
      5         -6.061051   1.000000
      6         -5.136839   1.000000
      7         -4.667327   1.000000
      8         -4.266875   1.000000
      9         -4.036486   1.000000
     10         -3.536321   1.000000
     11         -2.610721   1.000000
     12         -2.321454   1.000000
     13         -1.822751   1.000000
     14         -1.098644   1.000000
     15         -0.072001   1.000000
     16         -0.042578   1.000000
     17          0.158939   1.000000
     18          0.178398   1.000000
     19          0.566351   1.000000
     20          2.014105   0.000057
     21          2.076750   0.000000
     22          2.218135   0.000000
     23          5.461080   0.000000
     24          5.746503   0.000000
     25          5.838890   0.000000
     26          5.964096   0.000000
     27          6.814754   0.000000
     28          7.540250   0.000000
     29          7.886186   0.000000
     30          8.529958   0.000000
     31          8.808275   0.000000
     32          8.956654   0.000000
     33          9.052545   0.000000
     34         10.129483   0.000000
     35         11.187577   0.000000
     36         11.327555   0.000000
     37         11.653975   0.000000
     38         11.779853   0.000000
     39         11.945523   0.000000
     40         12.405960   0.000000
     41         12.875462   0.000000
     42         13.457765   0.000000
     43         13.468509   0.000000
     44         15.367672   0.000000
     45         15.571477   0.000000
     46         16.067206   0.000000
     47         16.315687   0.000000
     48         16.355568   0.000000
 
  0.1052632E+00  0.3703704E-01  0.0000000E+00  0.4586630E-03
      1        -12.705546   1.000000
      2        -11.615096   1.000000
      3         -8.648119   1.000000
      4         -8.414815   1.000000
      5         -6.027578   1.000000
      6         -5.309538   1.000000
      7         -4.736304   1.000000
      8         -4.093510   1.000000
      9         -3.968040   1.000000
     10         -3.381779   1.000000
     11         -2.639533   1.000000
     12         -2.313125   1.000000
     13         -1.858026   1.000000
     14         -1.231254   1.000000
     15         -0.054708   1.000000
     16         -0.021899   1.000000
     17          0.132511   1.000000
     18          0.179235   1.000000
     19          0.524672   1.000000
     20          1.977257   0.002414
     21          2.043449   0.000001
     22          2.167529   0.000000
     23          5.500624   0.000000
     24          5.753668   0.000000
     25          5.828501   0.000000
     26          6.126167   0.000000
     27          6.777247   0.000000
     28          7.344826   0.000000
     29          8.007010   0.000000
     30          8.590506   0.000000
     31          8.959030   0.000000
     32          9.057239   0.000000
     33          9.067154   0.000000
     34         10.174103   0.000000
     35         11.156862   0.000000
     36         11.217819   0.000000
     37         11.398005   0.000000
     38         11.720193   0.000000
     39         12.040873   0.000000
     40         12.441603   0.000000
     41         13.026422   0.000000
     42         13.310097   0.000000
     43         13.724147   0.000000
     44         15.073049   0.000000
     45         15.660163   0.000000
     46         16.055610   0.000000
     47         16.184721   0.000000
     48         16.430627   0.000000
 
  0.1578947E+00  0.3703704E-01  0.0000000E+00  0.4586630E-03
      1        -12.675370   1.000000
      2        -11.665159   1.000000
      3         -8.633305   1.000000
      4         -8.407394   1.000000
      5         -5.988971   1.000000
      6         -5.498405   1.000000
      7         -4.792452   1.000000
      8         -4.007388   1.000000
      9         -3.751823   1.000000
     10         -3.170558   1.000000
     11         -2.687963   1.000000
     12         -2.299031   1.000000
     13         -1.909161   1.000000
     14         -1.435667   1.000000
     15         -0.027891   1.000000
     16         -0.026626   1.000000
     17          0.092820   1.000000
     18          0.203112   1.000000
     19          0.463244   1.000000
     20          1.919363   0.118848
     21          1.991091   0.000665
     22          2.083825   0.000000
     23          5.557817   0.000000
     24          5.755739   0.000000
     25          5.879780   0.000000
     26          6.336724   0.000000
     27          6.721277   0.000000
     28          7.162588   0.000000
     29          8.102363   0.000000
     30          8.678663   0.000000
     31          9.058482   0.000000
     32          9.165217   0.000000
     33          9.237440   0.000000
     34         10.253943   0.000000
     35         10.897380   0.000000
     36         11.080254   0.000000
     37         11.268108   0.000000
     38         11.701640   0.000000
     39         12.182249   0.000000
     40         12.506646   0.000000
     41         13.077423   0.000000
     42         13.137152   0.000000
     43         14.057954   0.000000
     44         14.846663   0.000000
     45         15.735441   0.000000
     46         15.813480   0.000000
     47         16.219319   0.000000
     48         16.526682   0.000000
 
  0.2105263E+00  0.3703704E-01  0.0000000E+00  0.4586630E-03
      1        -12.633626   1.000000
      2        -11.731294   1.000000
      3         -8.612164   1.000000
      4         -8.399245   1.000000
      5         -5.967498   1.000000
      6         -5.676780   1.000000
      7         -4.792785   1.000000
      8         -3.943747   1.000000
      9         -3.482923   1.000000
     10         -2.934057   1.000000
     11         -2.751654   1.000000
     12         -2.278982   1.000000
     13         -1.968020   1.000000
     14         -1.692590   1.000000
     15         -0.117752   1.000000
     16          0.002810   1.000000
     17          0.118278   1.000000
     18          0.193683   1.000000
     19          0.422670   1.000000
     20          1.845389   0.818994
     21          1.924016   0.094697
     22          1.969573   0.004649
     23          5.622402   0.000000
     24          5.732534   0.000000
     25          6.022032   0.000000
     26          6.581670   0.000000
     27          6.655113   0.000000
     28          7.007697   0.000000
     29          8.184299   0.000000
     30          8.770109   0.000000
     31          9.035654   0.000000
     32          9.395859   0.000000
     33          9.462397   0.000000
     34         10.372240   0.000000
     35         10.580344   0.000000
     36         10.768104   0.000000
     37         11.332321   0.000000
     38         11.754467   0.000000
     39         12.321657   0.000000
     40         12.632126   0.000000
     41         12.798041   0.000000
     42         13.084015   0.000000
     43         14.400995   0.000000
     44         14.807239   0.000000
     45         15.452850   0.000000
     46         15.924006   0.000000
     47         16.143834   0.000000
     48         16.500907   0.000000
 
  0.2631579E+00  0.3703704E-01  0.0000000E+00  0.4586630E-03
      1        -12.580844   1.000000
      2        -11.810177   1.000000
      3         -8.585045   1.000000
      4         -8.392479   1.000000
      5         -5.978954   1.000000
      6         -5.833638   1.000000
      7         -4.712566   1.000000
      8         -3.870157   1.000000
      9         -3.213354   1.000000
     10         -2.862692   1.000000
     11         -2.656063   1.000000
     12         -2.255269   1.000000
     13         -2.027841   1.000000
     14         -1.976977   1.000000
     15         -0.255108   1.000000
     16          0.001416   1.000000
     17          0.133345   1.000000
     18          0.168031   1.000000
     19          0.457543   1.000000
     20          1.759098   0.999599
     21          1.832917   0.896939
     22          1.847739   0.800970
     23          5.683885   0.000000
     24          5.711020   0.000000
     25          6.231793   0.000000
     26          6.588326   0.000000
     27          6.789885   0.000000
     28          6.946844   0.000000
     29          8.257719   0.000000
     30          8.819284   0.000000
     31          8.986794   0.000000
     32          9.637654   0.000000
     33          9.715580   0.000000
     34         10.187054   0.000000
     35         10.460977   0.000000
     36         10.652900   0.000000
     37         11.392197   0.000000
     38         11.880586   0.000000
     39         12.412927   0.000000
     40         12.483367   0.000000
     41         12.846658   0.000000
     42         12.854915   0.000000
     43         14.695561   0.000000
     44         14.981963   0.000000
     45         15.149823   0.000000
     46         15.937165   0.000000
     47         15.949205   0.000000
     48         16.250327   0.000000
 
  0.3157895E+00  0.3703704E-01  0.0000000E+00  0.4586630E-03
      1        -12.517716   1.000000
      2        -11.898246   1.000000
      3         -8.553048   1.000000
      4         -8.389512   1.000000
      5         -6.019590   1.000000
      6         -5.962751   1.000000
      7         -4.552395   1.000000
      8         -3.783929   1.000000