 running   24 mpi-ranks, with    1 threads/rank, on    1 nodes
 distrk:  each k-point on   24 cores,    1 groups
 distr:  one band on    1 cores,   24 groups
 vasp.6.4.3 19Mar24 (build May 31 2024 16:31:43) complex                        
  
 POSCAR found type information on POSCAR B 
 POSCAR found :  1 types and      14 ions
 Reading from existing POTCAR
 scaLAPACK will be used
 Reading from existing POTCAR
 LDA part: xc-table for (Slater+PW92), standard interpolation
 POSCAR, INCAR and KPOINTS ok, starting setup
 FFT: planning ... GRIDC
 FFT: planning ... GRID_SOFT
 FFT: planning ... GRID
 WAVECAR not read
 entering main loop
       N       E                     dE             d eps       ncg     rms          rms(c)
DAV:   1     0.112871728909E+03    0.11287E+03   -0.23145E+04 16800   0.106E+03
DAV:   2    -0.901796490558E+02   -0.20305E+03   -0.18925E+03 22608   0.188E+02
DAV:   3    -0.976106392816E+02   -0.74310E+01   -0.73733E+01 24864   0.318E+01
DAV:   4    -0.976554117956E+02   -0.44773E-01   -0.44770E-01 19200   0.286E+00
DAV:   5    -0.976558870710E+02   -0.47528E-03   -0.47527E-03 24888   0.280E-01    0.123E+01
DAV:   6    -0.922397846542E+02    0.54161E+01   -0.39479E+00 24384   0.659E+00    0.680E+00
DAV:   7    -0.905883961601E+02    0.16514E+01   -0.32233E+00 25128   0.587E+00    0.171E+00
