   1   1   0   0
  0.3405466E+04  0.1504500E-08  0.1253750E-08  0.1805400E-08  0.5000000E-15
  1.000000000000000E-004
  CAR 
 Convergence                             
      2.48156007     -9.97648132  301     -3.60750087      1.00000000
     -9.976  0.0000E+00  0.0000E+00
     -9.935  0.0000E+00  0.0000E+00
     -9.893  0.0000E+00  0.0000E+00
     -9.852  0.0000E+00  0.0000E+00
     -9.810  0.0000E+00  0.0000E+00
     -9.769  0.0000E+00  0.0000E+00
     -9.727  0.0000E+00  0.0000E+00
     -9.686  0.1551E-12  0.6439E-14
     -9.644  0.8634E-09  0.3586E-10
     -9.603  0.1242E-05  0.5161E-07
     -9.561  0.4671E-03  0.1945E-04
     -9.520  0.4668E-01  0.1958E-02
     -9.478  0.1268E+01  0.5460E-01
     -9.437  0.9637E+01  0.4548E+00
     -9.395  0.2109E+02  0.1331E+01
     -9.354  0.1349E+02  0.1891E+01
     -9.312  0.2498E+01  0.1995E+01
     -9.271  0.1306E+00  0.2000E+01
     -9.229  0.1869E-02  0.2000E+01
     -9.187  0.7146E-05  0.2000E+01
     -9.146  0.7172E-08  0.2000E+01
     -9.104  0.1866E-11  0.2000E+01
     -9.063  0.0000E+00  0.2000E+01
     -9.021  0.0000E+00  0.2000E+01
     -8.980  0.0000E+00  0.2000E+01
     -8.938  0.0000E+00  0.2000E+01
     -8.897  0.0000E+00  0.2000E+01
     -8.855  0.0000E+00  0.2000E+01
     -8.814  0.0000E+00  0.2000E+01
     -8.772  0.0000E+00  0.2000E+01
     -8.731  0.0000E+00  0.2000E+01
     -8.689  0.0000E+00  0.2000E+01
     -8.648  0.0000E+00  0.2000E+01
     -8.606  0.0000E+00  0.2000E+01
     -8.565  0.0000E+00  0.2000E+01
     -8.523  0.0000E+00  0.2000E+01
     -8.482  0.0000E+00  0.2000E+01
     -8.440  0.0000E+00  0.2000E+01
     -8.398  0.0000E+00  0.2000E+01
     -8.357  0.0000E+00  0.2000E+01
     -8.315  0.0000E+00  0.2000E+01
     -8.274  0.0000E+00  0.2000E+01
     -8.232  0.0000E+00  0.2000E+01
     -8.191  0.0000E+00  0.2000E+01
     -8.149  0.0000E+00  0.2000E+01
     -8.108  0.0000E+00  0.2000E+01
     -8.066  0.0000E+00  0.2000E+01
     -8.025  0.0000E+00  0.2000E+01
     -7.983  0.0000E+00  0.2000E+01
     -7.942  0.0000E+00  0.2000E+01
     -7.900  0.0000E+00  0.2000E+01
     -7.859  0.0000E+00  0.2000E+01
     -7.817  0.0000E+00  0.2000E+01
     -7.776  0.0000E+00  0.2000E+01
     -7.734  0.0000E+00  0.2000E+01
     -7.693  0.0000E+00  0.2000E+01
     -7.651  0.0000E+00  0.2000E+01
     -7.609  0.0000E+00  0.2000E+01
     -7.568  0.0000E+00  0.2000E+01
     -7.526  0.0000E+00  0.2000E+01
     -7.485  0.0000E+00  0.2000E+01
     -7.443  0.0000E+00  0.2000E+01
     -7.402  0.0000E+00  0.2000E+01
     -7.360  0.0000E+00  0.2000E+01
     -7.319  0.0000E+00  0.2000E+01
     -7.277  0.0000E+00  0.2000E+01
     -7.236  0.0000E+00  0.2000E+01
     -7.194  0.0000E+00  0.2000E+01
     -7.153  0.0000E+00  0.2000E+01
     -7.111  0.0000E+00  0.2000E+01
     -7.070  0.0000E+00  0.2000E+01
     -7.028  0.0000E+00  0.2000E+01
     -6.987  0.0000E+00  0.2000E+01
     -6.945  0.0000E+00  0.2000E+01
     -6.903  0.0000E+00  0.2000E+01
     -6.862  0.0000E+00  0.2000E+01
     -6.820  0.0000E+00  0.2000E+01
     -6.779  0.0000E+00  0.2000E+01
     -6.737  0.0000E+00  0.2000E+01
     -6.696  0.0000E+00  0.2000E+01
     -6.654  0.0000E+00  0.2000E+01
     -6.613  0.0000E+00  0.2000E+01
     -6.571  0.0000E+00  0.2000E+01
     -6.530  0.0000E+00  0.2000E+01
     -6.488  0.0000E+00  0.2000E+01
     -6.447  0.0000E+00  0.2000E+01
     -6.405  0.0000E+00  0.2000E+01
     -6.364  0.0000E+00  0.2000E+01
     -6.322  0.0000E+00  0.2000E+01
     -6.281  0.0000E+00  0.2000E+01
     -6.239  0.0000E+00  0.2000E+01
     -6.198  0.0000E+00  0.2000E+01
     -6.156  0.0000E+00  0.2000E+01
     -6.114  0.0000E+00  0.2000E+01
     -6.073  0.0000E+00  0.2000E+01
     -6.031  0.0000E+00  0.2000E+01
     -5.990  0.0000E+00  0.2000E+01
     -5.948  0.0000E+00  0.2000E+01
     -5.907  0.0000E+00  0.2000E+01
     -5.865  0.0000E+00  0.2000E+01
     -5.824  0.0000E+00  0.2000E+01
     -5.782  0.0000E+00  0.2000E+01
     -5.741  0.0000E+00  0.2000E+01
     -5.699  0.0000E+00  0.2000E+01
     -5.658  0.0000E+00  0.2000E+01
     -5.616  0.0000E+00  0.2000E+01
     -5.575  0.0000E+00  0.2000E+01
     -5.533  0.0000E+00  0.2000E+01
     -5.492  0.0000E+00  0.2000E+01
     -5.450  0.0000E+00  0.2000E+01
     -5.409  0.0000E+00  0.2000E+01
     -5.367  0.0000E+00  0.2000E+01
     -5.325  0.0000E+00  0.2000E+01
     -5.284  0.0000E+00  0.2000E+01
     -5.242  0.0000E+00  0.2000E+01
     -5.201  0.0000E+00  0.2000E+01
     -5.159  0.0000E+00  0.2000E+01
     -5.118  0.0000E+00  0.2000E+01
     -5.076  0.0000E+00  0.2000E+01
     -5.035  0.0000E+00  0.2000E+01
     -4.993  0.0000E+00  0.2000E+01
     -4.952  0.0000E+00  0.2000E+01
     -4.910  0.0000E+00  0.2000E+01
     -4.869  0.0000E+00  0.2000E+01
     -4.827  0.0000E+00  0.2000E+01
     -4.786  0.0000E+00  0.2000E+01
     -4.744  0.0000E+00  0.2000E+01
     -4.703  0.0000E+00  0.2000E+01
     -4.661  0.0000E+00  0.2000E+01
     -4.620  0.0000E+00  0.2000E+01
     -4.578  0.0000E+00  0.2000E+01
     -4.536  0.0000E+00  0.2000E+01
     -4.495  0.0000E+00  0.2000E+01
     -4.453  0.0000E+00  0.2000E+01
     -4.412  0.0000E+00  0.2000E+01
     -4.370  0.0000E+00  0.2000E+01
     -4.329  0.0000E+00  0.2000E+01
     -4.287  0.0000E+00  0.2000E+01
     -4.246  0.0000E+00  0.2000E+01
     -4.204  0.0000E+00  0.2000E+01
     -4.163  0.0000E+00  0.2000E+01
     -4.121  0.0000E+00  0.2000E+01
     -4.080  0.0000E+00  0.2000E+01
     -4.038  0.0000E+00  0.2000E+01
     -3.997  0.0000E+00  0.2000E+01
     -3.955  0.0000E+00  0.2000E+01
     -3.914  0.0000E+00  0.2000E+01
     -3.872  0.0000E+00  0.2000E+01
     -3.831  0.2499E-10  0.2000E+01
     -3.789  0.7630E-07  0.2000E+01
     -3.747  0.6053E-04  0.2000E+01
     -3.706  0.1264E-01  0.2001E+01
     -3.664  0.7073E+00  0.2030E+01
     -3.623  0.1090E+02  0.2482E+01
     -3.581  0.4761E+02  0.4459E+01
     -3.540  0.6043E+02  0.6969E+01
     -3.498  0.2239E+02  0.7898E+01
     -3.457  0.2378E+01  0.7997E+01
     -3.415  0.7034E-01  0.8000E+01
     -3.374  0.5629E-03  0.8000E+01
     -3.332  0.1193E-05  0.8000E+01
     -3.291  0.6601E-09  0.8000E+01
     -3.249  0.9625E-13  0.8000E+01
     -3.208  0.0000E+00  0.8000E+01
     -3.166  0.0000E+00  0.8000E+01
     -3.125  0.0000E+00  0.8000E+01
     -3.083  0.0000E+00  0.8000E+01
     -3.042  0.0000E+00  0.8000E+01
     -3.000  0.0000E+00  0.8000E+01
     -2.958  0.0000E+00  0.8000E+01
     -2.917  0.0000E+00  0.8000E+01
     -2.875  0.0000E+00  0.8000E+01
     -2.834  0.0000E+00  0.8000E+01
     -2.792  0.0000E+00  0.8000E+01
     -2.751  0.0000E+00  0.8000E+01
     -2.709  0.0000E+00  0.8000E+01
     -2.668  0.0000E+00  0.8000E+01
     -2.626  0.0000E+00  0.8000E+01
     -2.585  0.0000E+00  0.8000E+01
     -2.543  0.0000E+00  0.8000E+01
     -2.502  0.0000E+00  0.8000E+01
     -2.460  0.0000E+00  0.8000E+01
     -2.419  0.0000E+00  0.8000E+01
     -2.377  0.0000E+00  0.8000E+01
     -2.336  0.0000E+00  0.8000E+01
     -2.294  0.0000E+00  0.8000E+01
     -2.252  0.0000E+00  0.8000E+01
     -2.211  0.0000E+00  0.8000E+01
     -2.169  0.0000E+00  0.8000E+01
     -2.128  0.0000E+00  0.8000E+01
     -2.086  0.0000E+00  0.8000E+01
     -2.045  0.0000E+00  0.8000E+01
     -2.003  0.0000E+00  0.8000E+01
     -1.962  0.0000E+00  0.8000E+01
     -1.920  0.0000E+00  0.8000E+01
     -1.879  0.0000E+00  0.8000E+01
     -1.837  0.0000E+00  0.8000E+01
     -1.796  0.0000E+00  0.8000E+01
     -1.754  0.0000E+00  0.8000E+01
     -1.713  0.0000E+00  0.8000E+01
     -1.671  0.0000E+00  0.8000E+01
     -1.630  0.0000E+00  0.8000E+01
     -1.588  0.0000E+00  0.8000E+01
     -1.547  0.0000E+00  0.8000E+01
     -1.505  0.0000E+00  0.8000E+01
     -1.463  0.0000E+00  0.8000E+01
     -1.422  0.0000E+00  0.8000E+01
     -1.380  0.0000E+00  0.8000E+01
     -1.339  0.0000E+00  0.8000E+01
     -1.297  0.0000E+00  0.8000E+01
     -1.256  0.0000E+00  0.8000E+01
     -1.214  0.0000E+00  0.8000E+01
     -1.173  0.0000E+00  0.8000E+01
     -1.131  0.0000E+00  0.8000E+01
     -1.090  0.0000E+00  0.8000E+01
     -1.048  0.0000E+00  0.8000E+01
     -1.007  0.0000E+00  0.8000E+01
     -0.965  0.0000E+00  0.8000E+01
     -0.924  0.0000E+00  0.8000E+01
     -0.882  0.0000E+00  0.8000E+01
     -0.841  0.0000E+00  0.8000E+01
     -0.799  0.0000E+00  0.8000E+01
     -0.758  0.0000E+00  0.8000E+01
     -0.716  0.0000E+00  0.8000E+01
     -0.674  0.0000E+00  0.8000E+01
     -0.633  0.0000E+00  0.8000E+01
     -0.591  0.0000E+00  0.8000E+01
     -0.550  0.4244E-16  0.8000E+01
     -0.508  0.6368E-12  0.8000E+01
     -0.467  0.1687E-08  0.8000E+01
     -0.425  0.1225E-05  0.8000E+01
     -0.384  0.2523E-03  0.8000E+01
     -0.342  0.1552E-01  0.8001E+01
     -0.301  0.3075E+00  0.8013E+01
     -0.259  0.2195E+01  0.8105E+01
     -0.218  0.6630E+01  0.8380E+01
     -0.176  0.1042E+02  0.8813E+01
     -0.135  0.1077E+02  0.9260E+01
     -0.093  0.9103E+01  0.9638E+01
     -0.052  0.5972E+01  0.9886E+01
     -0.010  0.2325E+01  0.9982E+01
      0.031  0.6576E+00  0.1001E+02
      0.073  0.1561E+01  0.1007E+02
      0.115  0.4803E+01  0.1027E+02
      0.156  0.9426E+01  0.1067E+02
      0.198  0.1345E+02  0.1122E+02
      0.239  0.1554E+02  0.1187E+02
      0.281  0.1588E+02  0.1253E+02
      0.322  0.1596E+02  0.1319E+02
      0.364  0.1625E+02  0.1387E+02
      0.405  0.1652E+02  0.1455E+02
      0.447  0.1743E+02  0.1528E+02
      0.488  0.1851E+02  0.1605E+02
      0.530  0.1860E+02  0.1682E+02
      0.571  0.1895E+02  0.1760E+02
      0.613  0.1988E+02  0.1843E+02
      0.654  0.2042E+02  0.1928E+02
      0.696  0.2098E+02  0.2015E+02
      0.737  0.2234E+02  0.2108E+02
      0.779  0.2266E+02  0.2202E+02
      0.820  0.2195E+02  0.2293E+02
      0.862  0.2321E+02  0.2389E+02
      0.904  0.2461E+02  0.2492E+02
      0.945  0.2441E+02  0.2593E+02
      0.987  0.2485E+02  0.2696E+02
      1.028  0.2599E+02  0.2804E+02
      1.070  0.2617E+02  0.2913E+02
      1.111  0.2619E+02  0.3021E+02
      1.153  0.2687E+02  0.3133E+02
      1.194  0.2782E+02  0.3249E+02
      1.236  0.2755E+02  0.3363E+02
      1.277  0.2759E+02  0.3478E+02
      1.319  0.2868E+02  0.3597E+02
      1.360  0.2883E+02  0.3716E+02
      1.402  0.2849E+02  0.3835E+02
      1.443  0.2940E+02  0.3957E+02
      1.485  0.3103E+02  0.4086E+02
      1.526  0.3030E+02  0.4211E+02
      1.568  0.2972E+02  0.4335E+02
      1.609  0.3026E+02  0.4461E+02
      1.651  0.2806E+02  0.4577E+02
      1.693  0.2164E+02  0.4667E+02
      1.734  0.1439E+02  0.4727E+02
      1.776  0.8546E+01  0.4762E+02
      1.817  0.4909E+01  0.4783E+02
      1.859  0.2629E+01  0.4794E+02
      1.900  0.1115E+01  0.4798E+02
      1.942  0.3539E+00  0.4800E+02
      1.983  0.7443E-01  0.4800E+02
      2.025  0.7203E-02  0.4800E+02
      2.066  0.2315E-03  0.4800E+02
      2.108  0.2134E-05  0.4800E+02
      2.149  0.5329E-08  0.4800E+02
      2.191  0.3519E-11  0.4800E+02
      2.232  0.5941E-15  0.4800E+02
      2.274  0.0000E+00  0.4800E+02
      2.315  0.0000E+00  0.4800E+02
      2.357  0.0000E+00  0.4800E+02
      2.399  0.0000E+00  0.4800E+02
      2.440  0.0000E+00  0.4800E+02
      2.482  0.0000E+00  0.4800E+02
