 running   24 mpi-ranks, with    1 threads/rank, on    1 nodes
 distrk:  each k-point on   24 cores,    1 groups
 distr:  one band on    1 cores,   24 groups
 vasp.6.4.3 19Mar24 (build May 31 2024 16:31:43) complex                        
  
 POSCAR found type information on POSCAR B 
 POSCAR found :  1 types and      14 ions
 Reading from existing POTCAR
 scaLAPACK will be used
 Reading from existing POTCAR
 LDA part: xc-table for (Slater+PW92), standard interpolation
 POSCAR, INCAR and KPOINTS ok, starting setup
 FFT: planning ... GRIDC
 FFT: planning ... GRID_SOFT
 FFT: planning ... GRID
 WAVECAR not read
 entering main loop
       N       E                     dE             d eps       ncg     rms          rms(c)
DAV:   1     0.166513242176E+03    0.16651E+03   -0.28284E+04120960   0.141E+03
DAV:   2    -0.873953119657E+02   -0.25391E+03   -0.23417E+03158736   0.218E+02
DAV:   3    -0.975850846575E+02   -0.10190E+02   -0.10089E+02181200   0.384E+01
DAV:   4    -0.976502207361E+02   -0.65136E-01   -0.65131E-01132744   0.350E+00
DAV:   5    -0.976508659883E+02   -0.64525E-03   -0.64524E-03181200   0.332E-01    0.123E+01
DAV:   6    -0.922363361397E+02    0.54145E+01   -0.39472E+00175104   0.658E+00    0.679E+00
DAV:   7    -0.905853049191E+02    0.16510E+01   -0.32098E+00180288   0.586E+00    0.172E+00
DAV:   8    -0.905963928959E+02   -0.11088E-01   -0.22985E-01132840   0.166E+00    0.751E-01
DAV:   9    -0.906110640351E+02   -0.14671E-01   -0.17589E-02170472   0.460E-01    0.206E-01
DAV:  10    -0.906154420096E+02   -0.43780E-02   -0.26268E-03133416   0.183E-01    0.665E-02
DAV:  11    -0.906166252642E+02   -0.11833E-02   -0.69299E-04159984   0.942E-02    0.337E-02
DAV:  12    -0.906167252192E+02   -0.99955E-04   -0.69606E-05150432   0.343E-02    0.655E-03
DAV:  13    -0.906167350160E+02   -0.97968E-05   -0.76933E-06166536   0.118E-02    0.205E-03
DAV:  14    -0.906167361099E+02   -0.10939E-05   -0.67597E-07153120   0.393E-03    0.713E-04
DAV:  15    -0.906167363070E+02   -0.19713E-06   -0.13093E-07145416   0.176E-03
