       N       E                     dE             d eps       ncg     rms          rms(c)
DAV:   1     0.152890780216E+03    0.15289E+03   -0.26909E+04 16800   0.131E+03
DAV:   2    -0.881629611134E+02   -0.24105E+03   -0.22279E+03 22008   0.210E+02
DAV:   3    -0.975983413096E+02   -0.94354E+01   -0.93509E+01 25152   0.367E+01
DAV:   4    -0.976575832261E+02   -0.59242E-01   -0.59238E-01 18504   0.333E+00
DAV:   5    -0.976581784686E+02   -0.59524E-03   -0.59523E-03 25200   0.318E-01    0.123E+01
DAV:   6    -0.922418818716E+02    0.54163E+01   -0.39491E+00 24312   0.659E+00    0.680E+00
DAV:   7    -0.905902135963E+02    0.16517E+01   -0.32191E+00 25152   0.587E+00    0.171E+00
DAV:   8    -0.906026928027E+02   -0.12479E-01   -0.23573E-01 18408   0.169E+00    0.704E-01
DAV:   9    -0.906168638637E+02   -0.14171E-01   -0.16948E-02 23568   0.442E-01    0.198E-01
DAV:  10    -0.906209132597E+02   -0.40494E-02   -0.20996E-03 19008   0.163E-01    0.610E-02
DAV:  11    -0.906219849968E+02   -0.10717E-02   -0.63175E-04 21696   0.889E-02    0.321E-02
DAV:  12    -0.906221007723E+02   -0.11578E-03   -0.93288E-05 20640   0.387E-02    0.429E-03
DAV:  13    -0.906221056942E+02   -0.49219E-05   -0.41959E-06 23616   0.944E-03    0.182E-03
DAV:  14    -0.906221063885E+02   -0.69423E-06   -0.29434E-07 20472   0.252E-03
   1 F= -.90622106E+02 E0= -.90620500E+02  d E =-.321363E-02
