  14  14   0   0
  0.2284057E+02  0.5700971E-09  0.6201871E-09  0.9044058E-09  0.5000000E-15
  1.000000000000000E-004
  CAR 
 Convergence                             
     10.07257930    -18.27143972  301     -2.38012367      1.00000000
    -18.271  0.0000E+00  0.0000E+00
    -18.177  0.0000E+00  0.0000E+00
    -18.082  0.0000E+00  0.0000E+00
    -17.988  0.0000E+00  0.0000E+00
    -17.894  0.0000E+00  0.0000E+00
    -17.799  0.0000E+00  0.0000E+00
    -17.705  0.0000E+00  0.0000E+00
    -17.610  0.0000E+00  0.0000E+00
    -17.516  0.0000E+00  0.0000E+00
    -17.421  0.0000E+00  0.0000E+00
    -17.327  0.0000E+00  0.0000E+00
    -17.232  0.5369E-12  0.5073E-13
    -17.138  0.4353E-05  0.4113E-06
    -17.043  0.4685E-01  0.4427E-02
    -16.949  0.2243E+01  0.2163E+00
    -16.854  0.5921E+01  0.7757E+00
    -16.760  0.4416E+01  0.1193E+01
    -16.665  0.3552E+01  0.1529E+01
    -16.571  0.2750E+01  0.1788E+01
    -16.476  0.2395E+01  0.2015E+01
    -16.382  0.3380E+01  0.2334E+01
    -16.287  0.1852E+01  0.2509E+01
    -16.193  0.3372E+01  0.2828E+01
    -16.098  0.3522E+01  0.3160E+01
    -16.004  0.4636E+01  0.3598E+01
    -15.909  0.3298E+01  0.3910E+01
    -15.815  0.9416E+00  0.3999E+01
    -15.720  0.1139E-01  0.4000E+01
    -15.626  0.4066E-06  0.4000E+01
    -15.532  0.1823E-13  0.4000E+01
    -15.437  0.0000E+00  0.4000E+01
    -15.343  0.0000E+00  0.4000E+01
    -15.248  0.0000E+00  0.4000E+01
    -15.154  0.0000E+00  0.4000E+01
    -15.059  0.0000E+00  0.4000E+01
    -14.965  0.0000E+00  0.4000E+01
    -14.870  0.0000E+00  0.4000E+01
    -14.776  0.0000E+00  0.4000E+01
    -14.681  0.0000E+00  0.4000E+01
    -14.587  0.0000E+00  0.4000E+01
    -14.492  0.0000E+00  0.4000E+01
    -14.398  0.0000E+00  0.4000E+01
    -14.303  0.0000E+00  0.4000E+01
    -14.209  0.0000E+00  0.4000E+01
    -14.114  0.0000E+00  0.4000E+01
    -14.020  0.0000E+00  0.4000E+01
    -13.925  0.0000E+00  0.4000E+01
    -13.831  0.0000E+00  0.4000E+01
    -13.736  0.0000E+00  0.4000E+01
    -13.642  0.0000E+00  0.4000E+01
    -13.547  0.0000E+00  0.4000E+01
    -13.453  0.0000E+00  0.4000E+01
    -13.358  0.9401E-15  0.4000E+01
    -13.264  0.6503E-07  0.4000E+01
    -13.170  0.4855E-02  0.4000E+01
    -13.075  0.1026E+01  0.4097E+01
    -12.981  0.5301E+01  0.4598E+01
    -12.886  0.9640E+01  0.5509E+01
    -12.792  0.6032E+01  0.6079E+01
    -12.697  0.4071E+01  0.6464E+01
    -12.603  0.6467E+01  0.7075E+01
    -12.508  0.5539E+01  0.7598E+01
    -12.414  0.2701E+01  0.7853E+01
    -12.319  0.1342E+01  0.7980E+01
    -12.225  0.2120E+00  0.8000E+01
    -12.130  0.2832E-03  0.8000E+01
    -12.036  0.4897E-09  0.8000E+01
    -11.941  0.0000E+00  0.8000E+01
    -11.847  0.0000E+00  0.8000E+01
    -11.752  0.0000E+00  0.8000E+01
    -11.658  0.0000E+00  0.8000E+01
    -11.563  0.0000E+00  0.8000E+01
    -11.469  0.0000E+00  0.8000E+01
    -11.374  0.5088E-12  0.8000E+01
    -11.280  0.4089E-05  0.8000E+01
    -11.185  0.3569E-01  0.8003E+01
    -11.091  0.7313E+00  0.8072E+01
    -10.996  0.2708E+00  0.8098E+01
    -10.902  0.9365E+00  0.8187E+01
    -10.808  0.1101E+01  0.8291E+01
    -10.713  0.8475E+00  0.8371E+01
    -10.619  0.1212E+01  0.8485E+01
    -10.524  0.1150E+01  0.8594E+01
    -10.430  0.2597E+01  0.8839E+01
    -10.335  0.5444E+01  0.9353E+01
    -10.241  0.2253E+01  0.9566E+01
    -10.146  0.2998E+01  0.9850E+01
    -10.052  0.1327E+01  0.9975E+01
     -9.957  0.2446E+01  0.1021E+02
     -9.863  0.3252E+01  0.1051E+02
     -9.768  0.2731E+01  0.1077E+02
     -9.674  0.2829E+01  0.1104E+02
     -9.579  0.2866E+01  0.1131E+02
     -9.485  0.3442E+01  0.1163E+02
     -9.390  0.1967E+01  0.1182E+02
     -9.296  0.3126E+01  0.1212E+02
     -9.201  0.3653E+01  0.1246E+02
     -9.107  0.5045E+01  0.1294E+02
     -9.012  0.6756E+01  0.1358E+02
     -8.918  0.4949E+01  0.1404E+02
     -8.823  0.3159E+01  0.1434E+02
     -8.729  0.5738E+01  0.1488E+02
     -8.634  0.3891E+01  0.1525E+02
     -8.540  0.3773E+01  0.1561E+02
     -8.446  0.3247E+01  0.1591E+02
     -8.351  0.6140E+01  0.1649E+02
     -8.257  0.4900E+01  0.1696E+02
     -8.162  0.3934E+01  0.1733E+02
     -8.068  0.5863E+01  0.1788E+02
     -7.973  0.2988E+01  0.1817E+02
     -7.879  0.3121E+01  0.1846E+02
     -7.784  0.3288E+01  0.1877E+02
     -7.690  0.1518E+01  0.1891E+02
     -7.595  0.2695E+01  0.1917E+02
     -7.501  0.3420E+01  0.1949E+02
     -7.406  0.9214E+00  0.1958E+02
     -7.312  0.2624E+01  0.1983E+02
     -7.217  0.3608E+01  0.2017E+02
     -7.123  0.1872E+01  0.2035E+02
     -7.028  0.3895E+00  0.2038E+02
     -6.934  0.2729E+01  0.2064E+02
     -6.839  0.3346E+01  0.2096E+02
     -6.745  0.4634E+01  0.2139E+02
     -6.650  0.1151E+01  0.2150E+02
     -6.556  0.1337E+01  0.2163E+02
     -6.461  0.2849E+01  0.2190E+02
     -6.367  0.1293E+01  0.2202E+02
     -6.272  0.1233E+01  0.2214E+02
     -6.178  0.4091E+01  0.2252E+02
     -6.084  0.3069E+01  0.2281E+02
     -5.989  0.2642E+01  0.2306E+02
     -5.895  0.3905E+01  0.2343E+02
     -5.800  0.2688E+01  0.2369E+02
     -5.706  0.2559E+01  0.2393E+02
     -5.611  0.4466E+01  0.2435E+02
     -5.517  0.5378E+01  0.2486E+02
     -5.422  0.5490E+01  0.2538E+02
     -5.328  0.5965E+01  0.2594E+02
     -5.233  0.7438E+01  0.2664E+02
     -5.139  0.6929E+01  0.2730E+02
     -5.044  0.6413E+01  0.2790E+02
     -4.950  0.9823E+01  0.2883E+02
     -4.855  0.7844E+01  0.2957E+02
     -4.761  0.5050E+01  0.3005E+02
     -4.666  0.5267E+01  0.3055E+02
     -4.572  0.3481E+01  0.3088E+02
     -4.477  0.4372E+01  0.3129E+02
     -4.383  0.2293E+01  0.3151E+02
     -4.288  0.2174E+01  0.3171E+02
     -4.194  0.6370E+01  0.3231E+02
     -4.099  0.9220E+01  0.3318E+02
     -4.005  0.2608E+01  0.3343E+02
     -3.910  0.4545E+01  0.3386E+02
     -3.816  0.6614E+01  0.3448E+02
     -3.722  0.5248E+01  0.3498E+02
     -3.627  0.4597E+01  0.3541E+02
     -3.533  0.4453E+01  0.3584E+02
     -3.438  0.4578E+01  0.3627E+02
     -3.344  0.4082E+01  0.3665E+02
     -3.249  0.4432E+01  0.3707E+02
     -3.155  0.5998E+01  0.3764E+02
     -3.060  0.3145E+01  0.3794E+02
     -2.966  0.3397E+01  0.3826E+02
     -2.871  0.2845E+01  0.3853E+02
     -2.777  0.3590E+01  0.3887E+02
     -2.682  0.8223E+01  0.3964E+02
     -2.588  0.6420E+01  0.4025E+02
     -2.493  0.6456E+01  0.4086E+02
     -2.399  0.9583E+01  0.4176E+02
     -2.304  0.1063E+02  0.4277E+02
     -2.210  0.1834E+01  0.4294E+02
     -2.115  0.1050E+01  0.4304E+02
     -2.021  0.2189E+01  0.4325E+02
     -1.926  0.1135E+01  0.4336E+02
     -1.832  0.2472E+00  0.4338E+02
     -1.737  0.5530E+00  0.4343E+02
     -1.643  0.3959E+00  0.4347E+02
     -1.548  0.6559E+00  0.4353E+02
     -1.454  0.2697E+00  0.4356E+02
     -1.360  0.9801E-01  0.4356E+02
     -1.265  0.9029E+00  0.4365E+02
     -1.171  0.1596E+01  0.4380E+02
     -1.076  0.2264E+00  0.4382E+02
     -0.982  0.1281E-03  0.4382E+02
     -0.887  0.1902E-04  0.4382E+02
     -0.793  0.7146E-01  0.4383E+02
     -0.698  0.7682E+00  0.4390E+02
     -0.604  0.1018E+00  0.4391E+02
     -0.509  0.2795E+00  0.4394E+02
     -0.415  0.6455E+00  0.4400E+02
     -0.320  0.1531E-01  0.4400E+02
     -0.226  0.1838E+00  0.4402E+02
     -0.131  0.2317E+01  0.4424E+02
     -0.037  0.3992E+01  0.4461E+02
      0.058  0.5468E+01  0.4513E+02
      0.152  0.6114E+01  0.4571E+02
      0.247  0.4063E+01  0.4609E+02
      0.341  0.3634E+01  0.4643E+02
      0.436  0.4773E+01  0.4689E+02
      0.530  0.4806E+01  0.4734E+02
      0.625  0.3790E+01  0.4770E+02
      0.719  0.3207E+01  0.4800E+02
      0.814  0.2002E+01  0.4819E+02
      0.908  0.2452E+01  0.4842E+02
      1.002  0.3146E+01  0.4872E+02
      1.097  0.2427E+01  0.4895E+02
      1.191  0.3059E+01  0.4924E+02
      1.286  0.1864E+01  0.4941E+02
      1.380  0.2580E+01  0.4966E+02
      1.475  0.2934E+01  0.4993E+02
      1.569  0.1762E+01  0.5010E+02
      1.664  0.3422E+01  0.5042E+02
      1.758  0.5414E+01  0.5094E+02
      1.853  0.4320E+01  0.5134E+02
      1.947  0.4357E+01  0.5176E+02
      2.042  0.4598E+01  0.5219E+02
      2.136  0.4624E+01  0.5263E+02
      2.231  0.6416E+01  0.5323E+02
      2.325  0.7518E+01  0.5394E+02
      2.420  0.4374E+01  0.5436E+02
      2.514  0.3221E+01  0.5466E+02
      2.609  0.4479E+01  0.5508E+02
      2.703  0.3179E+01  0.5538E+02
      2.798  0.4214E+01  0.5578E+02
      2.892  0.2147E+01  0.5599E+02
      2.987  0.3636E+01  0.5633E+02
      3.081  0.4142E+01  0.5672E+02
      3.176  0.5120E+01  0.5720E+02
      3.270  0.9093E+01  0.5806E+02
      3.364  0.1016E+02  0.5902E+02
      3.459  0.5931E+01  0.5958E+02
      3.553  0.7626E+01  0.6030E+02
      3.648  0.7921E+01  0.6105E+02
      3.742  0.4526E+01  0.6148E+02
      3.837  0.3240E+01  0.6179E+02
      3.931  0.4487E+01  0.6221E+02
      4.026  0.4036E+01  0.6259E+02
      4.120  0.4601E+01  0.6303E+02
      4.215  0.3964E+01  0.6340E+02
      4.309  0.5986E+01  0.6397E+02
      4.404  0.6549E+01  0.6458E+02
      4.498  0.6345E+01  0.6518E+02
      4.593  0.9914E+01  0.6612E+02
      4.687  0.6786E+01  0.6676E+02
      4.782  0.4550E+01  0.6719E+02
      4.876  0.7240E+01  0.6788E+02
      4.971  0.7562E+01  0.6859E+02
      5.065  0.8953E+01  0.6944E+02
      5.160  0.5266E+01  0.6993E+02
      5.254  0.7105E+01  0.7060E+02
      5.349  0.9666E+01  0.7152E+02
      5.443  0.8667E+01  0.7234E+02
      5.538  0.9144E+01  0.7320E+02
      5.632  0.7671E+01  0.7393E+02
      5.726  0.6337E+01  0.7452E+02
      5.821  0.6211E+01  0.7511E+02
      5.915  0.7118E+01  0.7578E+02
      6.010  0.7596E+01  0.7650E+02
      6.104  0.8050E+01  0.7726E+02
      6.199  0.7807E+01  0.7800E+02
      6.293  0.7978E+01  0.7875E+02
      6.388  0.8767E+01  0.7958E+02
      6.482  0.1063E+02  0.8059E+02
      6.577  0.9335E+01  0.8147E+02
      6.671  0.9467E+01  0.8236E+02
      6.766  0.1115E+02  0.8342E+02
      6.860  0.5699E+01  0.8395E+02
      6.955  0.6902E+01  0.8461E+02
      7.049  0.6218E+01  0.8519E+02
      7.144  0.5356E+01  0.8570E+02
      7.238  0.7860E+01  0.8644E+02
      7.333  0.6038E+01  0.8701E+02
      7.427  0.5111E+01  0.8750E+02
      7.522  0.7333E+01  0.8819E+02
      7.616  0.5850E+01  0.8874E+02
      7.711  0.6152E+01  0.8932E+02
      7.805  0.6520E+01  0.8994E+02
      7.900  0.9318E+01  0.9082E+02
      7.994  0.6078E+01  0.9139E+02
      8.088  0.7033E+01  0.9206E+02
      8.183  0.6098E+01  0.9263E+02
      8.277  0.5947E+01  0.9320E+02
      8.372  0.9132E+01  0.9406E+02
      8.466  0.8982E+01  0.9491E+02
      8.561  0.4506E+01  0.9533E+02
      8.655  0.3965E+01  0.9571E+02
      8.750  0.1966E+01  0.9589E+02
      8.844  0.1094E+01  0.9600E+02
      8.939  0.4278E-01  0.9600E+02
      9.033  0.5772E-05  0.9600E+02
      9.128  0.8714E-12  0.9600E+02
      9.222  0.0000E+00  0.9600E+02
      9.317  0.0000E+00  0.9600E+02
      9.411  0.0000E+00  0.9600E+02
      9.506  0.0000E+00  0.9600E+02
      9.600  0.0000E+00  0.9600E+02
      9.695  0.0000E+00  0.9600E+02
      9.789  0.0000E+00  0.9600E+02
      9.884  0.0000E+00  0.9600E+02
      9.978  0.0000E+00  0.9600E+02
     10.073  0.0000E+00  0.9600E+02
