   14   14    1    1
  0.2284057E+02  0.5700971E-09  0.6201871E-09  0.9044058E-09  0.5000000E-15
  1.000000000000000E-004
  CAR 
 Convergence                             
     42     25     48
 
  0.5000000E-01  0.0000000E+00  0.0000000E+00  0.2222222E-01
      1        -16.983075   1.000000
      2        -15.890395   1.000000
      3        -12.910109   1.000000
      4        -12.651947   1.000000
      5        -10.264279   1.000000
      6         -9.387697   1.000000
      7         -9.366112   1.000000
      8         -8.980759   1.000000
      9         -8.577297   1.000000
     10         -7.785962   1.000000
     11         -7.729770   1.000000
     12         -5.443544   1.000000
     13         -5.295840   1.000000
     14         -5.280679   1.000000
     15         -4.310420   1.000000
     16         -4.249964   1.000000
     17         -3.661572   1.000000
     18         -3.328646   1.000000
     19         -3.248967   1.000000
     20         -2.771762   1.000000
     21         -2.328926   0.073795
     22         -2.035472   0.000000
     23         -0.197669   0.000000
     24          0.689066   0.000000
     25          0.719265   0.000000
     26          0.842968   0.000000
     27          1.855995   0.000000
     28          2.210754   0.000000
     29          2.932047   0.000000
     30          3.285197   0.000000
     31          3.419590   0.000000
     32          4.325773   0.000000
     33          4.562821   0.000000
     34          4.875731   0.000000
     35          5.063155   0.000000
     36          5.103134   0.000000
     37          6.275549   0.000000
     38          6.433536   0.000000
     39          6.541373   0.000000
     40          6.919846   0.000000
     41          7.011252   0.000000
     42          7.139120   0.000000
     43          7.174839   0.000000
     44          7.296992   0.000000
     45          7.700627   0.000000
     46          7.710339   0.000000
     47          7.883445   0.000000
     48          7.944590   0.000000
 
  0.1500000E+00  0.0000000E+00  0.0000000E+00  0.2222222E-01
      1        -16.940792   1.000000
      2        -15.960012   1.000000
      3        -12.889749   1.000000
      4        -12.642305   1.000000
      5        -10.195884   1.000000
      6         -9.737739   1.000000
      7         -9.308291   1.000000
      8         -9.095086   1.000000
      9         -8.110973   1.000000
     10         -7.896492   1.000000
     11         -7.398897   1.000000
     12         -5.739443   1.000000
     13         -5.250073   1.000000
     14         -5.226163   1.000000
     15         -4.451663   1.000000
     16         -4.204238   1.000000
     17         -3.774550   1.000000
     18         -3.417230   1.000000
     19         -3.351974   1.000000
     20         -2.747835   1.000000
     21         -2.338283   0.118321
     22         -2.177779   0.000000
     23         -0.146916   0.000000
     24          0.658994   0.000000
     25          0.800423   0.000000
     26          1.187851   0.000000
     27          1.812985   0.000000
     28          2.325291   0.000000
     29          3.083580   0.000000
     30          3.242456   0.000000
     31          3.486050   0.000000
     32          4.077508   0.000000
     33          4.748951   0.000000
     34          5.068586   0.000000
     35          5.195273   0.000000
     36          5.227092   0.000000
     37          5.799729   0.000000
     38          6.085722   0.000000
     39          6.540806   0.000000
     40          6.736656   0.000000
     41          6.809222   0.000000
     42          6.810278   0.000000
     43          6.960165   0.000000
     44          7.304084   0.000000
     45          7.516834   0.000000
     46          7.763405   0.000000
     47          7.932676   0.000000
     48          8.463732   0.000000
 
  0.2500000E+00  0.0000000E+00  0.0000000E+00  0.2222222E-01
      1        -16.858103   1.000000
      2        -16.085919   1.000000
      3        -12.847045   1.000000
      4        -12.631323   1.000000
      5        -10.182063   1.000000
      6        -10.061608   1.000000
      7         -9.194805   1.000000
      8         -9.042048   1.000000
      9         -8.090583   1.000000
     10         -7.564923   1.000000
     11         -6.925029   1.000000
     12         -6.232830   1.000000
     13         -5.166002   1.000000
     14         -5.133452   1.000000
     15         -4.711321   1.000000
     16         -4.232708   1.000000
     17         -3.884496   1.000000
     18         -3.565458   1.000000
     19         -3.524068   1.000000
     20         -2.700259   1.000000
     21         -2.448495   0.973433
     22         -2.359611   0.280891
     23         -0.054400   0.000000
     24          0.585000   0.000000
     25          1.128086   0.000000
     26          1.675856   0.000000
     27          1.792311   0.000000
     28          2.403102   0.000000
     29          3.238054   0.000000
     30          3.318214   0.000000
     31          3.627744   0.000000
     32          3.852930   0.000000
     33          4.975454   0.000000
     34          5.121041   0.000000
     35          5.163056   0.000000
     36          5.324189   0.000000
     37          5.466958   0.000000
     38          5.504852   0.000000
     39          6.438572   0.000000
     40          6.565387   0.000000
     41          6.656528   0.000000
     42          6.855432   0.000000
     43          6.891590   0.000000
     44          6.979397   0.000000
     45          7.417296   0.000000
     46          7.896316   0.000000
     47          7.959625   0.000000
     48          8.673008   0.000000
 
  0.3500000E+00  0.0000000E+00  0.0000000E+00  0.2222222E-01
      1        -16.738998   1.000000
      2        -16.247059   1.000000
      3        -12.785195   1.000000
      4        -12.633422   1.000000
      5        -10.286898   1.000000
      6        -10.277333   1.000000
      7         -9.030272   1.000000
      8         -8.707659   1.000000
      9         -8.330822   1.000000
     10         -7.160331   1.000000
     11         -6.680410   1.000000
     12         -6.430153   1.000000
     13         -5.062780   1.000000
     14         -5.039600   1.000000
     15         -5.031835   1.000000
     16         -4.553942   1.000000
     17         -3.747567   1.000000
     18         -3.725155   1.000000
     19         -3.707370   1.000000
     20         -2.791901   1.000000
     21         -2.632874   1.000000
     22         -2.408532   0.789162
     23          0.067233   0.000000
     24          0.476807   0.000000
     25          1.658856   0.000000
     26          1.844114   0.000000
     27          2.261288   0.000000
     28          2.321328   0.000000
     29          3.329338   0.000000
     30          3.401579   0.000000
     31          3.682715   0.000000
     32          3.849465   0.000000
     33          4.369798   0.000000
     34          4.829113   0.000000
     35          5.042726   0.000000
     36          5.284171   0.000000
     37          5.377821   0.000000
     38          6.000704   0.000000
     39          6.323541   0.000000
     40          6.338930   0.000000
     41          6.476942   0.000000
     42          6.708256   0.000000
     43          6.910409   0.000000
     44          7.242514   0.000000
     45          7.642757   0.000000
     46          7.848540   0.000000
     47          7.856123   0.000000
     48          8.414117   0.000000
 
  0.4500000E+00  0.0000000E+00  0.0000000E+00  0.2222222E-01
      1        -16.590090   1.000000
      2        -16.421375   1.000000
      3        -12.717066   1.000000
      4        -12.661731   1.000000
      5        -10.390391   1.000000
      6        -10.374991   1.000000
      7         -8.822435   1.000000
      8         -8.583317   1.000000
      9         -8.192041   1.000000
     10         -7.597211   1.000000
     11         -6.367510   1.000000
     12         -6.126171   1.000000
     13         -5.247007   1.000000
     14         -4.980885   1.000000
     15         -4.979118   1.000000
     16         -4.965727   1.000000
     17         -3.834289   1.000000
     18         -3.830710   1.000000
     19         -3.485066   1.000000
     20         -3.154956   1.000000
     21         -2.554264   1.000000
     22         -2.475719   0.996573
     23          0.205045   0.000000
     24          0.345991   0.000000
     25          1.971702   0.000000
     26          2.147689   0.000000
     27          2.322666   0.000000
     28          2.912674   0.000000
     29          2.998298   0.000000
     30          3.446451   0.000000
     31          3.556751   0.000000
     32          3.615973   0.000000
     33          4.143692   0.000000
     34          4.485272   0.000000
     35          5.192942   0.000000
     36          5.371632   0.000000
     37          5.373763   0.000000
     38          5.707730   0.000000
     39          6.446346   0.000000
     40          6.469314   0.000000
     41          6.482614   0.000000
     42          6.569521   0.000000
     43          7.251476   0.000000
     44          7.269711   0.000000
     45          7.675958   0.000000
     46          7.958694   0.000000
     47          7.965920   0.000000
     48          8.253601   0.000000
 
  0.5000000E-01  0.1111111E+00  0.0000000E+00  0.4444444E-01
      1        -16.972673   1.000000
      2        -15.909179   1.000000
      3        -12.908416   1.000000
      4        -12.619814   1.000000
      5        -10.400913   1.000000
      6         -9.525756   1.000000
      7         -9.344307   1.000000
      8         -8.798529   1.000000
      9         -8.433666   1.000000
     10         -7.843618   1.000000
     11         -7.612614   1.000000
     12         -5.497262   1.000000
     13         -5.300696   1.000000
     14         -5.171470   1.000000
     15         -4.472067   1.000000
     16         -4.288428   1.000000
     17         -3.888035   1.000000
     18         -3.450301   1.000000
     19         -3.262036   1.000000
     20         -2.779684   1.000000
     21         -2.318001   0.039450
     22         -1.745912   0.000000
     23         -0.175309   0.000000
     24          0.692413   0.000000
     25          0.758843   0.000000
     26          0.946449   0.000000
     27          1.671937   0.000000
     28          2.208003   0.000000
     29          3.043446   0.000000
     30          3.308688   0.000000
     31          3.612955   0.000000
     32          4.346014   0.000000
     33          4.560551   0.000000
     34          4.771463   0.000000
     35          5.138763   0.000000
     36          5.236894   0.000000
     37          6.091337   0.000000
     38          6.335382   0.000000
     39          6.401454   0.000000
     40          6.537147   0.000000
     41          6.949456   0.000000
     42          7.021821   0.000000
     43          7.304896   0.000000
     44          7.353488   0.000000
     45          7.618838   0.000000
     46          7.667943   0.000000
     47          7.842724   0.000000
     48          8.095025   0.000000
 
  0.1500000E+00  0.1111111E+00  0.0000000E+00  0.4444444E-01
      1        -16.930844   1.000000
      2        -15.975044   1.000000
      3        -12.912492   1.000000
      4        -12.601880   1.000000
      5        -10.371863   1.000000
      6         -9.631981   1.000000
      7         -9.287204   1.000000
      8         -9.044771   1.000000
      9         -8.050511   1.000000
     10         -7.939993   1.000000
     11         -7.272705   1.000000
     12         -5.789537   1.000000
     13         -5.367500   1.000000
     14         -5.028873   1.000000
     15         -4.532859   1.000000
     16         -4.310632   1.000000
     17         -3.962740   1.000000
     18         -3.642930   1.000000
     19         -3.213221   1.000000
     20         -2.752036   1.000000
     21         -2.332526   0.089107
     22         -1.949695   0.000000
     23         -0.134437   0.000000
     24          0.648276   0.000000
     25          0.859542   0.000000
     26          1.233844   0.000000
     27          1.662039   0.000000
     28          2.395966   0.000000
     29          3.214926   0.000000
     30          3.279129   0.000000
     31          3.595160   0.000000
     32          4.072318   0.000000
     33          4.631800   0.000000
     34          4.986403   0.000000
     35          5.277701   0.000000
     36          5.480563   0.000000
     37          5.531120   0.000000
     38          6.007518   0.000000
     39          6.494767   0.000000
     40          6.518056   0.000000
     41          6.694620   0.000000
     42          6.888379   0.000000
     43          6.949745   0.000000
     44          7.417088   0.000000
     45          7.532155   0.000000
     46          7.643622   0.000000
     47          7.983820   0.000000
     48          8.336627   0.000000
 
  0.2500000E+00  0.1111111E+00  0.0000000E+00  0.4444444E-01
      1        -16.849123   1.000000
      2        -16.095196   1.000000
      3        -12.896446   1.000000
      4        -12.595490   1.000000
      5        -10.386410   1.000000
      6         -9.773306   1.000000
      7         -9.175311   1.000000
      8         -9.078038   1.000000
      9         -8.114809   1.000000
     10         -7.567936   1.000000
     11         -6.828643   1.000000
     12         -6.253057   1.000000
     13         -5.362534   1.000000
     14         -4.916970   1.000000
     15         -4.785881   1.000000
     16         -4.200550   1.000000
     17         -4.129583   1.000000
     18         -3.815385   1.000000
     19         -3.272070   1.000000
     20         -2.703205   1.000000
     21         -2.363973   0.323906
     22         -2.308337   0.021157
     23         -0.051665   0.000000
     24          0.570971   0.000000
     25          1.176782   0.000000
     26          1.651338   0.000000
     27          1.718030   0.000000
     28          2.561942   0.000000
     29          3.219064   0.000000
     30          3.480428   0.000000
     31          3.625279   0.000000
     32          3.900661   0.000000
     33          4.787492   0.000000
     34          4.891111   0.000000
     35          5.011677   0.000000
     36          5.429391   0.000000
     37          5.603527   0.000000
     38          5.646798   0.000000
     39          6.401244   0.000000
     40          6.474270   0.000000
     41          6.688504   0.000000
     42          6.741597   0.000000
     43          6.795979   0.000000
     44          7.082760   0.000000
     45          7.598080   0.000000
     46          7.600948   0.000000
     47          8.088816   0.000000
     48          8.572646   0.000000
 
  0.3500000E+00  0.1111111E+00  0.0000000E+00  0.4444444E-01
      1        -16.731627   1.000000
      2        -16.250518   1.000000
      3        -12.847227   1.000000
      4        -12.623594   1.000000
      5        -10.408488   1.000000
      6        -10.001749   1.000000
      7         -9.013605   1.000000
      8         -8.759191   1.000000
      9         -8.338351   1.000000
     10         -7.201786   1.000000
     11         -6.790026   1.000000
     12         -6.277454   1.000000
     13         -5.286219   1.000000
     14         -5.091847   1.000000
     15         -4.904945   1.000000
     16         -4.478443   1.000000
     17         -3.931603   1.000000
     18         -3.872651   1.000000
     19         -3.419961   1.000000
     20         -2.774763   1.000000
     21         -2.613862   1.000000
     22         -2.410081   0.801590
     23          0.064728   0.000000
     24          0.465144   0.000000
     25          1.688423   0.000000
     26          1.854531   0.000000
     27          2.149361   0.000000
     28          2.501830   0.000000
     29          3.268477   0.000000
     30          3.573384   0.000000
     31          3.574360   0.000000
     32          3.983643   0.000000
     33          4.213005   0.000000
     34          4.807288   0.000000
     35          5.027814   0.000000
     36          5.041130   0.000000
     37          5.529037   0.000000
     38          5.927020   0.000000
     39          6.321323   0.000000
     40          6.482200   0.000000
     41          6.596918   0.000000
     42          6.626711   0.000000
     43          6.696092   0.000000
     44          7.159907   0.000000
     45          7.542612   0.000000
     46          7.826209   0.000000
     47          8.274202   0.000000
     48          8.384302   0.000000
 
  0.4500000E+00  0.1111111E+00  0.0000000E+00  0.4444444E-01
      1        -16.585174   1.000000
      2        -16.420016   1.000000
      3        -12.771086   1.000000
      4        -12.688059   1.000000
      5        -10.358855   1.000000
      6        -10.216712   1.000000
      7         -8.810483   1.000000
      8         -8.579003   1.000000
      9         -8.247208   1.000000
     10         -7.656279   1.000000
     11         -6.445855   1.000000
     12         -6.128457   1.000000
     13         -5.185238   1.000000
     14         -5.156256   1.000000
     15         -5.007875   1.000000
     16         -4.870203   1.000000
     17         -3.783005   1.000000
     18         -3.609819   1.000000
     19         -3.608896   1.000000
     20         -3.211638   1.000000
     21         -2.548629   0.999999
     22         -2.474430   0.996178
     23          0.199560   0.000000
     24          0.337587   0.000000
     25          2.055197   0.000000
     26          2.289475   0.000000
     27          2.313867   0.000000
     28          2.615023   0.000000
     29          3.257682   0.000000
     30          3.377277   0.000000
     31          3.476613   0.000000
     32          3.528789   0.000000
     33          4.230761   0.000000
     34          4.528615   0.000000
     35          5.226462   0.000000
     36          5.278572   0.000000
     37          5.373561   0.000000
     38          5.835373   0.000000
     39          6.093232   0.000000
     40          6.356659   0.000000
     41          6.378611   0.000000
     42          6.458838   0.000000
     43          7.241226   0.000000
     44          7.723077   0.000000
     45          7.780100   0.000000
     46          7.892634   0.000000
     47          8.118964   0.000000
     48          8.201248   0.000000
 
  0.5000000E-01  0.2222222E+00  0.0000000E+00  0.4444444E-01
      1        -16.944818   1.000000
      2        -15.957979   1.000000
      3        -12.900729   1.000000
      4        -12.535551   1.000000
      5        -10.680743   1.000000
      6         -9.751231   1.000000
      7         -9.283180   1.000000
      8         -8.445185   1.000000
      9         -8.115698   1.000000
     10         -7.988672   1.000000
     11         -7.288782   1.000000
     12         -5.638806   1.000000
     13         -5.233123   1.000000
     14         -5.013516   1.000000
     15         -4.957429   1.000000
     16         -4.376413   1.000000
     17         -4.206170   1.000000
     18         -3.685000   1.000000
     19         -3.383430   1.000000
     20         -2.763624   1.000000
     21         -2.326042   0.063052
     22         -1.206973   0.000000
     23         -0.110151   0.000000
     24          0.621714   0.000000
     25          0.845553   0.000000
     26          1.336928   0.000000
     27          1.351225   0.000000
     28          2.174008   0.000000
     29          3.350834   0.000000
     30          3.355430   0.000000
     31          3.978019   0.000000
     32          4.264172   0.000000
     33          4.562665   0.000000
     34          4.852199   0.000000
     35          5.314842   0.000000
     36          5.328513   0.000000
     37          5.369376   0.000000
     38          5.987762   0.000000
     39          6.199803   0.000000
     40          6.386241   0.000000
     41          6.727296   0.000000
     42          6.972455   0.000000
     43          7.373327   0.000000
     44          7.383144   0.000000
     45          7.499119   0.000000
     46          7.634474   0.000000
     47          7.861093   0.000000
     48          8.238112   0.000000
 
  0.1500000E+00  0.2222222E+00  0.0000000E+00  0.4444444E-01
      1        -16.904231   1.000000
      2        -16.014561   1.000000
      3        -12.945168   1.000000
      4        -12.525741   1.000000
      5        -10.618076   1.000000
      6         -9.674712   1.000000
      7         -9.228166   1.000000
      8         -8.764833   1.000000
      9         -8.054132   1.000000
     10         -7.858926   1.000000
     11         -6.985128   1.000000
     12         -5.913583   1.000000
     13         -5.398700   1.000000
     14         -4.936370   1.000000
     15         -4.798670   1.000000
     16         -4.560555   1.000000
     17         -4.139019   1.000000
     18         -3.893517   1.000000
     19         -3.186021   1.000000
     20         -2.736051   1.000000
     21         -2.342952   0.146542
     22         -1.568322   0.000000
     23         -0.088065   0.000000
     24          0.591529   0.000000
     25          0.986552   0.000000
     26          1.447608   0.000000
     27          1.491485   0.000000
     28          2.422666   0.000000
     29          3.319271   0.000000
     30          3.565563   0.000000
     31          3.848827   0.000000
     32          4.071299   0.000000
     33          4.551365   0.000000
     34          4.867990   0.000000
     35          4.878089   0.000000
     36          5.460911   0.000000
     37          5.814392   0.000000
     38          5.815715   0.000000
     39          6.262650   0.000000
     40          6.380461   0.000000
     41          6.681744   0.000000
     42          6.690853   0.000000
     43          7.005688   0.000000
     44          7.245258   0.000000
     45          7.462809   0.000000
     46          7.749798   0.000000
     47          8.157969   0.000000
     48          8.306707   0.000000
 
  0.2500000E+00  0.2222222E+00  0.0000000E+00  0.4444444E-01
      1        -16.825158   1.000000
      2        -16.120078   1.000000
      3        -12.973391   1.000000
      4        -12.560728   1.000000
      5        -10.510585   1.000000
      6         -9.518065   1.000000
      7         -9.120937   1.000000
      8         -9.059740   1.000000
      9         -8.182548   1.000000
     10         -7.495630   1.000000
     11         -6.773139   1.000000
     12         -6.188707   1.000000
     13         -5.493942   1.000000
     14         -4.937957   1.000000
     15         -4.812756   1.000000
     16         -4.652568   1.000000
     17         -4.148280   1.000000
     18         -3.914278   1.000000
     19         -3.097129   1.000000
     20         -2.688255   1.000000
     21         -2.378060   0.476722
     22         -2.126910   0.000000
     23         -0.032991   0.000000
     24          0.524579   0.000000
     25          1.298021   0.000000
     26          1.669665   0.000000
     27          1.720867   0.000000
     28          2.723406   0.000000
     29          3.197765   0.000000
     30          3.664265   0.000000
     31          3.848403   0.000000
     32          4.032883   0.000000
     33          4.384419   0.000000
     34          4.525442   0.000000
     35          4.985489   0.000000
     36          5.353353   0.000000
     37          5.647062   0.000000
     38          5.897802   0.000000
     39          6.192801   0.000000
     40          6.446651   0.000000
     41          6.544414   0.000000
     42          6.606988   0.000000
     43          6.885254   0.000000
     44          7.086910   0.000000
     45          7.457278   0.000000
     46          7.859879   0.000000
     47          8.309666   0.000000
     48          8.415898   0.000000
 
  0.3500000E+00  0.2222222E+00  0.0000000E+00  0.4444444E-01
      1        -16.712077   1.000000
      2        -16.260180   1.000000
      3        -12.952040   1.000000
      4        -12.651170   1.000000
      5        -10.360602   1.000000
      6         -9.625209   1.000000
      7         -8.967568   1.000000
      8         -8.907036   1.000000
      9         -8.361849   1.000000
     10         -7.318670   1.000000
     11         -6.909716   1.000000
     12         -6.073863   1.000000
     13         -5.489953   1.000000
     14         -5.100432   1.000000
     15         -4.999298   1.000000
     16         -4.521546   1.000000
     17         -4.176177   1.000000
     18         -3.741262   1.000000
     19         -3.142366   1.000000
     20         -2.796728   1.000000
     21         -2.589332   1.000000
     22         -2.412301   0.818615
     23          0.061186   0.000000
     24          0.428164   0.000000
     25          1.768707   0.000000
     26          1.984750   0.000000
     27          1.991734   0.000000
     28          2.803114   0.000000
     29          3.124572   0.000000
     30          3.492179   0.000000
     31          3.653051   0.000000
     32          4.101672   0.000000
     33          4.178290   0.000000
     34          4.591734   0.000000
     35          4.959430   0.000000
     36          5.091630   0.000000
     37          5.543708   0.000000
     38          5.839599   0.000000
     39          6.071869   0.000000
     40          6.327300   0.000000
     41          6.408084   0.000000
     42          6.725441   0.000000
     43          6.843318   0.000000
     44          7.138888   0.000000
     45          7.799697   0.000000
     46          8.020165   0.000000
     47          8.105858   0.000000
     48          8.684788   0.000000
 
  0.4500000E+00  0.2222222E+00  0.0000000E+00  0.4444444E-01
      1        -16.572356   1.000000
      2        -16.416837   1.000000
      3        -12.878654   1.000000
      4        -12.769009   1.000000
      5        -10.158762   1.000000
      6         -9.905385   1.000000
      7         -8.778369   1.000000
      8         -8.569133   1.000000
      9         -8.417364   1.000000
     10         -7.839735   1.000000
     11         -6.535884   1.000000
     12         -6.176013   1.000000
     13         -5.390559   1.000000
     14         -5.215754   1.000000
     15         -4.983405   1.000000
     16         -4.690151   1.000000
     17         -3.875291   1.000000
     18         -3.510794   1.000000
     19         -3.373390   1.000000
     20         -3.295395   1.000000
     21         -2.536557   0.999995
     22         -2.471184   0.994996
     23          0.182276   0.000000
     24          0.310240   0.000000
     25          2.273927   0.000000
     26          2.283571   0.000000
     27          2.316494   0.000000
     28          2.574843   0.000000
     29          3.224903   0.000000
     30          3.297999   0.000000
     31          3.347881   0.000000
     32          3.527030   0.000000
     33          4.408665   0.000000
     34          4.596338   0.000000
     35          4.993492   0.000000
     36          5.209093   0.000000
     37          5.504745   0.000000
     38          5.940252   0.000000
     39          5.982746   0.000000
     40          6.099241   0.000000
     41          6.229244   0.000000
     42          6.261821   0.000000
     43          7.177966   0.000000
     44          7.492213   0.000000
     45          7.913906   0.000000
     46          8.375467   0.000000
     47          8.378532   0.000000
     48          8.598928   0.000000
 
  0.5000000E-01  0.3333333E+00  0.0000000E+00  0.4444444E-01
      1        -16.909932   1.000000
      2        -16.016177   1.000000
      3        -12.887926   1.000000
      4        -12.428361   1.000000
      5        -10.951776   1.000000
      6         -9.935623   1.000000
      7         -9.198815   1.000000
      8         -8.158885   1.000000
      9         -8.098311   1.000000
     10         -7.704796   1.000000
     11         -6.843046   1.000000
     12         -5.811846   1.000000
     13         -5.649329   1.000000
     14         -5.118447   1.000000
     15         -4.877314   1.000000
     16         -4.693639   1.000000
     17         -4.193221   1.000000
     18         -3.926414   1.000000
     19         -3.601133   1.000000
     20         -2.724950   1.000000
     21         -2.355650   0.244402
     22         -0.741975   0.000000
     23         -0.014924   0.000000
     24          0.521511   0.000000
     25          0.934419   0.000000
     26          1.109475   0.000000
     27          1.941978   0.000000
     28          2.118674   0.000000
     29          3.405676   0.000000
     30          3.781334   0.000000
     31          4.080604   0.000000
     32          4.296385   0.000000
     33          4.428319   0.000000
     34          4.652805   0.000000
     35          4.979934   0.000000
     36          5.368709   0.000000
     37          5.544617   0.000000
     38          5.575867   0.000000
     39          6.083729   0.000000
     40          6.167842   0.000000
     41          6.652861   0.000000
     42          6.907823   0.000000
     43          7.141259   0.000000
     44          7.469576   0.000000
     45          7.633247   0.000000
     46          7.847608   0.000000
     47          8.025623   0.000000
     48          8.321979   0.000000
 
  0.1500000E+00  0.3333333E+00  0.0000000E+00  0.4444444E-01
      1        -16.870960   1.000000
      2        -16.062509   1.000000
      3        -12.960356   1.000000
      4        -12.464614   1.000000
      5        -10.789851   1.000000
      6         -9.826316   1.000000
      7         -9.146903   1.000000
      8         -8.373489   1.000000