  14  14   0   0
  0.1021960E+02  0.5697000E-09  0.4047900E-09  0.6204200E-09  0.5000000E-15
  1.000000000000000E-004
  CAR 
 Kpoints                                 
     18.04466638    -14.19012598  301      1.85857154      1.00000000
    -14.190  0.0000E+00  0.0000E+00
    -14.083  0.0000E+00  0.0000E+00
    -13.975  0.0000E+00  0.0000E+00
    -13.868  0.0000E+00  0.0000E+00
    -13.760  0.0000E+00  0.0000E+00
    -13.653  0.0000E+00  0.0000E+00
    -13.545  0.0000E+00  0.0000E+00
    -13.438  0.0000E+00  0.0000E+00
    -13.331  0.0000E+00  0.0000E+00
    -13.223  0.0000E+00  0.0000E+00
    -13.116  0.0000E+00  0.0000E+00
    -13.008  0.3355E-16  0.3605E-17
    -12.901  0.2483E-07  0.2667E-08
    -12.793  0.3670E-02  0.3943E-03
    -12.686  0.5035E+00  0.5449E-01
    -12.578  0.2407E+01  0.3131E+00
    -12.471  0.3596E+01  0.6995E+00
    -12.363  0.4257E+01  0.1157E+01
    -12.256  0.3697E+01  0.1554E+01
    -12.149  0.2482E+01  0.1821E+01
    -12.041  0.3123E+01  0.2156E+01
    -11.934  0.2065E+01  0.2378E+01
    -11.826  0.3211E+01  0.2723E+01
    -11.719  0.3043E+01  0.3050E+01
    -11.611  0.3788E+01  0.3457E+01
    -11.504  0.2994E+01  0.3779E+01
    -11.396  0.1643E+01  0.3956E+01
    -11.289  0.4078E+00  0.3999E+01
    -11.182  0.5283E-02  0.4000E+01
    -11.074  0.7012E-07  0.4000E+01
    -10.967  0.1610E-15  0.4000E+01
    -10.859  0.0000E+00  0.4000E+01
    -10.752  0.0000E+00  0.4000E+01
    -10.644  0.0000E+00  0.4000E+01
    -10.537  0.0000E+00  0.4000E+01
    -10.429  0.0000E+00  0.4000E+01
    -10.322  0.0000E+00  0.4000E+01
    -10.215  0.0000E+00  0.4000E+01
    -10.107  0.0000E+00  0.4000E+01
    -10.000  0.0000E+00  0.4000E+01
     -9.892  0.0000E+00  0.4000E+01
     -9.785  0.0000E+00  0.4000E+01
     -9.677  0.0000E+00  0.4000E+01
     -9.570  0.0000E+00  0.4000E+01
     -9.462  0.0000E+00  0.4000E+01
     -9.355  0.0000E+00  0.4000E+01
     -9.247  0.0000E+00  0.4000E+01
     -9.140  0.0000E+00  0.4000E+01
     -9.033  0.1855E-08  0.4000E+01
     -8.925  0.1067E-02  0.4000E+01
     -8.818  0.3467E+00  0.4037E+01
     -8.710  0.2289E+01  0.4283E+01
     -8.603  0.5580E+01  0.4883E+01
     -8.495  0.6967E+01  0.5631E+01
     -8.388  0.6208E+01  0.6299E+01
     -8.280  0.5153E+01  0.6852E+01
     -8.173  0.5026E+01  0.7392E+01
     -8.066  0.3486E+01  0.7767E+01
     -7.958  0.1645E+01  0.7944E+01
     -7.851  0.4930E+00  0.7997E+01
     -7.743  0.3126E-01  0.8000E+01
     -7.636  0.2789E-05  0.8000E+01
     -7.528  0.4235E-13  0.8000E+01
     -7.421  0.0000E+00  0.8000E+01
     -7.313  0.0000E+00  0.8000E+01
     -7.206  0.0000E+00  0.8000E+01
     -7.098  0.1327E-10  0.8000E+01
     -6.991  0.6548E-04  0.8000E+01
     -6.884  0.9206E-01  0.8010E+01
     -6.776  0.4248E+00  0.8056E+01
     -6.669  0.3143E+00  0.8089E+01
     -6.561  0.7243E+00  0.8167E+01
     -6.454  0.9414E+00  0.8268E+01
     -6.346  0.1653E+01  0.8446E+01
     -6.239  0.1956E+01  0.8656E+01
     -6.131  0.3328E+01  0.9014E+01
     -6.024  0.3655E+01  0.9406E+01
     -5.917  0.4110E+01  0.9848E+01
     -5.809  0.3824E+01  0.1026E+02
     -5.702  0.4374E+01  0.1073E+02
     -5.594  0.3961E+01  0.1115E+02
     -5.487  0.4502E+01  0.1164E+02
     -5.379  0.3980E+01  0.1207E+02
     -5.272  0.5105E+01  0.1261E+02
     -5.164  0.3982E+01  0.1304E+02
     -5.057  0.3635E+01  0.1343E+02
     -4.949  0.3650E+01  0.1383E+02
     -4.842  0.2839E+01  0.1413E+02
     -4.735  0.2344E+01  0.1438E+02
     -4.627  0.3125E+01  0.1472E+02
     -4.520  0.3380E+01  0.1508E+02
     -4.412  0.3150E+01  0.1542E+02
     -4.305  0.2675E+01  0.1571E+02
     -4.197  0.3275E+01  0.1606E+02
     -4.090  0.3306E+01  0.1641E+02
     -3.982  0.3079E+01  0.1675E+02
     -3.875  0.3721E+01  0.1714E+02
     -3.768  0.2426E+01  0.1741E+02
     -3.660  0.1923E+01  0.1761E+02
     -3.553  0.2545E+01  0.1789E+02
     -3.445  0.3209E+01  0.1823E+02
     -3.338  0.3161E+01  0.1857E+02
     -3.230  0.3718E+01  0.1897E+02
     -3.123  0.2574E+01  0.1925E+02
     -3.015  0.2366E+01  0.1950E+02
     -2.908  0.2210E+01  0.1974E+02
     -2.800  0.2817E+01  0.2004E+02
     -2.693  0.3063E+01  0.2037E+02
     -2.586  0.2565E+01  0.2065E+02
     -2.478  0.3181E+01  0.2099E+02
     -2.371  0.3385E+01  0.2135E+02
     -2.263  0.3951E+01  0.2178E+02
     -2.156  0.3378E+01  0.2214E+02
     -2.048  0.3029E+01  0.2246E+02
     -1.941  0.2582E+01  0.2274E+02
     -1.833  0.6504E+01  0.2344E+02
     -1.726  0.4517E+01  0.2393E+02
     -1.619  0.7183E+01  0.2470E+02
     -1.511  0.7095E+01  0.2546E+02
     -1.404  0.5359E+01  0.2604E+02
     -1.296  0.5230E+01  0.2660E+02
     -1.189  0.3976E+01  0.2702E+02
     -1.081  0.5487E+01  0.2761E+02
     -0.974  0.3941E+01  0.2804E+02
     -0.866  0.3488E+01  0.2841E+02
     -0.759  0.2766E+01  0.2871E+02
     -0.652  0.3579E+01  0.2909E+02
     -0.544  0.4610E+01  0.2959E+02
     -0.437  0.5041E+01  0.3013E+02
     -0.329  0.6893E+01  0.3087E+02
     -0.222  0.6322E+01  0.3155E+02
     -0.114  0.7244E+01  0.3233E+02
     -0.007  0.7671E+01  0.3315E+02
      0.101  0.4947E+01  0.3368E+02
      0.208  0.7024E+01  0.3444E+02
      0.316  0.9023E+01  0.3541E+02
      0.423  0.8584E+01  0.3633E+02
      0.530  0.7850E+01  0.3717E+02
      0.638  0.4174E+01  0.3762E+02
      0.745  0.2523E+01  0.3789E+02
      0.853  0.3003E+01  0.3822E+02
      0.960  0.4459E+01  0.3870E+02
      1.068  0.3951E+01  0.3912E+02
      1.175  0.3393E+01  0.3949E+02
      1.283  0.3637E+01  0.3988E+02
      1.390  0.3224E+01  0.4022E+02
      1.497  0.3097E+01  0.4056E+02
      1.605  0.3401E+01  0.4092E+02
      1.712  0.4311E+01  0.4138E+02
      1.820  0.4379E+01  0.4185E+02
      1.927  0.3793E+01  0.4226E+02
      2.035  0.2009E+01  0.4248E+02
      2.142  0.2117E+01  0.4271E+02
      2.250  0.2125E+01  0.4293E+02
      2.357  0.1648E+01  0.4311E+02
      2.465  0.1277E+01  0.4325E+02
      2.572  0.3689E+00  0.4329E+02
      2.679  0.7358E+00  0.4337E+02
      2.787  0.1589E+01  0.4354E+02
      2.894  0.1251E+01  0.4367E+02
      3.002  0.3889E+00  0.4371E+02
      3.109  0.5779E-02  0.4371E+02
      3.217  0.1033E-01  0.4372E+02
      3.324  0.3578E+00  0.4375E+02
      3.432  0.6492E+00  0.4382E+02
      3.539  0.3109E+00  0.4386E+02
      3.646  0.9152E-01  0.4387E+02
      3.754  0.6004E+00  0.4393E+02
      3.861  0.6046E+00  0.4400E+02
      3.969  0.3440E-01  0.4400E+02
      4.076  0.2289E-05  0.4400E+02
      4.184  0.3611E-03  0.4400E+02
      4.291  0.8658E-01  0.4401E+02
      4.399  0.2586E+00  0.4404E+02
      4.506  0.3391E+00  0.4407E+02
      4.614  0.6636E+00  0.4414E+02
      4.721  0.6843E+00  0.4422E+02
      4.828  0.8319E+00  0.4431E+02
      4.936  0.9281E+00  0.4441E+02
      5.043  0.8166E+00  0.4450E+02
      5.151  0.1397E+01  0.4465E+02
      5.258  0.1185E+01  0.4477E+02
      5.366  0.2120E+01  0.4500E+02
      5.473  0.1929E+01  0.4521E+02
      5.581  0.2719E+01  0.4550E+02
      5.688  0.3035E+01  0.4583E+02
      5.795  0.3273E+01  0.4618E+02
      5.903  0.3944E+01  0.4660E+02
      6.010  0.3992E+01  0.4703E+02
      6.118  0.4739E+01  0.4754E+02
      6.225  0.4200E+01  0.4799E+02
      6.333  0.4176E+01  0.4844E+02
      6.440  0.4563E+01  0.4893E+02
      6.548  0.4337E+01  0.4940E+02
      6.655  0.3650E+01  0.4979E+02
      6.762  0.3894E+01  0.5021E+02
      6.870  0.4108E+01  0.5065E+02
      6.977  0.4210E+01  0.5110E+02
      7.085  0.4283E+01  0.5156E+02
      7.192  0.5939E+01  0.5220E+02
      7.300  0.4203E+01  0.5265E+02
      7.407  0.5236E+01  0.5321E+02
      7.515  0.4369E+01  0.5368E+02
      7.622  0.4282E+01  0.5414E+02
      7.730  0.2717E+01  0.5443E+02
      7.837  0.3662E+01  0.5483E+02
      7.944  0.2786E+01  0.5513E+02
      8.052  0.3229E+01  0.5547E+02
      8.159  0.3711E+01  0.5587E+02
      8.267  0.4239E+01  0.5633E+02
      8.374  0.4280E+01  0.5679E+02
      8.482  0.3849E+01  0.5720E+02
      8.589  0.2933E+01  0.5752E+02
      8.697  0.5125E+01  0.5807E+02
      8.804  0.6041E+01  0.5872E+02
      8.911  0.5039E+01  0.5926E+02
      9.019  0.4169E+01  0.5971E+02
      9.126  0.4874E+01  0.6023E+02
      9.234  0.5309E+01  0.6080E+02
      9.341  0.4707E+01  0.6131E+02
      9.449  0.5122E+01  0.6186E+02
      9.556  0.4658E+01  0.6236E+02
      9.664  0.4763E+01  0.6287E+02
      9.771  0.4860E+01  0.6339E+02
      9.879  0.5181E+01  0.6395E+02
      9.986  0.5698E+01  0.6456E+02
     10.093  0.4469E+01  0.6504E+02
     10.201  0.2417E+01  0.6530E+02
     10.308  0.4244E+01  0.6576E+02
     10.416  0.5540E+01  0.6635E+02
     10.523  0.5562E+01  0.6695E+02
     10.631  0.5228E+01  0.6751E+02
     10.738  0.4685E+01  0.6801E+02
     10.846  0.3613E+01  0.6840E+02
     10.953  0.3567E+01  0.6879E+02
     11.060  0.5287E+01  0.6935E+02
     11.168  0.5704E+01  0.6997E+02
     11.275  0.6234E+01  0.7064E+02
     11.383  0.5043E+01  0.7118E+02
     11.490  0.4247E+01  0.7163E+02
     11.598  0.4786E+01  0.7215E+02
     11.705  0.4001E+01  0.7258E+02
     11.813  0.5482E+01  0.7317E+02
     11.920  0.6423E+01  0.7386E+02
     12.028  0.6130E+01  0.7452E+02
     12.135  0.5723E+01  0.7513E+02
     12.242  0.4680E+01  0.7563E+02
     12.350  0.6570E+01  0.7634E+02
     12.457  0.5217E+01  0.7690E+02
     12.565  0.5479E+01  0.7749E+02
     12.672  0.6126E+01  0.7815E+02
     12.780  0.5287E+01  0.7872E+02
     12.887  0.5010E+01  0.7925E+02
     12.995  0.7680E+01  0.8008E+02
     13.102  0.5226E+01  0.8064E+02
     13.209  0.5742E+01  0.8126E+02
     13.317  0.6784E+01  0.8199E+02
     13.424  0.5496E+01  0.8258E+02
     13.532  0.5477E+01  0.8317E+02
     13.639  0.5365E+01  0.8374E+02
     13.747  0.6187E+01  0.8441E+02
     13.854  0.5681E+01  0.8502E+02
     13.962  0.5287E+01  0.8559E+02
     14.069  0.4609E+01  0.8608E+02
     14.176  0.4895E+01  0.8661E+02
     14.284  0.5438E+01  0.8719E+02
     14.391  0.4192E+01  0.8764E+02
     14.499  0.5342E+01  0.8822E+02
     14.606  0.5868E+01  0.8885E+02
     14.714  0.4816E+01  0.8936E+02
     14.821  0.4391E+01  0.8983E+02
     14.929  0.4394E+01  0.9031E+02
     15.036  0.5811E+01  0.9093E+02
     15.144  0.5549E+01  0.9153E+02
     15.251  0.6554E+01  0.9223E+02
     15.358  0.6638E+01  0.9295E+02
     15.466  0.4583E+01  0.9344E+02
     15.573  0.6039E+01  0.9409E+02
     15.681  0.5022E+01  0.9463E+02
     15.788  0.3645E+01  0.9502E+02
     15.896  0.3130E+01  0.9535E+02
     16.003  0.1828E+01  0.9555E+02
     16.111  0.9900E+00  0.9566E+02
     16.218  0.8175E+00  0.9574E+02
     16.325  0.1167E+01  0.9587E+02
     16.433  0.6621E+00  0.9594E+02
     16.540  0.4251E+00  0.9599E+02
     16.648  0.1190E+00  0.9600E+02
     16.755  0.1772E-02  0.9600E+02
     16.863  0.2001E-07  0.9600E+02
     16.970  0.3355E-16  0.9600E+02
     17.078  0.0000E+00  0.9600E+02
     17.185  0.0000E+00  0.9600E+02
     17.293  0.0000E+00  0.9600E+02
     17.400  0.0000E+00  0.9600E+02
     17.507  0.0000E+00  0.9600E+02
     17.615  0.0000E+00  0.9600E+02
     17.722  0.0000E+00  0.9600E+02
     17.830  0.0000E+00  0.9600E+02
     17.937  0.0000E+00  0.9600E+02
     18.045  0.0000E+00  0.9600E+02
