       N       E                     dE             d eps       ncg     rms          rms(c)
DAV:   1     0.531900772049E+02    0.53190E+02   -0.17622E+04  9216   0.723E+02
DAV:   2    -0.929255412532E+02   -0.14612E+03   -0.13762E+03 12744   0.150E+02
DAV:   3    -0.975696875131E+02   -0.46441E+01   -0.46210E+01 13512   0.240E+01
DAV:   4    -0.975966028995E+02   -0.26915E-01   -0.26914E-01 11376   0.209E+00
DAV:   5    -0.975969091281E+02   -0.30623E-03   -0.30622E-03 13344   0.215E-01    0.123E+01
DAV:   6    -0.921916123036E+02    0.54053E+01   -0.39637E+00 13344   0.656E+00    0.679E+00
DAV:   7    -0.905400962688E+02    0.16515E+01   -0.32402E+00 13800   0.587E+00    0.173E+00
DAV:   8    -0.905467588821E+02   -0.66626E-02   -0.22663E-01 10320   0.163E+00    0.840E-01
DAV:   9    -0.905617232936E+02   -0.14964E-01   -0.22051E-02 13056   0.518E-01    0.230E-01
