  14  14   0   0
  0.1026565E+02  0.5705546E-09  0.4053972E-09  0.6213506E-09  0.5000000E-15
  1.000000000000000E-004
  CAR 
 Convergence                             
     17.89824025    -14.17769169  301      1.85798952      1.00000000
    -14.178  0.0000E+00  0.0000E+00
    -14.071  0.0000E+00  0.0000E+00
    -13.964  0.0000E+00  0.0000E+00
    -13.857  0.0000E+00  0.0000E+00
    -13.750  0.0000E+00  0.0000E+00
    -13.643  0.0000E+00  0.0000E+00
    -13.536  0.0000E+00  0.0000E+00
    -13.429  0.0000E+00  0.0000E+00
    -13.322  0.0000E+00  0.0000E+00
    -13.215  0.0000E+00  0.0000E+00
    -13.108  0.0000E+00  0.0000E+00
    -13.002  0.5274E-16  0.5639E-17
    -12.895  0.3192E-07  0.3412E-08
    -12.788  0.3887E-02  0.4156E-03
    -12.681  0.5103E+00  0.5497E-01
    -12.574  0.2395E+01  0.3111E+00
    -12.467  0.3575E+01  0.6933E+00
    -12.360  0.4379E+01  0.1162E+01
    -12.253  0.3539E+01  0.1540E+01
    -12.146  0.2738E+01  0.1833E+01
    -12.039  0.2756E+01  0.2127E+01
    -11.932  0.2498E+01  0.2394E+01
    -11.825  0.2772E+01  0.2691E+01
    -11.719  0.3410E+01  0.3055E+01
    -11.612  0.3537E+01  0.3434E+01
    -11.505  0.3141E+01  0.3769E+01
    -11.398  0.1701E+01  0.3951E+01
    -11.291  0.4465E+00  0.3999E+01
    -11.184  0.8814E-02  0.4000E+01
    -11.077  0.2765E-06  0.4000E+01
    -10.970  0.2064E-14  0.4000E+01
    -10.863  0.0000E+00  0.4000E+01
    -10.756  0.0000E+00  0.4000E+01
    -10.649  0.0000E+00  0.4000E+01
    -10.542  0.0000E+00  0.4000E+01
    -10.435  0.0000E+00  0.4000E+01
    -10.329  0.0000E+00  0.4000E+01
    -10.222  0.0000E+00  0.4000E+01
    -10.115  0.0000E+00  0.4000E+01
    -10.008  0.0000E+00  0.4000E+01
     -9.901  0.0000E+00  0.4000E+01
     -9.794  0.0000E+00  0.4000E+01
     -9.687  0.0000E+00  0.4000E+01
     -9.580  0.0000E+00  0.4000E+01
     -9.473  0.0000E+00  0.4000E+01
     -9.366  0.0000E+00  0.4000E+01
     -9.259  0.0000E+00  0.4000E+01
     -9.152  0.0000E+00  0.4000E+01
     -9.046  0.1111E-08  0.4000E+01
     -8.939  0.6663E-03  0.4000E+01
     -8.832  0.2825E+00  0.4030E+01
     -8.725  0.2114E+01  0.4256E+01
     -8.618  0.5383E+01  0.4832E+01
     -8.511  0.7018E+01  0.5582E+01
     -8.404  0.6281E+01  0.6254E+01
     -8.297  0.5330E+01  0.6824E+01
     -8.190  0.4849E+01  0.7342E+01
     -8.083  0.3862E+01  0.7755E+01
     -7.976  0.1661E+01  0.7933E+01
     -7.869  0.5766E+00  0.7994E+01
     -7.763  0.5221E-01  0.8000E+01
     -7.656  0.2493E-04  0.8000E+01
     -7.549  0.3027E-11  0.8000E+01
     -7.442  0.0000E+00  0.8000E+01
     -7.335  0.0000E+00  0.8000E+01
     -7.228  0.0000E+00  0.8000E+01
     -7.121  0.4110E-09  0.8000E+01
     -7.014  0.3561E-03  0.8000E+01
     -6.907  0.1095E+00  0.8012E+01
     -6.800  0.2598E+00  0.8040E+01
     -6.693  0.4241E+00  0.8085E+01
     -6.586  0.7664E+00  0.8167E+01
     -6.479  0.8444E+00  0.8257E+01
     -6.373  0.1431E+01  0.8410E+01
     -6.266  0.1932E+01  0.8617E+01
     -6.159  0.3050E+01  0.8943E+01
     -6.052  0.3802E+01  0.9349E+01
     -5.945  0.4125E+01  0.9790E+01
     -5.838  0.4054E+01  0.1022E+02
     -5.731  0.3890E+01  0.1064E+02
     -5.624  0.4077E+01  0.1108E+02
     -5.517  0.4216E+01  0.1153E+02
     -5.410  0.4571E+01  0.1202E+02
     -5.303  0.4629E+01  0.1251E+02
     -5.196  0.4500E+01  0.1299E+02
     -5.090  0.3887E+01  0.1341E+02
     -4.983  0.3221E+01  0.1375E+02
     -4.876  0.2979E+01  0.1407E+02
     -4.769  0.2302E+01  0.1432E+02
     -4.662  0.2898E+01  0.1463E+02
     -4.555  0.3373E+01  0.1499E+02
     -4.448  0.3442E+01  0.1535E+02
     -4.341  0.3369E+01  0.1571E+02
     -4.234  0.2965E+01  0.1603E+02
     -4.127  0.2912E+01  0.1634E+02
     -4.020  0.2928E+01  0.1666E+02
     -3.913  0.2889E+01  0.1696E+02
     -3.806  0.3103E+01  0.1730E+02
     -3.700  0.2902E+01  0.1761E+02
     -3.593  0.2709E+01  0.1790E+02
     -3.486  0.3080E+01  0.1823E+02
     -3.379  0.2665E+01  0.1851E+02
     -3.272  0.2824E+01  0.1881E+02
     -3.165  0.2804E+01  0.1911E+02
     -3.058  0.2705E+01  0.1940E+02
     -2.951  0.3091E+01  0.1973E+02
     -2.844  0.2988E+01  0.2005E+02
     -2.737  0.2450E+01  0.2031E+02
     -2.630  0.2632E+01  0.2060E+02
     -2.523  0.3009E+01  0.2092E+02
     -2.417  0.3009E+01  0.2124E+02
     -2.310  0.3179E+01  0.2158E+02
     -2.203  0.4000E+01  0.2201E+02
     -2.096  0.3656E+01  0.2240E+02
     -1.989  0.3194E+01  0.2274E+02
     -1.882  0.4966E+01  0.2327E+02
     -1.775  0.5524E+01  0.2386E+02
     -1.668  0.5659E+01  0.2447E+02
     -1.561  0.6166E+01  0.2512E+02
     -1.454  0.6158E+01  0.2578E+02
     -1.347  0.5623E+01  0.2638E+02
     -1.240  0.4691E+01  0.2689E+02
     -1.133  0.6481E+01  0.2758E+02
     -1.027  0.4217E+01  0.2803E+02
     -0.920  0.2292E+01  0.2827E+02
     -0.813  0.2708E+01  0.2856E+02
     -0.706  0.2886E+01  0.2887E+02
     -0.599  0.4411E+01  0.2934E+02
     -0.492  0.6803E+01  0.3007E+02
     -0.385  0.5688E+01  0.3068E+02
     -0.278  0.6620E+01  0.3139E+02
     -0.171  0.6391E+01  0.3207E+02
     -0.064  0.6732E+01  0.3279E+02
      0.043  0.6850E+01  0.3352E+02
      0.150  0.6227E+01  0.3419E+02
      0.256  0.8843E+01  0.3513E+02
      0.363  0.8124E+01  0.3600E+02
      0.470  0.8674E+01  0.3693E+02
      0.577  0.5429E+01  0.3751E+02
      0.684  0.3033E+01  0.3784E+02
      0.791  0.3215E+01  0.3818E+02
      0.898  0.3593E+01  0.3856E+02
      1.005  0.3587E+01  0.3895E+02
      1.112  0.2813E+01  0.3925E+02
      1.219  0.3357E+01  0.3961E+02
      1.326  0.4466E+01  0.4008E+02
      1.433  0.3833E+01  0.4049E+02
      1.540  0.3694E+01  0.4089E+02
      1.646  0.4592E+01  0.4138E+02
      1.753  0.3381E+01  0.4174E+02
      1.860  0.2474E+01  0.4201E+02
      1.967  0.2683E+01  0.4229E+02
      2.074  0.2099E+01  0.4252E+02
      2.181  0.2646E+01  0.4280E+02
      2.288  0.2620E+01  0.4308E+02
      2.395  0.1988E+01  0.4329E+02
      2.502  0.9180E+00  0.4339E+02
      2.609  0.3806E+00  0.4343E+02
      2.716  0.5761E+00  0.4349E+02
      2.823  0.4213E+00  0.4354E+02
      2.929  0.3060E+00  0.4357E+02
      3.036  0.7276E+00  0.4365E+02
      3.143  0.1027E+01  0.4376E+02
      3.250  0.5773E+00  0.4382E+02
      3.357  0.1771E-01  0.4382E+02
      3.464  0.1173E+00  0.4383E+02
      3.571  0.3914E+00  0.4388E+02
      3.678  0.3424E+00  0.4391E+02
      3.785  0.3623E+00  0.4395E+02
      3.892  0.4158E+00  0.4400E+02
      3.999  0.3312E-01  0.4400E+02
      4.106  0.9013E-05  0.4400E+02
      4.213  0.1689E-01  0.4400E+02
      4.319  0.1620E+00  0.4402E+02
      4.426  0.3790E+00  0.4406E+02
      4.533  0.4456E+00  0.4411E+02
      4.640  0.6182E+00  0.4417E+02
      4.747  0.8661E+00  0.4427E+02
      4.854  0.8387E+00  0.4436E+02
      4.961  0.8687E+00  0.4445E+02
      5.068  0.1246E+01  0.4458E+02
      5.175  0.1186E+01  0.4471E+02
      5.282  0.1584E+01  0.4488E+02
      5.389  0.2130E+01  0.4511E+02
      5.496  0.2506E+01  0.4537E+02
      5.602  0.2798E+01  0.4567E+02
      5.709  0.3285E+01  0.4602E+02
      5.816  0.3276E+01  0.4637E+02
      5.923  0.4221E+01  0.4683E+02
      6.030  0.4817E+01  0.4734E+02
      6.137  0.4098E+01  0.4778E+02
      6.244  0.4598E+01  0.4827E+02
      6.351  0.4297E+01  0.4873E+02
      6.458  0.3954E+01  0.4915E+02
      6.565  0.4529E+01  0.4964E+02
      6.672  0.3265E+01  0.4999E+02
      6.779  0.3955E+01  0.5041E+02
      6.886  0.4603E+01  0.5090E+02
      6.992  0.4596E+01  0.5139E+02
      7.099  0.4340E+01  0.5186E+02
      7.206  0.5572E+01  0.5245E+02
      7.313  0.5008E+01  0.5299E+02
      7.420  0.4488E+01  0.5347E+02
      7.527  0.4238E+01  0.5392E+02
      7.634  0.3599E+01  0.5431E+02
      7.741  0.3103E+01  0.5464E+02
      7.848  0.3034E+01  0.5496E+02
      7.955  0.2969E+01  0.5528E+02
      8.062  0.4155E+01  0.5572E+02
      8.169  0.3932E+01  0.5614E+02
      8.275  0.3752E+01  0.5654E+02
      8.382  0.4017E+01  0.5697E+02
      8.489  0.4256E+01  0.5743E+02
      8.596  0.4500E+01  0.5791E+02
      8.703  0.4301E+01  0.5837E+02
      8.810  0.5358E+01  0.5894E+02
      8.917  0.4791E+01  0.5946E+02
      9.024  0.5278E+01  0.6002E+02
      9.131  0.5228E+01  0.6058E+02
      9.238  0.5019E+01  0.6112E+02
      9.345  0.4662E+01  0.6161E+02
      9.452  0.4411E+01  0.6209E+02
      9.558  0.5088E+01  0.6263E+02
      9.665  0.5041E+01  0.6317E+02
      9.772  0.5281E+01  0.6373E+02
      9.879  0.4498E+01  0.6421E+02
      9.986  0.3696E+01  0.6461E+02
     10.093  0.5192E+01  0.6516E+02
     10.200  0.4725E+01  0.6567E+02
     10.307  0.4168E+01  0.6612E+02
     10.414  0.5327E+01  0.6668E+02
     10.521  0.5835E+01  0.6731E+02
     10.628  0.4087E+01  0.6775E+02
     10.735  0.3918E+01  0.6816E+02
     10.842  0.3284E+01  0.6852E+02
     10.948  0.4696E+01  0.6902E+02
     11.055  0.5401E+01  0.6960E+02
     11.162  0.6302E+01  0.7027E+02
     11.269  0.6008E+01  0.7091E+02
     11.376  0.5181E+01  0.7147E+02
     11.483  0.4431E+01  0.7194E+02
     11.590  0.4477E+01  0.7242E+02
     11.697  0.4988E+01  0.7295E+02
     11.804  0.4830E+01  0.7347E+02
     11.911  0.5987E+01  0.7411E+02
     12.018  0.6023E+01  0.7475E+02
     12.125  0.6066E+01  0.7540E+02
     12.231  0.5542E+01  0.7599E+02
     12.338  0.5000E+01  0.7653E+02
     12.445  0.5724E+01  0.7714E+02
     12.552  0.5967E+01  0.7778E+02
     12.659  0.5934E+01  0.7841E+02
     12.766  0.5958E+01  0.7905E+02
     12.873  0.5894E+01  0.7968E+02
     12.980  0.5627E+01  0.8028E+02
     13.087  0.6348E+01  0.8096E+02
     13.194  0.6324E+01  0.8164E+02
     13.301  0.5467E+01  0.8222E+02
     13.408  0.6120E+01  0.8287E+02
     13.515  0.5441E+01  0.8346E+02
     13.621  0.4846E+01  0.8397E+02
     13.728  0.6190E+01  0.8464E+02
     13.835  0.5517E+01  0.8523E+02
     13.942  0.5374E+01  0.8580E+02
     14.049  0.5478E+01  0.8639E+02
     14.156  0.4676E+01  0.8689E+02
     14.263  0.4970E+01  0.8742E+02
     14.370  0.4956E+01  0.8795E+02
     14.477  0.4940E+01  0.8848E+02
     14.584  0.5274E+01  0.8904E+02
     14.691  0.5204E+01  0.8960E+02
     14.798  0.4102E+01  0.9003E+02
     14.904  0.5008E+01  0.9057E+02
     15.011  0.6138E+01  0.9123E+02
     15.118  0.5710E+01  0.9184E+02
     15.225  0.5728E+01  0.9245E+02
     15.332  0.5995E+01  0.9309E+02
     15.439  0.5775E+01  0.9371E+02
     15.546  0.6018E+01  0.9435E+02
     15.653  0.4630E+01  0.9485E+02
     15.760  0.2520E+01  0.9512E+02
     15.867  0.2708E+01  0.9541E+02
     15.974  0.1841E+01  0.9560E+02
     16.081  0.1131E+01  0.9572E+02
     16.188  0.8991E+00  0.9582E+02
     16.294  0.6948E+00  0.9589E+02
     16.401  0.8152E+00  0.9598E+02
     16.508  0.1794E+00  0.9600E+02
     16.615  0.1715E-02  0.9600E+02
     16.722  0.2222E-07  0.9600E+02
     16.829  0.4615E-16  0.9600E+02
     16.936  0.0000E+00  0.9600E+02
     17.043  0.0000E+00  0.9600E+02
     17.150  0.0000E+00  0.9600E+02
     17.257  0.0000E+00  0.9600E+02
     17.364  0.0000E+00  0.9600E+02
     17.471  0.0000E+00  0.9600E+02
     17.577  0.0000E+00  0.9600E+02
     17.684  0.0000E+00  0.9600E+02
     17.791  0.0000E+00  0.9600E+02
     17.898  0.0000E+00  0.9600E+02
