   14   14    1    1
  0.1024107E+02  0.5700988E-09  0.4050734E-09  0.6208543E-09  0.5000000E-15
  1.000000000000000E-004
  CAR 
 Convergence                             
     42    175     48
 
  0.5000000E-01  0.3571429E-01  0.0000000E+00  0.3174603E-02
      1        -12.722451   1.000000
      2        -11.580759   1.000000
      3         -8.660923   1.000000
      4         -8.424488   1.000000
      5         -6.069508   1.000000
      6         -5.136026   1.000000
      7         -4.672359   1.000000
      8         -4.278522   1.000000
      9         -4.038399   1.000000
     10         -3.550053   1.000000
     11         -2.602756   1.000000
     12         -2.333929   1.000000
     13         -1.843438   1.000000
     14         -1.104846   1.000000
     15         -0.077941   1.000000
     16         -0.047633   1.000000
     17          0.145365   1.000000
     18          0.166238   1.000000
     19          0.554841   1.000000
     20          2.007504   0.000063
     21          2.070259   0.000000
     22          2.203830   0.000000
     23          5.441545   0.000000
     24          5.732465   0.000000
     25          5.820408   0.000000
     26          5.942702   0.000000
     27          6.795761   0.000000
     28          7.529821   0.000000
     29          7.857924   0.000000
     30          8.511205   0.000000
     31          8.773874   0.000000
     32          8.924438   0.000000
     33          9.019700   0.000000
     34         10.102737   0.000000
     35         11.164935   0.000000
     36         11.307229   0.000000
     37         11.636231   0.000000
     38         11.755637   0.000000
     39         11.917720   0.000000
     40         12.381719   0.000000
     41         12.839304   0.000000
     42         13.422380   0.000000
     43         13.449701   0.000000
     44         15.344327   0.000000
     45         15.536542   0.000000
     46         16.024913   0.000000
     47         16.300601   0.000000
     48         16.322390   0.000000
 
  0.1500000E+00  0.3571429E-01  0.0000000E+00  0.3174603E-02
      1        -12.678730   1.000000
      2        -11.654568   1.000000
      3         -8.639778   1.000000
      4         -8.412987   1.000000
      5         -6.001432   1.000000
      6         -5.476120   1.000000
      7         -4.794276   1.000000
      8         -4.014540   1.000000
      9         -3.797251   1.000000
     10         -3.213225   1.000000
     11         -2.672814   1.000000
     12         -2.313983   1.000000
     13         -1.921587   1.000000
     14         -1.411563   1.000000
     15         -0.037758   1.000000
     16         -0.028616   1.000000
     17          0.084200   1.000000
     18          0.187146   1.000000
     19          0.459704   1.000000
     20          1.921384   0.080783
     21          1.992423   0.000326
     22          2.082875   0.000000
     23          5.530600   0.000000
     24          5.739557   0.000000
     25          5.849741   0.000000
     26          6.287438   0.000000
     27          6.710503   0.000000
     28          7.168662   0.000000
     29          8.066261   0.000000
     30          8.647606   0.000000
     31          9.028278   0.000000
     32          9.103768   0.000000
     33          9.179057   0.000000
     34         10.212759   0.000000
     35         10.915693   0.000000
     36         11.103302   0.000000
     37         11.237601   0.000000
     38         11.673193   0.000000
     39         12.134792   0.000000
     40         12.470281   0.000000
     41         13.090957   0.000000
     42         13.098372   0.000000
     43         13.979722   0.000000
     44         14.833813   0.000000
     45         15.717562   0.000000
     46         15.798462   0.000000
     47         16.191710   0.000000
     48         16.479011   0.000000
 
  0.2500000E+00  0.3571429E-01  0.0000000E+00  0.3174603E-02
      1        -12.593147   1.000000
      2        -11.787543   1.000000
      3         -8.596149   1.000000
      4         -8.398255   1.000000
      5         -5.979747   1.000000
      6         -5.802275   1.000000
      7         -4.748152   1.000000
      8         -3.887607   1.000000
      9         -3.286564   1.000000
     10         -2.840989   1.000000
     11         -2.721844   1.000000
     12         -2.273821   1.000000
     13         -2.031619   1.000000
     14         -1.915501   1.000000
     15         -0.230924   1.000000
     16          0.004670   1.000000
     17          0.133327   1.000000
     18          0.148489   1.000000
     19          0.429527   1.000000
     20          1.773714   0.997256
     21          1.853852   0.695078
     22          1.859864   0.633165
     23          5.651643   0.000000
     24          5.695999   0.000000
     25          6.158699   0.000000
     26          6.584881   0.000000
     27          6.745169   0.000000
     28          6.914318   0.000000
     29          8.216206   0.000000
     30          8.796282   0.000000
     31          8.972511   0.000000
     32          9.548062   0.000000
     33          9.623500   0.000000
     34         10.255683   0.000000
     35         10.459152   0.000000
     36         10.598454   0.000000
     37         11.356673   0.000000
     38         11.815999   0.000000
     39         12.369536   0.000000
     40         12.535969   0.000000
     41         12.768978   0.000000
     42         12.887784   0.000000
     43         14.604537   0.000000
     44         14.884475   0.000000
     45         15.197292   0.000000
     46         15.949345   0.000000
     47         15.969435   0.000000
     48         16.254790   0.000000
 
  0.3500000E+00  0.3571429E-01  0.0000000E+00  0.3174603E-02
      1        -12.469697   1.000000
      2        -11.956894   1.000000
      3         -8.534345   1.000000
      4         -8.394988   1.000000
      5         -6.060020   1.000000
      6         -6.035182   1.000000
      7         -4.421043   1.000000
      8         -3.719076   1.000000
      9         -3.034591   1.000000
     10         -2.902729   1.000000
     11         -2.451238   1.000000
     12         -2.261022   1.000000
     13         -2.155953   1.000000
     14         -2.131981   1.000000
     15         -0.530020   1.000000
     16         -0.256334   1.000000
     17          0.164028   1.000000
     18          0.239287   1.000000
     19          0.602460   1.000000
     20          1.518241   1.000000
     21          1.651492   1.000000
     22          1.711812   0.999997
     23          5.681071   0.000000
     24          5.736762   0.000000
     25          6.484022   0.000000
     26          6.656080   0.000000
     27          6.681810   0.000000
     28          7.393475   0.000000
     29          8.339941   0.000000
     30          8.666740   0.000000
     31          8.783914   0.000000
     32          9.511473   0.000000
     33         10.029077   0.000000
     34         10.094279   0.000000
     35         10.371677   0.000000
     36         11.118273   0.000000
     37         11.381328   0.000000
     38         11.916598   0.000000
     39         12.177589   0.000000
     40         12.247038   0.000000
     41         12.496969   0.000000
     42         13.232083   0.000000
     43         14.686418   0.000000
     44         14.946648   0.000000
     45         15.228124   0.000000
     46         15.343809   0.000000
     47         15.540231   0.000000
     48         16.344169   0.000000
 
  0.4500000E+00  0.3571429E-01  0.0000000E+00  0.3174603E-02
      1        -12.315023   1.000000
      2        -12.139234   1.000000
      3         -8.468328   1.000000
      4         -8.417482   1.000000
      5         -6.148904   1.000000
      6         -6.144818   1.000000
      7         -3.906197   1.000000
      8         -3.510343   1.000000
      9         -3.307316   1.000000
     10         -3.272958   1.000000
     11         -2.368136   1.000000
     12         -2.240706   1.000000
     13         -1.971321   1.000000
     14         -1.917047   1.000000
     15         -0.750580   1.000000
     16         -0.614815   1.000000
     17          0.247076   1.000000
     18          0.280558   1.000000
     19          0.862871   1.000000
     20          1.179852   1.000000
     21          1.570981   1.000000
     22          1.598246   1.000000
     23          5.709522   0.000000
     24          5.747503   0.000000
     25          6.463014   0.000000
     26          6.527125   0.000000
     27          7.349698   0.000000
     28          8.053125   0.000000
     29          8.075589   0.000000
     30          8.457070   0.000000
     31          8.594984   0.000000
     32          8.767466   0.000000
     33         10.477305   0.000000
     34         10.492417   0.000000
     35         10.733753   0.000000
     36         11.191327   0.000000
     37         11.375574   0.000000
     38         11.569493   0.000000
     39         11.902416   0.000000
     40         12.455104   0.000000
     41         12.692043   0.000000
     42         13.226740   0.000000
     43         14.564445   0.000000
     44         14.703720   0.000000
     45         14.840986   0.000000
     46         14.900072   0.000000
     47         16.066643   0.000000
     48         16.411701   0.000000
 
  0.5000000E-01  0.1071429E+00  0.0000000E+00  0.3174603E-02
      1        -12.698481   1.000000
      2        -11.559199   1.000000
      3         -8.642202   1.000000
      4         -8.401411   1.000000
      5         -6.042825   1.000000
      6         -5.102324   1.000000
      7         -4.650370   1.000000
      8         -4.577048   1.000000
      9         -4.182129   1.000000
     10         -3.527291   1.000000
     11         -3.295407   1.000000
     12         -1.803042   1.000000
     13         -1.100283   1.000000
     14         -1.045171   1.000000
     15         -0.311312   1.000000
     16         -0.283315   1.000000
     17          0.158874   1.000000
     18          0.236503   1.000000
     19          0.633054   1.000000
     20          1.740259   0.999902
     21          1.819882   0.929369
     22          2.255943   0.000000
     23          5.560747   0.000000
     24          5.690819   0.000000
     25          5.725713   0.000000
     26          5.988156   0.000000
     27          7.080998   0.000000
     28          7.815154   0.000000
     29          8.054796   0.000000
     30          8.167370   0.000000
     31          8.778376   0.000000
     32          9.069176   0.000000
     33          9.122391   0.000000
     34         10.553417   0.000000
     35         11.239192   0.000000
     36         11.378843   0.000000
     37         11.570381   0.000000
     38         11.858248   0.000000
     39         12.028543   0.000000
     40         12.660980   0.000000
     41         12.840012   0.000000
     42         13.160375   0.000000
     43         13.165491   0.000000
     44         15.296546   0.000000
     45         15.344701   0.000000
     46         15.825189   0.000000
     47         15.831442   0.000000
     48         16.185294   0.000000
 
  0.1500000E+00  0.1071429E+00  0.0000000E+00  0.3174603E-02
      1        -12.654852   1.000000
      2        -11.632864   1.000000
      3         -8.620907   1.000000
      4         -8.390288   1.000000
      5         -5.972964   1.000000
      6         -5.446058   1.000000
      7         -4.774299   1.000000
      8         -4.494993   1.000000
      9         -3.758330   1.000000
     10         -3.375857   1.000000
     11         -3.175300   1.000000
     12         -1.781405   1.000000
     13         -1.406155   1.000000
     14         -1.163607   1.000000
     15         -0.272517   1.000000
     16         -0.203834   1.000000
     17          0.126239   1.000000
     18          0.208613   1.000000
     19          0.530282   1.000000
     20          1.659863   1.000000
     21          1.743515   0.999859
     22          2.125353   0.000000
     23          5.636725   0.000000
     24          5.789746   0.000000
     25          5.916526   0.000000
     26          6.094739   0.000000
     27          6.997775   0.000000
     28          7.490299   0.000000
     29          8.200646   0.000000
     30          8.336502   0.000000
     31          9.099204   0.000000
     32          9.133513   0.000000
     33          9.389991   0.000000
     34         10.476455   0.000000
     35         10.847397   0.000000
     36         11.056141   0.000000
     37         11.433155   0.000000
     38         11.846013   0.000000
     39         12.247924   0.000000
     40         12.713868   0.000000
     41         12.839105   0.000000
     42         13.122376   0.000000
     43         13.698008   0.000000
     44         14.918703   0.000000
     45         15.364447   0.000000
     46         15.719003   0.000000
     47         15.760875   0.000000
     48         16.365381   0.000000
 
  0.2500000E+00  0.1071429E+00  0.0000000E+00  0.3174603E-02
      1        -12.569464   1.000000
      2        -11.765577   1.000000
      3         -8.577065   1.000000
      4         -8.376255   1.000000
      5         -5.948522   1.000000
      6         -5.771926   1.000000
      7         -4.731555   1.000000
      8         -4.386762   1.000000
      9         -3.497515   1.000000
     10         -3.232969   1.000000
     11         -2.709449   1.000000
     12         -1.910908   1.000000
     13         -1.737236   1.000000
     14         -1.326063   1.000000
     15         -0.233100   1.000000
     16         -0.225903   1.000000
     17          0.043623   1.000000
     18          0.195755   1.000000
     19          0.454002   1.000000
     20          1.525068   1.000000
     21          1.613607   1.000000
     22          1.877498   0.437018
     23          5.837538   0.000000
     24          5.917593   0.000000
     25          5.995669   0.000000
     26          6.542637   0.000000
     27          6.877421   0.000000
     28          7.262815   0.000000
     29          8.407061   0.000000
     30          8.468827   0.000000
     31          9.071741   0.000000
     32          9.586126   0.000000
     33          9.848733   0.000000
     34         10.100052   0.000000
     35         10.327139   0.000000
     36         10.795117   0.000000
     37         11.497667   0.000000
     38         12.080786   0.000000
     39         12.279618   0.000000
     40         12.531236   0.000000
     41         12.927402   0.000000
     42         12.998256   0.000000
     43         14.274428   0.000000
     44         15.051269   0.000000
     45         15.130250   0.000000
     46         15.612024   0.000000
     47         15.677047   0.000000
     48         16.385730   0.000000
 
  0.3500000E+00  0.1071429E+00  0.0000000E+00  0.3174603E-02
      1        -12.446279   1.000000
      2        -11.934573   1.000000
      3         -8.515015   1.000000
      4         -8.373877   1.000000
      5         -6.027591   1.000000
      6         -6.003970   1.000000
      7         -4.406584   1.000000
      8         -4.240006   1.000000
      9         -3.668607   1.000000
     10         -2.853936   1.000000
     11         -2.369836   1.000000
     12         -2.226736   1.000000
     13         -1.673164   1.000000
     14         -1.488730   1.000000
     15         -0.491763   1.000000
     16         -0.318383   1.000000
     17          0.075219   1.000000
     18          0.105641   1.000000
     19          0.613098   1.000000
     20          1.385568   1.000000
     21          1.468438   1.000000
     22          1.554043   1.000000
     23          5.855340   0.000000
     24          5.990930   0.000000
     25          6.500563   0.000000
     26          6.788330   0.000000
     27          6.861509   0.000000
     28          7.353069   0.000000
     29          8.396695   0.000000
     30          8.576251   0.000000
     31          8.913382   0.000000
     32          9.347477   0.000000
     33         10.046281   0.000000
     34         10.071583   0.000000
     35         10.416532   0.000000
     36         11.195065   0.000000
     37         11.338669   0.000000
     38         11.814130   0.000000
     39         12.261252   0.000000
     40         12.520891   0.000000
     41         12.696486   0.000000
     42         13.433779   0.000000
     43         14.734728   0.000000
     44         14.743187   0.000000
     45         15.120864   0.000000
     46         15.276529   0.000000
     47         15.617737   0.000000
     48         16.357638   0.000000
 
  0.4500000E+00  0.1071429E+00  0.0000000E+00  0.3174603E-02
      1        -12.291939   1.000000
      2        -12.116529   1.000000
      3         -8.448651   1.000000
      4         -8.397217   1.000000
      5         -6.116880   1.000000
      6         -6.112356   1.000000
      7         -4.061402   1.000000
      8         -3.898802   1.000000
      9         -3.857970   1.000000
     10         -3.294537   1.000000
     11         -2.115234   1.000000
     12         -1.922176   1.000000
     13         -1.605036   1.000000
     14         -1.601151   1.000000
     15         -0.712482   1.000000
     16         -0.610894   1.000000
     17          0.108686   1.000000
     18          0.139825   1.000000
     19          0.872244   1.000000
     20          1.186270   1.000000
     21          1.332176   1.000000
     22          1.356221   1.000000
     23          5.906851   0.000000
     24          5.973156   0.000000
     25          6.777800   0.000000
     26          6.828395   0.000000
     27          7.167014   0.000000
     28          7.877976   0.000000
     29          7.922111   0.000000
     30          8.603138   0.000000
     31          8.668385   0.000000
     32          8.780683   0.000000
     33         10.294121   0.000000
     34         10.542882   0.000000
     35         10.780397   0.000000
     36         10.882232   0.000000
     37         11.522845   0.000000
     38         11.628484   0.000000
     39         11.980941   0.000000
     40         12.623334   0.000000
     41         12.999676   0.000000
     42         13.457348   0.000000
     43         14.518717   0.000000
     44         14.703659   0.000000
     45         14.801513   0.000000
     46         15.019182   0.000000
     47         16.091617   0.000000
     48         16.386243   0.000000
 
  0.5000000E-01  0.1785714E+00  0.0000000E+00  0.3174603E-02
      1        -12.654197   1.000000
      2        -11.519446   1.000000
      3         -8.607926   1.000000
      4         -8.358844   1.000000
      5         -5.993492   1.000000
      6         -5.133741   1.000000
      7         -5.011778   1.000000
      8         -4.608688   1.000000
      9         -4.165767   1.000000
     10         -3.917020   1.000000
     11         -3.474158   1.000000
     12         -1.213412   1.000000
     13         -1.090999   1.000000
     14         -0.654454   1.000000
     15         -0.549562   1.000000
     16         -0.187382   1.000000
     17          0.180019   1.000000
     18          0.289153   1.000000
     19          0.711293   1.000000
     20          1.358263   1.000000
     21          1.421566   1.000000
     22          2.293902   0.000000
     23          5.272589   0.000000
     24          5.437404   0.000000
     25          6.104552   0.000000
     26          6.175760   0.000000
     27          7.514977   0.000000
     28          7.603813   0.000000
     29          8.296691   0.000000
     30          8.701422   0.000000
     31          8.858006   0.000000
     32          9.210064   0.000000
     33          9.344113   0.000000
     34         10.856074   0.000000
     35         11.292034   0.000000
     36         11.544812   0.000000
     37         11.678379   0.000000
     38         12.058381   0.000000
     39         12.244581   0.000000
     40         12.718812   0.000000
     41         12.731770   0.000000
     42         12.974528   0.000000
     43         13.199255   0.000000
     44         14.638602   0.000000
     45         15.126662   0.000000
     46         15.306000   0.000000
     47         15.400391   0.000000
     48         15.925086   0.000000
 
  0.1500000E+00  0.1785714E+00  0.0000000E+00  0.3174603E-02
      1        -12.610754   1.000000
      2        -11.592840   1.000000
      3         -8.586330   1.000000
      4         -8.348416   1.000000
      5         -5.920234   1.000000
      6         -5.397771   1.000000
      7         -5.035929   1.000000
      8         -4.736695   1.000000
      9         -3.982940   1.000000
     10         -3.716407   1.000000
     11         -3.135910   1.000000
     12         -1.397880   1.000000
     13         -1.187208   1.000000
     14         -0.762041   1.000000
     15         -0.511624   1.000000
     16         -0.106083   1.000000
     17          0.159859   1.000000
     18          0.233715   1.000000
     19          0.598784   1.000000
     20          1.279259   1.000000
     21          1.351914   1.000000
     22          2.158312   0.000000
     23          5.352943   0.000000
     24          5.782499   0.000000
     25          6.121830   0.000000
     26          6.219396   0.000000
     27          7.434390   0.000000
     28          7.760344   0.000000
     29          8.029000   0.000000
     30          8.792892   0.000000
     31          9.222743   0.000000
     32          9.260836   0.000000
     33          9.628249   0.000000
     34         10.491649   0.000000
     35         10.753038   0.000000
     36         11.249176   0.000000
     37         11.696272   0.000000
     38         12.171239   0.000000
     39         12.403787   0.000000
     40         12.475246   0.000000
     41         13.132494   0.000000
     42         13.246807   0.000000
     43         13.406756   0.000000
     44         14.649856   0.000000
     45         14.789057   0.000000
     46         15.244028   0.000000
     47         15.464339   0.000000
     48         15.953997   0.000000
 
  0.2500000E+00  0.1785714E+00  0.0000000E+00  0.3174603E-02
      1        -12.525710   1.000000
      2        -11.725045   1.000000
      3         -8.542068   1.000000
      4         -8.335710   1.000000
      5         -5.890409   1.000000
      6         -5.717167   1.000000
      7         -4.944335   1.000000
      8         -4.700562   1.000000
      9         -4.106175   1.000000
     10         -3.183004   1.000000
     11         -2.665576   1.000000
     12         -1.894566   1.000000
     13         -1.146697   1.000000
     14         -0.901060   1.000000
     15         -0.458876   1.000000
     16         -0.098452   1.000000
     17          0.003746   1.000000
     18          0.245329   1.000000
     19          0.483826   1.000000
     20          1.147967   1.000000
     21          1.233745   1.000000
     22          1.902154   0.196025
     23          5.673737   0.000000
     24          6.076885   0.000000
     25          6.257744   0.000000
     26          6.349506   0.000000
     27          7.332354   0.000000
     28          7.840248   0.000000
     29          7.994338   0.000000
     30          8.921645   0.000000
     31          9.218233   0.000000
     32          9.692846   0.000000
     33          9.827632   0.000000
     34         10.110425   0.000000
     35         10.228550   0.000000
     36         11.034271   0.000000
     37         11.561999   0.000000
     38         12.078345   0.000000
     39         12.481724   0.000000
     40         12.776338   0.000000
     41         13.013917   0.000000
     42         13.419237   0.000000
     43         13.928903   0.000000
     44         14.559717   0.000000
     45         14.838447   0.000000
     46         15.266097   0.000000
     47         15.482426   0.000000
     48         16.164721   0.000000
 
  0.3500000E+00  0.1785714E+00  0.0000000E+00  0.3174603E-02
      1        -12.403027   1.000000
      2        -11.893388   1.000000
      3         -8.479561   1.000000
      4         -8.335033   1.000000
      5         -5.967161   1.000000
      6         -5.946407   1.000000
      7         -4.808757   1.000000
      8         -4.379938   1.000000
      9         -4.270259   1.000000
     10         -2.815552   1.000000
     11         -2.329046   1.000000
     12         -2.185632   1.000000
     13         -1.090286   1.000000
     14         -1.038079   1.000000
     15         -0.465024   1.000000
     16         -0.383859   1.000000
     17          0.047497   1.000000
     18          0.050583   1.000000
     19          0.630654   1.000000
     20          1.018543   1.000000
     21          1.101184   1.000000
     22          1.567681   1.000000
     23          6.088504   0.000000
     24          6.207918   0.000000
     25          6.380806   0.000000
     26          6.783698   0.000000
     27          7.277060   0.000000
     28          7.761828   0.000000
     29          8.050347   0.000000
     30          9.021161   0.000000
     31          9.080649   0.000000
     32          9.151368   0.000000
     33          9.861119   0.000000
     34         10.159821   0.000000
     35         10.676610   0.000000
     36         11.051654   0.000000
     37         11.293961   0.000000
     38         11.924272   0.000000
     39         12.323545   0.000000
     40         12.959352   0.000000
     41         13.010353   0.000000
     42         13.762125   0.000000
     43         14.347262   0.000000
     44         14.364467   0.000000
     45         14.997556   0.000000
     46         15.091584   0.000000
     47         15.579580   0.000000
     48         16.342747   0.000000
 
  0.4500000E+00  0.1785714E+00  0.0000000E+00  0.3174603E-02
      1        -12.249319   1.000000
      2        -12.074617   1.000000
      3         -8.412532   1.000000
      4         -8.359977   1.000000
      5         -6.057446   1.000000
      6         -6.051903   1.000000
      7         -4.641339   1.000000
      8         -4.456116   1.000000
      9         -3.867830   1.000000
     10         -3.272035   1.000000
     11         -2.046958   1.000000
     12         -1.881816   1.000000
     13         -1.110402   1.000000
     14         -1.049652   1.000000
     15         -0.640007   1.000000
     16         -0.634284   1.000000
     17         -0.001902   1.000000
     18          0.041621   1.000000
     19          0.887885   1.000000
     20          0.956208   1.000000
     21          0.996803   1.000000
     22          1.214682   1.000000
     23          6.180282   0.000000
     24          6.298934   0.000000
     25          6.859563   0.000000
     26          7.197324   0.000000
     27          7.255432   0.000000
     28          7.602968   0.000000
     29          7.908580   0.000000
     30          8.418658   0.000000
     31          9.076910   0.000000
     32          9.108807   0.000000
     33          9.985359   0.000000
     34         10.457680   0.000000
     35         10.681197   0.000000
     36         10.953665   0.000000
     37         11.702845   0.000000
     38         11.718611   0.000000
     39         12.100992   0.000000
     40         12.879114   0.000000
     41         13.388382   0.000000
     42         13.734620   0.000000
     43         14.196556   0.000000
     44         14.350939   0.000000
     45         14.962939   0.000000
     46         15.102306   0.000000
     47         15.956698   0.000000
     48         16.259957   0.000000
 
  0.5000000E-01  0.2500000E+00  0.0000000E+00  0.3174603E-02
      1        -12.596826   1.000000
      2        -11.468089   1.000000
      3         -8.564140   1.000000
      4         -8.303770   1.000000
      5         -5.929462   1.000000
      6         -5.614332   1.000000
      7         -4.941765   1.000000
      8         -4.552621   1.000000
      9         -4.436816   1.000000
     10         -4.126523   1.000000
     11         -3.412321   1.000000
     12         -1.226331   1.000000
     13         -1.076771   1.000000
     14         -1.008116   1.000000
     15         -0.204677   1.000000
     16          0.208180   1.000000
     17          0.332340   1.000000
     18          0.582920   1.000000
     19          0.774840   1.000000
     20          0.973679   1.000000
     21          0.987757   1.000000
     22          2.327978   0.000000
     23          4.930066   0.000000
     24          5.144545   0.000000
     25          6.335674   0.000000
     26          6.565305   0.000000
     27          7.246198   0.000000
     28          7.943975   0.000000
     29          8.673999   0.000000
     30          9.036308   0.000000
     31          9.433884   0.000000
     32          9.555741   0.000000
     33          9.625283   0.000000
     34         10.717492   0.000000
     35         11.241310   0.000000
     36         11.940003   0.000000
     37         11.993643   0.000000
     38         12.266012   0.000000
     39         12.396872   0.000000
     40         12.422381   0.000000
     41         12.537453   0.000000
     42         12.959618   0.000000
     43         13.757087   0.000000
     44         13.851995   0.000000
     45         14.383467   0.000000
     46         15.072127   0.000000
     47         15.373410   0.000000
     48         15.820473   0.000000
 
  0.1500000E+00  0.2500000E+00  0.0000000E+00  0.3174603E-02
      1        -12.553612   1.000000
      2        -11.541120   1.000000
      3         -8.542136   1.000000
      4         -8.294295   1.000000
      5         -5.851590   1.000000
      6         -5.579578   1.000000
      7         -5.278314   1.000000
      8         -4.686936   1.000000