  14  14   0   0
  0.1021960E+02  0.5697000E-09  0.4047900E-09  0.6204200E-09  0.5000000E-15
  1.000000000000000E-004
  CAR 
 Kpoints                                 
     18.04068661    -14.20338802  301      1.92602313      1.00000000
    -14.203  0.0000E+00  0.0000E+00
    -14.096  0.0000E+00  0.0000E+00
    -13.988  0.0000E+00  0.0000E+00
    -13.881  0.0000E+00  0.0000E+00
    -13.773  0.0000E+00  0.0000E+00
    -13.666  0.0000E+00  0.0000E+00
    -13.559  0.0000E+00  0.0000E+00
    -13.451  0.0000E+00  0.0000E+00
    -13.344  0.0000E+00  0.0000E+00
    -13.236  0.0000E+00  0.0000E+00
    -13.129  0.0000E+00  0.0000E+00
    -13.021  0.3935E-16  0.4229E-17
    -12.914  0.2771E-07  0.2979E-08
    -12.806  0.3760E-02  0.4041E-03
    -12.699  0.5048E+00  0.5466E-01
    -12.591  0.2361E+01  0.3084E+00
    -12.484  0.3525E+01  0.6872E+00
    -12.376  0.4338E+01  0.1154E+01
    -12.269  0.3515E+01  0.1531E+01
    -12.161  0.2720E+01  0.1824E+01
    -12.054  0.2743E+01  0.2118E+01
    -11.946  0.2452E+01  0.2382E+01
    -11.839  0.2761E+01  0.2679E+01
    -11.731  0.3336E+01  0.3037E+01
    -11.624  0.3511E+01  0.3415E+01
    -11.516  0.3175E+01  0.3756E+01
    -11.409  0.1754E+01  0.3944E+01
    -11.301  0.5039E+00  0.3999E+01
    -11.194  0.1313E-01  0.4000E+01
    -11.086  0.6285E-06  0.4000E+01
    -10.979  0.6913E-14  0.4000E+01
    -10.872  0.0000E+00  0.4000E+01
    -10.764  0.0000E+00  0.4000E+01
    -10.657  0.0000E+00  0.4000E+01
    -10.549  0.0000E+00  0.4000E+01
    -10.442  0.0000E+00  0.4000E+01
    -10.334  0.0000E+00  0.4000E+01
    -10.227  0.0000E+00  0.4000E+01
    -10.119  0.0000E+00  0.4000E+01
    -10.012  0.0000E+00  0.4000E+01
     -9.904  0.0000E+00  0.4000E+01
     -9.797  0.0000E+00  0.4000E+01
     -9.689  0.0000E+00  0.4000E+01
     -9.582  0.0000E+00  0.4000E+01
     -9.474  0.0000E+00  0.4000E+01
     -9.367  0.0000E+00  0.4000E+01
     -9.259  0.0000E+00  0.4000E+01
     -9.152  0.0000E+00  0.4000E+01
     -9.044  0.1199E-08  0.4000E+01
     -8.937  0.7147E-03  0.4000E+01
     -8.829  0.2870E+00  0.4031E+01
     -8.722  0.2111E+01  0.4258E+01
     -8.614  0.5350E+01  0.4833E+01
     -8.507  0.6999E+01  0.5585E+01
     -8.399  0.6253E+01  0.6257E+01
     -8.292  0.5303E+01  0.6827E+01
     -8.184  0.4815E+01  0.7345E+01
     -8.077  0.3813E+01  0.7754E+01
     -7.970  0.1647E+01  0.7931E+01
     -7.862  0.5819E+00  0.7994E+01
     -7.755  0.5560E-01  0.8000E+01
     -7.647  0.2789E-04  0.8000E+01
     -7.540  0.3296E-11  0.8000E+01
     -7.432  0.0000E+00  0.8000E+01
     -7.325  0.0000E+00  0.8000E+01
     -7.217  0.0000E+00  0.8000E+01
     -7.110  0.3995E-09  0.8000E+01
     -7.002  0.3689E-03  0.8000E+01
     -6.895  0.1122E+00  0.8012E+01
     -6.787  0.2590E+00  0.8040E+01
     -6.680  0.4284E+00  0.8086E+01
     -6.572  0.7705E+00  0.8169E+01
     -6.465  0.8579E+00  0.8261E+01
     -6.357  0.1451E+01  0.8417E+01
     -6.250  0.1985E+01  0.8630E+01
     -6.142  0.3064E+01  0.8960E+01
     -6.035  0.3782E+01  0.9366E+01
     -5.927  0.4119E+01  0.9809E+01
     -5.820  0.4084E+01  0.1025E+02
     -5.712  0.3842E+01  0.1066E+02
     -5.605  0.4091E+01  0.1110E+02
     -5.497  0.4280E+01  0.1156E+02
     -5.390  0.4547E+01  0.1205E+02
     -5.283  0.4560E+01  0.1254E+02
     -5.175  0.4458E+01  0.1302E+02
     -5.068  0.3784E+01  0.1343E+02
     -4.960  0.3227E+01  0.1377E+02
     -4.853  0.2914E+01  0.1409E+02
     -4.745  0.2319E+01  0.1433E+02
     -4.638  0.2878E+01  0.1464E+02
     -4.530  0.3327E+01  0.1500E+02
     -4.423  0.3477E+01  0.1538E+02
     -4.315  0.3317E+01  0.1573E+02
     -4.208  0.2931E+01  0.1605E+02
     -4.100  0.2888E+01  0.1636E+02
     -3.993  0.2941E+01  0.1667E+02
     -3.885  0.2849E+01  0.1698E+02
     -3.778  0.3077E+01  0.1731E+02
     -3.670  0.2905E+01  0.1762E+02
     -3.563  0.2674E+01  0.1791E+02
     -3.455  0.3059E+01  0.1824E+02
     -3.348  0.2636E+01  0.1852E+02
     -3.240  0.2854E+01  0.1883E+02
     -3.133  0.2725E+01  0.1912E+02
     -3.025  0.2745E+01  0.1942E+02
     -2.918  0.3077E+01  0.1975E+02
     -2.810  0.2957E+01  0.2006E+02
     -2.703  0.2413E+01  0.2032E+02
     -2.596  0.2590E+01  0.2060E+02
     -2.488  0.2987E+01  0.2092E+02
     -2.381  0.2992E+01  0.2125E+02
     -2.273  0.3333E+01  0.2160E+02
     -2.166  0.3899E+01  0.2202E+02
     -2.058  0.3599E+01  0.2241E+02
     -1.951  0.3160E+01  0.2275E+02
     -1.843  0.4905E+01  0.2328E+02
     -1.736  0.5564E+01  0.2387E+02
     -1.628  0.5572E+01  0.2447E+02
     -1.521  0.6031E+01  0.2512E+02
     -1.413  0.6084E+01  0.2578E+02
     -1.306  0.5659E+01  0.2638E+02
     -1.198  0.4685E+01  0.2689E+02
     -1.091  0.6373E+01  0.2757E+02
     -0.983  0.4218E+01  0.2803E+02
     -0.876  0.2316E+01  0.2827E+02
     -0.768  0.2713E+01  0.2857E+02
     -0.661  0.2877E+01  0.2888E+02
     -0.553  0.4428E+01  0.2935E+02
     -0.446  0.6769E+01  0.3008E+02
     -0.338  0.5606E+01  0.3068E+02
     -0.231  0.6534E+01  0.3138E+02
     -0.123  0.6362E+01  0.3207E+02
     -0.016  0.6720E+01  0.3279E+02
      0.091  0.6801E+01  0.3352E+02
      0.199  0.6153E+01  0.3418E+02
      0.306  0.8833E+01  0.3513E+02
      0.414  0.8109E+01  0.3600E+02
      0.521  0.8647E+01  0.3693E+02
      0.629  0.5361E+01  0.3751E+02
      0.736  0.3005E+01  0.3783E+02
      0.844  0.3147E+01  0.3817E+02
      0.951  0.3576E+01  0.3855E+02
      1.059  0.3552E+01  0.3894E+02
      1.166  0.2791E+01  0.3924E+02
      1.274  0.3265E+01  0.3959E+02
      1.381  0.4316E+01  0.4005E+02
      1.489  0.3870E+01  0.4047E+02
      1.596  0.3656E+01  0.4086E+02
      1.704  0.4565E+01  0.4135E+02
      1.811  0.3447E+01  0.4172E+02
      1.919  0.2421E+01  0.4198E+02
      2.026  0.2688E+01  0.4227E+02
      2.134  0.2115E+01  0.4250E+02
      2.241  0.2618E+01  0.4278E+02
      2.349  0.2664E+01  0.4306E+02
      2.456  0.2055E+01  0.4329E+02
      2.564  0.9680E+00  0.4339E+02
      2.671  0.3904E+00  0.4343E+02
      2.778  0.5502E+00  0.4349E+02
      2.886  0.4396E+00  0.4354E+02
      2.993  0.2765E+00  0.4357E+02
      3.101  0.6887E+00  0.4364E+02
      3.208  0.1060E+01  0.4376E+02
      3.316  0.5916E+00  0.4382E+02
      3.423  0.2546E-01  0.4382E+02
      3.531  0.9077E-01  0.4383E+02
      3.638  0.3944E+00  0.4387E+02
      3.746  0.3481E+00  0.4391E+02
      3.853  0.3325E+00  0.4395E+02
      3.961  0.4406E+00  0.4399E+02
      4.068  0.4745E-01  0.4400E+02
      4.176  0.7622E-04  0.4400E+02
      4.283  0.4253E-01  0.4400E+02
      4.391  0.1837E+00  0.4402E+02
      4.498  0.4061E+00  0.4407E+02
      4.606  0.4806E+00  0.4412E+02
      4.713  0.6340E+00  0.4419E+02
      4.821  0.8933E+00  0.4428E+02
      4.928  0.8338E+00  0.4437E+02
      5.036  0.8372E+00  0.4446E+02
      5.143  0.1247E+01  0.4460E+02
      5.251  0.1151E+01  0.4472E+02
      5.358  0.1614E+01  0.4489E+02
      5.465  0.2196E+01  0.4513E+02
      5.573  0.2472E+01  0.4540E+02
      5.680  0.2715E+01  0.4569E+02
      5.788  0.3359E+01  0.4605E+02
      5.895  0.3255E+01  0.4640E+02
      6.003  0.4296E+01  0.4686E+02
      6.110  0.4762E+01  0.4737E+02
      6.218  0.3998E+01  0.4780E+02
      6.325  0.4586E+01  0.4830E+02
      6.433  0.4189E+01  0.4875E+02
      6.540  0.4069E+01  0.4918E+02
      6.648  0.4492E+01  0.4967E+02
      6.755  0.3157E+01  0.5000E+02
      6.863  0.4077E+01  0.5044E+02
      6.970  0.4705E+01  0.5095E+02
      7.078  0.4602E+01  0.5144E+02
      7.185  0.4383E+01  0.5191E+02
      7.293  0.5695E+01  0.5253E+02
      7.400  0.4811E+01  0.5304E+02
      7.508  0.4500E+01  0.5353E+02
      7.615  0.4092E+01  0.5397E+02
      7.723  0.3574E+01  0.5435E+02
      7.830  0.3090E+01  0.5468E+02
      7.938  0.2921E+01  0.5500E+02
      8.045  0.3134E+01  0.5533E+02
      8.153  0.4149E+01  0.5578E+02
      8.260  0.3966E+01  0.5621E+02
      8.367  0.3620E+01  0.5660E+02
      8.475  0.4229E+01  0.5705E+02
      8.582  0.4034E+01  0.5748E+02
      8.690  0.4635E+01  0.5798E+02
      8.797  0.4571E+01  0.5847E+02
      8.905  0.5410E+01  0.5905E+02
      9.012  0.4550E+01  0.5954E+02
      9.120  0.5390E+01  0.6012E+02
      9.227  0.5138E+01  0.6068E+02
      9.335  0.4859E+01  0.6120E+02
      9.442  0.4735E+01  0.6171E+02
      9.550  0.4336E+01  0.6217E+02
      9.657  0.5144E+01  0.6273E+02
      9.765  0.4870E+01  0.6325E+02
      9.872  0.5317E+01  0.6382E+02
      9.980  0.4139E+01  0.6427E+02
     10.087  0.3866E+01  0.6468E+02
     10.195  0.5440E+01  0.6527E+02
     10.302  0.4469E+01  0.6575E+02
     10.410  0.4205E+01  0.6620E+02
     10.517  0.5894E+01  0.6683E+02
     10.625  0.5136E+01  0.6738E+02
     10.732  0.4241E+01  0.6784E+02
     10.840  0.3631E+01  0.6823E+02
     10.947  0.3394E+01  0.6859E+02
     11.054  0.5162E+01  0.6915E+02
     11.162  0.5320E+01  0.6972E+02
     11.269  0.6617E+01  0.7043E+02
     11.377  0.5555E+01  0.7103E+02
     11.484  0.5237E+01  0.7159E+02
     11.592  0.4348E+01  0.7206E+02
     11.699  0.4496E+01  0.7254E+02
     11.807  0.5030E+01  0.7308E+02
     11.914  0.4994E+01  0.7362E+02
     12.022  0.5806E+01  0.7424E+02
     12.129  0.6364E+01  0.7493E+02
     12.237  0.5532E+01  0.7552E+02
     12.344  0.5661E+01  0.7613E+02
     12.452  0.4900E+01  0.7666E+02
     12.559  0.5530E+01  0.7725E+02
     12.667  0.6147E+01  0.7791E+02
     12.774  0.5893E+01  0.7855E+02
     12.882  0.5687E+01  0.7916E+02
     12.989  0.5962E+01  0.7980E+02
     13.097  0.5660E+01  0.8041E+02
     13.204  0.6402E+01  0.8109E+02
     13.312  0.5912E+01  0.8173E+02
     13.419  0.5685E+01  0.8234E+02
     13.527  0.5945E+01  0.8298E+02
     13.634  0.5255E+01  0.8354E+02
     13.741  0.4793E+01  0.8406E+02
     13.849  0.6526E+01  0.8476E+02
     13.956  0.5144E+01  0.8531E+02
     14.064  0.5468E+01  0.8590E+02
     14.171  0.5310E+01  0.8647E+02
     14.279  0.4336E+01  0.8694E+02
     14.386  0.4995E+01  0.8748E+02
     14.494  0.5140E+01  0.8803E+02
     14.601  0.4959E+01  0.8856E+02
     14.709  0.5145E+01  0.8911E+02
     14.816  0.5177E+01  0.8967E+02
     14.924  0.4006E+01  0.9010E+02
     15.031  0.5223E+01  0.9066E+02
     15.139  0.6339E+01  0.9134E+02
     15.246  0.5372E+01  0.9192E+02
     15.354  0.6059E+01  0.9257E+02
     15.461  0.5863E+01  0.9320E+02
     15.569  0.5643E+01  0.9381E+02
     15.676  0.5763E+01  0.9443E+02
     15.784  0.4305E+01  0.9489E+02
     15.891  0.2341E+01  0.9514E+02
     15.999  0.2720E+01  0.9543E+02
     16.106  0.1655E+01  0.9561E+02
     16.214  0.1074E+01  0.9573E+02
     16.321  0.8729E+00  0.9582E+02
     16.428  0.7096E+00  0.9590E+02
     16.536  0.7673E+00  0.9598E+02
     16.643  0.1790E+00  0.9600E+02
     16.751  0.1718E-02  0.9600E+02
     16.858  0.1938E-07  0.9600E+02
     16.966  0.3279E-16  0.9600E+02
     17.073  0.0000E+00  0.9600E+02
     17.181  0.0000E+00  0.9600E+02
     17.288  0.0000E+00  0.9600E+02
     17.396  0.0000E+00  0.9600E+02
     17.503  0.0000E+00  0.9600E+02
     17.611  0.0000E+00  0.9600E+02
     17.718  0.0000E+00  0.9600E+02
     17.826  0.0000E+00  0.9600E+02
     17.933  0.0000E+00  0.9600E+02
     18.041  0.0000E+00  0.9600E+02
