<?xml version="1.0" encoding="ISO-8859-1"?>
<modeling>
 <generator>
  <i name="program" type="string">vasp </i>
  <i name="version" type="string">6.4.3  </i>
  <i name="subversion" type="string">19Mar24 (build May 31 2024 16:31:43) complex                          parallel </i>
  <i name="platform" type="string">LinuxIFC </i>
  <i name="date" type="string">2024 10 30 </i>
  <i name="time" type="string">22:06:47 </i>
 </generator>
 <incar>
  <i type="string" name="SYSTEM">Kpoints</i>
  <i type="int" name="ISTART">     0</i>
  <i type="string" name="PREC">Accurate</i>
  <i type="string" name="ALGO">Normal</i>
  <i type="int" name="ISPIN">     1</i>
  <i type="int" name="ICHARG">     2</i>
  <i type="int" name="NELM">   100</i>
  <i type="int" name="IBRION">    -1</i>
  <i name="EDIFF">      0.00000100</i>
  <i name="EDIFFG">     -0.00100000</i>
  <i type="int" name="NSW">     0</i>
  <i type="int" name="ISIF">     2</i>
  <i name="ENCUT">   1080.00000000</i>
  <i name="POTIM">      0.50000000</i>
  <i type="int" name="ISMEAR">     0</i>
  <i name="SIGMA">      0.05000000</i>
  <i type="logical" name="LWAVE"> F  </i>
  <i type="logical" name="LCHARG"> F  </i>
  <i type="string" name="GGA">PE</i>
 </incar>
 <primitive_cell>
  <structure name="primitive_cell" >
   <crystal>
    <varray name="basis" >
     <v>       5.69700000       0.00000000       0.00000000 </v>
     <v>       0.00000000       4.04790000       0.00000000 </v>
     <v>       0.00000000       0.00000000       6.20420000 </v>
    </varray>
    <i name="volume">    143.07435078 </i>
    <varray name="rec_basis" >
     <v>       0.17553098       0.00000000       0.00000000 </v>
     <v>       0.00000000       0.24704168       0.00000000 </v>
     <v>       0.00000000       0.00000000       0.16118114 </v>
    </varray>
   </crystal>
   <varray name="positions" >
    <v>       0.52123000       0.50000000       0.63796000 </v>
    <v>       0.47877000       0.50000000       0.36204000 </v>
    <v>       0.97877000       0.50000000       0.63796000 </v>
    <v>       0.02123000       0.50000000       0.36204000 </v>
    <v>       0.60090000       0.50000000       0.89991000 </v>
    <v>       0.39910000       0.50000000       0.10009000 </v>
    <v>       0.89910000       0.50000000       0.89991000 </v>
    <v>       0.10090000       0.50000000       0.10009000 </v>
    <v>       0.75000000       0.79171000       0.72973000 </v>
    <v>       0.25000000       0.20829000       0.27027000 </v>
    <v>       0.75000000       0.20829000       0.72973000 </v>
    <v>       0.25000000       0.79171000       0.27027000 </v>
    <v>       0.25000000       0.50000000       0.52367000 </v>
    <v>       0.75000000       0.50000000       0.47633000 </v>
   </varray>
  </structure>
  <varray name="primitive_index" >
   <v type="int" >        1 </v>
   <v type="int" >        2 </v>
   <v type="int" >        3 </v>
   <v type="int" >        4 </v>
   <v type="int" >        5 </v>
   <v type="int" >        6 </v>
   <v type="int" >        7 </v>
   <v type="int" >        8 </v>
   <v type="int" >        9 </v>
   <v type="int" >       10 </v>
   <v type="int" >       11 </v>
   <v type="int" >       12 </v>
   <v type="int" >       13 </v>
   <v type="int" >       14 </v>
  </varray>
 </primitive_cell>
 <kpoints>
  <generation param="Monkhorst-Pack">
   <v type="int" name="divisions">      10       14        9 </v>
   <v name="usershift">      0.00000000       0.00000000       0.00000000 </v>
   <v name="genvec1">      0.10000000       0.00000000       0.00000000 </v>
   <v name="genvec2">      0.00000000       0.07142857       0.00000000 </v>
   <v name="genvec3">      0.00000000       0.00000000       0.11111111 </v>
   <v name="shift">      0.50000000       0.50000000       0.00000000 </v>
  </generation>
  <varray name="kpointlist" >
   <v>       0.05000000       0.03571429       0.00000000 </v>
   <v>       0.15000000       0.03571429       0.00000000 </v>
   <v>       0.25000000       0.03571429       0.00000000 </v>
   <v>       0.35000000       0.03571429       0.00000000 </v>
   <v>       0.45000000       0.03571429       0.00000000 </v>
   <v>       0.05000000       0.10714286       0.00000000 </v>
   <v>       0.15000000       0.10714286       0.00000000 </v>
   <v>       0.25000000       0.10714286       0.00000000 </v>
   <v>       0.35000000       0.10714286       0.00000000 </v>
   <v>       0.45000000       0.10714286       0.00000000 </v>
   <v>       0.05000000       0.17857143       0.00000000 </v>
   <v>       0.15000000       0.17857143       0.00000000 </v>
   <v>       0.25000000       0.17857143       0.00000000 </v>
   <v>       0.35000000       0.17857143       0.00000000 </v>
   <v>       0.45000000       0.17857143       0.00000000 </v>
   <v>       0.05000000       0.25000000       0.00000000 </v>
   <v>       0.15000000       0.25000000       0.00000000 </v>
   <v>       0.25000000       0.25000000       0.00000000 </v>
   <v>       0.35000000       0.25000000       0.00000000 </v>
   <v>       0.45000000       0.25000000       0.00000000 </v>
   <v>       0.05000000       0.32142857       0.00000000 </v>
   <v>       0.15000000       0.32142857       0.00000000 </v>
   <v>       0.25000000       0.32142857       0.00000000 </v>
   <v>       0.35000000       0.32142857       0.00000000 </v>
   <v>       0.45000000       0.32142857       0.00000000 </v>
   <v>       0.05000000       0.39285714       0.00000000 </v>
   <v>       0.15000000       0.39285714       0.00000000 </v>
   <v>       0.25000000       0.39285714       0.00000000 </v>
   <v>       0.35000000       0.39285714       0.00000000 </v>
   <v>       0.45000000       0.39285714       0.00000000 </v>
   <v>       0.05000000       0.46428571       0.00000000 </v>
   <v>       0.15000000       0.46428571       0.00000000 </v>
   <v>       0.25000000       0.46428571       0.00000000 </v>
   <v>       0.35000000       0.46428571       0.00000000 </v>
   <v>       0.45000000       0.46428571       0.00000000 </v>
   <v>       0.05000000       0.03571429       0.11111111 </v>
   <v>       0.15000000       0.03571429       0.11111111 </v>
   <v>       0.25000000       0.03571429       0.11111111 </v>
   <v>       0.35000000       0.03571429       0.11111111 </v>
   <v>       0.45000000       0.03571429       0.11111111 </v>
   <v>       0.05000000       0.10714286       0.11111111 </v>
   <v>       0.15000000       0.10714286       0.11111111 </v>
   <v>       0.25000000       0.10714286       0.11111111 </v>
   <v>       0.35000000       0.10714286       0.11111111 </v>
   <v>       0.45000000       0.10714286       0.11111111 </v>
   <v>       0.05000000       0.17857143       0.11111111 </v>
   <v>       0.15000000       0.17857143       0.11111111 </v>
   <v>       0.25000000       0.17857143       0.11111111 </v>
   <v>       0.35000000       0.17857143       0.11111111 </v>
   <v>       0.45000000       0.17857143       0.11111111 </v>
   <v>       0.05000000       0.25000000       0.11111111 </v>
   <v>       0.15000000       0.25000000       0.11111111 </v>
   <v>       0.25000000       0.25000000       0.11111111 </v>
   <v>       0.35000000       0.25000000       0.11111111 </v>
   <v>       0.45000000       0.25000000       0.11111111 </v>
   <v>       0.05000000       0.32142857       0.11111111 </v>
   <v>       0.15000000       0.32142857       0.11111111 </v>
   <v>       0.25000000       0.32142857       0.11111111 </v>
   <v>       0.35000000       0.32142857       0.11111111 </v>
   <v>       0.45000000       0.32142857       0.11111111 </v>
   <v>       0.05000000       0.39285714       0.11111111 </v>
   <v>       0.15000000       0.39285714       0.11111111 </v>
   <v>       0.25000000       0.39285714       0.11111111 </v>
   <v>       0.35000000       0.39285714       0.11111111 </v>
   <v>       0.45000000       0.39285714       0.11111111 </v>
   <v>       0.05000000       0.46428571       0.11111111 </v>
   <v>       0.15000000       0.46428571       0.11111111 </v>
   <v>       0.25000000       0.46428571       0.11111111 </v>
   <v>       0.35000000       0.46428571       0.11111111 </v>
   <v>       0.45000000       0.46428571       0.11111111 </v>
   <v>       0.05000000       0.03571429       0.22222222 </v>
   <v>       0.15000000       0.03571429       0.22222222 </v>
   <v>       0.25000000       0.03571429       0.22222222 </v>
   <v>       0.35000000       0.03571429       0.22222222 </v>
   <v>       0.45000000       0.03571429       0.22222222 </v>
   <v>       0.05000000       0.10714286       0.22222222 </v>
   <v>       0.15000000       0.10714286       0.22222222 </v>
   <v>       0.25000000       0.10714286       0.22222222 </v>
   <v>       0.35000000       0.10714286       0.22222222 </v>
   <v>       0.45000000       0.10714286       0.22222222 </v>
   <v>       0.05000000       0.17857143       0.22222222 </v>
   <v>       0.15000000       0.17857143       0.22222222 </v>
   <v>       0.25000000       0.17857143       0.22222222 </v>
   <v>       0.35000000       0.17857143       0.22222222 </v>
   <v>       0.45000000       0.17857143       0.22222222 </v>
   <v>       0.05000000       0.25000000       0.22222222 </v>
   <v>       0.15000000       0.25000000       0.22222222 </v>
   <v>       0.25000000       0.25000000       0.22222222 </v>
   <v>       0.35000000       0.25000000       0.22222222 </v>
   <v>       0.45000000       0.25000000       0.22222222 </v>
   <v>       0.05000000       0.32142857       0.22222222 </v>
   <v>       0.15000000       0.32142857       0.22222222 </v>
   <v>       0.25000000       0.32142857       0.22222222 </v>
   <v>       0.35000000       0.32142857       0.22222222 </v>
   <v>       0.45000000       0.32142857       0.22222222 </v>
   <v>       0.05000000       0.39285714       0.22222222 </v>
   <v>       0.15000000       0.39285714       0.22222222 </v>
   <v>       0.25000000       0.39285714       0.22222222 </v>
   <v>       0.35000000       0.39285714       0.22222222 </v>
   <v>       0.45000000       0.39285714       0.22222222 </v>
   <v>       0.05000000       0.46428571       0.22222222 </v>
   <v>       0.15000000       0.46428571       0.22222222 </v>
   <v>       0.25000000       0.46428571       0.22222222 </v>
   <v>       0.35000000       0.46428571       0.22222222 </v>
   <v>       0.45000000       0.46428571       0.22222222 </v>
   <v>       0.05000000       0.03571429       0.33333333 </v>
   <v>       0.15000000       0.03571429       0.33333333 </v>
   <v>       0.25000000       0.03571429       0.33333333 </v>
   <v>       0.35000000       0.03571429       0.33333333 </v>
   <v>       0.45000000       0.03571429       0.33333333 </v>
   <v>       0.05000000       0.10714286       0.33333333 </v>
   <v>       0.15000000       0.10714286       0.33333333 </v>
   <v>       0.25000000       0.10714286       0.33333333 </v>
   <v>       0.35000000       0.10714286       0.33333333 </v>
   <v>       0.45000000       0.10714286       0.33333333 </v>
   <v>       0.05000000       0.17857143       0.33333333 </v>
   <v>       0.15000000       0.17857143       0.33333333 </v>
   <v>       0.25000000       0.17857143       0.33333333 </v>
   <v>       0.35000000       0.17857143       0.33333333 </v>
   <v>       0.45000000       0.17857143       0.33333333 </v>
   <v>       0.05000000       0.25000000       0.33333333 </v>
   <v>       0.15000000       0.25000000       0.33333333 </v>
   <v>       0.25000000       0.25000000       0.33333333 </v>
   <v>       0.35000000       0.25000000       0.33333333 </v>
   <v>       0.45000000       0.25000000       0.33333333 </v>
   <v>       0.05000000       0.32142857       0.33333333 </v>
   <v>       0.15000000       0.32142857       0.33333333 </v>
   <v>       0.25000000       0.32142857       0.33333333 </v>
   <v>       0.35000000       0.32142857       0.33333333 </v>
   <v>       0.45000000       0.32142857       0.33333333 </v>
   <v>       0.05000000       0.39285714       0.33333333 </v>
   <v>       0.15000000       0.39285714       0.33333333 </v>
   <v>       0.25000000       0.39285714       0.33333333 </v>
   <v>       0.35000000       0.39285714       0.33333333 </v>
   <v>       0.45000000       0.39285714       0.33333333 </v>
   <v>       0.05000000       0.46428571       0.33333333 </v>
   <v>       0.15000000       0.46428571       0.33333333 </v>
   <v>       0.25000000       0.46428571       0.33333333 </v>
   <v>       0.35000000       0.46428571       0.33333333 </v>
   <v>       0.45000000       0.46428571       0.33333333 </v>
   <v>       0.05000000       0.03571429       0.44444444 </v>
   <v>       0.15000000       0.03571429       0.44444444 </v>
   <v>       0.25000000       0.03571429       0.44444444 </v>
   <v>       0.35000000       0.03571429       0.44444444 </v>
   <v>       0.45000000       0.03571429       0.44444444 </v>
   <v>       0.05000000       0.10714286       0.44444444 </v>
   <v>       0.15000000       0.10714286       0.44444444 </v>
   <v>       0.25000000       0.10714286       0.44444444 </v>
   <v>       0.35000000       0.10714286       0.44444444 </v>
   <v>       0.45000000       0.10714286       0.44444444 </v>
   <v>       0.05000000       0.17857143       0.44444444 </v>
   <v>       0.15000000       0.17857143       0.44444444 </v>
   <v>       0.25000000       0.17857143       0.44444444 </v>
   <v>       0.35000000       0.17857143       0.44444444 </v>
   <v>       0.45000000       0.17857143       0.44444444 </v>
   <v>       0.05000000       0.25000000       0.44444444 </v>
   <v>       0.15000000       0.25000000       0.44444444 </v>
   <v>       0.25000000       0.25000000       0.44444444 </v>
   <v>       0.35000000       0.25000000       0.44444444 </v>
   <v>       0.45000000       0.25000000       0.44444444 </v>
   <v>       0.05000000       0.32142857       0.44444444 </v>
   <v>       0.15000000       0.32142857       0.44444444 </v>
   <v>       0.25000000       0.32142857       0.44444444 </v>
   <v>       0.35000000       0.32142857       0.44444444 </v>
   <v>       0.45000000       0.32142857       0.44444444 </v>
   <v>       0.05000000       0.39285714       0.44444444 </v>
   <v>       0.15000000       0.39285714       0.44444444 </v>
   <v>       0.25000000       0.39285714       0.44444444 </v>
   <v>       0.35000000       0.39285714       0.44444444 </v>
   <v>       0.45000000       0.39285714       0.44444444 </v>
   <v>       0.05000000       0.46428571       0.44444444 </v>
   <v>       0.15000000       0.46428571       0.44444444 </v>
   <v>       0.25000000       0.46428571       0.44444444 </v>
   <v>       0.35000000       0.46428571       0.44444444 </v>
   <v>       0.45000000       0.46428571       0.44444444 </v>
  </varray>
  <varray name="weights" >
   <v>       0.00317460 </v>
   <v>       0.00317460 </v>
   <v>       0.00317460 </v>
   <v>       0.00317460 </v>
   <v>       0.00317460 </v>
   <v>       0.00317460 </v>
   <v>       0.00317460 </v>
   <v>       0.00317460 </v>
   <v>       0.00317460 </v>
   <v>       0.00317460 </v>
   <v>       0.00317460 </v>
   <v>       0.00317460 </v>
   <v>       0.00317460 </v>
   <v>       0.00317460 </v>
   <v>       0.00317460 </v>
   <v>       0.00317460 </v>
   <v>       0.00317460 </v>
   <v>       0.00317460 </v>
   <v>       0.00317460 </v>
   <v>       0.00317460 </v>
   <v>       0.00317460 </v>
   <v>       0.00317460 </v>
   <v>       0.00317460 </v>
   <v>       0.00317460 </v>
   <v>       0.00317460 </v>
   <v>       0.00317460 </v>
   <v>       0.00317460 </v>
   <v>       0.00317460 </v>
   <v>       0.00317460 </v>
   <v>       0.00317460 </v>
   <v>       0.00317460 </v>
   <v>       0.00317460 </v>
   <v>       0.00317460 </v>
   <v>       0.00317460 </v>
   <v>       0.00317460 </v>
   <v>       0.00634921 </v>
   <v>       0.00634921 </v>
   <v>       0.00634921 </v>
   <v>       0.00634921 </v>
   <v>       0.00634921 </v>
   <v>       0.00634921 </v>
   <v>       0.00634921 </v>
   <v>       0.00634921 </v>
   <v>       0.00634921 </v>
   <v>       0.00634921 </v>
   <v>       0.00634921 </v>
   <v>       0.00634921 </v>
   <v>       0.00634921 </v>
   <v>       0.00634921 </v>
   <v>       0.00634921 </v>
   <v>       0.00634921 </v>
   <v>       0.00634921 </v>
   <v>       0.00634921 </v>
   <v>       0.00634921 </v>
   <v>       0.00634921 </v>
   <v>       0.00634921 </v>
   <v>       0.00634921 </v>
   <v>       0.00634921 </v>
   <v>       0.00634921 </v>
   <v>       0.00634921 </v>
   <v>       0.00634921 </v>
   <v>       0.00634921 </v>
   <v>       0.00634921 </v>
   <v>       0.00634921 </v>
   <v>       0.00634921 </v>
   <v>       0.00634921 </v>
   <v>       0.00634921 </v>
   <v>       0.00634921 </v>
   <v>       0.00634921 </v>
   <v>       0.00634921 </v>
   <v>       0.00634921 </v>
   <v>       0.00634921 </v>
   <v>       0.00634921 </v>
   <v>       0.00634921 </v>
   <v>       0.00634921 </v>
   <v>       0.00634921 </v>
   <v>       0.00634921 </v>
   <v>       0.00634921 </v>
   <v>       0.00634921 </v>
   <v>       0.00634921 </v>
   <v>       0.00634921 </v>
   <v>       0.00634921 </v>
   <v>       0.00634921 </v>
   <v>       0.00634921 </v>
   <v>       0.00634921 </v>
   <v>       0.00634921 </v>
   <v>       0.00634921 </v>
   <v>       0.00634921 </v>
   <v>       0.00634921 </v>
   <v>       0.00634921 </v>
   <v>       0.00634921 </v>
   <v>       0.00634921 </v>
   <v>       0.00634921 </v>
   <v>       0.00634921 </v>
   <v>       0.00634921 </v>
   <v>       0.00634921 </v>
   <v>       0.00634921 </v>
   <v>       0.00634921 </v>
   <v>       0.00634921 </v>
   <v>       0.00634921 </v>
   <v>       0.00634921 </v>
   <v>       0.00634921 </v>
   <v>       0.00634921 </v>
   <v>       0.00634921 </v>
   <v>       0.00634921 </v>
   <v>       0.00634921 </v>
   <v>       0.00634921 </v>
   <v>       0.00634921 </v>
   <v>       0.00634921 </v>
   <v>       0.00634921 </v>
   <v>       0.00634921 </v>
   <v>       0.00634921 </v>
   <v>       0.00634921 </v>
   <v>       0.00634921 </v>
   <v>       0.00634921 </v>
   <v>       0.00634921 </v>
   <v>       0.00634921 </v>
   <v>       0.00634921 </v>
   <v>       0.00634921 </v>
   <v>       0.00634921 </v>
   <v>       0.00634921 </v>
   <v>       0.00634921 </v>
   <v>       0.00634921 </v>
   <v>       0.00634921 </v>
   <v>       0.00634921 </v>
   <v>       0.00634921 </v>
   <v>       0.00634921 </v>
   <v>       0.00634921 </v>
   <v>       0.00634921 </v>
   <v>       0.00634921 </v>
   <v>       0.00634921 </v>
   <v>       0.00634921 </v>
   <v>       0.00634921 </v>
   <v>       0.00634921 </v>
   <v>       0.00634921 </v>
   <v>       0.00634921 </v>
   <v>       0.00634921 </v>
   <v>       0.00634921 </v>
   <v>       0.00634921 </v>
   <v>       0.00634921 </v>
   <v>       0.00634921 </v>
   <v>       0.00634921 </v>
   <v>       0.00634921 </v>
   <v>       0.00634921 </v>
   <v>       0.00634921 </v>
   <v>       0.00634921 </v>
   <v>       0.00634921 </v>
   <v>       0.00634921 </v>
   <v>       0.00634921 </v>
   <v>       0.00634921 </v>
   <v>       0.00634921 </v>
   <v>       0.00634921 </v>
   <v>       0.00634921 </v>
   <v>       0.00634921 </v>
   <v>       0.00634921 </v>
   <v>       0.00634921 </v>
   <v>       0.00634921 </v>
   <v>       0.00634921 </v>
   <v>       0.00634921 </v>
   <v>       0.00634921 </v>
   <v>       0.00634921 </v>
   <v>       0.00634921 </v>
   <v>       0.00634921 </v>
   <v>       0.00634921 </v>
   <v>       0.00634921 </v>
   <v>       0.00634921 </v>
   <v>       0.00634921 </v>
   <v>       0.00634921 </v>
   <v>       0.00634921 </v>
   <v>       0.00634921 </v>
   <v>       0.00634921 </v>
   <v>       0.00634921 </v>
   <v>       0.00634921 </v>
   <v>       0.00634921 </v>
   <v>       0.00634921 </v>
  </varray>
 </kpoints>
 <parameters>
  <separator name="general" >
   <i type="string" name="SYSTEM">Kpoints</i>
   <i type="logical" name="LCOMPAT"> F  </i>
  </separator>
  <separator name="electronic" >
   <i type="string" name="PREC">accura</i>
   <i name="ENMAX">   1080.00000000</i>
   <i name="ENAUG">    535.51400000</i>
   <i name="EDIFF">      0.00000100</i>
   <i type="int" name="IALGO">    38</i>
   <i type="int" name="IWAVPR">    10</i>
   <i type="int" name="NBANDS">    48</i>
   <i type="int" name="NBANDSLOW">    -1</i>
   <i type="int" name="NBANDSHIGH">    -1</i>
   <i name="NELECT">     42.00000000</i>
   <i type="int" name="TURBO">     0</i>
   <i type="int" name="IRESTART">     0</i>
   <i type="int" name="NREBOOT">     0</i>
   <i type="int" name="NMIN">     0</i>
   <i name="EREF">      0.00000000</i>
   <separator name="electronic smearing" >
    <i type="int" name="ISMEAR">     0</i>
    <i name="SIGMA">      0.05000000</i>
    <i name="KSPACING">      0.50000000</i>
    <i type="logical" name="KGAMMA"> T  </i>
    <i type="logical" name="KBLOWUP"> T  </i>
   </separator>
   <separator name="electronic projectors" >
    <i type="logical" name="LREAL"> F  </i>
    <v name="ROPT">      0.00000000</v>
    <i type="int" name="LMAXPAW">  -100</i>
    <i type="int" name="LMAXMIX">     2</i>
    <i type="logical" name="NLSPLINE"> F  </i>
   </separator>
   <separator name="electronic startup" >
    <i type="int" name="ISTART">     0</i>
    <i type="int" name="ICHARG">     2</i>
    <i type="int" name="INIWAV">     1</i>
   </separator>
   <separator name="electronic spin" >
    <i type="int" name="ISPIN">     1</i>
    <i type="logical" name="LNONCOLLINEAR"> F  </i>
    <v name="MAGMOM">      1.00000000      1.00000000      1.00000000      1.00000000      1.00000000      1.00000000      1.00000000      1.00000000      1.00000000      1.00000000      1.00000000      1.00000000      1.00000000      1.00000000</v>
    <i name="NUPDOWN">     -1.00000000</i>
    <i type="logical" name="LSORBIT"> F  </i>
    <v name="SAXIS">      0.00000000      0.00000000      1.00000000</v>
    <i type="logical" name="LSPIRAL"> F  </i>
    <v name="QSPIRAL">      0.00000000      0.00000000      0.00000000</v>
    <i type="logical" name="LZEROZ"> F  </i>
   </separator>
   <separator name="electronic exchange-correlation" >
    <i type="logical" name="LASPH"> F  </i>
   </separator>
   <separator name="electronic convergence" >
    <i type="int" name="NELM">   100</i>
    <i type="int" name="NELMDL">    -5</i>
    <i type="int" name="NELMIN">     2</i>
    <i name="ENINI">   1080.00000000</i>
    <separator name="electronic convergence detail" >
     <i type="logical" name="LDIAG"> T  </i>
     <i type="logical" name="LSUBROT"> F  </i>
     <i name="WEIMIN">      0.00000000</i>
     <i name="EBREAK">      0.00000001</i>
     <i name="DEPER">      0.30000000</i>
     <i type="int" name="NRMM">     4</i>
     <i name="TIME">      0.40000000</i>
    </separator>
   </separator>
   <separator name="electronic mixer" >
    <i name="AMIX">      0.40000000</i>
    <i name="BMIX">      1.00000000</i>
    <i name="AMIN">      0.10000000</i>
    <i name="AMIX_MAG">      1.60000000</i>
    <i name="BMIX_MAG">      1.00000000</i>
    <separator name="electronic mixer details" >
     <i type="int" name="IMIX">     4</i>
     <i type="logical" name="MIXFIRST"> F  </i>
     <i type="int" name="MAXMIX">   -45</i>
     <i name="WC">    100.00000000</i>
     <i type="int" name="INIMIX">     1</i>
     <i type="int" name="MIXPRE">     1</i>
     <i type="int" name="MREMOVE">     5</i>
    </separator>
   </separator>
   <separator name="electronic dipolcorrection" >
    <i type="logical" name="LDIPOL"> F  </i>
    <i type="logical" name="LMONO"> F  </i>
    <i type="int" name="IDIPOL">     0</i>
    <i name="EPSILON">      1.00000000</i>
    <v name="DIPOL">   -100.00000000   -100.00000000   -100.00000000</v>
    <i name="EFIELD">      0.00000000</i>
    <i type="logical" name="LVACPOTAV"> F  </i>
   </separator>
  </separator>
  <separator name="grids" >
   <i type="int" name="NGX">    64</i>
   <i type="int" name="NGY">    48</i>
   <i type="int" name="NGZ">    70</i>
   <i type="int" name="NGXF">   128</i>
   <i type="int" name="NGYF">    96</i>
   <i type="int" name="NGZF">   140</i>
   <i type="logical" name="ADDGRID"> F  </i>
  </separator>
  <separator name="ionic" >
   <i type="int" name="NSW">     0</i>
   <i type="int" name="IBRION">    -1</i>
   <i type="int" name="MDALGO">     0</i>
   <i type="int" name="ISIF">     2</i>
   <i name="PSTRESS">      0.00000000</i>
   <i name="EDIFFG">     -0.00100000</i>
   <i type="int" name="NFREE">     0</i>
   <i name="POTIM">      0.50000000</i>
   <i name="SMASS">     -3.00000000</i>
   <i name="SCALEE">      1.00000000</i>
  </separator>
  <separator name="ionic md" >
   <i name="TEBEG">      0.00010000</i>
   <i name="TEEND">      0.00010000</i>
   <i type="int" name="NBLOCK">     1</i>
   <i type="int" name="KBLOCK">     1</i>
   <i type="int" name="NPACO">   256</i>
   <i name="APACO">     10.00000000</i>
  </separator>
  <separator name="symmetry" >
   <i type="int" name="ISYM">     2</i>
   <i name="SYMPREC">      0.00001000</i>
  </separator>
  <separator name="dos" >
   <i type="int" name="LORBIT">     0</i>
   <v name="RWIGS">     -1.00000000</v>
   <i type="int" name="NEDOS">   301</i>
   <i name="EMIN">     10.00000000</i>
   <i name="EMAX">    -10.00000000</i>
   <i name="EFERMI">      0.00000000</i>
  </separator>
  <separator name="writing" >
   <i type="int" name="NWRITE">     2</i>
   <i type="logical" name="LWAVE"> F  </i>
   <i type="logical" name="LDOWNSAMPLE"> F  </i>
   <i type="logical" name="LCHARG"> F  </i>
   <i type="logical" name="LPARD"> F  </i>
   <i type="logical" name="LVTOT"> F  </i>
   <i type="logical" name="LVHAR"> F  </i>
   <i type="logical" name="LELF"> F  </i>
   <i type="logical" name="LOPTICS"> F  </i>
   <v name="STM">      0.00000000      0.00000000      0.00000000      0.00000000      0.00000000      0.00000000      0.00000000</v>
  </separator>
  <separator name="performance" >
   <i type="int" name="NPAR">    24</i>
   <i type="int" name="NSIM">     4</i>
   <i type="int" name="NBLK">    -1</i>
   <i type="logical" name="LPLANE"> T  </i>
   <i type="logical" name="LSCALAPACK"> T  </i>
   <i type="logical" name="LSCAAWARE"> F  </i>
   <i type="logical" name="LSCALU"> F  </i>
   <i type="logical" name="LASYNC"> F  </i>
   <i type="logical" name="LORBITALREAL"> F  </i>
  </separator>
  <separator name="miscellaneous" >
   <i type="int" name="IDIOT">     3</i>
   <i type="int" name="PHON_NSTRUCT">    -1</i>
   <i type="logical" name="LMUSIC"> F  </i>
   <v name="POMASS">     10.81100000</v>
   <v name="DARWINR">      0.00000000</v>
   <v name="DARWINV">      1.00000000</v>
   <i type="logical" name="LCORR"> T  </i>
  </separator>
  <i type="logical" name="GGA_COMPAT"> T  </i>
  <i type="logical" name="LBERRY"> F  </i>
  <i type="int" name="ICORELEVEL">     0</i>
  <i type="logical" name="LDAU"> F  </i>
  <i type="int" name="I_CONSTRAINED_M">     0</i>
  <separator name="electronic exchange-correlation" >
   <i type="string" name="GGA    ">PE</i>
   <i type="string" name="XC_C">1</i>
   <i type="int" name="VOSKOWN">     0</i>
   <i type="logical" name="LHFCALC"> F  </i>
   <i type="string" name="PRECFOCK"></i>
   <i type="logical" name="LSYMGRAD"> F  </i>
   <i type="logical" name="LHFONE"> F  </i>
   <i type="logical" name="LRHFCALC"> F  </i>
   <i type="logical" name="LTHOMAS"> F  </i>
   <i type="logical" name="LMODELHF"> F  </i>
   <i type="logical" name="LFOCKACE"> F  </i>
   <i name="ENCUT4O">     -1.00000000</i>
   <i type="int" name="EXXOEP">     0</i>
   <i type="int" name="FOURORBIT">     0</i>
   <i name="AEXX">      0.00000000</i>
   <i name="HFALPHA">      0.00000000</i>
   <i name="MCALPHA">      0.00000000</i>
   <i name="ALDAX">      1.00000000</i>
   <i name="AGGAX">      1.00000000</i>
   <i name="AMGGAX">      1.00000000</i>
   <i name="ALDAC">      1.00000000</i>
   <i name="AGGAC">      1.00000000</i>
   <i name="AMGGAC">      1.00000000</i>
   <i type="int" name="NKREDX">     1</i>
   <i type="int" name="NKREDY">     1</i>
   <i type="int" name="NKREDZ">     1</i>
   <i type="logical" name="SHIFTRED"> F  </i>
   <i type="logical" name="ODDONLY"> F  </i>
   <i type="logical" name="EVENONLY"> F  </i>
   <i type="int" name="LMAXFOCK">     0</i>
   <i type="int" name="NMAXFOCKAE">     0</i>
   <i type="logical" name="LFOCKAEDFT"> F  </i>
   <i name="HFSCREEN">      0.00000000</i>
   <i name="HFSCREENC">      0.00000000</i>
   <i type="int" name="NBANDSGWLOW">     0</i>
  </separator>
  <separator name="vdW DFT" >
   <i type="logical" name="LUSE_VDW"> F  </i>
   <i type="int" name="IVDW_NL">    -1</i>
   <i type="logical" name="LSPIN_VDW"> F  </i>
   <i name="ZAB_VDW">     -0.84910000</i>
   <i name="GAMMA_VDW">      1.39626340</i>
   <i name="ALPHA_VDW">      0.00000000</i>
   <i name="PARAM1">      0.12340000</i>
   <i name="PARAM2">      1.00000000</i>
   <i name="BPARAM">      6.30000000</i>
   <i name="CPARAM">      0.00930000</i>
  </separator>
  <separator name="model GW" >
   <i type="int" name="MODEL_GW">     0</i>
   <i name="MODEL_EPS0">      6.13175789</i>
   <i name="MODEL_ALPHA">      1.00000000</i>
  </separator>
  <separator name="linear response parameters" >
   <i type="logical" name="LEPSILON"> F  </i>
   <i type="logical" name="LRPA"> F  </i>
   <i type="logical" name="LNABLA"> F  </i>
   <i type="logical" name="LVEL"> F  </i>
   <i name="CSHIFT">      0.10000000</i>
   <i name="OMEGAMAX">     -1.00000000</i>
   <i name="DEG_THRESHOLD">      0.00200000</i>
   <i name="RTIME">     -0.10000000</i>
   <i name="WPLASMAI">      0.00000000</i>
   <v name="DFIELD">      0.00000000      0.00000000      0.00000000</v>
   <v name="WPLASMA">      0.00000000      0.00000000      0.00000000      0.00000000      0.00000000      0.00000000      0.00000000      0.00000000      0.00000000</v>
  </separator>
  <separator name="orbital magnetization" >
   <i type="logical" name="NUCIND"> F  </i>
   <v name="MAGPOS">      0.00000000      0.00000000      0.00000000</v>
   <i type="logical" name="LNICSALL"> T  </i>
   <i type="logical" name="ORBITALMAG"> F  </i>
   <i type="logical" name="LMAGBLOCH"> F  </i>
   <i type="logical" name="LCHIMAG"> F  </i>
   <i type="logical" name="LGAUGE"> T  </i>
   <i type="int" name="MAGATOM">     0</i>
   <v name="MAGDIPOL">      0.00000000      0.00000000      0.00000000</v>
   <v name="AVECCONST">      0.00000000      0.00000000      0.00000000</v>
  </separator>
  <separator name="response functions" >
   <i type="logical" name="LALL_IN_ONE"> F  </i>
   <i type="int" name="IALL_IN_ONE">    -1</i>
   <i type="int" name="NBANDS_WAVE">    -1</i>
   <i type="logical" name="LFINITE_TEMPERATURE"> F  </i>
   <i type="logical" name="LADDER"> F  </i>
   <i type="logical" name="LRPAFORCE"> F  </i>
   <i type="logical" name="LFXC"> F  </i>
   <i type="logical" name="LHARTREE"> T  </i>
   <i type="int" name="IBSE">     0</i>
   <v type="int" name="KPOINT">    -1     0     0     0</v>
   <i type="logical" name="LTCTC"> F  </i>
   <i type="logical" name="LTCTE"> F  </i>
   <i type="logical" name="LTETE"> F  </i>
   <i type="logical" name="LTRIPLET"> F  </i>
   <i type="logical" name="LFXCEPS"> F  </i>
   <i type="logical" name="LFXHEG"> F  </i>
   <i type="int" name="NATURALO">     2</i>
   <i type="logical" name="LHOLEGF"> F  </i>
   <i type="logical" name="L2ORDER"> F  </i>
   <i type="logical" name="LDMP1"> F  </i>
   <i type="logical" name="LMP2LT"> F  </i>
   <i type="logical" name="LSMP2LT"> F  </i>
   <i type="logical" name="LGWLF"> F  </i>
   <i name="ENCUTGW">     -1.60000002</i>
   <i name="ENCUTGWSOFT">     -1.60000002</i>
   <i name="ENCUTLF">     -1.00000000</i>
   <i type="logical" name="ESF_SPLINES"> F  </i>
   <i name="ESF_CONV">      0.01000000</i>
   <i type="int" name="ESF_NINTER">    15</i>
   <i type="int" name="LMAXMP2">    -1</i>
   <i name="SCISSOR">      0.00000000</i>
   <i type="int" name="NOMEGA">     0</i>
   <i type="int" name="NOMEGAR">     0</i>
   <i type="int" name="NBANDSGW">    -1</i>
   <i type="int" name="NBANDSO">    -1</i>
   <i type="int" name="NBANDSV">    -1</i>
   <i type="int" name="NELMGW">     1</i>
   <i type="int" name="NELMHF">     1</i>
   <i type="int" name="DIM">     3</i>
   <i type="int" name="IESPILON">     4</i>
   <i type="int" name="ANTIRES">     0</i>
   <i name="OMEGAMAX">    -30.00000000</i>
   <i name="OMEGAMIN">    -30.00000000</i>
   <i name="OMEGATL">   -200.00000000</i>
   <i type="int" name="OMEGAGRID">     0</i>
   <i name="CSHIFT">     -0.10000000</i>
   <i type="logical" name="LSELFENERGY"> F  </i>
   <i type="logical" name="LSPECTRAL"> F  </i>
   <i type="logical" name="LSPECTRALGW"> F  </i>
   <i type="logical" name="LSINGLES"> F  </i>
   <i type="logical" name="LFERMIGW"> F  </i>
   <i type="logical" name="ODDONLYGW"> F  </i>
   <i type="logical" name="EVENONLYGW"> F  </i>
   <i type="int" name="NKREDLFX">     1</i>
   <i type="int" name="NKREDLFY">     1</i>
   <i type="int" name="NKREDLFZ">     1</i>
   <i type="int" name="MAXMEM">  2800</i>
   <i type="int" name="TELESCOPE">     0</i>
   <i type="int" name="NTAUPAR">    -1</i>
   <i type="int" name="NOMEGAPAR">    -1</i>
   <i name="DAMP_NEWTON">      0.80000001</i>
   <i name="LAMBDA">      1.00000000</i>
  </separator>
  <separator name="External order field" >
   <i name="OFIELD_KAPPA">      0.00000000</i>
   <v name="OFIELD_K">      0.00000000      0.00000000      0.00000000</v>
   <i name="OFIELD_Q6_NEAR">      0.00000000</i>
   <i name="OFIELD_Q6_FAR">      0.00000000</i>
   <i name="OFIELD_A">      0.00000000</i>
  </separator>
  <separator name="optional k-points parameters" >
   <i type="int" name="KPOINTS_OPT_MODE">     1</i>
   <i type="logical" name="LKPOINTS_OPT"> F  </i>
  </separator>
 </parameters>
 <atominfo>
  <atoms>      14 </atoms>
  <types>       1 </types>
  <array name="atoms" >
   <dimension dim="1">ion</dimension>
   <field type="string">element</field>
   <field type="int">atomtype</field>
   <set>
    <rc><c>B </c><c>   1</c></rc>
    <rc><c>B </c><c>   1</c></rc>
    <rc><c>B </c><c>   1</c></rc>
    <rc><c>B </c><c>   1</c></rc>
    <rc><c>B </c><c>   1</c></rc>
    <rc><c>B </c><c>   1</c></rc>
    <rc><c>B </c><c>   1</c></rc>
    <rc><c>B </c><c>   1</c></rc>
    <rc><c>B </c><c>   1</c></rc>
    <rc><c>B </c><c>   1</c></rc>
    <rc><c>B </c><c>   1</c></rc>
    <rc><c>B </c><c>   1</c></rc>
    <rc><c>B </c><c>   1</c></rc>
    <rc><c>B </c><c>   1</c></rc>
   </set>
  </array>
  <array name="atomtypes" >
   <dimension dim="1">type</dimension>
   <field type="int">atomspertype</field>
   <field type="string">element</field>
   <field>mass</field>
   <field>valence</field>
   <field type="string">pseudopotential</field>
   <set>
    <rc><c>  14</c><c>B </c><c>     10.81100000</c><c>      3.00000000</c><c>  PAW_PBE B 06Sep2000                   </c></rc>
   </set>
  </array>
 </atominfo>
 <structure name="initialpos" >
  <crystal>
   <varray name="basis" >
    <v>       5.69700000       0.00000000       0.00000000 </v>
    <v>       0.00000000       4.04790000       0.00000000 </v>
    <v>       0.00000000       0.00000000       6.20420000 </v>
   </varray>
   <i name="volume">    143.07435078 </i>
   <varray name="rec_basis" >
    <v>       0.17553098       0.00000000       0.00000000 </v>
    <v>       0.00000000       0.24704168       0.00000000 </v>
    <v>       0.00000000       0.00000000       0.16118114 </v>
   </varray>
  </crystal>
  <varray name="positions" >
   <v>       0.52123000       0.50000000       0.63796000 </v>
   <v>       0.47877000       0.50000000       0.36204000 </v>
   <v>       0.97877000       0.50000000       0.63796000 </v>
   <v>       0.02123000       0.50000000       0.36204000 </v>
   <v>       0.60090000       0.50000000       0.89991000 </v>
   <v>       0.39910000       0.50000000       0.10009000 </v>
   <v>       0.89910000       0.50000000       0.89991000 </v>
   <v>       0.10090000       0.50000000       0.10009000 </v>
   <v>       0.75000000       0.79171000       0.72973000 </v>
   <v>       0.25000000       0.20829000       0.27027000 </v>
   <v>       0.75000000       0.20829000       0.72973000 </v>
   <v>       0.25000000       0.79171000       0.27027000 </v>
   <v>       0.25000000       0.50000000       0.52367000 </v>
   <v>       0.75000000       0.50000000       0.47633000 </v>
  </varray>
 </structure>
 <calculation>
  <scstep>
   <time name="dav">   15.59   15.70</time>
   <time name="total">   15.64   15.75</time>
   <energy>
    <i name="alphaZ">     94.24357992 </i>
    <i name="ewald">   -795.76658092 </i>
    <i name="hartreedc">   -271.33601302 </i>
    <i name="XCdc">     97.50108125 </i>
    <i name="pawpsdc">    608.99811708 </i>
    <i name="pawaedc">   -597.02363782 </i>
    <i name="eentropy">     -0.00231851 </i>
    <i name="bandstr">     28.17655679 </i>
    <i name="atom">    996.38247648 </i>
    <i name="e_fr_energy">    161.17326125 </i>
    <i name="e_wo_entrp">    161.17557976 </i>
    <i name="e_0_energy">    161.17442051 </i>
   </energy>
  </scstep>
  <scstep>
   <time name="dav">   19.01   19.16</time>
   <time name="total">   19.01   19.16</time>
   <energy>
    <i name="e_fr_energy">    -87.65173436 </i>
    <i name="e_wo_entrp">    -87.64778896 </i>
    <i name="e_0_energy">    -87.64976166 </i>
   </energy>
  </scstep>
  <scstep>
   <time name="dav">   21.28   21.43</time>
   <time name="total">   21.28   21.43</time>
   <energy>
    <i name="e_fr_energy">    -97.59513410 </i>
    <i name="e_wo_entrp">    -97.59146500 </i>
    <i name="e_0_energy">    -97.59329955 </i>
   </energy>
  </scstep>
  <scstep>
   <time name="dav">   16.68   16.80</time>
   <time name="total">   16.68   16.80</time>
   <energy>
    <i name="e_fr_energy">    -97.65821793 </i>
    <i name="e_wo_entrp">    -97.65456200 </i>
    <i name="e_0_energy">    -97.65638996 </i>
   </energy>
  </scstep>
  <scstep>
   <time name="dav">   21.23   21.38</time>
   <time name="total">   21.93   22.10</time>
   <energy>
    <i name="e_fr_energy">    -97.65884518 </i>
    <i name="e_wo_entrp">    -97.65518935 </i>
    <i name="e_0_energy">    -97.65701726 </i>
   </energy>
  </scstep>
  <scstep>
   <time name="dav">   20.61   20.77</time>
   <time name="total">   21.34   21.51</time>
   <energy>
    <i name="e_fr_energy">    -92.24249652 </i>
    <i name="e_wo_entrp">    -92.23906467 </i>
    <i name="e_0_energy">    -92.24078059 </i>
   </energy>
  </scstep>
  <scstep>
   <time name="dav">   21.27   21.42</time>
   <time name="total">   22.00   22.16</time>
   <energy>
    <i name="e_fr_energy">    -90.59085593 </i>
    <i name="e_wo_entrp">    -90.58772043 </i>
    <i name="e_0_energy">    -90.58928818 </i>
   </energy>
  </scstep>
  <scstep>
   <time name="dav">   16.57   16.69</time>
   <time name="total">   17.29   17.41</time>
   <energy>
    <i name="e_fr_energy">    -90.60331777 </i>
    <i name="e_wo_entrp">    -90.60014016 </i>
    <i name="e_0_energy">    -90.60172897 </i>
   </energy>
  </scstep>
  <scstep>
   <time name="dav">   20.05   20.20</time>
   <time name="total">   20.78   20.93</time>
   <energy>
    <i name="e_fr_energy">    -90.61748901 </i>
    <i name="e_wo_entrp">    -90.61422513 </i>
    <i name="e_0_energy">    -90.61585707 </i>
   </energy>
  </scstep>
  <scstep>
   <time name="dav">   17.06   17.18</time>
   <time name="total">   17.78   17.90</time>
   <energy>
    <i name="e_fr_energy">    -90.62154073 </i>
    <i name="e_wo_entrp">    -90.61832297 </i>
    <i name="e_0_energy">    -90.61993185 </i>
   </energy>
  </scstep>
  <scstep>
   <time name="dav">   18.75   18.88</time>
   <time name="total">   19.47   19.62</time>
   <energy>
    <i name="e_fr_energy">    -90.62261246 </i>
    <i name="e_wo_entrp">    -90.61940548 </i>
    <i name="e_0_energy">    -90.62100897 </i>
   </energy>
  </scstep>
  <scstep>
   <time name="dav">   18.15   18.29</time>
   <time name="total">   18.86   19.01</time>
   <energy>
    <i name="e_fr_energy">    -90.62272805 </i>
    <i name="e_wo_entrp">    -90.61951488 </i>
    <i name="e_0_energy">    -90.62112146 </i>
   </energy>
  </scstep>
  <scstep>
   <time name="dav">   20.02   20.17</time>
   <time name="total">   20.75   20.91</time>
   <energy>
    <i name="e_fr_energy">    -90.62273297 </i>
    <i name="e_wo_entrp">    -90.61951951 </i>
    <i name="e_0_energy">    -90.62112624 </i>
   </energy>
  </scstep>
  <scstep>
   <time name="dav">   18.03   18.15</time>
   <time name="total">   18.06   18.19</time>
   <energy>
    <i name="alphaZ">     94.24357992 </i>
    <i name="ewald">   -795.76658092 </i>
    <i name="hartreedc">   -349.12377992 </i>
    <i name="XCdc">    101.59809213 </i>
    <i name="pawpsdc">   3726.51454357 </i>
    <i name="pawaedc">  -3715.69998637 </i>
    <i name="eentropy">     -0.00321357 </i>
    <i name="bandstr">   -148.76786498 </i>
    <i name="atom">    996.38247648 </i>
    <i name="e_fr_energy">    -90.62273366 </i>
    <i name="e_wo_entrp">    -90.61952009 </i>
    <i name="e_0_energy">    -90.62112687 </i>
   </energy>
  </scstep>
  <structure>
   <crystal>
    <varray name="basis" >
     <v>       5.69700000       0.00000000       0.00000000 </v>
     <v>       0.00000000       4.04790000       0.00000000 </v>
     <v>       0.00000000       0.00000000       6.20420000 </v>
    </varray>
    <i name="volume">    143.07435078 </i>
    <varray name="rec_basis" >
     <v>       0.17553098       0.00000000       0.00000000 </v>
     <v>       0.00000000       0.24704168       0.00000000 </v>
     <v>       0.00000000       0.00000000       0.16118114 </v>
    </varray>
   </crystal>
   <varray name="positions" >
    <v>       0.52123000       0.50000000       0.63796000 </v>
    <v>       0.47877000       0.50000000       0.36204000 </v>
    <v>       0.97877000       0.50000000       0.63796000 </v>
    <v>       0.02123000       0.50000000       0.36204000 </v>
    <v>       0.60090000       0.50000000       0.89991000 </v>
    <v>       0.39910000       0.50000000       0.10009000 </v>
    <v>       0.89910000       0.50000000       0.89991000 </v>
    <v>       0.10090000       0.50000000       0.10009000 </v>
    <v>       0.75000000       0.79171000       0.72973000 </v>
    <v>       0.25000000       0.20829000       0.27027000 </v>
    <v>       0.75000000       0.20829000       0.72973000 </v>
    <v>       0.25000000       0.79171000       0.27027000 </v>
    <v>       0.25000000       0.50000000       0.52367000 </v>
    <v>       0.75000000       0.50000000       0.47633000 </v>
   </varray>
  </structure>
  <varray name="forces" >
   <v>      -0.00203346      -0.00000000       0.05118581 </v>
   <v>       0.00203346      -0.00000000      -0.05118581 </v>
   <v>       0.00203346      -0.00000000       0.05118581 </v>
   <v>      -0.00203346      -0.00000000      -0.05118581 </v>
   <v>      -0.83170469      -0.00000000       0.27607484 </v>
   <v>       0.83170469      -0.00000000      -0.27607484 </v>
   <v>       0.83170469      -0.00000000       0.27607484 </v>
   <v>      -0.83170469      -0.00000000      -0.27607484 </v>
   <v>       0.00000000       0.05925089      -0.07903986 </v>
   <v>       0.00000000      -0.05925089       0.07903986 </v>
   <v>      -0.00000000      -0.05925089      -0.07903986 </v>
   <v>      -0.00000000       0.05925089       0.07903986 </v>
   <v>      -0.00000000      -0.00000000       0.06879122 </v>
   <v>      -0.00000000      -0.00000000      -0.06879122 </v>
  </varray>
  <varray name="stress" >
   <v>      14.64765487       0.00000000      -0.00000000 </v>
   <v>       0.00000000       1.33659004       0.00000000 </v>
   <v>       0.00000000       0.00000000      -6.50455670 </v>
  </varray>
  <energy>
   <i name="e_fr_energy">    -90.62273366 </i>
   <i name="e_wo_entrp">    -90.61952009 </i>
   <i name="e_0_energy">    -90.62112687 </i>
  </energy>
  <time name="totalsc">  283.75  285.81</time>
  <eigenvalues>
   <array>
    <dimension dim="1">band</dimension>
    <dimension dim="2">kpoint</dimension>
    <dimension dim="3">spin</dimension>
    <field>eigene</field>
    <field>occ</field>
    <set>
     <set comment="spin 1">
      <set comment="kpoint 1">
       <r>  -12.7248    1.0000 </r>
       <r>  -11.5829    1.0000 </r>
       <r>   -8.6581    1.0000 </r>
       <r>   -8.4213    1.0000 </r>
       <r>   -6.0639    1.0000 </r>
       <r>   -5.1302    1.0000 </r>
       <r>   -4.6659    1.0000 </r>
       <r>   -4.2751    1.0000 </r>
       <r>   -4.0331    1.0000 </r>
       <r>   -3.5440    1.0000 </r>
       <r>   -2.5938    1.0000 </r>
       <r>   -2.3247    1.0000 </r>
       <r>   -1.8337    1.0000 </r>
       <r>   -1.0962    1.0000 </r>
       <r>   -0.0701    1.0000 </r>
       <r>   -0.0399    1.0000 </r>
       <r>    0.1560    1.0000 </r>
       <r>    0.1775    1.0000 </r>
       <r>    0.5653    1.0000 </r>
       <r>    2.0184    0.0001 </r>
       <r>    2.0814    0.0000 </r>
       <r>    2.2166    0.0000 </r>
       <r>    5.4573    0.0000 </r>
       <r>    5.7484    0.0000 </r>
       <r>    5.8375    0.0000 </r>
       <r>    5.9586    0.0000 </r>
       <r>    6.8138    0.0000 </r>
       <r>    7.5478    0.0000 </r>
       <r>    7.8770    0.0000 </r>
       <r>    8.5347    0.0000 </r>
       <r>    8.8013    0.0000 </r>
       <r>    8.9489    0.0000 </r>
       <r>    9.0511    0.0000 </r>
       <r>   10.1227    0.0000 </r>
       <r>   11.1835    0.0000 </r>
       <r>   11.3335    0.0000 </r>
       <r>   11.6637    0.0000 </r>
       <r>   11.7806    0.0000 </r>
       <r>   11.9400    0.0000 </r>
       <r>   12.4025    0.0000 </r>
       <r>   12.8675    0.0000 </r>
       <r>   13.4511    0.0000 </r>
       <r>   13.4783    0.0000 </r>
       <r>   15.3802    0.0000 </r>
       <r>   15.5699    0.0000 </r>
       <r>   16.0603    0.0000 </r>
       <r>   16.3317    0.0000 </r>
       <r>   16.3546    0.0000 </r>
      </set>
      <set comment="kpoint 2">
       <r>  -12.6811    1.0000 </r>
       <r>  -11.6567    1.0000 </r>
       <r>   -8.6370    1.0000 </r>
       <r>   -8.4098    1.0000 </r>
       <r>   -5.9957    1.0000 </r>
       <r>   -5.4712    1.0000 </r>
       <r>   -4.7885    1.0000 </r>
       <r>   -4.0097    1.0000 </r>
       <r>   -3.7922    1.0000 </r>
       <r>   -3.2065    1.0000 </r>
       <r>   -2.6640    1.0000 </r>
       <r>   -2.3046    1.0000 </r>
       <r>   -1.9124    1.0000 </r>
       <r>   -1.4032    1.0000 </r>
       <r>   -0.0297    1.0000 </r>
       <r>   -0.0186    1.0000 </r>
       <r>    0.0935    1.0000 </r>
       <r>    0.1979    1.0000 </r>
       <r>    0.4703    1.0000 </r>
       <r>    1.9322    0.0842 </r>
       <r>    2.0035    0.0003 </r>
       <r>    2.0954    0.0000 </r>
       <r>    5.5461    0.0000 </r>
       <r>    5.7569    0.0000 </r>
       <r>    5.8653    0.0000 </r>
       <r>    6.3042    0.0000 </r>
       <r>    6.7283    0.0000 </r>
       <r>    7.1860    0.0000 </r>
       <r>    8.0869    0.0000 </r>
       <r>    8.6711    0.0000 </r>
       <r>    9.0582    0.0000 </r>
       <r>    9.1305    0.0000 </r>
       <r>    9.2033    0.0000 </r>
       <r>   10.2354    0.0000 </r>
       <r>   10.9412    0.0000 </r>
       <r>   11.1295    0.0000 </r>
       <r>   11.2565    0.0000 </r>
       <r>   11.6979    0.0000 </r>
       <r>   12.1572    0.0000 </r>
       <r>   12.4919    0.0000 </r>
       <r>   13.1199    0.0000 </r>
       <r>   13.1266    0.0000 </r>
       <r>   14.0099    0.0000 </r>
       <r>   14.8686    0.0000 </r>
       <r>   15.7492    0.0000 </r>
       <r>   15.8282    0.0000 </r>
       <r>   16.2254    0.0000 </r>
       <r>   16.5120    0.0000 </r>
      </set>
      <set comment="kpoint 3">
       <r>  -12.5954    1.0000 </r>
       <r>  -11.7896    1.0000 </r>
       <r>   -8.5934    1.0000 </r>
       <r>   -8.3951    1.0000 </r>
       <r>   -5.9741    1.0000 </r>
       <r>   -5.7979    1.0000 </r>
       <r>   -4.7426    1.0000 </r>
       <r>   -3.8823    1.0000 </r>
       <r>   -3.2813    1.0000 </r>
       <r>   -2.8328    1.0000 </r>
       <r>   -2.7142    1.0000 </r>
       <r>   -2.2642    1.0000 </r>
       <r>   -2.0230    1.0000 </r>
       <r>   -1.9074    1.0000 </r>
       <r>   -0.2195    1.0000 </r>
       <r>    0.0138    1.0000 </r>
       <r>    0.1434    1.0000 </r>
       <r>    0.1568    1.0000 </r>
       <r>    0.4401    1.0000 </r>
       <r>    1.7845    0.9974 </r>
       <r>    1.8658    0.6916 </r>
       <r>    1.8707    0.6406 </r>
       <r>    5.6669    0.0000 </r>
       <r>    5.7134    0.0000 </r>
       <r>    6.1744    0.0000 </r>
       <r>    6.6022    0.0000 </r>
       <r>    6.7627    0.0000 </r>
       <r>    6.9314    0.0000 </r>
       <r>    8.2379    0.0000 </r>
       <r>    8.8195    0.0000 </r>
       <r>    8.9996    0.0000 </r>
       <r>    9.5745    0.0000 </r>
       <r>    9.6472    0.0000 </r>
       <r>   10.2799    0.0000 </r>
       <r>   10.4851    0.0000 </r>
       <r>   10.6250    0.0000 </r>
       <r>   11.3767    0.0000 </r>
       <r>   11.8401    0.0000 </r>
       <r>   12.3921    0.0000 </r>
       <r>   12.5648    0.0000 </r>
       <r>   12.7923    0.0000 </r>
       <r>   12.9172    0.0000 </r>
       <r>   14.6357    0.0000 </r>
       <r>   14.9172    0.0000 </r>
       <r>   15.2249    0.0000 </r>
       <r>   15.9821    0.0000 </r>
       <r>   16.0011    0.0000 </r>
       <r>   16.2898    0.0000 </r>
      </set>
      <set comment="kpoint 4">
       <r>  -12.4719    1.0000 </r>
       <r>  -11.9590    1.0000 </r>
       <r>   -8.5316    1.0000 </r>
       <r>   -8.3919    1.0000 </r>
       <r>   -6.0548    1.0000 </r>
       <r>   -6.0309    1.0000 </r>
       <r>   -4.4151    1.0000 </r>
       <r>   -3.7133    1.0000 </r>
       <r>   -3.0269    1.0000 </r>
       <r>   -2.8968    1.0000 </r>
       <r>   -2.4442    1.0000 </r>
       <r>   -2.2528    1.0000 </r>
       <r>   -2.1458    1.0000 </r>
       <r>   -2.1241    1.0000 </r>
       <r>   -0.5185    1.0000 </r>
       <r>   -0.2454    1.0000 </r>
       <r>    0.1725    1.0000 </r>
       <r>    0.2479    1.0000 </r>
       <r>    0.6133    1.0000 </r>
       <r>    1.5300    1.0000 </r>
       <r>    1.6618    1.0000 </r>
       <r>    1.7224    1.0000 </r>
       <r>    5.6982    0.0000 </r>
       <r>    5.7522    0.0000 </r>
       <r>    6.5009    0.0000 </r>
       <r>    6.6725    0.0000 </r>
       <r>    6.6984    0.0000 </r>
       <r>    7.4124    0.0000 </r>
       <r>    8.3623    0.0000 </r>
       <r>    8.6883    0.0000 </r>
       <r>    8.8087    0.0000 </r>
       <r>    9.5342    0.0000 </r>
       <r>   10.0552    0.0000 </r>
       <r>   10.1177    0.0000 </r>
       <r>   10.3978    0.0000 </r>
       <r>   11.1482    0.0000 </r>
       <r>   11.4040    0.0000 </r>
       <r>   11.9451    0.0000 </r>
       <r>   12.2036    0.0000 </r>
       <r>   12.2746    0.0000 </r>
       <r>   12.5206    0.0000 </r>
       <r>   13.2566    0.0000 </r>
       <r>   14.7125    0.0000 </r>
       <r>   14.9762    0.0000 </r>
       <r>   15.2623    0.0000 </r>
       <r>   15.3739    0.0000 </r>
       <r>   15.5721    0.0000 </r>
       <r>   16.3766    0.0000 </r>
      </set>
      <set comment="kpoint 5">
       <r>  -12.3172    1.0000 </r>
       <r>  -12.1414    1.0000 </r>
       <r>   -8.4655    1.0000 </r>
       <r>   -8.4145    1.0000 </r>
       <r>   -6.1445    1.0000 </r>
       <r>   -6.1401    1.0000 </r>
       <r>   -3.8998    1.0000 </r>
       <r>   -3.5040    1.0000 </r>
       <r>   -3.3004    1.0000 </r>
       <r>   -3.2660    1.0000 </r>
       <r>   -2.3618    1.0000 </r>
       <r>   -2.2332    1.0000 </r>
       <r>   -1.9616    1.0000 </r>
       <r>   -1.9086    1.0000 </r>
       <r>   -0.7390    1.0000 </r>
       <r>   -0.6036    1.0000 </r>
       <r>    0.2557    1.0000 </r>
       <r>    0.2893    1.0000 </r>
       <r>    0.8740    1.0000 </r>
       <r>    1.1913    1.0000 </r>
       <r>    1.5812    1.0000 </r>
       <r>    1.6086    1.0000 </r>
       <r>    5.7262    0.0000 </r>
       <r>    5.7635    0.0000 </r>
       <r>    6.4795    0.0000 </r>
       <r>    6.5434    0.0000 </r>
       <r>    7.3675    0.0000 </r>
       <r>    8.0733    0.0000 </r>
       <r>    8.0950    0.0000 </r>
       <r>    8.4801    0.0000 </r>
       <r>    8.6188    0.0000 </r>
       <r>    8.7890    0.0000 </r>
       <r>   10.5007    0.0000 </r>
       <r>   10.5170    0.0000 </r>
       <r>   10.7604    0.0000 </r>
       <r>   11.2184    0.0000 </r>
       <r>   11.4029    0.0000 </r>
       <r>   11.5991    0.0000 </r>
       <r>   11.9328    0.0000 </r>
       <r>   12.4819    0.0000 </r>
       <r>   12.7160    0.0000 </r>
       <r>   13.2521    0.0000 </r>
       <r>   14.5901    0.0000 </r>
       <r>   14.7342    0.0000 </r>
       <r>   14.8687    0.0000 </r>
       <r>   14.9276    0.0000 </r>
       <r>   16.1012    0.0000 </r>
       <r>   16.4458    0.0000 </r>
      </set>
      <set comment="kpoint 6">
       <r>  -12.7008    1.0000 </r>
       <r>  -11.5613    1.0000 </r>
       <r>   -8.6393    1.0000 </r>
       <r>   -8.3982    1.0000 </r>
       <r>   -6.0371    1.0000 </r>
       <r>   -5.0965    1.0000 </r>
       <r>   -4.6439    1.0000 </r>
       <r>   -4.5732    1.0000 </r>
       <r>   -4.1771    1.0000 </r>
       <r>   -3.5211    1.0000 </r>
       <r>   -3.2870    1.0000 </r>
       <r>   -1.7939    1.0000 </r>
       <r>   -1.0917    1.0000 </r>
       <r>   -1.0350    1.0000 </r>
       <r>   -0.3039    1.0000 </r>
       <r>   -0.2759    1.0000 </r>
       <r>    0.1695    1.0000 </r>
       <r>    0.2477    1.0000 </r>
       <r>    0.6437    1.0000 </r>
       <r>    1.7506    0.9999 </r>
       <r>    1.8305    0.9329 </r>
       <r>    2.2688    0.0000 </r>
       <r>    5.5756    0.0000 </r>
       <r>    5.7072    0.0000 </r>
       <r>    5.7410    0.0000 </r>
       <r>    6.0063    0.0000 </r>
       <r>    7.0997    0.0000 </r>
       <r>    7.8333    0.0000 </r>
       <r>    8.0765    0.0000 </r>
       <r>    8.1872    0.0000 </r>
       <r>    8.8055    0.0000 </r>
       <r>    9.0983    0.0000 </r>
       <r>    9.1495    0.0000 </r>
       <r>   10.5748    0.0000 </r>
       <r>   11.2650    0.0000 </r>
       <r>   11.3986    0.0000 </r>
       <r>   11.5977    0.0000 </r>
       <r>   11.8835    0.0000 </r>
       <r>   12.0507    0.0000 </r>
       <r>   12.6827    0.0000 </r>
       <r>   12.8676    0.0000 </r>
       <r>   13.1878    0.0000 </r>
       <r>   13.1940    0.0000 </r>
       <r>   15.3301    0.0000 </r>
       <r>   15.3795    0.0000 </r>
       <r>   15.8568    0.0000 </r>
       <r>   15.8678    0.0000 </r>
       <r>   16.2189    0.0000 </r>
      </set>
      <set comment="kpoint 7">
       <r>  -12.6572    1.0000 </r>
       <r>  -11.6350    1.0000 </r>
       <r>   -8.6180    1.0000 </r>
       <r>   -8.3871    1.0000 </r>
       <r>   -5.9671    1.0000 </r>
       <r>   -5.4412    1.0000 </r>
       <r>   -4.7684    1.0000 </r>
       <r>   -4.4904    1.0000 </r>
       <r>   -3.7529    1.0000 </r>
       <r>   -3.3678    1.0000 </r>
       <r>   -3.1684    1.0000 </r>
       <r>   -1.7722    1.0000 </r>
       <r>   -1.3977    1.0000 </r>
       <r>   -1.1542    1.0000 </r>
       <r>   -0.2649    1.0000 </r>
       <r>   -0.1952    1.0000 </r>
       <r>    0.1370    1.0000 </r>
       <r>    0.2193    1.0000 </r>
       <r>    0.5410    1.0000 </r>
       <r>    1.6701    1.0000 </r>
       <r>    1.7541    0.9999 </r>
       <r>    2.1380    0.0000 </r>
       <r>    5.6515    0.0000 </r>
       <r>    5.8058    0.0000 </r>
       <r>    5.9345    0.0000 </r>
       <r>    6.1111    0.0000 </r>
       <r>    7.0163    0.0000 </r>
       <r>    7.5082    0.0000 </r>
       <r>    8.2223    0.0000 </r>
       <r>    8.3578    0.0000 </r>
       <r>    9.1293    0.0000 </r>
       <r>    9.1597    0.0000 </r>
       <r>    9.4153    0.0000 </r>
       <r>   10.4998    0.0000 </r>
       <r>   10.8724    0.0000 </r>
       <r>   11.0821    0.0000 </r>
       <r>   11.4531    0.0000 </r>
       <r>   11.8708    0.0000 </r>
       <r>   12.2703    0.0000 </r>
       <r>   12.7377    0.0000 </r>
       <r>   12.8657    0.0000 </r>
       <r>   13.1507    0.0000 </r>
       <r>   13.7273    0.0000 </r>
       <r>   14.9537    0.0000 </r>
       <r>   15.3972    0.0000 </r>
       <r>   15.7490    0.0000 </r>
       <r>   15.7947    0.0000 </r>
       <r>   16.3991    0.0000 </r>
      </set>
      <set comment="kpoint 8">
       <r>  -12.5717    1.0000 </r>
       <r>  -11.7676    1.0000 </r>
       <r>   -8.5743    1.0000 </r>
       <r>   -8.3731    1.0000 </r>
       <r>   -5.9428    1.0000 </r>
       <r>   -5.7674    1.0000 </r>
       <r>   -4.7259    1.0000 </r>
       <r>   -4.3818    1.0000 </r>
       <r>   -3.4898    1.0000 </r>
       <r>   -3.2270    1.0000 </r>
       <r>   -2.7019    1.0000 </r>
       <r>   -1.9028    1.0000 </r>
       <r>   -1.7279    1.0000 </r>
       <r>   -1.3174    1.0000 </r>
       <r>   -0.2218    1.0000 </r>
       <r>   -0.2177    1.0000 </r>
       <r>    0.0523    1.0000 </r>
       <r>    0.2064    1.0000 </r>
       <r>    0.4647    1.0000 </r>
       <r>    1.5351    1.0000 </r>
       <r>    1.6240    1.0000 </r>
       <r>    1.8897    0.4296 </r>
       <r>    5.8551    0.0000 </r>
       <r>    5.9335    0.0000 </r>
       <r>    6.0113    0.0000 </r>
       <r>    6.5598    0.0000 </r>
       <r>    6.8956    0.0000 </r>
       <r>    7.2804    0.0000 </r>
       <r>    8.4285    0.0000 </r>
       <r>    8.4909    0.0000 </r>
       <r>    9.0998    0.0000 </r>
       <r>    9.6123    0.0000 </r>
       <r>    9.8729    0.0000 </r>
       <r>   10.1238    0.0000 </r>
       <r>   10.3523    0.0000 </r>
       <r>   10.8224    0.0000 </r>
       <r>   11.5187    0.0000 </r>
       <r>   12.1053    0.0000 </r>
       <r>   12.3072    0.0000 </r>
       <r>   12.5542    0.0000 </r>
       <r>   12.9568    0.0000 </r>
       <r>   13.0224    0.0000 </r>
       <r>   14.3044    0.0000 </r>
       <r>   15.0852    0.0000 </r>
       <r>   15.1608    0.0000 </r>
       <r>   15.6445    0.0000 </r>
       <r>   15.7079    0.0000 </r>
       <r>   16.4195    0.0000 </r>
      </set>
      <set comment="kpoint 9">
       <r>  -12.4485    1.0000 </r>
       <r>  -11.9366    1.0000 </r>
       <r>   -8.5122    1.0000 </r>
       <r>   -8.3708    1.0000 </r>
       <r>   -6.0223    1.0000 </r>
       <r>   -5.9996    1.0000 </r>
       <r>   -4.4006    1.0000 </r>
       <r>   -4.2346    1.0000 </r>
       <r>   -3.6615    1.0000 </r>
       <r>   -2.8472    1.0000 </r>
       <r>   -2.3625    1.0000 </r>
       <r>   -2.2187    1.0000 </r>
       <r>   -1.6636    1.0000 </r>
       <r>   -1.4806    1.0000 </r>
       <r>   -0.4800    1.0000 </r>
       <r>   -0.3084    1.0000 </r>
       <r>    0.0843    1.0000 </r>
       <r>    0.1142    1.0000 </r>
       <r>    0.6240    1.0000 </r>
       <r>    1.3955    1.0000 </r>
       <r>    1.4786    1.0000 </r>
       <r>    1.5657    1.0000 </r>
       <r>    5.8731    0.0000 </r>
       <r>    6.0070    0.0000 </r>
       <r>    6.5165    0.0000 </r>
       <r>    6.8060    0.0000 </r>
       <r>    6.8789    0.0000 </r>
       <r>    7.3712    0.0000 </r>
       <r>    8.4171    0.0000 </r>
       <r>    8.5988    0.0000 </r>
       <r>    8.9386    0.0000 </r>
       <r>    9.3697    0.0000 </r>
       <r>   10.0714    0.0000 </r>
       <r>   10.0977    0.0000 </r>
       <r>   10.4405    0.0000 </r>
       <r>   11.2254    0.0000 </r>
       <r>   11.3631    0.0000 </r>
       <r>   11.8405    0.0000 </r>
       <r>   12.2920    0.0000 </r>
       <r>   12.5447    0.0000 </r>
       <r>   12.7206    0.0000 </r>
       <r>   13.4591    0.0000 </r>
       <r>   14.7648    0.0000 </r>
       <r>   14.7722    0.0000 </r>
       <r>   15.1528    0.0000 </r>
       <r>   15.3067    0.0000 </r>
       <r>   15.6509    0.0000 </r>
       <r>   16.3895    0.0000 </r>
      </set>
      <set comment="kpoint 10">
       <r>  -12.2941    1.0000 </r>
       <r>  -12.1186    1.0000 </r>
       <r>   -8.4458    1.0000 </r>
       <r>   -8.3942    1.0000 </r>
       <r>   -6.1124    1.0000 </r>
       <r>   -6.1075    1.0000 </r>
       <r>   -4.0555    1.0000 </r>
       <r>   -3.8925    1.0000 </r>
       <r>   -3.8513    1.0000 </r>
       <r>   -3.2876    1.0000 </r>
       <r>   -2.1085    1.0000 </r>
       <r>   -1.9146    1.0000 </r>
       <r>   -1.5955    1.0000 </r>
       <r>   -1.5927    1.0000 </r>
       <r>   -0.7008    1.0000 </r>
       <r>   -0.5998    1.0000 </r>
       <r>    0.1173    1.0000 </r>
       <r>    0.1485    1.0000 </r>
       <r>    0.8834    1.0000 </r>
       <r>    1.1977    1.0000 </r>
       <r>    1.3419    1.0000 </r>
       <r>    1.3661    1.0000 </r>
       <r>    5.9242    0.0000 </r>
       <r>    5.9899    0.0000 </r>
       <r>    6.7950    0.0000 </r>
       <r>    6.8455    0.0000 </r>
       <r>    7.1841    0.0000 </r>
       <r>    7.8966    0.0000 </r>
       <r>    7.9417    0.0000 </r>
       <r>    8.6243    0.0000 </r>
       <r>    8.6915    0.0000 </r>
       <r>    8.8044    0.0000 </r>
       <r>   10.3194    0.0000 </r>
       <r>   10.5676    0.0000 </r>
       <r>   10.8044    0.0000 </r>
       <r>   10.9088    0.0000 </r>
       <r>   11.5501    0.0000 </r>
       <r>   11.6583    0.0000 </r>
       <r>   12.0120    0.0000 </r>
       <r>   12.6511    0.0000 </r>
       <r>   13.0245    0.0000 </r>
       <r>   13.4834    0.0000 </r>
       <r>   14.5478    0.0000 </r>
       <r>   14.7325    0.0000 </r>
       <r>   14.8294    0.0000 </r>
       <r>   15.0471    0.0000 </r>
       <r>   16.1254    0.0000 </r>
       <r>   16.4199    0.0000 </r>
      </set>
      <set comment="kpoint 11">
       <r>  -12.6564    1.0000 </r>
       <r>  -11.5216    1.0000 </r>
       <r>   -8.6049    1.0000 </r>
       <r>   -8.3555    1.0000 </r>
       <r>   -5.9876    1.0000 </r>
       <r>   -5.1302    1.0000 </r>
       <r>   -5.0056    1.0000 </r>
       <r>   -4.6020    1.0000 </r>
       <r>   -4.1610    1.0000 </r>
       <r>   -3.9091    1.0000 </r>
       <r>   -3.4679    1.0000 </r>
       <r>   -1.2048    1.0000 </r>
       <r>   -1.0823    1.0000 </r>
       <r>   -0.6479    1.0000 </r>
       <r>   -0.5420    1.0000 </r>
       <r>   -0.1765    1.0000 </r>
       <r>    0.1906    1.0000 </r>
       <r>    0.3007    1.0000 </r>
       <r>    0.7221    1.0000 </r>
       <r>    1.3678    1.0000 </r>
       <r>    1.4314    1.0000 </r>
       <r>    2.3069    0.0000 </r>
       <r>    5.2863    0.0000 </r>
       <r>    5.4519    0.0000 </r>
       <r>    6.1222    0.0000 </r>
       <r>    6.1947    0.0000 </r>
       <r>    7.5352    0.0000 </r>
       <r>    7.6242    0.0000 </r>
       <r>    8.3159    0.0000 </r>
       <r>    8.7253    0.0000 </r>
       <r>    8.8814    0.0000 </r>
       <r>    9.2401    0.0000 </r>
       <r>    9.3701    0.0000 </r>
       <r>   10.8800    0.0000 </r>
       <r>   11.3168    0.0000 </r>
       <r>   11.5708    0.0000 </r>
       <r>   11.6997    0.0000 </r>
       <r>   12.0841    0.0000 </r>
       <r>   12.2669    0.0000 </r>
       <r>   12.7444    0.0000 </r>
       <r>   12.7578    0.0000 </r>
       <r>   13.0045    0.0000 </r>
       <r>   13.2227    0.0000 </r>
       <r>   14.6739    0.0000 </r>
       <r>   15.1591    0.0000 </r>
       <r>   15.3411    0.0000 </r>
       <r>   15.4288    0.0000 </r>
       <r>   15.9596    0.0000 </r>
      </set>
      <set comment="kpoint 12">
       <r>  -12.6130    1.0000 </r>
       <r>  -11.5949    1.0000 </r>
       <r>   -8.5834    1.0000 </r>
       <r>   -8.3451    1.0000 </r>
       <r>   -5.9142    1.0000 </r>
       <r>   -5.3930    1.0000 </r>
       <r>   -5.0314    1.0000 </r>
       <r>   -4.7307    1.0000 </r>
       <r>   -3.9753    1.0000 </r>
       <r>   -3.7107    1.0000 </r>
       <r>   -3.1289    1.0000 </r>
       <r>   -1.3895    1.0000 </r>
       <r>   -1.1784    1.0000 </r>
       <r>   -0.7551    1.0000 </r>
       <r>   -0.5040    1.0000 </r>
       <r>   -0.0954    1.0000 </r>
       <r>    0.1712    1.0000 </r>
       <r>    0.2444    1.0000 </r>
       <r>    0.6097    1.0000 </r>
       <r>    1.2887    1.0000 </r>
       <r>    1.3617    1.0000 </r>
       <r>    2.1711    0.0000 </r>
       <r>    5.3666    0.0000 </r>
       <r>    5.7979    0.0000 </r>
       <r>    6.1407    0.0000 </r>
       <r>    6.2367    0.0000 </r>
       <r>    7.4545    0.0000 </r>
       <r>    7.7808    0.0000 </r>
       <r>    8.0482    0.0000 </r>
       <r>    8.8162    0.0000 </r>
       <r>    9.2519    0.0000 </r>
       <r>    9.2851    0.0000 </r>
       <r>    9.6547    0.0000 </r>
       <r>   10.5154    0.0000 </r>
       <r>   10.7777    0.0000 </r>
       <r>   11.2746    0.0000 </r>
       <r>   11.7176    0.0000 </r>
       <r>   12.1965    0.0000 </r>
       <r>   12.4292    0.0000 </r>
       <r>   12.4991    0.0000 </r>
       <r>   13.1606    0.0000 </r>
       <r>   13.2712    0.0000 </r>
       <r>   13.4355    0.0000 </r>
       <r>   14.6841    0.0000 </r>
       <r>   14.8206    0.0000 </r>
       <r>   15.2821    0.0000 </r>
       <r>   15.4926    0.0000 </r>
       <r>   15.9858    0.0000 </r>
      </set>
      <set comment="kpoint 13">
       <r>  -12.5279    1.0000 </r>
       <r>  -11.7271    1.0000 </r>
       <r>   -8.5392    1.0000 </r>
       <r>   -8.3324    1.0000 </r>
       <r>   -5.8845    1.0000 </r>
       <r>   -5.7126    1.0000 </r>
       <r>   -4.9398    1.0000 </r>
       <r>   -4.6948    1.0000 </r>
       <r>   -4.0990    1.0000 </r>
       <r>   -3.1767    1.0000 </r>
       <r>   -2.6579    1.0000 </r>
       <r>   -1.8865    1.0000 </r>
       <r>   -1.1378    1.0000 </r>
       <r>   -0.8939    1.0000 </r>
       <r>   -0.4510    1.0000 </r>
       <r>   -0.0863    1.0000 </r>
       <r>    0.0132    1.0000 </r>
       <r>    0.2563    1.0000 </r>
       <r>    0.4947    1.0000 </r>
       <r>    1.1572    1.0000 </r>
       <r>    1.2434    1.0000 </r>
       <r>    1.9145    0.1897 </r>
       <r>    5.6879    0.0000 </r>
       <r>    6.0958    0.0000 </r>
       <r>    6.2742    0.0000 </r>
       <r>    6.3665    0.0000 </r>
       <r>    7.3521    0.0000 </r>
       <r>    7.8590    0.0000 </r>
       <r>    8.0146    0.0000 </r>
       <r>    8.9448    0.0000 </r>
       <r>    9.2455    0.0000 </r>
       <r>    9.7181    0.0000 </r>
       <r>    9.8504    0.0000 </r>
       <r>   10.1368    0.0000 </r>
       <r>   10.2527    0.0000 </r>
       <r>   11.0613    0.0000 </r>
       <r>   11.5854    0.0000 </r>
       <r>   12.1036    0.0000 </r>
       <r>   12.5078    0.0000 </r>
       <r>   12.7999    0.0000 </r>
       <r>   13.0428    0.0000 </r>
       <r>   13.4451    0.0000 </r>
       <r>   13.9581    0.0000 </r>
       <r>   14.5927    0.0000 </r>
       <r>   14.8703    0.0000 </r>
       <r>   15.3023    0.0000 </r>
       <r>   15.5116    0.0000 </r>
       <r>   16.1965    0.0000 </r>
      </set>
      <set comment="kpoint 14">
       <r>  -12.4052    1.0000 </r>
       <r>  -11.8954    1.0000 </r>
       <r>   -8.4767    1.0000 </r>
       <r>   -8.3318    1.0000 </r>
       <r>   -5.9617    1.0000 </r>
       <r>   -5.9419    1.0000 </r>
       <r>   -4.8038    1.0000 </r>
       <r>   -4.3739    1.0000 </r>
       <r>   -4.2637    1.0000 </r>
       <r>   -2.8086    1.0000 </r>
       <r>   -2.3215    1.0000 </r>
       <r>   -2.1776    1.0000 </r>
       <r>   -1.0812    1.0000 </r>
       <r>   -1.0307    1.0000 </r>
       <r>   -0.4563    1.0000 </r>
       <r>   -0.3723    1.0000 </r>
       <r>    0.0571    1.0000 </r>
       <r>    0.0610    1.0000 </r>
       <r>    0.6416    1.0000 </r>
       <r>    1.0276    1.0000 </r>
       <r>    1.1107    1.0000 </r>
       <r>    1.5796    1.0000 </r>
       <r>    6.1070    0.0000 </r>
       <r>    6.2231    0.0000 </r>
       <r>    6.3981    0.0000 </r>
       <r>    6.8013    0.0000 </r>
       <r>    7.2962    0.0000 </r>
       <r>    7.7802    0.0000 </r>
       <r>    8.0696    0.0000 </r>
       <r>    9.0444    0.0000 </r>
       <r>    9.1028    0.0000 </r>
       <r>    9.1752    0.0000 </r>
       <r>    9.8868    0.0000 </r>
       <r>   10.1856    0.0000 </r>
       <r>   10.7002    0.0000 </r>
       <r>   11.0767    0.0000 </r>
       <r>   11.3245    0.0000 </r>
       <r>   11.9496    0.0000 </r>
       <r>   12.3545    0.0000 </r>
       <r>   12.9843    0.0000 </r>
       <r>   13.0354    0.0000 </r>
       <r>   13.7893    0.0000 </r>
       <r>   14.3792    0.0000 </r>
       <r>   14.3952    0.0000 </r>
       <r>   15.0291    0.0000 </r>
       <r>   15.1222    0.0000 </r>
       <r>   15.6128    0.0000 </r>
       <r>   16.3738    0.0000 </r>
      </set>
      <set comment="kpoint 15">
       <r>  -12.2514    1.0000 </r>
       <r>  -12.0767    1.0000 </r>
       <r>   -8.4096    1.0000 </r>
       <r>   -8.3569    1.0000 </r>
       <r>   -6.0528    1.0000 </r>
       <r>   -6.0469    1.0000 </r>
       <r>   -4.6359    1.0000 </r>
       <r>   -4.4501    1.0000 </r>
       <r>   -3.8613    1.0000 </r>
       <r>   -3.2650    1.0000 </r>
       <r>   -2.0396    1.0000 </r>
       <r>   -1.8740    1.0000 </r>
       <r>   -1.1024    1.0000 </r>
       <r>   -1.0407    1.0000 </r>
       <r>   -0.6298    1.0000 </r>
       <r>   -0.6231    1.0000 </r>
       <r>    0.0075    1.0000 </r>
       <r>    0.0510    1.0000 </r>
       <r>    0.8990    1.0000 </r>
       <r>    0.9653    1.0000 </r>
       <r>    1.0061    1.0000 </r>
       <r>    1.2262    1.0000 </r>
       <r>    6.1986    0.0000 </r>
       <r>    6.3168    0.0000 </r>
       <r>    6.8760    0.0000 </r>
       <r>    7.2155    0.0000 </r>
       <r>    7.2741    0.0000 </r>
       <r>    7.6205    0.0000 </r>
       <r>    7.9273    0.0000 </r>
       <r>    8.4387    0.0000 </r>
       <r>    9.1004    0.0000 </r>
       <r>    9.1327    0.0000 </r>
       <r>   10.0107    0.0000 </r>
       <r>   10.4827    0.0000 </r>
       <r>   10.7067    0.0000 </r>
       <r>   10.9770    0.0000 </r>
       <r>   11.7303    0.0000 </r>
       <r>   11.7485    0.0000 </r>
       <r>   12.1329    0.0000 </r>
       <r>   12.9086    0.0000 </r>
       <r>   13.4144    0.0000 </r>
       <r>   13.7618    0.0000 </r>
       <r>   14.2268    0.0000 </r>
       <r>   14.3815    0.0000 </r>
       <r>   14.9918    0.0000 </r>
       <r>   15.1319    0.0000 </r>
       <r>   15.9892    0.0000 </r>
       <r>   16.2930    0.0000 </r>
      </set>
      <set comment="kpoint 16">
       <r>  -12.5990    1.0000 </r>
       <r>  -11.4702    1.0000 </r>
       <r>   -8.5610    1.0000 </r>
       <r>   -8.3003    1.0000 </r>
       <r>   -5.9234    1.0000 </r>
       <r>   -5.6111    1.0000 </r>
       <r>   -4.9353    1.0000 </r>
       <r>   -4.5458    1.0000 </r>
       <r>   -4.4294    1.0000 </r>
       <r>   -4.1216    1.0000 </r>
       <r>   -3.4059    1.0000 </r>
       <r>   -1.2204    1.0000 </r>
       <r>   -1.0681    1.0000 </r>
       <r>   -1.0026    1.0000 </r>
       <r>   -0.1947    1.0000 </r>
       <r>    0.2189    1.0000 </r>
       <r>    0.3441    1.0000 </r>
       <r>    0.5943    1.0000 </r>
       <r>    0.7859    1.0000 </r>
       <r>    0.9827    1.0000 </r>
       <r>    0.9968    1.0000 </r>
       <r>    2.3412    0.0000 </r>
       <r>    4.9427    0.0000 </r>
       <r>    5.1583    0.0000 </r>
       <r>    6.3551    0.0000 </r>
       <r>    6.5845    0.0000 </r>
       <r>    7.2658    0.0000 </r>
       <r>    7.9663    0.0000 </r>
       <r>    8.6996    0.0000 </r>
       <r>    9.0570    0.0000 </r>
       <r>    9.4630    0.0000 </r>
       <r>    9.5779    0.0000 </r>
       <r>    9.6513    0.0000 </r>
       <r>   10.7414    0.0000 </r>
       <r>   11.2673    0.0000 </r>
       <r>   11.9644    0.0000 </r>
       <r>   12.0160    0.0000 </r>
       <r>   12.2930    0.0000 </r>
       <r>   12.4216    0.0000 </r>
       <r>   12.4461    0.0000 </r>
       <r>   12.5631    0.0000 </r>
       <r>   12.9899    0.0000 </r>
       <r>   13.7916    0.0000 </r>
       <r>   13.8783    0.0000 </r>
       <r>   14.4160    0.0000 </r>
       <r>   15.1007    0.0000 </r>
       <r>   15.4013    0.0000 </r>
       <r>   15.8580    0.0000 </r>
      </set>
      <set comment="kpoint 17">
       <r>  -12.5557    1.0000 </r>
       <r>  -11.5432    1.0000 </r>
       <r>   -8.5390    1.0000 </r>
       <r>   -8.2908    1.0000 </r>
       <r>   -5.8453    1.0000 </r>
       <r>   -5.5764    1.0000 </r>
       <r>   -5.2725    1.0000 </r>
       <r>   -4.6808    1.0000 </r>
       <r>   -4.4949    1.0000 </r>
       <r>   -3.6569    1.0000 </r>
       <r>   -3.0673    1.0000 </r>
       <r>   -1.3834    1.0000 </r>
       <r>   -1.1630    1.0000 </r>
       <r>   -1.0173    1.0000 </r>
       <r>   -0.1961    1.0000 </r>
       <r>    0.2040    1.0000 </r>
       <r>    0.2761    1.0000 </r>
       <r>    0.5737    1.0000 </r>
       <r>    0.6645    1.0000 </r>
       <r>    0.9173    1.0000 </r>
       <r>    0.9553    1.0000 </r>
       <r>    2.2034    0.0000 </r>
       <r>    5.0387    0.0000 </r>
       <r>    5.4900    0.0000 </r>
       <r>    6.3012    0.0000 </r>
       <r>    6.7162    0.0000 </r>
       <r>    7.4013    0.0000 </r>
       <r>    7.9238    0.0000 </r>
       <r>    8.6326    0.0000 </r>
       <r>    9.1732    0.0000 </r>
       <r>    9.4268    0.0000 </r>
       <r>    9.7881    0.0000 </r>
       <r>    9.8954    0.0000 </r>
       <r>   10.3337    0.0000 </r>
       <r>   10.7051    0.0000 </r>
       <r>   11.7038    0.0000 </r>
       <r>   11.8837    0.0000 </r>
       <r>   12.2434    0.0000 </r>
       <r>   12.4767    0.0000 </r>
       <r>   12.6404    0.0000 </r>
       <r>   12.9590    0.0000 </r>
       <r>   13.3893    0.0000 </r>
       <r>   13.7894    0.0000 </r>
       <r>   13.9222    0.0000 </r>
       <r>   14.2526    0.0000 </r>
       <r>   15.0756    0.0000 </r>
       <r>   15.4303    0.0000 </r>
       <r>   15.7291    0.0000 </r>
      </set>
      <set comment="kpoint 18">
       <r>  -12.4711    1.0000 </r>
       <r>  -11.6747    1.0000 </r>
       <r>   -8.4942    1.0000 </r>
       <r>   -8.2799    1.0000 </r>
       <r>   -5.8080    1.0000 </r>
       <r>   -5.6606    1.0000 </r>
       <r>   -5.4208    1.0000 </r>
       <r>   -4.6550    1.0000 </r>
       <r>   -4.6173    1.0000 </r>
       <r>   -3.1174    1.0000 </r>
       <r>   -2.5975    1.0000 </r>
       <r>   -1.8675    1.0000 </r>
       <r>   -1.1023    1.0000 </r>
       <r>   -1.0361    1.0000 </r>
       <r>   -0.2145    1.0000 </r>
       <r>   -0.0503    1.0000 </r>
       <r>    0.3143    1.0000 </r>
       <r>    0.5057    1.0000 </r>
       <r>    0.5221    1.0000 </r>
       <r>    0.8288    1.0000 </r>
       <r>    0.8883    1.0000 </r>
       <r>    1.9431    0.0458 </r>
       <r>    5.3644    0.0000 </r>
       <r>    5.9647    0.0000 </r>
       <r>    6.2740    0.0000 </r>
       <r>    6.8292    0.0000 </r>
       <r>    7.5688    0.0000 </r>
       <r>    7.9440    0.0000 </r>
       <r>    8.5582    0.0000 </r>
       <r>    9.3623    0.0000 </r>
       <r>    9.3927    0.0000 </r>
       <r>    9.5902    0.0000 </r>
       <r>   10.0414    0.0000 </r>
       <r>   10.1104    0.0000 </r>
       <r>   10.5581    0.0000 </r>
       <r>   11.3854    0.0000 </r>
       <r>   11.3959    0.0000 </r>
       <r>   12.2367    0.0000 </r>
       <r>   12.7388    0.0000 </r>
       <r>   12.9544    0.0000 </r>
       <r>   13.1778    0.0000 </r>
       <r>   13.5200    0.0000 </r>
       <r>   13.7630    0.0000 </r>
       <r>   14.0145    0.0000 </r>
       <r>   14.3883    0.0000 </r>
       <r>   15.1671    0.0000 </r>
       <r>   15.3564    0.0000 </r>
       <r>   15.9904    0.0000 </r>
      </set>
      <set comment="kpoint 19">
       <r>  -12.3491    1.0000 </r>
       <r>  -11.8421    1.0000 </r>
       <r>   -8.4311    1.0000 </r>
       <r>   -8.2817    1.0000 </r>
       <r>   -5.8821    1.0000 </r>
       <r>   -5.8693    1.0000 </r>
       <r>   -5.3077    1.0000 </r>
       <r>   -4.7817    1.0000 </r>
       <r>   -4.3381    1.0000 </r>
       <r>   -2.7638    1.0000 </r>
       <r>   -2.2790    1.0000 </r>
       <r>   -2.1218    1.0000 </r>
       <r>   -1.0442    1.0000 </r>
       <r>   -1.0176    1.0000 </r>
       <r>   -0.3744    1.0000 </r>
       <r>   -0.3297    1.0000 </r>
       <r>    0.1512    1.0000 </r>
       <r>    0.3751    1.0000 </r>
       <r>    0.6616    1.0000 </r>
       <r>    0.7729    1.0000 </r>
       <r>    0.8221    1.0000 </r>
       <r>    1.6043    1.0000 </r>
       <r>    5.8919    0.0000 </r>
       <r>    6.3061    0.0000 </r>
       <r>    6.5437    0.0000 </r>
       <r>    6.7813    0.0000 </r>
       <r>    7.5682    0.0000 </r>
       <r>    8.0023    0.0000 </r>
       <r>    8.5121    0.0000 </r>
       <r>    8.9135    0.0000 </r>
       <r>    9.2698    0.0000 </r>
       <r>    9.5808    0.0000 </r>
       <r>    9.9027    0.0000 </r>
       <r>   10.3431    0.0000 </r>
       <r>   10.7928    0.0000 </r>
       <r>   11.0914    0.0000 </r>
       <r>   11.4414    0.0000 </r>
       <r>   12.1660    0.0000 </r>
       <r>   12.4201    0.0000 </r>
       <r>   13.1570    0.0000 </r>
       <r>   13.2784    0.0000 </r>
       <r>   13.6580    0.0000 </r>
       <r>   13.8990    0.0000 </r>
       <r>   14.1497    0.0000 </r>
       <r>   14.7560    0.0000 </r>
       <r>   14.9901    0.0000 </r>
       <r>   15.4324    0.0000 </r>
       <r>   16.3260    0.0000 </r>
      </set>
      <set comment="kpoint 20">
       <r>  -12.1962    1.0000 </r>
       <r>  -12.0224    1.0000 </r>
       <r>   -8.3631    1.0000 </r>
       <r>   -8.3089    1.0000 </r>
       <r>   -5.9754    1.0000 </r>
       <r>   -5.9675    1.0000 </r>
       <r>   -5.1463    1.0000 </r>
       <r>   -4.9647    1.0000 </r>
       <r>   -3.8291    1.0000 </r>
       <r>   -3.2348    1.0000 </r>
       <r>   -1.9827    1.0000 </r>
       <r>   -1.8280    1.0000 </r>
       <r>   -0.9810    1.0000 </r>
       <r>   -0.9216    1.0000 </r>
       <r>   -0.6721    1.0000 </r>
       <r>   -0.6290    1.0000 </r>
       <r>    0.1269    1.0000 </r>
       <r>    0.2273    1.0000 </r>
       <r>    0.7574    1.0000 </r>
       <r>    0.7733    1.0000 </r>
       <r>    0.9248    1.0000 </r>
       <r>    1.2479    1.0000 </r>
       <r>    6.4393    0.0000 </r>
       <r>    6.5529    0.0000 </r>
       <r>    6.6185    0.0000 </r>
       <r>    7.1338    0.0000 </r>
       <r>    7.2042    0.0000 </r>
       <r>    7.6909    0.0000 </r>
       <r>    8.5008    0.0000 </r>
       <r>    8.5650    0.0000 </r>
       <r>    9.4640    0.0000 </r>
       <r>    9.6367    0.0000 </r>
       <r>    9.8427    0.0000 </r>
       <r>   10.1398    0.0000 </r>
       <r>   10.8569    0.0000 </r>
       <r>   11.2313    0.0000 </r>
       <r>   11.8676    0.0000 </r>
       <r>   11.9426    0.0000 </r>
       <r>   12.2545    0.0000 </r>
       <r>   13.1452    0.0000 </r>
       <r>   13.4357    0.0000 </r>
       <r>   13.6216    0.0000 </r>
       <r>   13.8370    0.0000 </r>
       <r>   13.9458    0.0000 </r>
       <r>   15.0982    0.0000 </r>
       <r>   15.1158    0.0000 </r>
       <r>   15.6655    0.0000 </r>
       <r>   15.9675    0.0000 </r>
      </set>
      <set comment="kpoint 21">
       <r>  -12.5388    1.0000 </r>
[...]
       <r>   -2.3162    1.0000 </r>
       <r>   -2.1476    1.0000 </r>
       <r>   -1.9837    1.0000 </r>
       <r>   -1.4916    1.0000 </r>
       <r>   -0.7387    1.0000 </r>
       <r>   -0.2029    1.0000 </r>
       <r>    0.1649    1.0000 </r>
       <r>    0.3842    1.0000 </r>
       <r>    0.5120    1.0000 </r>
       <r>    1.5876    1.0000 </r>
       <r>    1.6149    1.0000 </r>
       <r>    1.8703    0.6456 </r>
       <r>    5.5106    0.0000 </r>
       <r>    6.1452    0.0000 </r>
       <r>    6.6658    0.0000 </r>
       <r>    7.2158    0.0000 </r>
       <r>    7.7798    0.0000 </r>
       <r>    8.2231    0.0000 </r>
       <r>    8.9895    0.0000 </r>
       <r>    9.1487    0.0000 </r>
       <r>    9.7182    0.0000 </r>
       <r>    9.9537    0.0000 </r>
       <r>   10.5844    0.0000 </r>
       <r>   11.0291    0.0000 </r>
       <r>   11.2038    0.0000 </r>
       <r>   11.4756    0.0000 </r>
       <r>   11.5644    0.0000 </r>
       <r>   11.9473    0.0000 </r>
       <r>   12.8349    0.0000 </r>
       <r>   13.1420    0.0000 </r>
       <r>   13.3655    0.0000 </r>
       <r>   13.7454    0.0000 </r>
       <r>   13.8695    0.0000 </r>
       <r>   14.1527    0.0000 </r>
       <r>   14.4737    0.0000 </r>
       <r>   14.9642    0.0000 </r>
       <r>   15.0910    0.0000 </r>
       <r>   15.3915    0.0000 </r>
      </set>
      <set comment="kpoint 175">
       <r>  -12.0208    1.0000 </r>
       <r>  -11.8817    1.0000 </r>
       <r>   -8.5473    1.0000 </r>
       <r>   -8.4350    1.0000 </r>
       <r>   -5.9268    1.0000 </r>
       <r>   -5.8206    1.0000 </r>
       <r>   -4.8924    1.0000 </r>
       <r>   -4.5688    1.0000 </r>
       <r>   -4.4141    1.0000 </r>
       <r>   -3.9760    1.0000 </r>
       <r>   -2.1998    1.0000 </r>
       <r>   -2.1382    1.0000 </r>
       <r>   -2.0585    1.0000 </r>
       <r>   -1.7742    1.0000 </r>
       <r>   -0.2205    1.0000 </r>
       <r>   -0.0070    1.0000 </r>
       <r>    0.3872    1.0000 </r>
       <r>    0.4751    1.0000 </r>
       <r>    0.5469    1.0000 </r>
       <r>    0.8732    1.0000 </r>
       <r>    1.6290    1.0000 </r>
       <r>    1.7286    1.0000 </r>
       <r>    5.8576    0.0000 </r>
       <r>    6.0431    0.0000 </r>
       <r>    6.8680    0.0000 </r>
       <r>    7.4046    0.0000 </r>
       <r>    7.4719    0.0000 </r>
       <r>    7.5744    0.0000 </r>
       <r>    9.3942    0.0000 </r>
       <r>    9.5780    0.0000 </r>
       <r>    9.7868    0.0000 </r>
       <r>    9.9643    0.0000 </r>
       <r>   10.4609    0.0000 </r>
       <r>   10.8108    0.0000 </r>
       <r>   11.2335    0.0000 </r>
       <r>   11.5065    0.0000 </r>
       <r>   11.5167    0.0000 </r>
       <r>   11.6099    0.0000 </r>
       <r>   13.0794    0.0000 </r>
       <r>   13.1854    0.0000 </r>
       <r>   13.7184    0.0000 </r>
       <r>   14.0510    0.0000 </r>
       <r>   14.1852    0.0000 </r>
       <r>   14.2881    0.0000 </r>
       <r>   14.5900    0.0000 </r>
       <r>   14.7342    0.0000 </r>
       <r>   14.8826    0.0000 </r>
       <r>   15.0436    0.0000 </r>
      </set>
     </set>
    </set>
   </array>
  </eigenvalues>
  <separator name="orbital magnetization" >
   <v name="MAGDIPOLOUT">      0.00000000      0.00000000      0.00000000</v>
  </separator>
  <dos>
   <i name="efermi">      1.88347206 </i>
   <total>
    <array>
     <dimension dim="1">gridpoints</dimension>
     <dimension dim="2">spin</dimension>
     <field>energy</field>
     <field>total</field>
     <field>integrated</field>
     <set>
      <set comment="spin 1">
       <r>   -14.1866     0.0000     0.0000 </r>
       <r>   -14.0794     0.0000     0.0000 </r>
       <r>   -13.9722     0.0000     0.0000 </r>
       <r>   -13.8650     0.0000     0.0000 </r>
       <r>   -13.7578     0.0000     0.0000 </r>
       <r>   -13.6506     0.0000     0.0000 </r>
       <r>   -13.5434     0.0000     0.0000 </r>
       <r>   -13.4362     0.0000     0.0000 </r>
       <r>   -13.3290     0.0000     0.0000 </r>
       <r>   -13.2218     0.0000     0.0000 </r>
       <r>   -13.1146     0.0000     0.0000 </r>
       <r>   -13.0074     0.0000     0.0000 </r>
       <r>   -12.9002     0.0000     0.0000 </r>
       <r>   -12.7930     0.0038     0.0004 </r>
       <r>   -12.6858     0.5086     0.0549 </r>
       <r>   -12.5786     2.3905     0.3112 </r>
       <r>   -12.4714     3.5642     0.6933 </r>
       <r>   -12.3642     4.3714     1.1619 </r>
       <r>   -12.2570     3.5390     1.5413 </r>
       <r>   -12.1498     2.7351     1.8345 </r>
       <r>   -12.0426     2.7511     2.1294 </r>
       <r>   -11.9354     2.5049     2.3980 </r>
       <r>   -11.8282     2.7711     2.6950 </r>
       <r>   -11.7210     3.4271     3.0624 </r>
       <r>   -11.6138     3.5354     3.4414 </r>
       <r>   -11.5066     3.1149     3.7753 </r>
       <r>   -11.3994     1.6676     3.9541 </r>
       <r>   -11.2922     0.4210     3.9992 </r>
       <r>   -11.1850     0.0072     4.0000 </r>
       <r>   -11.0778     0.0000     4.0000 </r>
       <r>   -10.9706     0.0000     4.0000 </r>
       <r>   -10.8634     0.0000     4.0000 </r>
       <r>   -10.7562     0.0000     4.0000 </r>
       <r>   -10.6490     0.0000     4.0000 </r>
       <r>   -10.5418     0.0000     4.0000 </r>
       <r>   -10.4346     0.0000     4.0000 </r>
       <r>   -10.3274     0.0000     4.0000 </r>
       <r>   -10.2202     0.0000     4.0000 </r>
       <r>   -10.1130     0.0000     4.0000 </r>
       <r>   -10.0058     0.0000     4.0000 </r>
       <r>    -9.8986     0.0000     4.0000 </r>
       <r>    -9.7914     0.0000     4.0000 </r>
       <r>    -9.6842     0.0000     4.0000 </r>
       <r>    -9.5770     0.0000     4.0000 </r>
       <r>    -9.4698     0.0000     4.0000 </r>
       <r>    -9.3626     0.0000     4.0000 </r>
       <r>    -9.2554     0.0000     4.0000 </r>
       <r>    -9.1482     0.0000     4.0000 </r>
       <r>    -9.0410     0.0000     4.0000 </r>
       <r>    -8.9338     0.0006     4.0001 </r>
       <r>    -8.8266     0.2767     4.0297 </r>
       <r>    -8.7194     2.0921     4.2540 </r>
       <r>    -8.6122     5.3341     4.8258 </r>
       <r>    -8.5050     6.9888     5.5750 </r>
       <r>    -8.3978     6.2963     6.2500 </r>
       <r>    -8.2906     5.3254     6.8209 </r>
       <r>    -8.1834     4.8353     7.3393 </r>
       <r>    -8.0762     3.8712     7.7543 </r>
       <r>    -7.9690     1.6645     7.9327 </r>
       <r>    -7.8618     0.5762     7.9945 </r>
       <r>    -7.7546     0.0516     8.0000 </r>
       <r>    -7.6474     0.0000     8.0000 </r>
       <r>    -7.5402     0.0000     8.0000 </r>
       <r>    -7.4330     0.0000     8.0000 </r>
       <r>    -7.3258     0.0000     8.0000 </r>
       <r>    -7.2186     0.0000     8.0000 </r>
       <r>    -7.1114     0.0000     8.0000 </r>
       <r>    -7.0041     0.0004     8.0000 </r>
       <r>    -6.8969     0.1131     8.0122 </r>
       <r>    -6.7897     0.2577     8.0398 </r>
       <r>    -6.6825     0.4264     8.0855 </r>
       <r>    -6.5753     0.7663     8.1676 </r>
       <r>    -6.4681     0.8510     8.2589 </r>
       <r>    -6.3609     1.4447     8.4138 </r>
       <r>    -6.2537     1.9632     8.6242 </r>
       <r>    -6.1465     3.0574     8.9520 </r>
       <r>    -6.0393     3.7837     9.3576 </r>
       <r>    -5.9321     4.1147     9.7987 </r>
       <r>    -5.8249     4.0449    10.2323 </r>
       <r>    -5.7177     3.8621    10.6463 </r>
       <r>    -5.6105     4.0727    11.0829 </r>
       <r>    -5.5033     4.2204    11.5354 </r>
       <r>    -5.3961     4.5456    12.0227 </r>
       <r>    -5.2889     4.5996    12.5157 </r>
       <r>    -5.1817     4.4909    12.9972 </r>
       <r>    -5.0745     3.8691    13.4120 </r>
       <r>    -4.9673     3.2275    13.7579 </r>
       <r>    -4.8601     2.9524    14.0744 </r>
       <r>    -4.7529     2.3371    14.3250 </r>
       <r>    -4.6457     2.8966    14.6355 </r>
       <r>    -4.5385     3.3693    14.9967 </r>
       <r>    -4.4313     3.4718    15.3689 </r>
       <r>    -4.3241     3.3317    15.7260 </r>
       <r>    -4.2169     2.9543    16.0428 </r>
       <r>    -4.1097     2.9076    16.3545 </r>
       <r>    -4.0025     2.9454    16.6702 </r>
       <r>    -3.8953     2.8604    16.9769 </r>
       <r>    -3.7881     3.1202    17.3113 </r>
       <r>    -3.6809     2.8742    17.6195 </r>
       <r>    -3.5737     2.7055    17.9095 </r>
       <r>    -3.4665     3.0652    18.2381 </r>
       <r>    -3.3593     2.6381    18.5209 </r>
       <r>    -3.2521     2.8620    18.8277 </r>
       <r>    -3.1449     2.7439    19.1219 </r>
       <r>    -3.0377     2.7402    19.4156 </r>
       <r>    -2.9305     3.0455    19.7421 </r>
       <r>    -2.8233     2.9749    20.0610 </r>
       <r>    -2.7161     2.4301    20.3215 </r>
       <r>    -2.6089     2.6573    20.6064 </r>
       <r>    -2.5017     3.0217    20.9303 </r>
       <r>    -2.3945     2.9851    21.2503 </r>
       <r>    -2.2873     3.1928    21.5926 </r>
       <r>    -2.1801     4.0094    22.0224 </r>
       <r>    -2.0729     3.6563    22.4144 </r>
       <r>    -1.9657     3.2743    22.7654 </r>
       <r>    -1.8585     5.1293    23.3152 </r>
       <r>    -1.7513     5.5770    23.9131 </r>
       <r>    -1.6441     5.6046    24.5139 </r>
       <r>    -1.5369     6.1842    25.1769 </r>
       <r>    -1.4297     6.1108    25.8320 </r>
       <r>    -1.3225     5.5673    26.4288 </r>
       <r>    -1.2153     4.6830    26.9308 </r>
       <r>    -1.1081     6.4983    27.6274 </r>
       <r>    -1.0009     3.9756    28.0536 </r>
       <r>    -0.8937     2.2704    28.2970 </r>
       <r>    -0.7865     2.6994    28.5864 </r>
       <r>    -0.6793     2.8802    28.8952 </r>
       <r>    -0.5721     4.5242    29.3802 </r>
       <r>    -0.4649     6.8636    30.1159 </r>
       <r>    -0.3577     5.6583    30.7225 </r>
       <r>    -0.2505     6.7057    31.4414 </r>
       <r>    -0.1433     6.3607    32.1233 </r>
       <r>    -0.0361     6.7466    32.8465 </r>
       <r>     0.0711     6.7556    33.5707 </r>
       <r>     0.1783     6.3006    34.2461 </r>
       <r>     0.2855     8.8060    35.1902 </r>
       <r>     0.3928     7.9842    36.0461 </r>
       <r>     0.5000     8.6974    36.9785 </r>
       <r>     0.6072     5.2402    37.5402 </r>
       <r>     0.7144     2.9335    37.8547 </r>
       <r>     0.8216     3.2942    38.2078 </r>
       <r>     0.9288     3.5871    38.5924 </r>
       <r>     1.0360     3.5603    38.9741 </r>
       <r>     1.1432     2.7912    39.2733 </r>
       <r>     1.2504     3.3929    39.6370 </r>
       <r>     1.3576     4.4988    40.1193 </r>
       <r>     1.4648     3.7774    40.5242 </r>
       <r>     1.5720     3.7249    40.9235 </r>
       <r>     1.6792     4.5767    41.4142 </r>
       <r>     1.7864     3.2275    41.7602 </r>
       <r>     1.8936     2.4806    42.0261 </r>
       <r>     2.0008     2.6595    42.3112 </r>
       <r>     2.1080     2.0925    42.5355 </r>
       <r>     2.2152     2.6529    42.8199 </r>
       <r>     2.3224     2.5698    43.0954 </r>
       <r>     2.4296     1.9342    43.3027 </r>
       <r>     2.5368     0.8490    43.3937 </r>
       <r>     2.6440     0.3783    43.4343 </r>
       <r>     2.7512     0.5723    43.4956 </r>
       <r>     2.8584     0.4196    43.5406 </r>
       <r>     2.9656     0.3056    43.5734 </r>
       <r>     3.0728     0.7602    43.6549 </r>
       <r>     3.1800     1.0136    43.7635 </r>
       <r>     3.2872     0.5352    43.8209 </r>
       <r>     3.3944     0.0128    43.8223 </r>
       <r>     3.5016     0.1322    43.8365 </r>
       <r>     3.6088     0.3960    43.8789 </r>
       <r>     3.7160     0.3293    43.9142 </r>
       <r>     3.8232     0.3731    43.9542 </r>
       <r>     3.9304     0.4010    43.9972 </r>
       <r>     4.0376     0.0261    44.0000 </r>
       <r>     4.1448     0.0000    44.0000 </r>
       <r>     4.2520     0.0312    44.0033 </r>
       <r>     4.3592     0.1761    44.0222 </r>
       <r>     4.4664     0.4024    44.0654 </r>
       <r>     4.5736     0.4708    44.1158 </r>
       <r>     4.6808     0.6338    44.1838 </r>
       <r>     4.7880     0.8889    44.2791 </r>
       <r>     4.8952     0.8414    44.3693 </r>
       <r>     5.0024     0.8574    44.4612 </r>
       <r>     5.1096     1.2770    44.5981 </r>
       <r>     5.2168     1.1526    44.7217 </r>
       <r>     5.3240     1.6331    44.8967 </r>
       <r>     5.4312     2.1913    45.1316 </r>
       <r>     5.5384     2.4872    45.3983 </r>
       <r>     5.6456     2.7891    45.6973 </r>
       <r>     5.7528     3.3684    46.0584 </r>
       <r>     5.8600     3.2185    46.4034 </r>
       <r>     5.9672     4.3140    46.8659 </r>
       <r>     6.0744     4.7582    47.3759 </r>
       <r>     6.1816     4.0457    47.8096 </r>
       <r>     6.2888     4.6236    48.3053 </r>
       <r>     6.3960     4.1523    48.7504 </r>
       <r>     6.5032     4.0185    49.1812 </r>
       <r>     6.6104     4.4791    49.6614 </r>
       <r>     6.7176     3.2272    50.0073 </r>
       <r>     6.8248     3.9981    50.4360 </r>
       <r>     6.9320     4.6136    50.9305 </r>
       <r>     7.0392     4.5504    51.4184 </r>
       <r>     7.1464     4.3414    51.8838 </r>
       <r>     7.2536     5.6007    52.4842 </r>
       <r>     7.3608     4.9219    53.0118 </r>
       <r>     7.4680     4.4538    53.4892 </r>
       <r>     7.5752     4.1904    53.9385 </r>
       <r>     7.6825     3.5665    54.3208 </r>
       <r>     7.7897     3.1246    54.6558 </r>
       <r>     7.8969     3.0094    54.9784 </r>
       <r>     8.0041     2.9787    55.2977 </r>
       <r>     8.1113     4.1689    55.7446 </r>
       <r>     8.2185     3.8870    56.1613 </r>
       <r>     8.3257     3.6905    56.5569 </r>
       <r>     8.4329     3.9913    56.9848 </r>
       <r>     8.5401     4.2154    57.4367 </r>
       <r>     8.6473     4.4594    57.9148 </r>
       <r>     8.7545     4.2214    58.3673 </r>
       <r>     8.8617     5.2668    58.9319 </r>
       <r>     8.9689     4.9405    59.4615 </r>
       <r>     9.0761     5.2919    60.0288 </r>
       <r>     9.1833     5.2369    60.5902 </r>
       <r>     9.2905     4.9709    61.1231 </r>
       <r>     9.3977     4.6888    61.6258 </r>
       <r>     9.5049     4.3705    62.0943 </r>
       <r>     9.6121     5.1055    62.6416 </r>
       <r>     9.7193     5.0265    63.1805 </r>
       <r>     9.8265     5.2997    63.7486 </r>
       <r>     9.9337     4.4795    64.2288 </r>
       <r>    10.0409     3.6363    64.6186 </r>
       <r>    10.1481     5.1777    65.1737 </r>
       <r>    10.2553     4.7131    65.6789 </r>
       <r>    10.3625     4.1186    66.1205 </r>
       <r>    10.4697     5.4172    66.7012 </r>
       <r>    10.5769     5.8085    67.3239 </r>
       <r>    10.6841     4.0658    67.7597 </r>
       <r>    10.7913     3.8844    68.1761 </r>
       <r>    10.8985     3.2365    68.5231 </r>
       <r>    11.0057     4.6674    69.0235 </r>
       <r>    11.1129     5.4824    69.6112 </r>
       <r>    11.2201     6.1893    70.2747 </r>
       <r>    11.3273     5.9938    70.9172 </r>
       <r>    11.4345     5.2843    71.4837 </r>
       <r>    11.5417     4.3024    71.9449 </r>
       <r>    11.6489     4.4733    72.4245 </r>
       <r>    11.7561     4.9330    72.9533 </r>
       <r>    11.8633     4.8048    73.4684 </r>
       <r>    11.9705     6.0348    74.1153 </r>
       <r>    12.0777     5.9603    74.7543 </r>
       <r>    12.1849     5.9923    75.3967 </r>
       <r>    12.2921     5.6163    75.9987 </r>
       <r>    12.3993     5.0077    76.5356 </r>
       <r>    12.5065     5.6878    77.1453 </r>
       <r>    12.6137     5.9883    77.7873 </r>
       <r>    12.7209     6.0204    78.4327 </r>
       <r>    12.8281     5.8898    79.0641 </r>
       <r>    12.9353     5.8645    79.6927 </r>
       <r>    13.0425     5.5949    80.2925 </r>
       <r>    13.1497     6.3475    80.9730 </r>
       <r>    13.2569     6.2668    81.6448 </r>
       <r>    13.3641     5.3849    82.2221 </r>
       <r>    13.4713     6.1338    82.8796 </r>
       <r>    13.5785     5.3433    83.4524 </r>
       <r>    13.6857     4.8113    83.9682 </r>
       <r>    13.7929     6.1256    84.6249 </r>
       <r>    13.9001     5.5281    85.2175 </r>
       <r>    14.0073     5.3442    85.7904 </r>
       <r>    14.1145     5.4755    86.3774 </r>
       <r>    14.2217     4.6868    86.8798 </r>
       <r>    14.3289     4.9045    87.4056 </r>
       <r>    14.4361     5.0190    87.9436 </r>
       <r>    14.5433     4.9608    88.4754 </r>
       <r>    14.6505     5.2715    89.0405 </r>
       <r>    14.7577     5.1688    89.5946 </r>
       <r>    14.8649     4.0933    90.0334 </r>
       <r>    14.9722     5.0767    90.5777 </r>
       <r>    15.0794     6.1848    91.2407 </r>
       <r>    15.1866     5.6420    91.8455 </r>
       <r>    15.2938     5.6714    92.4535 </r>
       <r>    15.4010     6.0287    93.0998 </r>
       <r>    15.5082     5.7374    93.7148 </r>
       <r>    15.6154     5.9510    94.3528 </r>
       <r>    15.7226     4.5969    94.8456 </r>
       <r>    15.8298     2.4722    95.1106 </r>
       <r>    15.9370     2.7056    95.4007 </r>
       <r>    16.0442     1.8632    95.6004 </r>
       <r>    16.1514     1.1462    95.7233 </r>
       <r>    16.2586     0.8913    95.8188 </r>
       <r>    16.3658     0.6966    95.8935 </r>
       <r>    16.4730     0.8144    95.9808 </r>
       <r>    16.5802     0.1773    95.9998 </r>
       <r>    16.6874     0.0017    96.0000 </r>
       <r>    16.7946     0.0000    96.0000 </r>
       <r>    16.9018     0.0000    96.0000 </r>
       <r>    17.0090     0.0000    96.0000 </r>
       <r>    17.1162     0.0000    96.0000 </r>
       <r>    17.2234     0.0000    96.0000 </r>
       <r>    17.3306     0.0000    96.0000 </r>
       <r>    17.4378     0.0000    96.0000 </r>
       <r>    17.5450     0.0000    96.0000 </r>
       <r>    17.6522     0.0000    96.0000 </r>
       <r>    17.7594     0.0000    96.0000 </r>
       <r>    17.8666     0.0000    96.0000 </r>
       <r>    17.9738     0.0000    96.0000 </r>
      </set>
     </set>
    </array>
   </total>
  </dos>
 </calculation>
 <structure name="finalpos" >
  <crystal>
   <varray name="basis" >
    <v>       5.69700000       0.00000000       0.00000000 </v>
    <v>       0.00000000       4.04790000       0.00000000 </v>
    <v>       0.00000000       0.00000000       6.20420000 </v>
   </varray>
   <i name="volume">    143.07435078 </i>
   <varray name="rec_basis" >
    <v>       0.17553098       0.00000000       0.00000000 </v>
    <v>       0.00000000       0.24704168       0.00000000 </v>
    <v>       0.00000000       0.00000000       0.16118114 </v>
   </varray>
  </crystal>
  <varray name="positions" >
   <v>       0.52123000       0.50000000       0.63796000 </v>
   <v>       0.47877000       0.50000000       0.36204000 </v>
   <v>       0.97877000       0.50000000       0.63796000 </v>
   <v>       0.02123000       0.50000000       0.36204000 </v>
   <v>       0.60090000       0.50000000       0.89991000 </v>
   <v>       0.39910000       0.50000000       0.10009000 </v>
   <v>       0.89910000       0.50000000       0.89991000 </v>
   <v>       0.10090000       0.50000000       0.10009000 </v>
   <v>       0.75000000       0.79171000       0.72973000 </v>
   <v>       0.25000000       0.20829000       0.27027000 </v>
   <v>       0.75000000       0.20829000       0.72973000 </v>
   <v>       0.25000000       0.79171000       0.27027000 </v>
   <v>       0.25000000       0.50000000       0.52367000 </v>
   <v>       0.75000000       0.50000000       0.47633000 </v>
  </varray>
 </structure>
</modeling>
