 vasp.6.4.3 19Mar24 (build May 31 2024 16:31:43) complex                        
  
 executed on             LinuxIFC date 2024.11.01  17:02:49
 running   24 mpi-ranks, with    1 threads/rank, on    1 nodes
 distrk:  each k-point on   24 cores,    1 groups
 distr:  one band on NCORE=   1 cores,   24 groups


--------------------------------------------------------------------------------------------------------


 INCAR:
   SYSTEM = Convergence
   ISTART = 0
   ICHARG = 2
   PREC = Accurate
   ENCUT = 480
   LCHARG = .FALSE.
   LWAVE = .FALSE.
   ALGO = Normal
   NELM = 100
   EDIFF = 1E-6
   EDIFFG = -1E-3
   SIGMA = 0.05
   ISMEAR = 0
   ISPIN = 1
   NSW = 0
   IBRION = -1
   POTIM = .5
   ISIF = 2
   GGA = PE

 POTCAR:    PAW_PBE B 06Sep2000                   
 POTCAR:    PAW_PBE B 06Sep2000                   
   SHA256 =  a32ced30f5ae56fd4d10b4325ff17eb3e4e38ee0f4288bc219fb012fddfa6e97 B/POTCAR              
   COPYR  = (c) Copyright 06Sep2000 Georg Kresse                                                    
   COPYR  = This file is part of the software VASP. Any use, copying, and all other rights are regul
   COPYR  = If you do not have a valid VASP license, you may not use, copy or distribute this file. 
   VRHFIN =B: s2p1                                                                                  
   LEXCH  = PE                                                                                      
   EATOM  =    71.1703 eV,    5.2309 Ry                                                             
                                                                                                    
   TITEL  = PAW_PBE B 06Sep2000                                                                     
   LULTRA =        F    use ultrasoft PP ?                                                          
   IUNSCR =        1    unscreen: 0-lin 1-nonlin 2-no                                               
   RPACOR =    1.200    partial core radius                                                         
   POMASS =   10.811; ZVAL   =    3.000    mass and valenz                                          
   RCORE  =    1.700    outmost cutoff radius                                                       
   RWIGS  =    1.710; RWIGS  =    0.905    wigner-seitz radius (au A)                               
   ENMAX  =  318.614; ENMIN  =  238.960 eV                                                          
   ICORE  =        2    local potential                                                             
   LCOR   =        T    correct aug charges                                                         
   LPAW   =        T    paw PP                                                                      
   EAUG   =  535.514                                                                                
   DEXC   =    0.000                                                                                
   RMAX   =    1.732    core radius for proj-oper                                                   
   RAUG   =    1.300    factor for augmentation sphere                                              
   RDEP   =    1.757    radius for radial grids                                                     
   RDEPT  =    1.436    core radius for aug-charge                                                  
                                                                                                    
   Atomic configuration                                                                             
    4 entries                                                                                       
     n  l   j            E        occ.                                                              
     1  0  0.50      -180.5896   2.0000                                                             
     2  0  0.50        -9.4431   2.0000                                                             
     2  1  0.50        -3.6068   1.0000                                                             
     3  2  1.50        -4.0817   0.0000                                                             
   Description                                                                                      
     l       E           TYP  RCUT    TYP  RCUT                                                     
     0     -9.4430752     23  1.500                                                                 
     0      0.8675899     23  1.500                                                                 
     1     -3.6067955     23  1.700                                                                 
     1      6.1086146     23  1.700                                                                 
     2     -4.0817478      7  1.700                                                                 
  local pseudopotential read in
  partial core-charges read in
  partial kinetic energy density read in
  atomic valenz-charges read in
  non local Contribution for L=           0  read in
    real space projection operators read in
  non local Contribution for L=           0  read in
    real space projection operators read in
  non local Contribution for L=           1  read in
    real space projection operators read in
  non local Contribution for L=           1  read in
    real space projection operators read in
    PAW grid and wavefunctions read in
 
   number of l-projection  operators is LMAX  =           4
   number of lm-projection operators is LMMAX =           8
 
  PAW_PBE B 06Sep2000                   :
 energy of atom  1       EATOM=  -71.1703
 kinetic energy error for atom=    0.0013 (will be added to EATOM!!)
 
 
 POSCAR: B1
  positions in direct lattice
  No initial velocities read in


 exchange-correlation table for PE
   RHO(1)=    0.500       N(1)  =     2000
   RHO(2)=  100.500       N(2)  =     4000
 


--------------------------------------------------------------------------------------------------------


 ion  position               nearest neighbor table
   1  0.521  0.545  0.638-
 
  LATTYP: Found a simple orthorhombic cell.
 ALAT       =    12.5000000000
 B/A-ratio  =     1.2000000000
 C/A-ratio  =     1.4400000000
  
  Lattice vectors:
  
 A1 = (   0.0000000000, -12.5000000000,   0.0000000000)
 A2 = (  15.0000000000,   0.0000000000,   0.0000000000)
 A3 = (   0.0000000000,   0.0000000000,  18.0000000000)


Analysis of symmetry for initial positions (statically):
=====================================================================
 Subroutine PRICEL returns:
 Original cell was already a primitive cell.
 

 Routine SETGRP: Setting up the symmetry group for a 
 simple orthorhombic supercell.


 Subroutine GETGRP returns: Found  8 space group operations
 (whereof  1 operations were pure point group operations)
 out of a pool of  8 trial point group operations.


The static configuration has the point symmetry C_1 .
 The point group associated with its full space group is D_2h.


Analysis of symmetry for dynamics (positions and initial velocities):
=====================================================================
 Subroutine PRICEL returns:
 Original cell was already a primitive cell.
 

 Routine SETGRP: Setting up the symmetry group for a 
 simple orthorhombic supercell.


 Subroutine GETGRP returns: Found  8 space group operations
 (whereof  1 operations were pure point group operations)
 out of a pool of  8 trial point group operations.


The dynamic configuration has the point symmetry C_1 .
 The point group associated with its full space group is D_2h.


 Subroutine INISYM returns: Found  8 space group operations
 (whereof  1 operations are pure point group operations),
 and found     1 'primitive' translations


----------------------------------------------------------------------------------------

                                     Primitive cell                                     

  volume of cell :    3375.0000

  direct lattice vectors                    reciprocal lattice vectors
    15.000000000  0.000000000  0.000000000     0.066666667  0.000000000  0.000000000
     0.000000000 12.500000000  0.000000000     0.000000000  0.080000000  0.000000000
     0.000000000  0.000000000 18.000000000     0.000000000  0.000000000  0.055555556

  length of vectors
    15.000000000 12.500000000 18.000000000     0.066666667  0.080000000  0.055555556

  position of ions in fractional coordinates (direct lattice)
     0.521230000  0.545000000  0.637960000

  ion indices of the primitive-cell ions
   primitive index   ion index
                 1           1

----------------------------------------------------------------------------------------

 
 
 KPOINTS: k-points                                

Automatic generation of k-mesh.
 Grid dimensions read from file:
 generate k-points for:    9   13    8

 Generating k-lattice:

  Cartesian coordinates                     Fractional coordinates (reciprocal lattice)
     0.007407407  0.000000000  0.000000000     0.111111111  0.000000000  0.000000000
     0.000000000  0.006153846  0.000000000     0.000000000  0.076923077  0.000000000
     0.000000000  0.000000000  0.006944444     0.000000000  0.000000000  0.125000000

  Length of vectors
     0.007407407  0.006153846  0.006944444

  Shift w.r.t. Gamma in fractional coordinates (k-lattice)
     0.000000000  0.000000000  0.500000000

 
 Subroutine IBZKPT returns following result:
 ===========================================
 
 Found    140 irreducible k-points:
 
 Following reciprocal coordinates:
            Coordinates               Weight
  0.000000  0.000000  0.062500      2.000000
  0.111111  0.000000  0.062500      4.000000
  0.222222  0.000000  0.062500      4.000000
  0.333333  0.000000  0.062500      4.000000
  0.444444  0.000000  0.062500      4.000000
  0.000000  0.076923  0.062500      4.000000
  0.111111  0.076923  0.062500      8.000000
  0.222222  0.076923  0.062500      8.000000
  0.333333  0.076923  0.062500      8.000000
  0.444444  0.076923  0.062500      8.000000
  0.000000  0.153846  0.062500      4.000000
  0.111111  0.153846  0.062500      8.000000
  0.222222  0.153846  0.062500      8.000000
  0.333333  0.153846  0.062500      8.000000
  0.444444  0.153846  0.062500      8.000000
  0.000000  0.230769  0.062500      4.000000
  0.111111  0.230769  0.062500      8.000000
  0.222222  0.230769  0.062500      8.000000
  0.333333  0.230769  0.062500      8.000000
  0.444444  0.230769  0.062500      8.000000
  0.000000  0.307692  0.062500      4.000000
  0.111111  0.307692  0.062500      8.000000
  0.222222  0.307692  0.062500      8.000000
  0.333333  0.307692  0.062500      8.000000
  0.444444  0.307692  0.062500      8.000000
  0.000000  0.384615  0.062500      4.000000
  0.111111  0.384615  0.062500      8.000000
  0.222222  0.384615  0.062500      8.000000
  0.333333  0.384615  0.062500      8.000000
  0.444444  0.384615  0.062500      8.000000
  0.000000  0.461538  0.062500      4.000000
  0.111111  0.461538  0.062500      8.000000
  0.222222  0.461538  0.062500      8.000000
  0.333333  0.461538  0.062500      8.000000
  0.444444  0.461538  0.062500      8.000000
  0.000000  0.000000  0.187500      2.000000
  0.111111  0.000000  0.187500      4.000000
  0.222222  0.000000  0.187500      4.000000
  0.333333  0.000000  0.187500      4.000000
  0.444444  0.000000  0.187500      4.000000
  0.000000  0.076923  0.187500      4.000000
  0.111111  0.076923  0.187500      8.000000
  0.222222  0.076923  0.187500      8.000000
  0.333333  0.076923  0.187500      8.000000
  0.444444  0.076923  0.187500      8.000000
  0.000000  0.153846  0.187500      4.000000
  0.111111  0.153846  0.187500      8.000000
  0.222222  0.153846  0.187500      8.000000
  0.333333  0.153846  0.187500      8.000000
  0.444444  0.153846  0.187500      8.000000
  0.000000  0.230769  0.187500      4.000000
  0.111111  0.230769  0.187500      8.000000
  0.222222  0.230769  0.187500      8.000000
  0.333333  0.230769  0.187500      8.000000
  0.444444  0.230769  0.187500      8.000000
  0.000000  0.307692  0.187500      4.000000
  0.111111  0.307692  0.187500      8.000000
  0.222222  0.307692  0.187500      8.000000
  0.333333  0.307692  0.187500      8.000000
  0.444444  0.307692  0.187500      8.000000
  0.000000  0.384615  0.187500      4.000000
  0.111111  0.384615  0.187500      8.000000
  0.222222  0.384615  0.187500      8.000000
  0.333333  0.384615  0.187500      8.000000
  0.444444  0.384615  0.187500      8.000000
  0.000000  0.461538  0.187500      4.000000
  0.111111  0.461538  0.187500      8.000000
  0.222222  0.461538  0.187500      8.000000
  0.333333  0.461538  0.187500      8.000000
  0.444444  0.461538  0.187500      8.000000
  0.000000  0.000000  0.312500      2.000000
  0.111111  0.000000  0.312500      4.000000
  0.222222  0.000000  0.312500      4.000000
  0.333333  0.000000  0.312500      4.000000
  0.444444  0.000000  0.312500      4.000000
  0.000000  0.076923  0.312500      4.000000
  0.111111  0.076923  0.312500      8.000000
  0.222222  0.076923  0.312500      8.000000
  0.333333  0.076923  0.312500      8.000000
  0.444444  0.076923  0.312500      8.000000
  0.000000  0.153846  0.312500      4.000000
  0.111111  0.153846  0.312500      8.000000
  0.222222  0.153846  0.312500      8.000000
  0.333333  0.153846  0.312500      8.000000
  0.444444  0.153846  0.312500      8.000000
  0.000000  0.230769  0.312500      4.000000
  0.111111  0.230769  0.312500      8.000000
  0.222222  0.230769  0.312500      8.000000
  0.333333  0.230769  0.312500      8.000000
  0.444444  0.230769  0.312500      8.000000
  0.000000  0.307692  0.312500      4.000000
  0.111111  0.307692  0.312500      8.000000
  0.222222  0.307692  0.312500      8.000000
  0.333333  0.307692  0.312500      8.000000
  0.444444  0.307692  0.312500      8.000000
  0.000000  0.384615  0.312500      4.000000
  0.111111  0.384615  0.312500      8.000000
  0.222222  0.384615  0.312500      8.000000
  0.333333  0.384615  0.312500      8.000000
  0.444444  0.384615  0.312500      8.000000
  0.000000  0.461538  0.312500      4.000000
  0.111111  0.461538  0.312500      8.000000
  0.222222  0.461538  0.312500      8.000000
  0.333333  0.461538  0.312500      8.000000
  0.444444  0.461538  0.312500      8.000000
  0.000000  0.000000  0.437500      2.000000
  0.111111  0.000000  0.437500      4.000000
  0.222222  0.000000  0.437500      4.000000
  0.333333  0.000000  0.437500      4.000000
  0.444444  0.000000  0.437500      4.000000
  0.000000  0.076923  0.437500      4.000000
  0.111111  0.076923  0.437500      8.000000
  0.222222  0.076923  0.437500      8.000000
  0.333333  0.076923  0.437500      8.000000
  0.444444  0.076923  0.437500      8.000000
  0.000000  0.153846  0.437500      4.000000
  0.111111  0.153846  0.437500      8.000000
  0.222222  0.153846  0.437500      8.000000
  0.333333  0.153846  0.437500      8.000000
  0.444444  0.153846  0.437500      8.000000
  0.000000  0.230769  0.437500      4.000000
  0.111111  0.230769  0.437500      8.000000
  0.222222  0.230769  0.437500      8.000000
  0.333333  0.230769  0.437500      8.000000
  0.444444  0.230769  0.437500      8.000000
  0.000000  0.307692  0.437500      4.000000
  0.111111  0.307692  0.437500      8.000000
  0.222222  0.307692  0.437500      8.000000
  0.333333  0.307692  0.437500      8.000000
  0.444444  0.307692  0.437500      8.000000
  0.000000  0.384615  0.437500      4.000000
  0.111111  0.384615  0.437500      8.000000
  0.222222  0.384615  0.437500      8.000000
  0.333333  0.384615  0.437500      8.000000
  0.444444  0.384615  0.437500      8.000000
  0.000000  0.461538  0.437500      4.000000
  0.111111  0.461538  0.437500      8.000000
  0.222222  0.461538  0.437500      8.000000
  0.333333  0.461538  0.437500      8.000000
  0.444444  0.461538  0.437500      8.000000
 
 Following cartesian coordinates:
            Coordinates               Weight
  0.000000  0.000000  0.003472      2.000000
  0.007407  0.000000  0.003472      4.000000
  0.014815  0.000000  0.003472      4.000000
  0.022222  0.000000  0.003472      4.000000
  0.029630  0.000000  0.003472      4.000000
  0.000000  0.006154  0.003472      4.000000
  0.007407  0.006154  0.003472      8.000000
  0.014815  0.006154  0.003472      8.000000
  0.022222  0.006154  0.003472      8.000000
  0.029630  0.006154  0.003472      8.000000
  0.000000  0.012308  0.003472      4.000000
  0.007407  0.012308  0.003472      8.000000
  0.014815  0.012308  0.003472      8.000000
  0.022222  0.012308  0.003472      8.000000
  0.029630  0.012308  0.003472      8.000000
  0.000000  0.018462  0.003472      4.000000
  0.007407  0.018462  0.003472      8.000000
  0.014815  0.018462  0.003472      8.000000
  0.022222  0.018462  0.003472      8.000000
  0.029630  0.018462  0.003472      8.000000
  0.000000  0.024615  0.003472      4.000000
  0.007407  0.024615  0.003472      8.000000
  0.014815  0.024615  0.003472      8.000000
  0.022222  0.024615  0.003472      8.000000
  0.029630  0.024615  0.003472      8.000000
  0.000000  0.030769  0.003472      4.000000
  0.007407  0.030769  0.003472      8.000000
  0.014815  0.030769  0.003472      8.000000
  0.022222  0.030769  0.003472      8.000000
  0.029630  0.030769  0.003472      8.000000
  0.000000  0.036923  0.003472      4.000000
  0.007407  0.036923  0.003472      8.000000
  0.014815  0.036923  0.003472      8.000000
  0.022222  0.036923  0.003472      8.000000
  0.029630  0.036923  0.003472      8.000000
  0.000000  0.000000  0.010417      2.000000
  0.007407  0.000000  0.010417      4.000000
  0.014815  0.000000  0.010417      4.000000
  0.022222  0.000000  0.010417      4.000000
  0.029630  0.000000  0.010417      4.000000
  0.000000  0.006154  0.010417      4.000000
  0.007407  0.006154  0.010417      8.000000
  0.014815  0.006154  0.010417      8.000000
  0.022222  0.006154  0.010417      8.000000
  0.029630  0.006154  0.010417      8.000000
  0.000000  0.012308  0.010417      4.000000
  0.007407  0.012308  0.010417      8.000000
  0.014815  0.012308  0.010417      8.000000
  0.022222  0.012308  0.010417      8.000000
  0.029630  0.012308  0.010417      8.000000
  0.000000  0.018462  0.010417      4.000000
  0.007407  0.018462  0.010417      8.000000
  0.014815  0.018462  0.010417      8.000000
  0.022222  0.018462  0.010417      8.000000
  0.029630  0.018462  0.010417      8.000000
  0.000000  0.024615  0.010417      4.000000
  0.007407  0.024615  0.010417      8.000000
  0.014815  0.024615  0.010417      8.000000
  0.022222  0.024615  0.010417      8.000000
  0.029630  0.024615  0.010417      8.000000
  0.000000  0.030769  0.010417      4.000000
  0.007407  0.030769  0.010417      8.000000
  0.014815  0.030769  0.010417      8.000000
  0.022222  0.030769  0.010417      8.000000
  0.029630  0.030769  0.010417      8.000000
  0.000000  0.036923  0.010417      4.000000
  0.007407  0.036923  0.010417      8.000000
  0.014815  0.036923  0.010417      8.000000
  0.022222  0.036923  0.010417      8.000000
  0.029630  0.036923  0.010417      8.000000
  0.000000  0.000000  0.017361      2.000000
  0.007407  0.000000  0.017361      4.000000
  0.014815  0.000000  0.017361      4.000000
  0.022222  0.000000  0.017361      4.000000
  0.029630  0.000000  0.017361      4.000000
  0.000000  0.006154  0.017361      4.000000
  0.007407  0.006154  0.017361      8.000000
  0.014815  0.006154  0.017361      8.000000
  0.022222  0.006154  0.017361      8.000000
  0.029630  0.006154  0.017361      8.000000
  0.000000  0.012308  0.017361      4.000000
  0.007407  0.012308  0.017361      8.000000
  0.014815  0.012308  0.017361      8.000000
  0.022222  0.012308  0.017361      8.000000
  0.029630  0.012308  0.017361      8.000000
  0.000000  0.018462  0.017361      4.000000
  0.007407  0.018462  0.017361      8.000000
  0.014815  0.018462  0.017361      8.000000
  0.022222  0.018462  0.017361      8.000000
  0.029630  0.018462  0.017361      8.000000
  0.000000  0.024615  0.017361      4.000000
  0.007407  0.024615  0.017361      8.000000
  0.014815  0.024615  0.017361      8.000000
  0.022222  0.024615  0.017361      8.000000
  0.029630  0.024615  0.017361      8.000000
  0.000000  0.030769  0.017361      4.000000
  0.007407  0.030769  0.017361      8.000000
  0.014815  0.030769  0.017361      8.000000
  0.022222  0.030769  0.017361      8.000000
  0.029630  0.030769  0.017361      8.000000
  0.000000  0.036923  0.017361      4.000000
  0.007407  0.036923  0.017361      8.000000
  0.014815  0.036923  0.017361      8.000000
  0.022222  0.036923  0.017361      8.000000
  0.029630  0.036923  0.017361      8.000000
  0.000000  0.000000  0.024306      2.000000
  0.007407  0.000000  0.024306      4.000000
  0.014815  0.000000  0.024306      4.000000
  0.022222  0.000000  0.024306      4.000000
  0.029630  0.000000  0.024306      4.000000
  0.000000  0.006154  0.024306      4.000000
  0.007407  0.006154  0.024306      8.000000
  0.014815  0.006154  0.024306      8.000000
  0.022222  0.006154  0.024306      8.000000
  0.029630  0.006154  0.024306      8.000000
  0.000000  0.012308  0.024306      4.000000
  0.007407  0.012308  0.024306      8.000000
  0.014815  0.012308  0.024306      8.000000
  0.022222  0.012308  0.024306      8.000000
  0.029630  0.012308  0.024306      8.000000
  0.000000  0.018462  0.024306      4.000000
  0.007407  0.018462  0.024306      8.000000
  0.014815  0.018462  0.024306      8.000000
  0.022222  0.018462  0.024306      8.000000
  0.029630  0.018462  0.024306      8.000000
  0.000000  0.024615  0.024306      4.000000
  0.007407  0.024615  0.024306      8.000000
  0.014815  0.024615  0.024306      8.000000
  0.022222  0.024615  0.024306      8.000000
  0.029630  0.024615  0.024306      8.000000
  0.000000  0.030769  0.024306      4.000000
  0.007407  0.030769  0.024306      8.000000
  0.014815  0.030769  0.024306      8.000000
  0.022222  0.030769  0.024306      8.000000
  0.029630  0.030769  0.024306      8.000000
  0.000000  0.036923  0.024306      4.000000
  0.007407  0.036923  0.024306      8.000000
  0.014815  0.036923  0.024306      8.000000
  0.022222  0.036923  0.024306      8.000000
  0.029630  0.036923  0.024306      8.000000
 


--------------------------------------------------------------------------------------------------------




 Dimension of arrays:
   k-points           NKPTS =    140   k-points in BZ     NKDIM =    140   number of bands    NBANDS=     24
   number of dos      NEDOS =    301   number of ions     NIONS =      1
   non local maximal  LDIM  =      4   non local SUM 2l+1 LMDIM =      8
   total plane-waves  NPLWV = ******
   max r-space proj   IRMAX =      1   max aug-charges    IRDMAX=   6486
   dimension x,y,z NGX =   108 NGY =   90 NGZ =  140
   dimension x,y,z NGXF=   216 NGYF=  180 NGZF=  280
   support grid    NGXF=   216 NGYF=  180 NGZF=  280
   ions per type =               1
   NGX,Y,Z   is equivalent  to a cutoff of  11.97, 11.97, 12.93 a.u.
   NGXF,Y,Z  is equivalent  to a cutoff of  23.94, 23.94, 25.86 a.u.

 SYSTEM =  Convergence                             
 POSCAR =  B1                                      

 Startparameter for this run:
   NWRITE =      2    write-flag & timer
   PREC   = accura    normal or accurate (medium, high low for compatibility)
   ISTART =      0    job   : 0-new  1-cont  2-samecut
   ICHARG =      2    charge: 1-file 2-atom 10-const
   ISPIN  =      1    spin polarized calculation?
   LNONCOLLINEAR =      F non collinear calculations
   LSORBIT =      F    spin-orbit coupling
   INIWAV =      1    electr: 0-lowe 1-rand  2-diag
   LASPH  =      F    aspherical Exc in radial PAW
 Electronic Relaxation 1
   ENCUT  =  480.0 eV  35.28 Ry    5.94 a.u.  26.80 22.33 32.16*2*pi/ulx,y,z
   ENINI  =  480.0     initial cutoff
   ENAUG  =  535.5 eV  augmentation charge cutoff
   NELM   =    100;   NELMIN=  2; NELMDL= -5     # of ELM steps 
   EDIFF  = 0.1E-05   stopping-criterion for ELM
   LREAL  =      F    real-space projection
   NLSPLINE    = F    spline interpolate recip. space projectors
   LCOMPAT=      F    compatible to vasp.4.4
   GGA_COMPAT  = T    GGA compatible to vasp.4.4-vasp.4.6
   LMAXPAW     = -100 max onsite density
   LMAXMIX     =    2 max onsite mixed and CHGCAR
   VOSKOWN=      0    Vosko Wilk Nusair interpolation
   ROPT   =    0.00000
 Ionic relaxation
   EDIFFG = -.1E-02   stopping-criterion for IOM
   NSW    =      0    number of steps for IOM
   NBLOCK =      1;   KBLOCK =      1    inner block; outer block 
   IBRION =     -1    ionic relax: 0-MD 1-quasi-New 2-CG
   NFREE  =      0    steps in history (QN), initial steepest desc. (CG)
   ISIF   =      2    stress and relaxation
   IWAVPR =     10    prediction:  0-non 1-charg 2-wave 3-comb
   ISYM   =      2    0-nonsym 1-usesym 2-fastsym
   LCORR  =      T    Harris-Foulkes like correction to forces

   POTIM  = 0.5000    time-step for ionic-motion
   TEIN   =    0.0    initial temperature
   TEBEG  =    0.0;   TEEND  =   0.0 temperature during run
   SMASS  =  -3.00    Nose mass-parameter (am)
   estimated Nose-frequenzy (Omega)   =  0.10E-29 period in steps = 0.13E+47 mass=  -0.514E-26a.u.
   SCALEE = 1.0000    scale energy and forces
   NPACO  =    256;   APACO  = 10.0  distance and # of slots for P.C.
   PSTRESS=    0.0 pullay stress

  Mass of Ions in am
   POMASS =  10.81
  Ionic Valenz
   ZVAL   =   3.00
  Atomic Wigner-Seitz radii
   RWIGS  =  -1.00
  virtual crystal weights 
   VCA    =   1.00
   NELECT =       3.0000    total number of electrons
   NUPDOWN=      -1.0000    fix difference up-down

 DOS related values:
   EMIN   =  10.00;   EMAX   =-10.00  energy-range for DOS
   EFERMI =   0.00;   METHOD = LEGACY      
   ISMEAR =     0;   SIGMA  =   0.05  broadening in eV -4-tet -1-fermi 0-gaus

 Electronic relaxation 2 (details)
   IALGO  =     38    algorithm
   LDIAG  =      T    sub-space diagonalisation (order eigenvalues)
   LSUBROT=      F    optimize rotation matrix (better conditioning)
   TURBO    =      0    0=normal 1=particle mesh
   IRESTART =      0    0=no restart 2=restart with 2 vectors
   NREBOOT  =      0    no. of reboots
   NMIN     =      0    reboot dimension
   EREF     =   0.00    reference energy to select bands
   IMIX   =      4    mixing-type and parameters
     AMIX     =   0.40;   BMIX     =  1.00
     AMIX_MAG =   1.60;   BMIX_MAG =  1.00
     AMIN     =   0.10
     WC   =   100.;   INIMIX=   1;  MIXPRE=   1;  MAXMIX= -45

 Intra band minimization:
   WEIMIN = 0.0000     energy-eigenvalue tresh-hold
   EBREAK =  0.10E-07  absolut break condition
   DEPER  =   0.30     relativ break condition  

   TIME   =   0.40     timestep for ELM

  volume/ion in A,a.u.               =    3375.00     22775.62
  Fermi-wavevector in a.u.,A,eV,Ry     =   0.157407  0.297456  0.337111  0.024777
  Thomas-Fermi vector in A             =   0.845991
 
 Write flags
   LWAVE        =      F    write WAVECAR
   LDOWNSAMPLE  =      F    k-point downsampling of WAVECAR
   LCHARG       =      F    write CHGCAR
   LVTOT        =      F    write LOCPOT, total local potential
   LVHAR        =      F    write LOCPOT, Hartree potential only
   WRT_POTENTIAL= false  ! write potential to hdf5 file
   LELF         =      F    write electronic localiz. function (ELF)
   LORBIT       =      0    0 simple, 1 ext, 2 COOP (PROOUT), +10 PAW based schemes


 Dipole corrections
   LMONO      =      F    monopole corrections only (constant potential shift)
   LDIPOL     =      F    correct potential (dipole corrections)
   IDIPOL     =      0    1-x, 2-y, 3-z, 4-all directions 
   EPSILON    =  1.0000000 bulk dielectric constant
   LVACPOTAV  =      F  vacuum potentials using an averaging scheme for the charge density
   VACPOTFLAT =  0.1000000 required flatness to determine vacuum potential
 Exchange correlation treatment:
   GGA     = PE    functional components
   XC_C    = 1    coefficients multiplying the functional components
   LIBXC   =     F    Libxc                    
   VOSKOWN =     0    Vosko Wilk Nusair interpolation
   LHFCALC =     F    Hartree Fock is set to
   LHFONE  =     F    Hartree Fock one center treatment
   AEXX    =    0.0000 exact exchange contribution

 Parameters of functionals:
   PE:
     No parameter
 
 Van der Waals corrections
   IVDW    =     0    specifies the selected vdW correction

 Linear response parameters
   LEPSILON=     F    determine dielectric tensor
   LRPA    =     F    only Hartree local field effects (RPA)
   LNABLA  =     F    use nabla operator in PAW spheres
   LVEL    =     F    velocity operator in full k-point grid
   CSHIFT  =0.1000    complex shift for real part using Kramers Kronig
   OMEGAMAX=  -1.0    maximum frequency
   DEG_THRESHOLD= 0.2000000E-02 threshold for treating states as degnerate
   RTIME   =   -0.100 relaxation time in fs
  (WPLASMAI=    0.000 imaginary part of plasma frequency in eV, 0.658/RTIME)
   DFIELD  = 0.0000000 0.0000000 0.0000000 field for delta impulse in time
 
  Optional k-point grid parameters
   LKPOINTS_OPT  =     F    use optional k-point grid
   KPOINTS_OPT_MODE=     1    mode for optional k-point grid
 
 Orbital magnetization related:
   ORBITALMAG=     F  switch on orbital magnetization
   LCHIMAG   =     F  perturbation theory with respect to B field
   DQ        =  0.001000  dq finite difference perturbation B field
   LLRAUG    =     F  two centre corrections for induced B field
   LBONE     =     F  B-component reconstruction in AE one-centre
   LVGVCALC  =     T  calculate vGv susceptibility
   LVGVAPPL  =     F  apply vGv susceptibility instead of pGv for G=0

 Random number generation:
   RANDOM_GENERATOR = DEFAULT
   PCG_SEED         = not used


--------------------------------------------------------------------------------------------------------


 Static calculation
 charge density and potential will be updated during run
 non-spin polarized calculation
 Variant of blocked Davidson
 Davidson routine will perform the subspace rotation
 perform sub-space diagonalisation
    after iterative eigenvector-optimisation
 modified Broyden-mixing scheme, WC =      100.0
 initial mixing is a Kerker type mixing with AMIX =  0.4000 and BMIX =      1.0000
 Hartree-type preconditioning will be used
 using additional bands           22
 reciprocal scheme for non local part
 use partial core corrections
 calculate Harris-corrections to forces 
   (improved forces if not selfconsistent)
 use gradient corrections 
 use of overlap-Matrix (Vanderbilt PP)
 Gauss-broadening in eV      SIGMA  =   0.05


--------------------------------------------------------------------------------------------------------


  energy-cutoff  :      480.00
  volume of cell :     3375.00
      direct lattice vectors                 reciprocal lattice vectors
    15.000000000  0.000000000  0.000000000     0.066666667  0.000000000  0.000000000
     0.000000000 12.500000000  0.000000000     0.000000000  0.080000000  0.000000000
     0.000000000  0.000000000 18.000000000     0.000000000  0.000000000  0.055555556

  length of vectors
    15.000000000 12.500000000 18.000000000     0.066666667  0.080000000  0.055555556


 
 k-points in units of 2pi/SCALE and weight: k-points                                
   0.00000000  0.00000000  0.00347222       0.002
   0.00740741  0.00000000  0.00347222       0.004
   0.01481481  0.00000000  0.00347222       0.004
   0.02222222  0.00000000  0.00347222       0.004
   0.02962963  0.00000000  0.00347222       0.004
   0.00000000  0.00615385  0.00347222       0.004
   0.00740741  0.00615385  0.00347222       0.009
   0.01481481  0.00615385  0.00347222       0.009
   0.02222222  0.00615385  0.00347222       0.009
   0.02962963  0.00615385  0.00347222       0.009
   0.00000000  0.01230769  0.00347222       0.004
   0.00740741  0.01230769  0.00347222       0.009
   0.01481481  0.01230769  0.00347222       0.009
   0.02222222  0.01230769  0.00347222       0.009
   0.02962963  0.01230769  0.00347222       0.009
   0.00000000  0.01846154  0.00347222       0.004
   0.00740741  0.01846154  0.00347222       0.009
   0.01481481  0.01846154  0.00347222       0.009
   0.02222222  0.01846154  0.00347222       0.009
   0.02962963  0.01846154  0.00347222       0.009
   0.00000000  0.02461538  0.00347222       0.004
   0.00740741  0.02461538  0.00347222       0.009
   0.01481481  0.02461538  0.00347222       0.009
   0.02222222  0.02461538  0.00347222       0.009
   0.02962963  0.02461538  0.00347222       0.009
   0.00000000  0.03076923  0.00347222       0.004
   0.00740741  0.03076923  0.00347222       0.009
   0.01481481  0.03076923  0.00347222       0.009
   0.02222222  0.03076923  0.00347222       0.009
   0.02962963  0.03076923  0.00347222       0.009
   0.00000000  0.03692308  0.00347222       0.004
   0.00740741  0.03692308  0.00347222       0.009
   0.01481481  0.03692308  0.00347222       0.009
   0.02222222  0.03692308  0.00347222       0.009
   0.02962963  0.03692308  0.00347222       0.009
   0.00000000  0.00000000  0.01041667       0.002
   0.00740741  0.00000000  0.01041667       0.004
   0.01481481  0.00000000  0.01041667       0.004
   0.02222222  0.00000000  0.01041667       0.004
   0.02962963  0.00000000  0.01041667       0.004
   0.00000000  0.00615385  0.01041667       0.004
   0.00740741  0.00615385  0.01041667       0.009
   0.01481481  0.00615385  0.01041667       0.009
   0.02222222  0.00615385  0.01041667       0.009
   0.02962963  0.00615385  0.01041667       0.009
   0.00000000  0.01230769  0.01041667       0.004
   0.00740741  0.01230769  0.01041667       0.009
   0.01481481  0.01230769  0.01041667       0.009
   0.02222222  0.01230769  0.01041667       0.009
   0.02962963  0.01230769  0.01041667       0.009
   0.00000000  0.01846154  0.01041667       0.004
   0.00740741  0.01846154  0.01041667       0.009
   0.01481481  0.01846154  0.01041667       0.009
   0.02222222  0.01846154  0.01041667       0.009
   0.02962963  0.01846154  0.01041667       0.009
   0.00000000  0.02461538  0.01041667       0.004
   0.00740741  0.02461538  0.01041667       0.009
   0.01481481  0.02461538  0.01041667       0.009
   0.02222222  0.02461538  0.01041667       0.009
   0.02962963  0.02461538  0.01041667       0.009
   0.00000000  0.03076923  0.01041667       0.004
   0.00740741  0.03076923  0.01041667       0.009
   0.01481481  0.03076923  0.01041667       0.009
   0.02222222  0.03076923  0.01041667       0.009
   0.02962963  0.03076923  0.01041667       0.009
   0.00000000  0.03692308  0.01041667       0.004
   0.00740741  0.03692308  0.01041667       0.009
   0.01481481  0.03692308  0.01041667       0.009
   0.02222222  0.03692308  0.01041667       0.009
   0.02962963  0.03692308  0.01041667       0.009
   0.00000000  0.00000000  0.01736111       0.002
   0.00740741  0.00000000  0.01736111       0.004
   0.01481481  0.00000000  0.01736111       0.004
   0.02222222  0.00000000  0.01736111       0.004
   0.02962963  0.00000000  0.01736111       0.004
   0.00000000  0.00615385  0.01736111       0.004
   0.00740741  0.00615385  0.01736111       0.009
   0.01481481  0.00615385  0.01736111       0.009
   0.02222222  0.00615385  0.01736111       0.009
   0.02962963  0.00615385  0.01736111       0.009
   0.00000000  0.01230769  0.01736111       0.004
   0.00740741  0.01230769  0.01736111       0.009
   0.01481481  0.01230769  0.01736111       0.009
   0.02222222  0.01230769  0.01736111       0.009
   0.02962963  0.01230769  0.01736111       0.009
   0.00000000  0.01846154  0.01736111       0.004
   0.00740741  0.01846154  0.01736111       0.009
   0.01481481  0.01846154  0.01736111       0.009
   0.02222222  0.01846154  0.01736111       0.009
   0.02962963  0.01846154  0.01736111       0.009
   0.00000000  0.02461538  0.01736111       0.004
   0.00740741  0.02461538  0.01736111       0.009
   0.01481481  0.02461538  0.01736111       0.009
   0.02222222  0.02461538  0.01736111       0.009
   0.02962963  0.02461538  0.01736111       0.009
   0.00000000  0.03076923  0.01736111       0.004
   0.00740741  0.03076923  0.01736111       0.009
   0.01481481  0.03076923  0.01736111       0.009
   0.02222222  0.03076923  0.01736111       0.009
   0.02962963  0.03076923  0.01736111       0.009
   0.00000000  0.03692308  0.01736111       0.004
   0.00740741  0.03692308  0.01736111       0.009
   0.01481481  0.03692308  0.01736111       0.009
   0.02222222  0.03692308  0.01736111       0.009
   0.02962963  0.03692308  0.01736111       0.009
   0.00000000  0.00000000  0.02430556       0.002
   0.00740741  0.00000000  0.02430556       0.004
   0.01481481  0.00000000  0.02430556       0.004
   0.02222222  0.00000000  0.02430556       0.004
   0.02962963  0.00000000  0.02430556       0.004
   0.00000000  0.00615385  0.02430556       0.004
   0.00740741  0.00615385  0.02430556       0.009
   0.01481481  0.00615385  0.02430556       0.009
   0.02222222  0.00615385  0.02430556       0.009
   0.02962963  0.00615385  0.02430556       0.009
   0.00000000  0.01230769  0.02430556       0.004
   0.00740741  0.01230769  0.02430556       0.009
   0.01481481  0.01230769  0.02430556       0.009
   0.02222222  0.01230769  0.02430556       0.009
   0.02962963  0.01230769  0.02430556       0.009
   0.00000000  0.01846154  0.02430556       0.004
   0.00740741  0.01846154  0.02430556       0.009
   0.01481481  0.01846154  0.02430556       0.009
   0.02222222  0.01846154  0.02430556       0.009
   0.02962963  0.01846154  0.02430556       0.009
   0.00000000  0.02461538  0.02430556       0.004
   0.00740741  0.02461538  0.02430556       0.009
   0.01481481  0.02461538  0.02430556       0.009
   0.02222222  0.02461538  0.02430556       0.009
   0.02962963  0.02461538  0.02430556       0.009
   0.00000000  0.03076923  0.02430556       0.004
   0.00740741  0.03076923  0.02430556       0.009
   0.01481481  0.03076923  0.02430556       0.009
   0.02222222  0.03076923  0.02430556       0.009
   0.02962963  0.03076923  0.02430556       0.009
   0.00000000  0.03692308  0.02430556       0.004
   0.00740741  0.03692308  0.02430556       0.009
   0.01481481  0.03692308  0.02430556       0.009
   0.02222222  0.03692308  0.02430556       0.009
   0.02962963  0.03692308  0.02430556       0.009
 
 k-points in reciprocal lattice and weights: k-points                                
   0.00000000  0.00000000  0.06250000       0.002
   0.11111111  0.00000000  0.06250000       0.004
   0.22222222  0.00000000  0.06250000       0.004
   0.33333333  0.00000000  0.06250000       0.004
   0.44444444  0.00000000  0.06250000       0.004
   0.00000000  0.07692308  0.06250000       0.004
   0.11111111  0.07692308  0.06250000       0.009
   0.22222222  0.07692308  0.06250000       0.009
   0.33333333  0.07692308  0.06250000       0.009
   0.44444444  0.07692308  0.06250000       0.009
   0.00000000  0.15384615  0.06250000       0.004
   0.11111111  0.15384615  0.06250000       0.009
   0.22222222  0.15384615  0.06250000       0.009
   0.33333333  0.15384615  0.06250000       0.009
   0.44444444  0.15384615  0.06250000       0.009
   0.00000000  0.23076923  0.06250000       0.004
   0.11111111  0.23076923  0.06250000       0.009
   0.22222222  0.23076923  0.06250000       0.009
   0.33333333  0.23076923  0.06250000       0.009
   0.44444444  0.23076923  0.06250000       0.009
   0.00000000  0.30769231  0.06250000       0.004
   0.11111111  0.30769231  0.06250000       0.009
   0.22222222  0.30769231  0.06250000       0.009
   0.33333333  0.30769231  0.06250000       0.009
   0.44444444  0.30769231  0.06250000       0.009
   0.00000000  0.38461538  0.06250000       0.004
   0.11111111  0.38461538  0.06250000       0.009
   0.22222222  0.38461538  0.06250000       0.009
   0.33333333  0.38461538  0.06250000       0.009
   0.44444444  0.38461538  0.06250000       0.009
   0.00000000  0.46153846  0.06250000       0.004
   0.11111111  0.46153846  0.06250000       0.009
   0.22222222  0.46153846  0.06250000       0.009
   0.33333333  0.46153846  0.06250000       0.009
   0.44444444  0.46153846  0.06250000       0.009
   0.00000000  0.00000000  0.18750000       0.002
   0.11111111  0.00000000  0.18750000       0.004
   0.22222222  0.00000000  0.18750000       0.004
   0.33333333  0.00000000  0.18750000       0.004
   0.44444444  0.00000000  0.18750000       0.004
   0.00000000  0.07692308  0.18750000       0.004
   0.11111111  0.07692308  0.18750000       0.009
   0.22222222  0.07692308  0.18750000       0.009
   0.33333333  0.07692308  0.18750000       0.009
   0.44444444  0.07692308  0.18750000       0.009
   0.00000000  0.15384615  0.18750000       0.004
   0.11111111  0.15384615  0.18750000       0.009
   0.22222222  0.15384615  0.18750000       0.009
   0.33333333  0.15384615  0.18750000       0.009
   0.44444444  0.15384615  0.18750000       0.009
   0.00000000  0.23076923  0.18750000       0.004
   0.11111111  0.23076923  0.18750000       0.009
   0.22222222  0.23076923  0.18750000       0.009
   0.33333333  0.23076923  0.18750000       0.009
   0.44444444  0.23076923  0.18750000       0.009
   0.00000000  0.30769231  0.18750000       0.004
   0.11111111  0.30769231  0.18750000       0.009
   0.22222222  0.30769231  0.18750000       0.009
   0.33333333  0.30769231  0.18750000       0.009
   0.44444444  0.30769231  0.18750000       0.009
   0.00000000  0.38461538  0.18750000       0.004
   0.11111111  0.38461538  0.18750000       0.009
   0.22222222  0.38461538  0.18750000       0.009
   0.33333333  0.38461538  0.18750000       0.009
   0.44444444  0.38461538  0.18750000       0.009
   0.00000000  0.46153846  0.18750000       0.004
   0.11111111  0.46153846  0.18750000       0.009
   0.22222222  0.46153846  0.18750000       0.009
   0.33333333  0.46153846  0.18750000       0.009
   0.44444444  0.46153846  0.18750000       0.009
   0.00000000  0.00000000  0.31250000       0.002
   0.11111111  0.00000000  0.31250000       0.004
   0.22222222  0.00000000  0.31250000       0.004
   0.33333333  0.00000000  0.31250000       0.004
   0.44444444  0.00000000  0.31250000       0.004
   0.00000000  0.07692308  0.31250000       0.004
   0.11111111  0.07692308  0.31250000       0.009
   0.22222222  0.07692308  0.31250000       0.009
   0.33333333  0.07692308  0.31250000       0.009
   0.44444444  0.07692308  0.31250000       0.009
   0.00000000  0.15384615  0.31250000       0.004
   0.11111111  0.15384615  0.31250000       0.009
   0.22222222  0.15384615  0.31250000       0.009
   0.33333333  0.15384615  0.31250000       0.009
   0.44444444  0.15384615  0.31250000       0.009
   0.00000000  0.23076923  0.31250000       0.004
   0.11111111  0.23076923  0.31250000       0.009
   0.22222222  0.23076923  0.31250000       0.009
   0.33333333  0.23076923  0.31250000       0.009
   0.44444444  0.23076923  0.31250000       0.009
   0.00000000  0.30769231  0.31250000       0.004
   0.11111111  0.30769231  0.31250000       0.009
   0.22222222  0.30769231  0.31250000       0.009
   0.33333333  0.30769231  0.31250000       0.009
   0.44444444  0.30769231  0.31250000       0.009
   0.00000000  0.38461538  0.31250000       0.004
   0.11111111  0.38461538  0.31250000       0.009
   0.22222222  0.38461538  0.31250000       0.009
   0.33333333  0.38461538  0.31250000       0.009
   0.44444444  0.38461538  0.31250000       0.009
   0.00000000  0.46153846  0.31250000       0.004
   0.11111111  0.46153846  0.31250000       0.009
   0.22222222  0.46153846  0.31250000       0.009
   0.33333333  0.46153846  0.31250000       0.009
   0.44444444  0.46153846  0.31250000       0.009
   0.00000000  0.00000000  0.43750000       0.002
   0.11111111  0.00000000  0.43750000       0.004
   0.22222222  0.00000000  0.43750000       0.004
   0.33333333  0.00000000  0.43750000       0.004
   0.44444444  0.00000000  0.43750000       0.004
   0.00000000  0.07692308  0.43750000       0.004
   0.11111111  0.07692308  0.43750000       0.009
   0.22222222  0.07692308  0.43750000       0.009
   0.33333333  0.07692308  0.43750000       0.009
   0.44444444  0.07692308  0.43750000       0.009
   0.00000000  0.15384615  0.43750000       0.004
   0.11111111  0.15384615  0.43750000       0.009
   0.22222222  0.15384615  0.43750000       0.009
   0.33333333  0.15384615  0.43750000       0.009
   0.44444444  0.15384615  0.43750000       0.009
   0.00000000  0.23076923  0.43750000       0.004
   0.11111111  0.23076923  0.43750000       0.009
   0.22222222  0.23076923  0.43750000       0.009
   0.33333333  0.23076923  0.43750000       0.009
   0.44444444  0.23076923  0.43750000       0.009
   0.00000000  0.30769231  0.43750000       0.004
   0.11111111  0.30769231  0.43750000       0.009
   0.22222222  0.30769231  0.43750000       0.009
   0.33333333  0.30769231  0.43750000       0.009
   0.44444444  0.30769231  0.43750000       0.009
   0.00000000  0.38461538  0.43750000       0.004
   0.11111111  0.38461538  0.43750000       0.009
   0.22222222  0.38461538  0.43750000       0.009
   0.33333333  0.38461538  0.43750000       0.009
   0.44444444  0.38461538  0.43750000       0.009
   0.00000000  0.46153846  0.43750000       0.004
   0.11111111  0.46153846  0.43750000       0.009
   0.22222222  0.46153846  0.43750000       0.009
   0.33333333  0.46153846  0.43750000       0.009
   0.44444444  0.46153846  0.43750000       0.009
 
 position of ions in fractional coordinates (direct lattice) 
   0.52123000  0.54500000  0.63796000
 
 position of ions in cartesian coordinates  (Angst):
   7.81845000  6.81250000 11.48328000
 


--------------------------------------------------------------------------------------------------------


 k-point     1 :   0.0000 0.0000 0.0625  plane waves:   80579
 k-point     2 :   0.1111 0.0000 0.0625  plane waves:   80545
 k-point     3 :   0.2222 0.0000 0.0625  plane waves:   80556
 k-point     4 :   0.3333 0.0000 0.0625  plane waves:   80620
 k-point     5 :   0.4444 0.0000 0.0625  plane waves:   80596
 k-point     6 :   0.0000 0.0769 0.0625  plane waves:   80582
 k-point     7 :   0.1111 0.0769 0.0625  plane waves:   80578
 k-point     8 :   0.2222 0.0769 0.0625  plane waves:   80553
 k-point     9 :   0.3333 0.0769 0.0625  plane waves:   80604
 k-point    10 :   0.4444 0.0769 0.0625  plane waves:   80607
 k-point    11 :   0.0000 0.1538 0.0625  plane waves:   80616
 k-point    12 :   0.1111 0.1538 0.0625  plane waves:   80584
 k-point    13 :   0.2222 0.1538 0.0625  plane waves:   80564
 k-point    14 :   0.3333 0.1538 0.0625  plane waves:   80591
 k-point    15 :   0.4444 0.1538 0.0625  plane waves:   80606
 k-point    16 :   0.0000 0.2308 0.0625  plane waves:   80592
 k-point    17 :   0.1111 0.2308 0.0625  plane waves:   80596
 k-point    18 :   0.2222 0.2308 0.0625  plane waves:   80576
 k-point    19 :   0.3333 0.2308 0.0625  plane waves:   80584
 k-point    20 :   0.4444 0.2308 0.0625  plane waves:   80599
 k-point    21 :   0.0000 0.3077 0.0625  plane waves:   80582
 k-point    22 :   0.1111 0.3077 0.0625  plane waves:   80586
 k-point    23 :   0.2222 0.3077 0.0625  plane waves:   80576
 k-point    24 :   0.3333 0.3077 0.0625  plane waves:   80590
 k-point    25 :   0.4444 0.3077 0.0625  plane waves:   80611
 k-point    26 :   0.0000 0.3846 0.0625  plane waves:   80574
 k-point    27 :   0.1111 0.3846 0.0625  plane waves:   80584
 k-point    28 :   0.2222 0.3846 0.0625  plane waves:   80581
 k-point    29 :   0.3333 0.3846 0.0625  plane waves:   80595
 k-point    30 :   0.4444 0.3846 0.0625  plane waves:   80622
 k-point    31 :   0.0000 0.4615 0.0625  plane waves:   80547
 k-point    32 :   0.1111 0.4615 0.0625  plane waves:   80581
 k-point    33 :   0.2222 0.4615 0.0625  plane waves:   80586
 k-point    34 :   0.3333 0.4615 0.0625  plane waves:   80590
 k-point    35 :   0.4444 0.4615 0.0625  plane waves:   80609
 k-point    36 :   0.0000 0.0000 0.1875  plane waves:   80586
 k-point    37 :   0.1111 0.0000 0.1875  plane waves:   80545
 k-point    38 :   0.2222 0.0000 0.1875  plane waves:   80603
 k-point    39 :   0.3333 0.0000 0.1875  plane waves:   80644
 k-point    40 :   0.4444 0.0000 0.1875  plane waves:   80605
 k-point    41 :   0.0000 0.0769 0.1875  plane waves:   80586
 k-point    42 :   0.1111 0.0769 0.1875  plane waves:   80568
 k-point    43 :   0.2222 0.0769 0.1875  plane waves:   80592
 k-point    44 :   0.3333 0.0769 0.1875  plane waves:   80604
 k-point    45 :   0.4444 0.0769 0.1875  plane waves:   80618
 k-point    46 :   0.0000 0.1538 0.1875  plane waves:   80600
 k-point    47 :   0.1111 0.1538 0.1875  plane waves:   80610
 k-point    48 :   0.2222 0.1538 0.1875  plane waves:   80606
 k-point    49 :   0.3333 0.1538 0.1875  plane waves:   80587
 k-point    50 :   0.4444 0.1538 0.1875  plane waves:   80580
 k-point    51 :   0.0000 0.2308 0.1875  plane waves:   80594
 k-point    52 :   0.1111 0.2308 0.1875  plane waves:   80598
 k-point    53 :   0.2222 0.2308 0.1875  plane waves:   80574
 k-point    54 :   0.3333 0.2308 0.1875  plane waves:   80618
 k-point    55 :   0.4444 0.2308 0.1875  plane waves:   80568
 k-point    56 :   0.0000 0.3077 0.1875  plane waves:   80585
 k-point    57 :   0.1111 0.3077 0.1875  plane waves:   80570
 k-point    58 :   0.2222 0.3077 0.1875  plane waves:   80568
 k-point    59 :   0.3333 0.3077 0.1875  plane waves:   80565
 k-point    60 :   0.4444 0.3077 0.1875  plane waves:   80604
 k-point    61 :   0.0000 0.3846 0.1875  plane waves:   80588
 k-point    62 :   0.1111 0.3846 0.1875  plane waves:   80564
 k-point    63 :   0.2222 0.3846 0.1875  plane waves:   80570
 k-point    64 :   0.3333 0.3846 0.1875  plane waves:   80575
 k-point    65 :   0.4444 0.3846 0.1875  plane waves:   80589
 k-point    66 :   0.0000 0.4615 0.1875  plane waves:   80581
 k-point    67 :   0.1111 0.4615 0.1875  plane waves:   80574
 k-point    68 :   0.2222 0.4615 0.1875  plane waves:   80553
 k-point    69 :   0.3333 0.4615 0.1875  plane waves:   80583
 k-point    70 :   0.4444 0.4615 0.1875  plane waves:   80582
 k-point    71 :   0.0000 0.0000 0.3125  plane waves:   80576
 k-point    72 :   0.1111 0.0000 0.3125  plane waves:   80608
 k-point    73 :   0.2222 0.0000 0.3125  plane waves:   80631
 k-point    74 :   0.3333 0.0000 0.3125  plane waves:   80651
 k-point    75 :   0.4444 0.0000 0.3125  plane waves:   80628
 k-point    76 :   0.0000 0.0769 0.3125  plane waves:   80556
 k-point    77 :   0.1111 0.0769 0.3125  plane waves:   80593
 k-point    78 :   0.2222 0.0769 0.3125  plane waves:   80619
 k-point    79 :   0.3333 0.0769 0.3125  plane waves:   80628
 k-point    80 :   0.4444 0.0769 0.3125  plane waves:   80634
 k-point    81 :   0.0000 0.1538 0.3125  plane waves:   80613
 k-point    82 :   0.1111 0.1538 0.3125  plane waves:   80582
 k-point    83 :   0.2222 0.1538 0.3125  plane waves:   80589
 k-point    84 :   0.3333 0.1538 0.3125  plane waves:   80603
 k-point    85 :   0.4444 0.1538 0.3125  plane waves:   80603
 k-point    86 :   0.0000 0.2308 0.3125  plane waves:   80582
 k-point    87 :   0.1111 0.2308 0.3125  plane waves:   80581
 k-point    88 :   0.2222 0.2308 0.3125  plane waves:   80615
 k-point    89 :   0.3333 0.2308 0.3125  plane waves:   80596
 k-point    90 :   0.4444 0.2308 0.3125  plane waves:   80611
 k-point    91 :   0.0000 0.3077 0.3125  plane waves:   80626
 k-point    92 :   0.1111 0.3077 0.3125  plane waves:   80583
 k-point    93 :   0.2222 0.3077 0.3125  plane waves:   80584
 k-point    94 :   0.3333 0.3077 0.3125  plane waves:   80582
 k-point    95 :   0.4444 0.3077 0.3125  plane waves:   80563
 k-point    96 :   0.0000 0.3846 0.3125  plane waves:   80615
 k-point    97 :   0.1111 0.3846 0.3125  plane waves:   80578
 k-point    98 :   0.2222 0.3846 0.3125  plane waves:   80575
 k-point    99 :   0.3333 0.3846 0.3125  plane waves:   80580
 k-point   100 :   0.4444 0.3846 0.3125  plane waves:   80571
 k-point   101 :   0.0000 0.4615 0.3125  plane waves:   80594
 k-point   102 :   0.1111 0.4615 0.3125  plane waves:   80606
 k-point   103 :   0.2222 0.4615 0.3125  plane waves:   80557
 k-point   104 :   0.3333 0.4615 0.3125  plane waves:   80574
 k-point   105 :   0.4444 0.4615 0.3125  plane waves:   80577
 k-point   106 :   0.0000 0.0000 0.4375  plane waves:   80554
 k-point   107 :   0.1111 0.0000 0.4375  plane waves:   80601
 k-point   108 :   0.2222 0.0000 0.4375  plane waves:   80627
 k-point   109 :   0.3333 0.0000 0.4375  plane waves:   80604
 k-point   110 :   0.4444 0.0000 0.4375  plane waves:   80662
 k-point   111 :   0.0000 0.0769 0.4375  plane waves:   80604
 k-point   112 :   0.1111 0.0769 0.4375  plane waves:   80603
 k-point   113 :   0.2222 0.0769 0.4375  plane waves:   80638
 k-point   114 :   0.3333 0.0769 0.4375  plane waves:   80640
 k-point   115 :   0.4444 0.0769 0.4375  plane waves:   80649
 k-point   116 :   0.0000 0.1538 0.4375  plane waves:   80574
 k-point   117 :   0.1111 0.1538 0.4375  plane waves:   80595
 k-point   118 :   0.2222 0.1538 0.4375  plane waves:   80622
 k-point   119 :   0.3333 0.1538 0.4375  plane waves:   80635
 k-point   120 :   0.4444 0.1538 0.4375  plane waves:   80619
 k-point   121 :   0.0000 0.2308 0.4375  plane waves:   80607
 k-point   122 :   0.1111 0.2308 0.4375  plane waves:   80589
 k-point   123 :   0.2222 0.2308 0.4375  plane waves:   80590
 k-point   124 :   0.3333 0.2308 0.4375  plane waves:   80590
 k-point   125 :   0.4444 0.2308 0.4375  plane waves:   80596
 k-point   126 :   0.0000 0.3077 0.4375  plane waves:   80591
 k-point   127 :   0.1111 0.3077 0.4375  plane waves:   80604
 k-point   128 :   0.2222 0.3077 0.4375  plane waves:   80587
 k-point   129 :   0.3333 0.3077 0.4375  plane waves:   80568
 k-point   130 :   0.4444 0.3077 0.4375  plane waves:   80555
 k-point   131 :   0.0000 0.3846 0.4375  plane waves:   80633
 k-point   132 :   0.1111 0.3846 0.4375  plane waves:   80621
 k-point   133 :   0.2222 0.3846 0.4375  plane waves:   80588
 k-point   134 :   0.3333 0.3846 0.4375  plane waves:   80558
 k-point   135 :   0.4444 0.3846 0.4375  plane waves:   80548
 k-point   136 :   0.0000 0.4615 0.4375  plane waves:   80615
 k-point   137 :   0.1111 0.4615 0.4375  plane waves:   80618
 k-point   138 :   0.2222 0.4615 0.4375  plane waves:   80595
 k-point   139 :   0.3333 0.4615 0.4375  plane waves:   80574
 k-point   140 :   0.4444 0.4615 0.4375  plane waves:   80583

 maximum and minimum number of plane-waves per node :     80662    80545

 maximum number of plane-waves:     80662
 maximum index in each direction: 
   IXMAX=   26   IYMAX=   22   IZMAX=   32
   IXMIN=  -27   IYMIN=  -22   IZMIN=  -32


 serial   3D FFT for wavefunctions
 parallel 3D FFT for charge:
    minimum data exchange during FFTs selected (reduces bandwidth)


 total amount of memory used by VASP MPI-rank0  1032120. kBytes
=======================================================================

   base      :      30000. kBytes
   nonl-proj :     724040. kBytes
   fftplans  :      20866. kBytes
   grid      :      76470. kBytes
   one-center:          3. kBytes
   wavefun   :     180741. kBytes
 
     INWAV:  cpu time      0.0001: real time      0.0003
 Broyden mixing: mesh for mixing (old mesh)
   NGX = 53   NGY = 45   NGZ = 65
  (NGX  =216   NGY  =180   NGZ  =280)
  gives a total of 155025 points

 initial charge density was supplied:
 charge density of overlapping atoms calculated
 number of electron       3.0000000 magnetization 
 keeping initial charge density in first step


--------------------------------------------------------------------------------------------------------


 Maximum index for augmentation-charges          229 (set IRDMAX)


--------------------------------------------------------------------------------------------------------


 First call to EWALD:  gamma=   0.118
 Maximum number of real-space cells 3x 3x 2
 Maximum number of reciprocal cells 3x 2x 3

    FEWALD:  cpu time      0.0023: real time      0.0049


--------------------------------------- Ionic step        1  -------------------------------------------




--------------------------------------- Iteration      1(   1)  ---------------------------------------


    POTLOK:  cpu time      0.4032: real time      0.4463
    SETDIJ:  cpu time      0.0306: real time      0.0347
     EDDAV:  cpu time     49.7625: real time     50.5813
       DOS:  cpu time      0.0023: real time      0.0046
    --------------------------------------------
      LOOP:  cpu time     50.1987: real time     51.0671

 eigenvalue-minimisations  :  6720
 total energy-change (2. order) : 0.7535970E+01  (-0.3315133E+02)
 number of electron       3.0000000 magnetization 
 augmentation part        3.0000000 magnetization 

 Free energy of the ion-electron system (eV)
  ---------------------------------------------------
  alpha Z        PSCENC =         0.02038373
  Ewald energy   TEWEN  =       -11.82901664
  -Hartree energ DENC   =       -42.58396533
  -exchange      EXHF   =         0.00000000
  -V(xc)+E(xc)   XCENC  =         4.75549673
  PAW double counting   =        43.49986551      -42.64454556
  entropy T*S    EENTRO =        -0.01228770
  eigenvalues    EBANDS =       -14.83897046
  atomic energy  EATOM  =        71.16900941
  Solvation  Ediel_sol  =         0.00000000
  ---------------------------------------------------
  free energy    TOTEN  =         7.53596969 eV

  energy without entropy =        7.54825738  energy(sigma->0) =        7.54211354


--------------------------------------------------------------------------------------------------------




--------------------------------------- Iteration      1(   2)  ---------------------------------------


     EDDAV:  cpu time     74.4461: real time     75.5584
       DOS:  cpu time      0.0010: real time      0.0012
    --------------------------------------------
      LOOP:  cpu time     74.4470: real time     75.5595

 eigenvalue-minimisations  : 13392
 total energy-change (2. order) :-0.7464983E+01  (-0.7440626E+01)
 number of electron       3.0000000 magnetization 
 augmentation part        3.0000000 magnetization 

 Free energy of the ion-electron system (eV)
  ---------------------------------------------------
  alpha Z        PSCENC =         0.02038373
  Ewald energy   TEWEN  =       -11.82901664
  -Hartree energ DENC   =       -42.58396533
  -exchange      EXHF   =         0.00000000
  -V(xc)+E(xc)   XCENC  =         4.75549673
  PAW double counting   =        43.49986551      -42.64454556
  entropy T*S    EENTRO =        -0.03223131
  eigenvalues    EBANDS =       -22.28400975
  atomic energy  EATOM  =        71.16900941
  Solvation  Ediel_sol  =         0.00000000
  ---------------------------------------------------
  free energy    TOTEN  =         0.07098679 eV

  energy without entropy =        0.10321810  energy(sigma->0) =        0.08710244


--------------------------------------------------------------------------------------------------------




--------------------------------------- Iteration      1(   3)  ---------------------------------------


     EDDAV:  cpu time     46.1073: real time     46.7451
       DOS:  cpu time      0.0010: real time      0.0010
    --------------------------------------------
      LOOP:  cpu time     46.1083: real time     46.7461

 eigenvalue-minimisations  :  6744
 total energy-change (2. order) :-0.1268504E+00  (-0.1074101E+00)
 number of electron       3.0000000 magnetization 
 augmentation part        3.0000000 magnetization 

 Free energy of the ion-electron system (eV)
  ---------------------------------------------------
  alpha Z        PSCENC =         0.02038373
  Ewald energy   TEWEN  =       -11.82901664
  -Hartree energ DENC   =       -42.58396533
  -exchange      EXHF   =         0.00000000
  -V(xc)+E(xc)   XCENC  =         4.75549673
  PAW double counting   =        43.49986551      -42.64454556
  entropy T*S    EENTRO =        -0.05294461
  eigenvalues    EBANDS =       -22.39014687
  atomic energy  EATOM  =        71.16900941
  Solvation  Ediel_sol  =         0.00000000
  ---------------------------------------------------
  free energy    TOTEN  =        -0.05586364 eV

  energy without entropy =       -0.00291902  energy(sigma->0) =       -0.02939133


--------------------------------------------------------------------------------------------------------




--------------------------------------- Iteration      1(   4)  ---------------------------------------


     EDDAV:  cpu time     50.3089: real time     51.1000
       DOS:  cpu time      0.0011: real time      0.0011
    --------------------------------------------
      LOOP:  cpu time     50.3100: real time     51.1011

 eigenvalue-minimisations  :  7368
 total energy-change (2. order) :-0.2380750E-02  (-0.2326656E-02)
 number of electron       3.0000000 magnetization 
 augmentation part        3.0000000 magnetization 

 Free energy of the ion-electron system (eV)
  ---------------------------------------------------
  alpha Z        PSCENC =         0.02038373
  Ewald energy   TEWEN  =       -11.82901664
  -Hartree energ DENC   =       -42.58396533
  -exchange      EXHF   =         0.00000000
  -V(xc)+E(xc)   XCENC  =         4.75549673
  PAW double counting   =        43.49986551      -42.64454556
  entropy T*S    EENTRO =        -0.05300132
  eigenvalues    EBANDS =       -22.39247091
  atomic energy  EATOM  =        71.16900941
  Solvation  Ediel_sol  =         0.00000000
  ---------------------------------------------------
  free energy    TOTEN  =        -0.05824439 eV

  energy without entropy =       -0.00524307  energy(sigma->0) =       -0.03174373


--------------------------------------------------------------------------------------------------------




--------------------------------------- Iteration      1(   5)  ---------------------------------------


     EDDAV:  cpu time     60.9132: real time     61.7529
       DOS:  cpu time      0.0012: real time      0.0029
    CHARGE:  cpu time      2.6190: real time      2.6597
    MIXING:  cpu time      0.0251: real time      0.0265
    --------------------------------------------
      LOOP:  cpu time     63.5585: real time     64.4420

 eigenvalue-minimisations  : 10344
 total energy-change (2. order) :-0.2738398E-04  (-0.2737822E-04)
 number of electron       3.0000000 magnetization 
 augmentation part       -0.0945662 magnetization 

 Broyden mixing:
  rms(total) = 0.74023E-03    rms(broyden)= 0.68567E-03
  rms(prec ) = 0.69148E-03
  weight for this iteration     100.00

 Free energy of the ion-electron system (eV)
  ---------------------------------------------------
  alpha Z        PSCENC =         0.02038373
  Ewald energy   TEWEN  =       -11.82901664
  -Hartree energ DENC   =       -42.58396533
  -exchange      EXHF   =         0.00000000
  -V(xc)+E(xc)   XCENC  =         4.75549673
  PAW double counting   =        43.49986551      -42.64454556
  entropy T*S    EENTRO =        -0.05300134
  eigenvalues    EBANDS =       -22.39249828
  atomic energy  EATOM  =        71.16900941
  Solvation  Ediel_sol  =         0.00000000
  ---------------------------------------------------
  free energy    TOTEN  =        -0.05827177 eV

  energy without entropy =       -0.00527043  energy(sigma->0) =       -0.03177110


--------------------------------------------------------------------------------------------------------




--------------------------------------- Iteration      1(   6)  ---------------------------------------


    POTLOK:  cpu time      0.3556: real time      0.3622
    SETDIJ:  cpu time      0.0022: real time      0.0027
     EDDAV:  cpu time     49.5390: real time     50.3284
       DOS:  cpu time      0.0011: real time      0.0011
    --------------------------------------------
      LOOP:  cpu time     49.8979: real time     50.6944

 eigenvalue-minimisations  :  9024
 total energy-change (2. order) :-0.3104518E-06  (-0.2095327E-06)
 number of electron       3.0000000 magnetization 
 augmentation part       -0.0945662 magnetization 

 Free energy of the ion-electron system (eV)
  ---------------------------------------------------
  alpha Z        PSCENC =         0.02038373
  Ewald energy   TEWEN  =       -11.82901664
  -Hartree energ DENC   =       -42.58388049
  -exchange      EXHF   =         0.00000000
  -V(xc)+E(xc)   XCENC  =         4.75537000
  PAW double counting   =        43.51354760      -42.65833406
  entropy T*S    EENTRO =        -0.05300134
  eigenvalues    EBANDS =       -22.39235029
  atomic energy  EATOM  =        71.16900941
  Solvation  Ediel_sol  =         0.00000000
  ---------------------------------------------------
  free energy    TOTEN  =        -0.05827208 eV

  energy without entropy =       -0.00527074  energy(sigma->0) =       -0.03177141


--------------------------------------------------------------------------------------------------------




 average (electrostatic) potential at core
  the test charge radii are     0.7672
  (the norm of the test charge is              1.0000)
       1 -39.4298
 
 
 
 E-fermi :  -3.6068     XC(G=0):  -0.2675     alpha+bet : -0.0329

 val. band max:       -9.4098956911   @ k =   0.0000   0.4615   0.0625
 cond. band min:      -3.5726697989   @ k =   0.0000   0.4615   0.4375
 fundamental gap:      5.8372258922
 Fermi energy:        -3.6067606250

 k-point     1 :       0.0000    0.0000    0.0625
  band No.  band energies     occupation 
      1      -9.4099      2.00000
      2      -3.5726      0.33346
      3      -3.5726      0.33333
      4      -3.5724      0.33171
      5      -0.2633      0.00000
      6       0.2508      0.00000
      7       0.3533      0.00000
      8       0.4702      0.00000
      9       0.5384      0.00000
     10       0.7262      0.00000
     11       0.7864      0.00000
     12       0.9203      0.00000
     13       0.9487      0.00000
     14       1.0306      0.00000
     15       1.0659      0.00000
     16       1.1747      0.00000
     17       1.2516      0.00000
     18       1.2830      0.00000
     19       1.3286      0.00000
     20       1.3574      0.00000
     21       1.4660      0.00000
     22       1.4797      0.00000
     23       1.5126      0.00000
     24       1.6107      0.00000

 k-point     2 :       0.1111    0.0000    0.0625
  band No.  band energies     occupation 
      1      -9.4099      2.00000
      2      -3.5726      0.33346
      3      -3.5726      0.33335
      4      -3.5724      0.33171
      5      -0.2572      0.00000
      6       0.2525      0.00000
      7       0.3356      0.00000
      8       0.4046      0.00000
      9       0.6500      0.00000
     10       0.7321      0.00000
     11       0.7941      0.00000
     12       0.8019      0.00000
     13       0.9143      0.00000
     14       1.0808      0.00000
     15       1.1788      0.00000
     16       1.1899      0.00000
     17       1.2431      0.00000
     18       1.2664      0.00000
     19       1.3214      0.00000
     20       1.3428      0.00000
     21       1.3813      0.00000
     22       1.5521      0.00000
     23       1.5801      0.00000
     24       1.6668      0.00000

 k-point     3 :       0.2222    0.0000    0.0625
  band No.  band energies     occupation 
      1      -9.4099      2.00000
      2      -3.5726      0.33345
      3      -3.5726      0.33342
      4      -3.5724      0.33171
      5      -0.2398      0.00000
      6       0.2168      0.00000
      7       0.3038      0.00000
      8       0.4073      0.00000
      9       0.6811      0.00000
     10       0.7489      0.00000
     11       0.7764      0.00000
     12       0.8135      0.00000
     13       0.8373      0.00000
     14       1.1459      0.00000
     15       1.2070      0.00000
     16       1.2142      0.00000
     17       1.2249      0.00000
     18       1.3052      0.00000
     19       1.3387      0.00000
     20       1.3688      0.00000
     21       1.4088      0.00000
     22       1.5832      0.00000
     23       1.6190      0.00000
     24       1.6509      0.00000

 k-point     4 :       0.3333    0.0000    0.0625
  band No.  band energies     occupation 
      1      -9.4099      2.00000
      2      -3.5726      0.33352
      3      -3.5726      0.33345
      4      -3.5724      0.33171
      5      -0.2156      0.00000
      6       0.1411      0.00000
      7       0.3293      0.00000
      8       0.4393      0.00000
      9       0.5847      0.00000
     10       0.6931      0.00000
     11       0.7729      0.00000
     12       0.8452      0.00000
     13       0.9927      0.00000
     14       1.0711      0.00000
     15       1.1385      0.00000
     16       1.2296      0.00000
     17       1.2959      0.00000
     18       1.3714      0.00000
     19       1.4003      0.00000
     20       1.4514      0.00000
     21       1.5349      0.00000
     22       1.5486      0.00000
     23       1.5656      0.00000
     24       1.5988      0.00000

 k-point     5 :       0.4444    0.0000    0.0625
  band No.  band energies     occupation 
      1      -9.4099      2.00000
      2      -3.5726      0.33357
      3      -3.5726      0.33344
      4      -3.5724      0.33170
      5      -0.1955      0.00000
      6       0.0917      0.00000
      7       0.3634      0.00000
      8       0.4774      0.00000
      9       0.5154      0.00000
     10       0.6249      0.00000
     11       0.7938      0.00000
     12       0.8768      0.00000
     13       1.0227      0.00000
     14       1.0534      0.00000
     15       1.2024      0.00000
     16       1.2514      0.00000
     17       1.3397      0.00000
     18       1.3994      0.00000
     19       1.4130      0.00000
     20       1.4582      0.00000
     21       1.4671      0.00000
     22       1.5007      0.00000
     23       1.5715      0.00000
     24       1.5836      0.00000

 k-point     6 :       0.0000    0.0769    0.0625
  band No.  band energies     occupation 
      1      -9.4099      2.00000
      2      -3.5726      0.33345
      3      -3.5726      0.33332
      4      -3.5725      0.33190
      5      -0.2580      0.00000
      6       0.2560      0.00000
      7       0.3581      0.00000
      8       0.4752      0.00000
      9       0.5427      0.00000
     10       0.6204      0.00000
     11       0.9017      0.00000
     12       0.9254      0.00000
     13       0.9525      0.00000
     14       1.0350      0.00000
     15       1.0566      0.00000
     16       1.0928      0.00000
     17       1.1793      0.00000
     18       1.2547      0.00000
     19       1.3449      0.00000
     20       1.3792      0.00000
     21       1.4696      0.00000
     22       1.5611      0.00000
     23       1.5632      0.00000
     24       1.6753      0.00000

 k-point     7 :       0.1111    0.0769    0.0625
  band No.  band energies     occupation 
      1      -9.4099      2.00000
      2      -3.5726      0.33344
      3      -3.5726      0.33334
      4      -3.5725      0.33190
      5      -0.2518      0.00000
      6       0.2576      0.00000
      7       0.3406      0.00000
      8       0.4098      0.00000
      9       0.6209      0.00000
     10       0.6602      0.00000
     11       0.8069      0.00000
     12       0.9068      0.00000
     13       0.9216      0.00000
     14       1.0624      0.00000
     15       1.0974      0.00000
     16       1.1560      0.00000
     17       1.1960      0.00000
     18       1.2231      0.00000
     19       1.3723      0.00000
     20       1.4170      0.00000
     21       1.4592      0.00000
     22       1.5310      0.00000
     23       1.5825      0.00000
     24       1.6267      0.00000

 k-point     8 :       0.2222    0.0769    0.0625
  band No.  band energies     occupation 
      1      -9.4099      2.00000
      2      -3.5726      0.33344
      3      -3.5726      0.33341
      4      -3.5725      0.33190
      5      -0.2345      0.00000
      6       0.2220      0.00000
      7       0.3090      0.00000
      8       0.4122      0.00000
      9       0.6426      0.00000
     10       0.6863      0.00000
     11       0.7836      0.00000
     12       0.8400      0.00000
     13       0.9280      0.00000
     14       1.0465      0.00000
     15       1.1017      0.00000
     16       1.2206      0.00000
     17       1.2538      0.00000
     18       1.3202      0.00000
     19       1.3778      0.00000
     20       1.4142      0.00000
     21       1.4936      0.00000
     22       1.5200      0.00000
     23       1.5862      0.00000
     24       1.5969      0.00000

 k-point     9 :       0.3333    0.0769    0.0625
  band No.  band energies     occupation 
      1      -9.4099      2.00000
      2      -3.5726      0.33351
      3      -3.5726      0.33343
      4      -3.5725      0.33189
      5      -0.2103      0.00000
      6       0.1465      0.00000
      7       0.3345      0.00000
      8       0.4442      0.00000
      9       0.5900      0.00000
     10       0.6706      0.00000
     11       0.6982      0.00000
     12       0.9405      0.00000
     13       0.9687      0.00000
     14       1.0134      0.00000
     15       1.1306      0.00000
     16       1.2483      0.00000
     17       1.2560      0.00000
     18       1.3665      0.00000
     19       1.4248      0.00000
     20       1.4702      0.00000
     21       1.5016      0.00000
     22       1.5368      0.00000
     23       1.5761      0.00000
     24       1.6090      0.00000

 k-point    10 :       0.4444    0.0769    0.0625
  band No.  band energies     occupation 
      1      -9.4099      2.00000
      2      -3.5726      0.33356
      3      -3.5726      0.33343
      4      -3.5725      0.33189
      5      -0.1902      0.00000
      6       0.0971      0.00000
      7       0.3685      0.00000
      8       0.4823      0.00000
      9       0.5207      0.00000
     10       0.6301      0.00000
     11       0.6959      0.00000
     12       0.9026      0.00000
     13       0.9840      0.00000
     14       1.1584      0.00000
     15       1.1672      0.00000
     16       1.2213      0.00000
     17       1.2915      0.00000
     18       1.3398      0.00000
     19       1.4174      0.00000
     20       1.4298      0.00000
     21       1.4645      0.00000
     22       1.5914      0.00000
     23       1.5953      0.00000
     24       1.6683      0.00000

 k-point    11 :       0.0000    0.1538    0.0625
  band No.  band energies     occupation 
      1      -9.4099      2.00000
      2      -3.5726      0.33341
      3      -3.5726      0.33328
      4      -3.5725      0.33242
      5      -0.2423      0.00000
      6       0.2709      0.00000
      7       0.3706      0.00000
      8       0.4901      0.00000
      9       0.4966      0.00000
     10       0.5651      0.00000
     11       0.9248      0.00000
     12       0.9405      0.00000
     13       0.9867      0.00000
     14       1.0223      0.00000
     15       1.0454      0.00000
     16       1.0867      0.00000
     17       1.1023      0.00000
     18       1.1491      0.00000
     19       1.2367      0.00000
     20       1.5062      0.00000
     21       1.5774      0.00000
     22       1.6050      0.00000
     23       1.6234      0.00000
     24       1.6520      0.00000

 k-point    12 :       0.1111    0.1538    0.0625
  band No.  band energies     occupation 
      1      -9.4099      2.00000
      2      -3.5726      0.33340
      3      -3.5726      0.33330
      4      -3.5725      0.33242
      5      -0.2361      0.00000
      6       0.2724      0.00000
      7       0.3547      0.00000
      8       0.4246      0.00000
      9       0.5045      0.00000
     10       0.6736      0.00000
     11       0.8217      0.00000
     12       0.9302      0.00000
     13       0.9466      0.00000
     14       1.0190      0.00000
     15       1.0665      0.00000
     16       1.0937      0.00000
     17       1.1189      0.00000
     18       1.2281      0.00000
     19       1.3323      0.00000
     20       1.4786      0.00000
     21       1.5372      0.00000
     22       1.5643      0.00000
     23       1.5887      0.00000
     24       1.6588      0.00000

 k-point    13 :       0.2222    0.1538    0.0625
  band No.  band energies     occupation 
      1      -9.4099      2.00000
      2      -3.5726      0.33340
      3      -3.5726      0.33337
      4      -3.5725      0.33241
      5      -0.2188      0.00000
      6       0.2373      0.00000
      7       0.3247      0.00000
      8       0.4253      0.00000
      9       0.5239      0.00000
     10       0.7017      0.00000
     11       0.7964      0.00000
     12       0.8565      0.00000
     13       0.9210      0.00000
     14       0.9818      0.00000
     15       1.0691      0.00000
     16       1.1150      0.00000
     17       1.2682      0.00000
     18       1.3653      0.00000
     19       1.3829      0.00000
     20       1.4450      0.00000
     21       1.5146      0.00000
     22       1.5280      0.00000
     23       1.5614      0.00000
     24       1.6376      0.00000

 k-point    14 :       0.3333    0.1538    0.0625
  band No.  band energies     occupation 
      1      -9.4099      2.00000
      2      -3.5726      0.33346
      3      -3.5726      0.33339
      4      -3.5725      0.33241
      5      -0.1947      0.00000
      6       0.1625      0.00000
      7       0.3499      0.00000
      8       0.4568      0.00000
      9       0.5523      0.00000
     10       0.6062      0.00000
     11       0.7123      0.00000
     12       0.8352      0.00000
     13       1.0076      0.00000
     14       1.0237      0.00000
     15       1.0947      0.00000
     16       1.1484      0.00000
     17       1.2680      0.00000
     18       1.3595      0.00000
     19       1.4191      0.00000
     20       1.4610      0.00000
     21       1.5486      0.00000
     22       1.5989      0.00000
     23       1.6193      0.00000
     24       1.6756      0.00000

 k-point    15 :       0.4444    0.1538    0.0625
  band No.  band energies     occupation 
      1      -9.4099      2.00000
      2      -3.5726      0.33352
      3      -3.5726      0.33339
      4      -3.5725      0.33240
      5      -0.1748      0.00000
      6       0.1135      0.00000
      7       0.3836      0.00000
      8       0.4941      0.00000
      9       0.5359      0.00000
     10       0.5806      0.00000
     11       0.6449      0.00000
     12       0.7800      0.00000
     13       1.0394      0.00000
     14       1.1196      0.00000
     15       1.1765      0.00000
     16       1.1900      0.00000
     17       1.2333      0.00000
     18       1.3037      0.00000
     19       1.3593      0.00000
     20       1.4474      0.00000
     21       1.5806      0.00000
     22       1.6432      0.00000
     23       1.6898      0.00000
     24       1.7328      0.00000

 k-point    16 :       0.0000    0.2308    0.0625
  band No.  band energies     occupation 
      1      -9.4099      2.00000
      2      -3.5726      0.33335
      3      -3.5725      0.33323
      4      -3.5725      0.33315
      5      -0.2169      0.00000
      6       0.2899      0.00000
      7       0.3634      0.00000
      8       0.4278      0.00000
      9       0.5145      0.00000
     10       0.5911      0.00000
     11       0.8235      0.00000
     12       0.9267      0.00000
     13       0.9620      0.00000
     14       1.0097      0.00000
     15       1.0210      0.00000
     16       1.0974      0.00000
     17       1.1114      0.00000
     18       1.1267      0.00000
     19       1.2361      0.00000
     20       1.4997      0.00000
     21       1.5103      0.00000
     22       1.6015      0.00000
     23       1.6037      0.00000
     24       1.6365      0.00000

 k-point    17 :       0.1111    0.2308    0.0625
[...]
      7       0.3132      0.00000
      8       0.5176      0.00000
      9       0.5808      0.00000
     10       0.6590      0.00000
     11       0.7910      0.00000
     12       0.8135      0.00000
     13       0.9103      0.00000
     14       0.9704      0.00000
     15       1.0310      0.00000
     16       1.0794      0.00000
     17       1.1561      0.00000
     18       1.1888      0.00000
     19       1.2899      0.00000
     20       1.4165      0.00000
     21       1.4676      0.00000
     22       1.5203      0.00000
     23       1.5888      0.00000
     24       1.7033      0.00000

 k-point   127 :       0.1111    0.3077    0.4375
  band No.  band energies     occupation 
      1      -9.4099      2.00000
      2      -3.5726      0.33392
      3      -3.5726      0.33331
      4      -3.5725      0.33319
      5      -0.1509      0.00000
      6       0.1567      0.00000
      7       0.3190      0.00000
      8       0.4853      0.00000
      9       0.5246      0.00000
     10       0.6748      0.00000
     11       0.7697      0.00000
     12       0.8767      0.00000
     13       0.8824      0.00000
     14       0.9745      0.00000
     15       1.0391      0.00000
     16       1.0808      0.00000
     17       1.1601      0.00000
     18       1.2571      0.00000
     19       1.3429      0.00000
     20       1.4192      0.00000
     21       1.4341      0.00000
     22       1.4805      0.00000
     23       1.6020      0.00000
     24       1.6759      0.00000

 k-point   128 :       0.2222    0.3077    0.4375
  band No.  band energies     occupation 
      1      -9.4099      2.00000
      2      -3.5726      0.33391
      3      -3.5726      0.33330
      4      -3.5726      0.33326
      5      -0.1350      0.00000
      6       0.1797      0.00000
      7       0.3309      0.00000
      8       0.3844      0.00000
      9       0.5334      0.00000
     10       0.5728      0.00000
     11       0.7587      0.00000
     12       0.9000      0.00000
     13       0.9297      0.00000
     14       0.9454      0.00000
     15       1.0654      0.00000
     16       1.1658      0.00000
     17       1.2683      0.00000
     18       1.3010      0.00000
     19       1.3267      0.00000
     20       1.4301      0.00000
     21       1.4634      0.00000
     22       1.5097      0.00000
     23       1.5514      0.00000
     24       1.6771      0.00000

 k-point   129 :       0.3333    0.3077    0.4375
  band No.  band energies     occupation 
      1      -9.4099      2.00000
      2      -3.5726      0.33390
      3      -3.5726      0.33334
      4      -3.5726      0.33329
      5      -0.1135      0.00000
      6       0.2165      0.00000
      7       0.2855      0.00000
      8       0.3734      0.00000
      9       0.4520      0.00000
     10       0.5907      0.00000
     11       0.6719      0.00000
     12       0.8238      0.00000
     13       0.9437      0.00000
     14       1.1049      0.00000
     15       1.1095      0.00000
     16       1.2097      0.00000
     17       1.3056      0.00000
     18       1.3373      0.00000
     19       1.3886      0.00000
     20       1.4357      0.00000
     21       1.5059      0.00000
     22       1.5200      0.00000
     23       1.6095      0.00000
     24       1.7083      0.00000

 k-point   130 :       0.4444    0.3077    0.4375
  band No.  band energies     occupation 
      1      -9.4099      2.00000
      2      -3.5726      0.33390
      3      -3.5726      0.33339
      4      -3.5726      0.33328
      5      -0.0965      0.00000
      6       0.2357      0.00000
      7       0.2640      0.00000
      8       0.3769      0.00000
      9       0.3962      0.00000
     10       0.6141      0.00000
     11       0.6366      0.00000
     12       0.7478      0.00000
     13       0.9782      0.00000
     14       1.1310      0.00000
     15       1.1421      0.00000
     16       1.2743      0.00000
     17       1.3337      0.00000
     18       1.3487      0.00000
     19       1.4662      0.00000
     20       1.4924      0.00000
     21       1.5081      0.00000
     22       1.5509      0.00000
     23       1.6278      0.00000
     24       1.6497      0.00000

 k-point   131 :       0.0000    0.3846    0.4375
  band No.  band energies     occupation 
      1      -9.4099      2.00000
      2      -3.5726      0.33456
      3      -3.5726      0.33326
      4      -3.5725      0.33312
      5      -0.1216      0.00000
      6       0.1959      0.00000
      7       0.2355      0.00000
      8       0.4264      0.00000
      9       0.6168      0.00000
     10       0.7072      0.00000
     11       0.8345      0.00000
     12       0.8598      0.00000
     13       0.8937      0.00000
     14       0.9433      0.00000
     15       0.9653      0.00000
     16       1.0679      0.00000
     17       1.0991      0.00000
     18       1.1137      0.00000
     19       1.2013      0.00000
     20       1.3549      0.00000
     21       1.5555      0.00000
     22       1.5850      0.00000
     23       1.6592      0.00000
     24       1.7428      0.00000

 k-point   132 :       0.1111    0.3846    0.4375
  band No.  band energies     occupation 
      1      -9.4099      2.00000
      2      -3.5726      0.33456
      3      -3.5726      0.33326
      4      -3.5725      0.33315
      5      -0.1160      0.00000
      6       0.2036      0.00000
      7       0.2421      0.00000
      8       0.4341      0.00000
      9       0.5254      0.00000
     10       0.7201      0.00000
     11       0.7788      0.00000
     12       0.8289      0.00000
     13       0.9231      0.00000
     14       0.9510      0.00000
     15       1.0231      0.00000
     16       1.0705      0.00000
     17       1.1285      0.00000
     18       1.1734      0.00000
     19       1.2604      0.00000
     20       1.3674      0.00000
     21       1.4612      0.00000
     22       1.5942      0.00000
     23       1.6562      0.00000
     24       1.7062      0.00000

 k-point   133 :       0.2222    0.3846    0.4375
  band No.  band energies     occupation 
      1      -9.4099      2.00000
      2      -3.5726      0.33455
      3      -3.5726      0.33325
      4      -3.5725      0.33321
      5      -0.1005      0.00000
      6       0.2262      0.00000
      7       0.2612      0.00000
      8       0.4191      0.00000
      9       0.4566      0.00000
     10       0.6058      0.00000
     11       0.6755      0.00000
     12       0.8323      0.00000
     13       0.9499      0.00000
     14       0.9838      0.00000
     15       1.1082      0.00000
     16       1.1847      0.00000
     17       1.2113      0.00000
     18       1.2508      0.00000
     19       1.3400      0.00000
     20       1.3719      0.00000
     21       1.4484      0.00000
     22       1.5238      0.00000
     23       1.5838      0.00000
     24       1.6587      0.00000

 k-point   134 :       0.3333    0.3846    0.4375
  band No.  band energies     occupation 
      1      -9.4099      2.00000
      2      -3.5726      0.33454
      3      -3.5726      0.33329
      4      -3.5726      0.33324
      5      -0.0797      0.00000
      6       0.2618      0.00000
      7       0.2885      0.00000
      8       0.3379      0.00000
      9       0.4824      0.00000
     10       0.5178      0.00000
     11       0.5858      0.00000
     12       0.7313      0.00000
     13       0.9865      0.00000
     14       1.1403      0.00000
     15       1.1547      0.00000
     16       1.2277      0.00000
     17       1.2543      0.00000
     18       1.3779      0.00000
     19       1.3795      0.00000
     20       1.4328      0.00000
     21       1.4435      0.00000
     22       1.5029      0.00000
     23       1.6219      0.00000
     24       1.6431      0.00000

 k-point   135 :       0.4444    0.3846    0.4375
  band No.  band energies     occupation 
      1      -9.4099      2.00000
      2      -3.5726      0.33454
      3      -3.5726      0.33334
      4      -3.5726      0.33324
      5      -0.0633      0.00000
      6       0.2792      0.00000
      7       0.3086      0.00000
      8       0.3215      0.00000
      9       0.4261      0.00000
     10       0.5263      0.00000
     11       0.5477      0.00000
     12       0.6533      0.00000
     13       1.0202      0.00000
     14       1.1757      0.00000
     15       1.1834      0.00000
     16       1.2596      0.00000
     17       1.3190      0.00000
     18       1.3789      0.00000
     19       1.4165      0.00000
     20       1.4484      0.00000
     21       1.5386      0.00000
     22       1.5676      0.00000
     23       1.6096      0.00000
     24       1.6513      0.00000

 k-point   136 :       0.0000    0.4615    0.4375
  band No.  band energies     occupation 
      1      -9.4099      2.00000
      2      -3.5727      0.33493
      3      -3.5726      0.33324
      4      -3.5725      0.33309
      5      -0.0955      0.00000
      6       0.1849      0.00000
      7       0.2508      0.00000
      8       0.3522      0.00000
      9       0.6465      0.00000
     10       0.7567      0.00000
     11       0.8418      0.00000
     12       0.8771      0.00000
     13       0.8826      0.00000
     14       0.9094      0.00000
     15       0.9882      0.00000
     16       1.0210      0.00000
     17       1.0292      0.00000
     18       1.1251      0.00000
     19       1.1610      0.00000
     20       1.2903      0.00000
     21       1.5850      0.00000
     22       1.6652      0.00000
     23       1.7492      0.00000
     24       1.7692      0.00000

 k-point   137 :       0.1111    0.4615    0.4375
  band No.  band energies     occupation 
      1      -9.4099      2.00000
      2      -3.5727      0.33493
      3      -3.5726      0.33323
      4      -3.5725      0.33312
      5      -0.0900      0.00000
      6       0.1918      0.00000
      7       0.2583      0.00000
      8       0.3602      0.00000
      9       0.5614      0.00000
     10       0.7273      0.00000
     11       0.7719      0.00000
     12       0.8621      0.00000
     13       0.8774      0.00000
     14       0.9665      0.00000
     15       1.0066      0.00000
     16       1.0754      0.00000
     17       1.1111      0.00000
     18       1.1692      0.00000
     19       1.1919      0.00000
     20       1.3020      0.00000
     21       1.5012      0.00000
     22       1.6366      0.00000
     23       1.6660      0.00000
     24       1.7714      0.00000

 k-point   138 :       0.2222    0.4615    0.4375
  band No.  band energies     occupation 
      1      -9.4099      2.00000
      2      -3.5727      0.33492
      3      -3.5725      0.33323
      4      -3.5725      0.33319
      5      -0.0749      0.00000
      6       0.2118      0.00000
      7       0.2807      0.00000
      8       0.3839      0.00000
      9       0.4566      0.00000
     10       0.6149      0.00000
     11       0.6586      0.00000
     12       0.7579      0.00000
     13       0.9943      0.00000
     14       1.0184      0.00000
     15       1.1169      0.00000
     16       1.1523      0.00000
     17       1.1895      0.00000
     18       1.2648      0.00000
     19       1.3003      0.00000
     20       1.3707      0.00000
     21       1.4058      0.00000
     22       1.5228      0.00000
     23       1.5725      0.00000
     24       1.6905      0.00000

 k-point   139 :       0.3333    0.4615    0.4375
  band No.  band energies     occupation 
      1      -9.4099      2.00000
      2      -3.5727      0.33491
      3      -3.5726      0.33326
      4      -3.5725      0.33322
      5      -0.0549      0.00000
      6       0.2419      0.00000
      7       0.3158      0.00000
      8       0.3744      0.00000
      9       0.4222      0.00000
     10       0.5229      0.00000
     11       0.5609      0.00000
     12       0.6547      0.00000
     13       1.0286      0.00000
     14       1.1591      0.00000
     15       1.1731      0.00000
     16       1.2040      0.00000
     17       1.2965      0.00000
     18       1.3147      0.00000
     19       1.3834      0.00000
     20       1.4181      0.00000
     21       1.4492      0.00000
     22       1.4989      0.00000
     23       1.5528      0.00000
     24       1.5979      0.00000

 k-point   140 :       0.4444    0.4615    0.4375
  band No.  band energies     occupation 
      1      -9.4099      2.00000
      2      -3.5727      0.33491
      3      -3.5726      0.33332
      4      -3.5725      0.33321
      5      -0.0394      0.00000
      6       0.2713      0.00000
      7       0.3249      0.00000
      8       0.3573      0.00000
      9       0.4555      0.00000
     10       0.4764      0.00000
     11       0.4917      0.00000
     12       0.5735      0.00000
     13       1.0604      0.00000
     14       1.1993      0.00000
     15       1.2178      0.00000
     16       1.2244      0.00000
     17       1.3384      0.00000
     18       1.3608      0.00000
     19       1.3831      0.00000
     20       1.4405      0.00000
     21       1.5040      0.00000
     22       1.5759      0.00000
     23       1.6102      0.00000
     24       1.6568      0.00000


--------------------------------------------------------------------------------------------------------


 soft charge-density along one line, spin component           1
         0         1         2         3         4         5         6         7         8         9
 total charge-density along one line
 
 pseudopotential strength for first ion, spin component:           1
  6.996  10.697   0.000  -0.000  -0.000   0.000  -0.000  -0.000
 10.697  16.353   0.000  -0.000  -0.000   0.000  -0.000  -0.000
  0.000   0.000  -2.483  -0.000   0.000  -4.297  -0.000   0.000
 -0.000  -0.000  -0.000  -2.483   0.000  -0.000  -4.297   0.000
 -0.000  -0.000   0.000   0.000  -2.483   0.000   0.000  -4.297
  0.000   0.000  -4.297  -0.000   0.000  -7.240  -0.000   0.000
 -0.000  -0.000  -0.000  -4.297   0.000  -0.000  -7.240   0.000
 -0.000  -0.000   0.000   0.000  -4.297   0.000   0.000  -7.240
 total augmentation occupancy for first ion, spin component:           1
  2.011  -0.003   0.000   0.000   0.000   0.000   0.000   0.000
 -0.003   0.000   0.000   0.000   0.000   0.000   0.000   0.000
  0.000   0.000   0.330   0.000   0.000   0.001   0.000   0.000
  0.000   0.000   0.000   0.330   0.000   0.000   0.001   0.000
  0.000   0.000   0.000   0.000   0.330   0.000   0.000   0.001
  0.000   0.000   0.001   0.000   0.000   0.000   0.000   0.000
  0.000   0.000   0.000   0.001   0.000   0.000   0.000   0.000
  0.000   0.000   0.000   0.000   0.001   0.000   0.000   0.000


------------------------ aborting loop because EDIFF is reached ----------------------------------------


    CHARGE:  cpu time      2.5590: real time      2.5942
    FORLOC:  cpu time      0.0115: real time      0.0116
    FORNL :  cpu time      0.7905: real time      0.8109
    STRESS:  cpu time     31.2088: real time     31.4775
    FORCOR:  cpu time      0.3174: real time      0.3222
    FORHAR:  cpu time      0.0763: real time      0.0785
    MIXING:  cpu time      0.0111: real time      0.0168
    OFIELD:  cpu time      0.0001: real time      0.0004

  FORCE on cell =-STRESS in cart. coord.  units (eV):
  Direction    XX          YY          ZZ          XY          YZ          ZX
  --------------------------------------------------------------------------------------
  Alpha Z     0.02038     0.02038     0.02038
  Ewald      -3.85600    -1.56275    -6.41027     0.00000    -0.00000    -0.00000
  Hartree    14.28935    16.49873    11.79586     0.00000    -0.00000     0.00000
  E(xc)      -7.33234    -7.33233    -7.33234    -0.00000    -0.00000    -0.00000
  Local     -32.28578   -36.78848   -27.23809    -0.00000     0.00000    -0.00000
  n-local     6.85109     6.85106     6.85106     0.00000    -0.00001     0.00000
  augment     0.68455     0.68468     0.68457    -0.00000     0.00000     0.00000
  Kinetic    21.62741    21.62751    21.62752     0.00001     0.00004     0.00000
  Fock        0.00000     0.00000     0.00000     0.00000     0.00000     0.00000
  -------------------------------------------------------------------------------------
  Total      -0.00133    -0.00120    -0.00131     0.00000     0.00000     0.00000
  in kB      -0.00063    -0.00057    -0.00062     0.00000     0.00000     0.00000
  external pressure =       -0.00 kB  Pullay stress =        0.00 kB


 VOLUME and BASIS-vectors are now :
 -----------------------------------------------------------------------------
  energy-cutoff  :      480.00
  volume of cell :     3375.00
      direct lattice vectors                 reciprocal lattice vectors
    15.000000000  0.000000000  0.000000000     0.066666667  0.000000000  0.000000000
     0.000000000 12.500000000  0.000000000     0.000000000  0.080000000  0.000000000
     0.000000000  0.000000000 18.000000000     0.000000000  0.000000000  0.055555556

  length of vectors
    15.000000000 12.500000000 18.000000000     0.066666667  0.080000000  0.055555556


 FORCES acting on ions
    electron-ion (+dipol)            ewald-force                    non-local-force                 convergence-correction
 -----------------------------------------------------------------------------------------------
   0.407E-05 -.479E-05 0.365E-05   0.332E-17 -.449E-17 -.121E-17   0.662E-23 -.397E-22 0.132E-21   -.188E-06 0.275E-06 -.197E-06
 -----------------------------------------------------------------------------------------------
   0.407E-05 -.479E-05 0.365E-05   0.332E-17 -.449E-17 -.121E-17   0.662E-23 -.397E-22 0.132E-21   -.188E-06 0.275E-06 -.197E-06
 
 
 POSITION                                       TOTAL-FORCE (eV/Angst)
 -----------------------------------------------------------------------------------
      7.81845      6.81250     11.48328        -0.000000     -0.000000      0.000000
 -----------------------------------------------------------------------------------
    total drift:                                0.000004     -0.000005      0.000003


--------------------------------------------------------------------------------------------------------



  FREE ENERGIE OF THE ION-ELECTRON SYSTEM (eV)
  ---------------------------------------------------
  free  energy   TOTEN  =        -0.05827208 eV

  energy  without entropy=       -0.00527074  energy(sigma->0) =       -0.03177141
 


--------------------------------------------------------------------------------------------------------


    POTLOK:  cpu time      0.3390: real time      0.3434


--------------------------------------------------------------------------------------------------------


     LOOP+:  cpu time    369.8500: real time    375.3344
    4ORBIT:  cpu time      0.0000: real time      0.0000

 total amount of memory used by VASP MPI-rank0  1032120. kBytes
=======================================================================

   base      :      30000. kBytes
   nonl-proj :     724040. kBytes
   fftplans  :      20866. kBytes
   grid      :      76470. kBytes
   one-center:          3. kBytes
   wavefun   :     180741. kBytes
 
  
  
 General timing and accounting informations for this job:
 ========================================================
  
                  Total CPU time used (sec):      389.279
                            User time (sec):      372.177
                          System time (sec):       17.102
                         Elapsed time (sec):      402.350
  
                   Maximum memory used (kb):     1761832.
                   Average memory used (kb):          N/A
  
                          Minor page faults:      5077020
                          Major page faults:         3148
                 Voluntary context switches:        15885
