       N       E                     dE             d eps       ncg     rms          rms(c)
DAV:   1     0.472672065164E+02    0.47267E+02   -0.16983E+04 59136   0.687E+02
DAV:   2    -0.931798185122E+02   -0.14045E+03   -0.13233E+03 82992   0.145E+02
DAV:   3    -0.975903945822E+02   -0.44106E+01   -0.43903E+01 85584   0.232E+01
DAV:   4    -0.976159774002E+02   -0.25583E-01   -0.25581E-01 74952   0.200E+00
DAV:   5    -0.976162736655E+02   -0.29627E-03   -0.29626E-03 84936   0.209E-01    0.123E+01
DAV:   6    -0.922022018767E+02    0.54141E+01   -0.39444E+00 85896   0.657E+00    0.677E+00
DAV:   7    -0.905523740804E+02    0.16498E+01   -0.31916E+00 88248   0.583E+00    0.172E+00
DAV:   8    -0.905629753534E+02   -0.10601E-01   -0.22865E-01 64920   0.162E+00    0.740E-01
DAV:   9    -0.905775364891E+02   -0.14561E-01   -0.16950E-02 83952   0.446E-01    0.205E-01
DAV:  10    -0.905818867615E+02   -0.43503E-02   -0.25145E-03 64992   0.176E-01    0.648E-02
DAV:  11    -0.905830437544E+02   -0.11570E-02   -0.67985E-04 77640   0.894E-02    0.332E-02
DAV:  12    -0.905831426877E+02   -0.98933E-04   -0.74654E-05 73296   0.325E-02    0.509E-03
DAV:  13    -0.905831488380E+02   -0.61503E-05   -0.49033E-06 82200   0.875E-03    0.180E-03
DAV:  14    -0.905831496155E+02   -0.77751E-06   -0.38969E-07 72456   0.261E-03
   1 F= -.90583150E+02 E0= -.90581567E+02  d E =-.316606E-02
