  14  14   0   0
  0.1021960E+02  0.5697000E-09  0.4047900E-09  0.6204200E-09  0.5000000E-15
  1.000000000000000E-004
  CAR 
 Kpoints                                 
     17.97664075    -14.18679518  301      1.88513733      1.00000000
    -14.187  0.0000E+00  0.0000E+00
    -14.080  0.0000E+00  0.0000E+00
    -13.972  0.0000E+00  0.0000E+00
    -13.865  0.0000E+00  0.0000E+00
    -13.758  0.0000E+00  0.0000E+00
    -13.651  0.0000E+00  0.0000E+00
    -13.544  0.0000E+00  0.0000E+00
    -13.436  0.0000E+00  0.0000E+00
    -13.329  0.0000E+00  0.0000E+00
    -13.222  0.0000E+00  0.0000E+00
    -13.115  0.0000E+00  0.0000E+00
    -13.007  0.4602E-16  0.4934E-17
    -12.900  0.2961E-07  0.3175E-08
    -12.793  0.3815E-02  0.4090E-03
    -12.686  0.5084E+00  0.5492E-01
    -12.579  0.2390E+01  0.3112E+00
    -12.471  0.3564E+01  0.6932E+00
    -12.364  0.4371E+01  0.1162E+01
    -12.257  0.3539E+01  0.1541E+01
    -12.150  0.2735E+01  0.1834E+01
    -12.043  0.2751E+01  0.2129E+01
    -11.935  0.2505E+01  0.2398E+01
    -11.828  0.2771E+01  0.2695E+01
    -11.721  0.3427E+01  0.3062E+01
    -11.614  0.3535E+01  0.3441E+01
    -11.507  0.3115E+01  0.3775E+01
    -11.399  0.1668E+01  0.3954E+01
    -11.292  0.4213E+00  0.3999E+01
    -11.185  0.7226E-02  0.4000E+01
    -11.078  0.1730E-06  0.4000E+01
    -10.970  0.9073E-15  0.4000E+01
    -10.863  0.0000E+00  0.4000E+01
    -10.756  0.0000E+00  0.4000E+01
    -10.649  0.0000E+00  0.4000E+01
    -10.542  0.0000E+00  0.4000E+01
    -10.434  0.0000E+00  0.4000E+01
    -10.327  0.0000E+00  0.4000E+01
    -10.220  0.0000E+00  0.4000E+01
    -10.113  0.0000E+00  0.4000E+01
    -10.006  0.0000E+00  0.4000E+01
     -9.898  0.0000E+00  0.4000E+01
     -9.791  0.0000E+00  0.4000E+01
     -9.684  0.0000E+00  0.4000E+01
     -9.577  0.0000E+00  0.4000E+01
     -9.469  0.0000E+00  0.4000E+01
     -9.362  0.0000E+00  0.4000E+01
     -9.255  0.0000E+00  0.4000E+01
     -9.148  0.0000E+00  0.4000E+01
     -9.041  0.9250E-09  0.4000E+01
     -8.933  0.6181E-03  0.4000E+01
     -8.826  0.2754E+00  0.4030E+01
     -8.719  0.2089E+01  0.4254E+01
     -8.612  0.5329E+01  0.4825E+01
     -8.505  0.6988E+01  0.5574E+01
     -8.397  0.6298E+01  0.6249E+01
     -8.290  0.5325E+01  0.6820E+01
     -8.183  0.4835E+01  0.7339E+01
     -8.076  0.3873E+01  0.7754E+01
     -7.969  0.1666E+01  0.7933E+01
     -7.861  0.5775E+00  0.7994E+01
     -7.754  0.5199E-01  0.8000E+01
     -7.647  0.2409E-04  0.8000E+01
     -7.540  0.2705E-11  0.8000E+01
     -7.432  0.0000E+00  0.8000E+01
     -7.325  0.0000E+00  0.8000E+01
     -7.218  0.0000E+00  0.8000E+01
     -7.111  0.4758E-09  0.8000E+01
     -7.004  0.3933E-03  0.8000E+01
     -6.896  0.1127E+00  0.8012E+01
     -6.789  0.2577E+00  0.8040E+01
     -6.682  0.4258E+00  0.8085E+01
     -6.575  0.7658E+00  0.8168E+01
     -6.468  0.8508E+00  0.8259E+01
     -6.360  0.1445E+01  0.8414E+01
     -6.253  0.1963E+01  0.8624E+01
     -6.146  0.3055E+01  0.8952E+01
     -6.039  0.3783E+01  0.9357E+01
     -5.932  0.4113E+01  0.9798E+01
     -5.824  0.4046E+01  0.1023E+02
     -5.717  0.3862E+01  0.1065E+02
     -5.610  0.4072E+01  0.1108E+02
     -5.503  0.4220E+01  0.1154E+02
     -5.395  0.4544E+01  0.1202E+02
     -5.288  0.4598E+01  0.1252E+02
     -5.181  0.4491E+01  0.1300E+02
     -5.074  0.3869E+01  0.1341E+02
     -4.967  0.3227E+01  0.1376E+02
     -4.859  0.2954E+01  0.1407E+02
     -4.752  0.2336E+01  0.1432E+02
     -4.645  0.2896E+01  0.1464E+02
     -4.538  0.3369E+01  0.1500E+02
     -4.431  0.3470E+01  0.1537E+02
     -4.323  0.3332E+01  0.1573E+02
     -4.216  0.2954E+01  0.1604E+02
     -4.109  0.2907E+01  0.1635E+02
     -4.002  0.2945E+01  0.1667E+02
     -3.894  0.2860E+01  0.1698E+02
     -3.787  0.3119E+01  0.1731E+02
     -3.680  0.2875E+01  0.1762E+02
     -3.573  0.2704E+01  0.1791E+02
     -3.466  0.3065E+01  0.1824E+02
     -3.358  0.2638E+01  0.1852E+02
     -3.251  0.2860E+01  0.1883E+02
     -3.144  0.2745E+01  0.1912E+02
     -3.037  0.2738E+01  0.1942E+02
     -2.930  0.3046E+01  0.1974E+02
     -2.822  0.2974E+01  0.2006E+02
     -2.715  0.2431E+01  0.2032E+02
     -2.608  0.2657E+01  0.2061E+02
     -2.501  0.3020E+01  0.2093E+02
     -2.394  0.2986E+01  0.2125E+02
     -2.286  0.3193E+01  0.2159E+02
     -2.179  0.4010E+01  0.2202E+02
     -2.072  0.3656E+01  0.2241E+02
     -1.965  0.3273E+01  0.2276E+02
     -1.857  0.5124E+01  0.2331E+02
     -1.750  0.5579E+01  0.2391E+02
     -1.643  0.5604E+01  0.2451E+02
     -1.536  0.6182E+01  0.2518E+02
     -1.429  0.6109E+01  0.2583E+02
     -1.321  0.5570E+01  0.2643E+02
     -1.214  0.4683E+01  0.2693E+02
     -1.107  0.6496E+01  0.2763E+02
     -1.000  0.3981E+01  0.2805E+02
     -0.893  0.2270E+01  0.2830E+02
     -0.785  0.2699E+01  0.2859E+02
     -0.678  0.2879E+01  0.2889E+02
     -0.571  0.4520E+01  0.2938E+02
     -0.464  0.6862E+01  0.3011E+02
     -0.357  0.5658E+01  0.3072E+02
     -0.249  0.6705E+01  0.3144E+02
     -0.142  0.6358E+01  0.3212E+02
     -0.035  0.6745E+01  0.3285E+02
      0.072  0.6757E+01  0.3357E+02
      0.180  0.6296E+01  0.3424E+02
      0.287  0.8800E+01  0.3519E+02
      0.394  0.7984E+01  0.3604E+02
      0.501  0.8696E+01  0.3698E+02
      0.608  0.5249E+01  0.3754E+02
      0.716  0.2936E+01  0.3785E+02
      0.823  0.3291E+01  0.3821E+02
      0.930  0.3588E+01  0.3859E+02
      1.037  0.3561E+01  0.3897E+02
      1.144  0.2790E+01  0.3927E+02
      1.252  0.3390E+01  0.3964E+02
      1.359  0.4497E+01  0.4012E+02
      1.466  0.3779E+01  0.4052E+02
      1.573  0.3721E+01  0.4092E+02
      1.680  0.4576E+01  0.4141E+02
      1.788  0.3233E+01  0.4176E+02
      1.895  0.2479E+01  0.4203E+02
      2.002  0.2659E+01  0.4231E+02
      2.109  0.2092E+01  0.4253E+02
      2.217  0.2651E+01  0.4282E+02
      2.324  0.2571E+01  0.4309E+02
      2.431  0.1937E+01  0.4330E+02
      2.538  0.8525E+00  0.4339E+02
      2.645  0.3778E+00  0.4343E+02
      2.753  0.5726E+00  0.4350E+02
      2.860  0.4194E+00  0.4354E+02
      2.967  0.3056E+00  0.4357E+02
      3.074  0.7571E+00  0.4365E+02
      3.181  0.1014E+01  0.4376E+02
      3.289  0.5391E+00  0.4382E+02
      3.396  0.1317E-01  0.4382E+02
      3.503  0.1306E+00  0.4384E+02
      3.610  0.3952E+00  0.4388E+02
      3.718  0.3307E+00  0.4391E+02
      3.825  0.3716E+00  0.4395E+02
      3.932  0.4027E+00  0.4400E+02
      4.039  0.2692E-01  0.4400E+02
      4.146  0.2832E-04  0.4400E+02
      4.254  0.3137E-01  0.4400E+02
      4.361  0.1762E+00  0.4402E+02
      4.468  0.4025E+00  0.4407E+02
      4.575  0.4710E+00  0.4412E+02
      4.682  0.6339E+00  0.4418E+02
      4.790  0.8889E+00  0.4428E+02
      4.897  0.8413E+00  0.4437E+02
      5.004  0.8568E+00  0.4446E+02
      5.111  0.1277E+01  0.4460E+02
      5.218  0.1152E+01  0.4472E+02
      5.326  0.1632E+01  0.4490E+02
      5.433  0.2190E+01  0.4513E+02
      5.540  0.2487E+01  0.4540E+02
      5.647  0.2787E+01  0.4570E+02
      5.755  0.3366E+01  0.4606E+02
      5.862  0.3221E+01  0.4640E+02
      5.969  0.4311E+01  0.4687E+02
      6.076  0.4758E+01  0.4738E+02
      6.183  0.4043E+01  0.4781E+02
      6.291  0.4623E+01  0.4830E+02
      6.398  0.4152E+01  0.4875E+02
      6.505  0.4016E+01  0.4918E+02
      6.612  0.4481E+01  0.4966E+02
      6.719  0.3228E+01  0.5001E+02
      6.827  0.3997E+01  0.5044E+02
      6.934  0.4612E+01  0.5093E+02
      7.041  0.4555E+01  0.5142E+02
      7.148  0.4338E+01  0.5188E+02
      7.255  0.5598E+01  0.5248E+02
      7.363  0.4924E+01  0.5301E+02
      7.470  0.4451E+01  0.5349E+02
      7.577  0.4192E+01  0.5394E+02
      7.684  0.3566E+01  0.5432E+02
      7.792  0.3125E+01  0.5466E+02
      7.899  0.3011E+01  0.5498E+02
      8.006  0.2977E+01  0.5530E+02
      8.113  0.4167E+01  0.5574E+02
      8.220  0.3888E+01  0.5616E+02
      8.328  0.3687E+01  0.5656E+02
      8.435  0.3989E+01  0.5698E+02
      8.542  0.4217E+01  0.5744E+02
      8.649  0.4454E+01  0.5791E+02
      8.756  0.4221E+01  0.5837E+02
      8.864  0.5263E+01  0.5893E+02
      8.971  0.4947E+01  0.5946E+02
      9.078  0.5292E+01  0.6003E+02
      9.185  0.5238E+01  0.6059E+02
      9.293  0.4970E+01  0.6112E+02
      9.400  0.4691E+01  0.6163E+02
      9.507  0.4368E+01  0.6209E+02
      9.614  0.5104E+01  0.6264E+02
      9.721  0.5028E+01  0.6318E+02
      9.829  0.5300E+01  0.6375E+02
      9.936  0.4482E+01  0.6423E+02
     10.043  0.3634E+01  0.6462E+02
     10.150  0.5173E+01  0.6517E+02
     10.257  0.4720E+01  0.6568E+02
     10.365  0.4115E+01  0.6612E+02
     10.472  0.5412E+01  0.6670E+02
     10.579  0.5815E+01  0.6732E+02
     10.686  0.4065E+01  0.6776E+02
     10.793  0.3886E+01  0.6818E+02
     10.901  0.3234E+01  0.6852E+02
     11.008  0.4668E+01  0.6902E+02
     11.115  0.5485E+01  0.6961E+02
     11.222  0.6188E+01  0.7027E+02
     11.330  0.5995E+01  0.7092E+02
     11.437  0.5288E+01  0.7148E+02
     11.544  0.4300E+01  0.7195E+02
     11.651  0.4474E+01  0.7243E+02
     11.758  0.4932E+01  0.7295E+02
     11.866  0.4806E+01  0.7347E+02
     11.973  0.6035E+01  0.7412E+02
     12.080  0.5958E+01  0.7475E+02
     12.187  0.5989E+01  0.7540E+02
     12.294  0.5616E+01  0.7600E+02
     12.402  0.5008E+01  0.7654E+02
     12.509  0.5686E+01  0.7715E+02
     12.616  0.5990E+01  0.7779E+02
     12.723  0.6024E+01  0.7843E+02
     12.830  0.5886E+01  0.7906E+02
     12.938  0.5861E+01  0.7969E+02
     13.045  0.5597E+01  0.8029E+02
     13.152  0.6348E+01  0.8097E+02
     13.259  0.6261E+01  0.8164E+02
     13.367  0.5388E+01  0.8222E+02
     13.474  0.6134E+01  0.8288E+02
     13.581  0.5341E+01  0.8345E+02
     13.688  0.4810E+01  0.8397E+02
     13.795  0.6132E+01  0.8463E+02
     13.903  0.5523E+01  0.8522E+02
     14.010  0.5343E+01  0.8579E+02
     14.117  0.5477E+01  0.8638E+02
     14.224  0.4685E+01  0.8688E+02
     14.331  0.4905E+01  0.8741E+02
     14.439  0.5020E+01  0.8794E+02
     14.546  0.4962E+01  0.8848E+02
     14.653  0.5273E+01  0.8904E+02
     14.760  0.5165E+01  0.8960E+02
     14.868  0.4092E+01  0.9003E+02
     14.975  0.5084E+01  0.9058E+02
     15.082  0.6189E+01  0.9124E+02
     15.189  0.5638E+01  0.9185E+02
     15.296  0.5676E+01  0.9246E+02
     15.404  0.6029E+01  0.9310E+02
     15.511  0.5731E+01  0.9372E+02
     15.618  0.5951E+01  0.9435E+02
     15.725  0.4591E+01  0.9485E+02
     15.832  0.2467E+01  0.9511E+02
     15.940  0.2705E+01  0.9540E+02
     16.047  0.1860E+01  0.9560E+02
     16.154  0.1144E+01  0.9572E+02
     16.261  0.8889E+00  0.9582E+02
     16.368  0.6996E+00  0.9589E+02
     16.476  0.8133E+00  0.9598E+02
     16.583  0.1760E+00  0.9600E+02
     16.690  0.1682E-02  0.9600E+02
     16.797  0.2067E-07  0.9600E+02
     16.905  0.3945E-16  0.9600E+02
     17.012  0.0000E+00  0.9600E+02
     17.119  0.0000E+00  0.9600E+02
     17.226  0.0000E+00  0.9600E+02
     17.333  0.0000E+00  0.9600E+02
     17.441  0.0000E+00  0.9600E+02
     17.548  0.0000E+00  0.9600E+02
     17.655  0.0000E+00  0.9600E+02
     17.762  0.0000E+00  0.9600E+02
     17.869  0.0000E+00  0.9600E+02
     17.977  0.0000E+00  0.9600E+02
