       N       E                     dE             d eps       ncg     rms          rms(c)
DAV:   1     0.406864191911E+02    0.40686E+02   -0.16405E+04 16800   0.652E+02
DAV:   2    -0.934523449754E+02   -0.13414E+03   -0.12648E+03 23472   0.140E+02
DAV:   3    -0.975973592158E+02   -0.41450E+01   -0.41286E+01 24432   0.223E+01
DAV:   4    -0.976213463113E+02   -0.23987E-01   -0.23986E-01 21288   0.191E+00
DAV:   5    -0.976216245964E+02   -0.27829E-03   -0.27828E-03 24360   0.200E-01    0.123E+01
DAV:   6    -0.922065583236E+02    0.54151E+01   -0.39501E+00 24216   0.657E+00    0.677E+00
DAV:   7    -0.905557730261E+02    0.16508E+01   -0.32110E+00 25152   0.584E+00    0.170E+00
DAV:   8    -0.905680009003E+02   -0.12228E-01   -0.23219E-01 18720   0.164E+00    0.707E-01
DAV:   9    -0.905821930327E+02   -0.14192E-01   -0.16888E-02 23424   0.434E-01    0.198E-01
DAV:  10    -0.905862161472E+02   -0.40231E-02   -0.20738E-03 19176   0.159E-01    0.611E-02
DAV:  11    -0.905872929412E+02   -0.10768E-02   -0.63195E-04 21552   0.853E-02    0.322E-02
DAV:  12    -0.905874074203E+02   -0.11448E-03   -0.90116E-05 21024   0.350E-02    0.429E-03
DAV:  13    -0.905874121271E+02   -0.47068E-05   -0.39016E-06 23496   0.803E-03    0.183E-03
DAV:  14    -0.905874127796E+02   -0.65246E-06   -0.26395E-07 20568   0.205E-03
   1 F= -.90587413E+02 E0= -.90585806E+02  d E =-.321268E-02
