       N       E                     dE             d eps       ncg     rms          rms(c)
DAV:   1     0.540889795816E+02    0.54089E+02   -0.17631E+04 47040   0.723E+02
DAV:   2    -0.929043735422E+02   -0.14699E+03   -0.13840E+03 65544   0.151E+02
DAV:   3    -0.975883574958E+02   -0.46840E+01   -0.46595E+01 68568   0.241E+01
DAV:   4    -0.976156291572E+02   -0.27272E-01   -0.27270E-01 58104   0.210E+00
DAV:   5    -0.976159418027E+02   -0.31265E-03   -0.31264E-03 68376   0.217E-01    0.123E+01
DAV:   6    -0.922021603295E+02    0.54138E+01   -0.39331E+00 67944   0.657E+00    0.678E+00
DAV:   7    -0.905508906760E+02    0.16513E+01   -0.32176E+00 70344   0.585E+00    0.171E+00
DAV:   8    -0.905625531074E+02   -0.11662E-01   -0.23133E-01 51336   0.164E+00    0.727E-01
DAV:   9    -0.905769624917E+02   -0.14409E-01   -0.16875E-02 67176   0.443E-01    0.205E-01
DAV:  10    -0.905813023839E+02   -0.43399E-02   -0.24847E-03 51576   0.175E-01    0.642E-02
DAV:  11    -0.905824337693E+02   -0.11314E-02   -0.65942E-04 62520   0.886E-02    0.336E-02
DAV:  12    -0.905825369595E+02   -0.10319E-03   -0.69830E-05 58200   0.319E-02    0.677E-03
DAV:  13    -0.905825462116E+02   -0.92521E-05   -0.68588E-06 65880   0.102E-02    0.206E-03
DAV:  14    -0.905825472835E+02   -0.10719E-05   -0.63497E-07 58512   0.335E-03    0.708E-04
DAV:  15    -0.905825474570E+02   -0.17347E-06   -0.11819E-07 56496   0.145E-03
   1 F= -.90582547E+02 E0= -.90580685E+02  d E =-.372578E-02
