<?xml version="1.0" encoding="ISO-8859-1"?>
<modeling>
 <generator>
  <i name="program" type="string">vasp </i>
  <i name="version" type="string">6.4.3  </i>
  <i name="subversion" type="string">19Mar24 (build May 31 2024 16:31:43) complex                          parallel </i>
  <i name="platform" type="string">LinuxIFC </i>
  <i name="date" type="string">2024 11 11 </i>
  <i name="time" type="string">18:22:36 </i>
 </generator>
 <incar>
  <i type="string" name="SYSTEM">Convergence</i>
  <i type="int" name="ISTART">     0</i>
  <i type="string" name="PREC">Accurate</i>
  <i type="string" name="ALGO">Normal</i>
  <i type="int" name="ISPIN">     1</i>
  <i type="int" name="ICHARG">     2</i>
  <i type="int" name="NELM">   100</i>
  <i type="int" name="IBRION">    -1</i>
  <i name="EDIFF">      0.00000100</i>
  <i name="EDIFFG">     -0.00100000</i>
  <i type="int" name="NSW">     0</i>
  <i type="int" name="ISIF">     2</i>
  <i name="ENCUT">    600.00000000</i>
  <i name="POTIM">      0.50000000</i>
  <i type="int" name="ISMEAR">     0</i>
  <i name="SIGMA">      0.05000000</i>
  <i type="logical" name="LWAVE"> F  </i>
  <i type="logical" name="LCHARG"> F  </i>
  <i type="string" name="GGA">PE</i>
 </incar>
 <primitive_cell>
  <structure name="primitive_cell" >
   <crystal>
    <varray name="basis" >
     <v>      14.99850000       0.00000000       0.00000000 </v>
     <v>       0.00000000      12.49875000       0.00000000 </v>
     <v>       0.00000000       0.00000000      17.99820000 </v>
    </varray>
    <i name="volume">   3373.98760125 </i>
    <varray name="rec_basis" >
     <v>       0.06667333       0.00000000       0.00000000 </v>
     <v>       0.00000000       0.08000800       0.00000000 </v>
     <v>       0.00000000       0.00000000       0.05556111 </v>
    </varray>
   </crystal>
   <varray name="positions" >
    <v>       0.52123000       0.54500000       0.63796000 </v>
   </varray>
  </structure>
  <varray name="primitive_index" >
   <v type="int" >        1 </v>
  </varray>
 </primitive_cell>
 <kpoints>
  <generation param="Monkhorst-Pack">
   <v type="int" name="divisions">      10       14        9 </v>
   <v name="usershift">      0.00000000       0.00000000       0.00000000 </v>
   <v name="genvec1">      0.10000000       0.00000000       0.00000000 </v>
   <v name="genvec2">      0.00000000       0.07142857       0.00000000 </v>
   <v name="genvec3">      0.00000000       0.00000000       0.11111111 </v>
   <v name="shift">      0.50000000       0.50000000       0.00000000 </v>
  </generation>
  <varray name="kpointlist" >
   <v>       0.05000000       0.03571429       0.00000000 </v>
   <v>       0.15000000       0.03571429       0.00000000 </v>
   <v>       0.25000000       0.03571429       0.00000000 </v>
   <v>       0.35000000       0.03571429       0.00000000 </v>
   <v>       0.45000000       0.03571429       0.00000000 </v>
   <v>       0.05000000       0.10714286       0.00000000 </v>
   <v>       0.15000000       0.10714286       0.00000000 </v>
   <v>       0.25000000       0.10714286       0.00000000 </v>
   <v>       0.35000000       0.10714286       0.00000000 </v>
   <v>       0.45000000       0.10714286       0.00000000 </v>
   <v>       0.05000000       0.17857143       0.00000000 </v>
   <v>       0.15000000       0.17857143       0.00000000 </v>
   <v>       0.25000000       0.17857143       0.00000000 </v>
   <v>       0.35000000       0.17857143       0.00000000 </v>
   <v>       0.45000000       0.17857143       0.00000000 </v>
   <v>       0.05000000       0.25000000       0.00000000 </v>
   <v>       0.15000000       0.25000000       0.00000000 </v>
   <v>       0.25000000       0.25000000       0.00000000 </v>
   <v>       0.35000000       0.25000000       0.00000000 </v>
   <v>       0.45000000       0.25000000       0.00000000 </v>
   <v>       0.05000000       0.32142857       0.00000000 </v>
   <v>       0.15000000       0.32142857       0.00000000 </v>
   <v>       0.25000000       0.32142857       0.00000000 </v>
   <v>       0.35000000       0.32142857       0.00000000 </v>
   <v>       0.45000000       0.32142857       0.00000000 </v>
   <v>       0.05000000       0.39285714       0.00000000 </v>
   <v>       0.15000000       0.39285714       0.00000000 </v>
   <v>       0.25000000       0.39285714       0.00000000 </v>
   <v>       0.35000000       0.39285714       0.00000000 </v>
   <v>       0.45000000       0.39285714       0.00000000 </v>
   <v>       0.05000000       0.46428571       0.00000000 </v>
   <v>       0.15000000       0.46428571       0.00000000 </v>
   <v>       0.25000000       0.46428571       0.00000000 </v>
   <v>       0.35000000       0.46428571       0.00000000 </v>
   <v>       0.45000000       0.46428571       0.00000000 </v>
   <v>       0.05000000       0.03571429       0.11111111 </v>
   <v>       0.15000000       0.03571429       0.11111111 </v>
   <v>       0.25000000       0.03571429       0.11111111 </v>
   <v>       0.35000000       0.03571429       0.11111111 </v>
   <v>       0.45000000       0.03571429       0.11111111 </v>
   <v>       0.05000000       0.10714286       0.11111111 </v>
   <v>       0.15000000       0.10714286       0.11111111 </v>
   <v>       0.25000000       0.10714286       0.11111111 </v>
   <v>       0.35000000       0.10714286       0.11111111 </v>
   <v>       0.45000000       0.10714286       0.11111111 </v>
   <v>       0.05000000       0.17857143       0.11111111 </v>
   <v>       0.15000000       0.17857143       0.11111111 </v>
   <v>       0.25000000       0.17857143       0.11111111 </v>
   <v>       0.35000000       0.17857143       0.11111111 </v>
   <v>       0.45000000       0.17857143       0.11111111 </v>
   <v>       0.05000000       0.25000000       0.11111111 </v>
   <v>       0.15000000       0.25000000       0.11111111 </v>
   <v>       0.25000000       0.25000000       0.11111111 </v>
   <v>       0.35000000       0.25000000       0.11111111 </v>
   <v>       0.45000000       0.25000000       0.11111111 </v>
   <v>       0.05000000       0.32142857       0.11111111 </v>
   <v>       0.15000000       0.32142857       0.11111111 </v>
   <v>       0.25000000       0.32142857       0.11111111 </v>
   <v>       0.35000000       0.32142857       0.11111111 </v>
   <v>       0.45000000       0.32142857       0.11111111 </v>
   <v>       0.05000000       0.39285714       0.11111111 </v>
   <v>       0.15000000       0.39285714       0.11111111 </v>
   <v>       0.25000000       0.39285714       0.11111111 </v>
   <v>       0.35000000       0.39285714       0.11111111 </v>
   <v>       0.45000000       0.39285714       0.11111111 </v>
   <v>       0.05000000       0.46428571       0.11111111 </v>
   <v>       0.15000000       0.46428571       0.11111111 </v>
   <v>       0.25000000       0.46428571       0.11111111 </v>
   <v>       0.35000000       0.46428571       0.11111111 </v>
   <v>       0.45000000       0.46428571       0.11111111 </v>
   <v>       0.05000000       0.03571429       0.22222222 </v>
   <v>       0.15000000       0.03571429       0.22222222 </v>
   <v>       0.25000000       0.03571429       0.22222222 </v>
   <v>       0.35000000       0.03571429       0.22222222 </v>
   <v>       0.45000000       0.03571429       0.22222222 </v>
   <v>       0.05000000       0.10714286       0.22222222 </v>
   <v>       0.15000000       0.10714286       0.22222222 </v>
   <v>       0.25000000       0.10714286       0.22222222 </v>
   <v>       0.35000000       0.10714286       0.22222222 </v>
   <v>       0.45000000       0.10714286       0.22222222 </v>
   <v>       0.05000000       0.17857143       0.22222222 </v>
   <v>       0.15000000       0.17857143       0.22222222 </v>
   <v>       0.25000000       0.17857143       0.22222222 </v>
   <v>       0.35000000       0.17857143       0.22222222 </v>
   <v>       0.45000000       0.17857143       0.22222222 </v>
   <v>       0.05000000       0.25000000       0.22222222 </v>
   <v>       0.15000000       0.25000000       0.22222222 </v>
   <v>       0.25000000       0.25000000       0.22222222 </v>
   <v>       0.35000000       0.25000000       0.22222222 </v>
   <v>       0.45000000       0.25000000       0.22222222 </v>
   <v>       0.05000000       0.32142857       0.22222222 </v>
   <v>       0.15000000       0.32142857       0.22222222 </v>
   <v>       0.25000000       0.32142857       0.22222222 </v>
   <v>       0.35000000       0.32142857       0.22222222 </v>
   <v>       0.45000000       0.32142857       0.22222222 </v>
   <v>       0.05000000       0.39285714       0.22222222 </v>
   <v>       0.15000000       0.39285714       0.22222222 </v>
   <v>       0.25000000       0.39285714       0.22222222 </v>
   <v>       0.35000000       0.39285714       0.22222222 </v>
   <v>       0.45000000       0.39285714       0.22222222 </v>
   <v>       0.05000000       0.46428571       0.22222222 </v>
   <v>       0.15000000       0.46428571       0.22222222 </v>
   <v>       0.25000000       0.46428571       0.22222222 </v>
   <v>       0.35000000       0.46428571       0.22222222 </v>
   <v>       0.45000000       0.46428571       0.22222222 </v>
   <v>       0.05000000       0.03571429       0.33333333 </v>
   <v>       0.15000000       0.03571429       0.33333333 </v>
   <v>       0.25000000       0.03571429       0.33333333 </v>
   <v>       0.35000000       0.03571429       0.33333333 </v>
   <v>       0.45000000       0.03571429       0.33333333 </v>
   <v>       0.05000000       0.10714286       0.33333333 </v>
   <v>       0.15000000       0.10714286       0.33333333 </v>
   <v>       0.25000000       0.10714286       0.33333333 </v>
   <v>       0.35000000       0.10714286       0.33333333 </v>
   <v>       0.45000000       0.10714286       0.33333333 </v>
   <v>       0.05000000       0.17857143       0.33333333 </v>
   <v>       0.15000000       0.17857143       0.33333333 </v>
   <v>       0.25000000       0.17857143       0.33333333 </v>
   <v>       0.35000000       0.17857143       0.33333333 </v>
   <v>       0.45000000       0.17857143       0.33333333 </v>
   <v>       0.05000000       0.25000000       0.33333333 </v>
   <v>       0.15000000       0.25000000       0.33333333 </v>
   <v>       0.25000000       0.25000000       0.33333333 </v>
   <v>       0.35000000       0.25000000       0.33333333 </v>
   <v>       0.45000000       0.25000000       0.33333333 </v>
   <v>       0.05000000       0.32142857       0.33333333 </v>
   <v>       0.15000000       0.32142857       0.33333333 </v>
   <v>       0.25000000       0.32142857       0.33333333 </v>
   <v>       0.35000000       0.32142857       0.33333333 </v>
   <v>       0.45000000       0.32142857       0.33333333 </v>
   <v>       0.05000000       0.39285714       0.33333333 </v>
   <v>       0.15000000       0.39285714       0.33333333 </v>
   <v>       0.25000000       0.39285714       0.33333333 </v>
   <v>       0.35000000       0.39285714       0.33333333 </v>
   <v>       0.45000000       0.39285714       0.33333333 </v>
   <v>       0.05000000       0.46428571       0.33333333 </v>
   <v>       0.15000000       0.46428571       0.33333333 </v>
   <v>       0.25000000       0.46428571       0.33333333 </v>
   <v>       0.35000000       0.46428571       0.33333333 </v>
   <v>       0.45000000       0.46428571       0.33333333 </v>
   <v>       0.05000000       0.03571429       0.44444444 </v>
   <v>       0.15000000       0.03571429       0.44444444 </v>
   <v>       0.25000000       0.03571429       0.44444444 </v>
   <v>       0.35000000       0.03571429       0.44444444 </v>
   <v>       0.45000000       0.03571429       0.44444444 </v>
   <v>       0.05000000       0.10714286       0.44444444 </v>
   <v>       0.15000000       0.10714286       0.44444444 </v>
   <v>       0.25000000       0.10714286       0.44444444 </v>
   <v>       0.35000000       0.10714286       0.44444444 </v>
   <v>       0.45000000       0.10714286       0.44444444 </v>
   <v>       0.05000000       0.17857143       0.44444444 </v>
   <v>       0.15000000       0.17857143       0.44444444 </v>
   <v>       0.25000000       0.17857143       0.44444444 </v>
   <v>       0.35000000       0.17857143       0.44444444 </v>
   <v>       0.45000000       0.17857143       0.44444444 </v>
   <v>       0.05000000       0.25000000       0.44444444 </v>
   <v>       0.15000000       0.25000000       0.44444444 </v>
   <v>       0.25000000       0.25000000       0.44444444 </v>
   <v>       0.35000000       0.25000000       0.44444444 </v>
   <v>       0.45000000       0.25000000       0.44444444 </v>
   <v>       0.05000000       0.32142857       0.44444444 </v>
   <v>       0.15000000       0.32142857       0.44444444 </v>
   <v>       0.25000000       0.32142857       0.44444444 </v>
   <v>       0.35000000       0.32142857       0.44444444 </v>
   <v>       0.45000000       0.32142857       0.44444444 </v>
   <v>       0.05000000       0.39285714       0.44444444 </v>
   <v>       0.15000000       0.39285714       0.44444444 </v>
   <v>       0.25000000       0.39285714       0.44444444 </v>
   <v>       0.35000000       0.39285714       0.44444444 </v>
   <v>       0.45000000       0.39285714       0.44444444 </v>
   <v>       0.05000000       0.46428571       0.44444444 </v>
   <v>       0.15000000       0.46428571       0.44444444 </v>
   <v>       0.25000000       0.46428571       0.44444444 </v>
   <v>       0.35000000       0.46428571       0.44444444 </v>
   <v>       0.45000000       0.46428571       0.44444444 </v>
  </varray>
  <varray name="weights" >
   <v>       0.00317460 </v>
   <v>       0.00317460 </v>
   <v>       0.00317460 </v>
   <v>       0.00317460 </v>
   <v>       0.00317460 </v>
   <v>       0.00317460 </v>
   <v>       0.00317460 </v>
   <v>       0.00317460 </v>
   <v>       0.00317460 </v>
   <v>       0.00317460 </v>
   <v>       0.00317460 </v>
   <v>       0.00317460 </v>
   <v>       0.00317460 </v>
   <v>       0.00317460 </v>
   <v>       0.00317460 </v>
   <v>       0.00317460 </v>
   <v>       0.00317460 </v>
   <v>       0.00317460 </v>
   <v>       0.00317460 </v>
   <v>       0.00317460 </v>
   <v>       0.00317460 </v>
   <v>       0.00317460 </v>
   <v>       0.00317460 </v>
   <v>       0.00317460 </v>
   <v>       0.00317460 </v>
   <v>       0.00317460 </v>
   <v>       0.00317460 </v>
   <v>       0.00317460 </v>
   <v>       0.00317460 </v>
   <v>       0.00317460 </v>
   <v>       0.00317460 </v>
   <v>       0.00317460 </v>
   <v>       0.00317460 </v>
   <v>       0.00317460 </v>
   <v>       0.00317460 </v>
   <v>       0.00634921 </v>
   <v>       0.00634921 </v>
   <v>       0.00634921 </v>
   <v>       0.00634921 </v>
   <v>       0.00634921 </v>
   <v>       0.00634921 </v>
   <v>       0.00634921 </v>
   <v>       0.00634921 </v>
   <v>       0.00634921 </v>
   <v>       0.00634921 </v>
   <v>       0.00634921 </v>
   <v>       0.00634921 </v>
   <v>       0.00634921 </v>
   <v>       0.00634921 </v>
   <v>       0.00634921 </v>
   <v>       0.00634921 </v>
   <v>       0.00634921 </v>
   <v>       0.00634921 </v>
   <v>       0.00634921 </v>
   <v>       0.00634921 </v>
   <v>       0.00634921 </v>
   <v>       0.00634921 </v>
   <v>       0.00634921 </v>
   <v>       0.00634921 </v>
   <v>       0.00634921 </v>
   <v>       0.00634921 </v>
   <v>       0.00634921 </v>
   <v>       0.00634921 </v>
   <v>       0.00634921 </v>
   <v>       0.00634921 </v>
   <v>       0.00634921 </v>
   <v>       0.00634921 </v>
   <v>       0.00634921 </v>
   <v>       0.00634921 </v>
   <v>       0.00634921 </v>
   <v>       0.00634921 </v>
   <v>       0.00634921 </v>
   <v>       0.00634921 </v>
   <v>       0.00634921 </v>
   <v>       0.00634921 </v>
   <v>       0.00634921 </v>
   <v>       0.00634921 </v>
   <v>       0.00634921 </v>
   <v>       0.00634921 </v>
   <v>       0.00634921 </v>
   <v>       0.00634921 </v>
   <v>       0.00634921 </v>
   <v>       0.00634921 </v>
   <v>       0.00634921 </v>
   <v>       0.00634921 </v>
   <v>       0.00634921 </v>
   <v>       0.00634921 </v>
   <v>       0.00634921 </v>
   <v>       0.00634921 </v>
   <v>       0.00634921 </v>
   <v>       0.00634921 </v>
   <v>       0.00634921 </v>
   <v>       0.00634921 </v>
   <v>       0.00634921 </v>
   <v>       0.00634921 </v>
   <v>       0.00634921 </v>
   <v>       0.00634921 </v>
   <v>       0.00634921 </v>
   <v>       0.00634921 </v>
   <v>       0.00634921 </v>
   <v>       0.00634921 </v>
   <v>       0.00634921 </v>
   <v>       0.00634921 </v>
   <v>       0.00634921 </v>
   <v>       0.00634921 </v>
   <v>       0.00634921 </v>
   <v>       0.00634921 </v>
   <v>       0.00634921 </v>
   <v>       0.00634921 </v>
   <v>       0.00634921 </v>
   <v>       0.00634921 </v>
   <v>       0.00634921 </v>
   <v>       0.00634921 </v>
   <v>       0.00634921 </v>
   <v>       0.00634921 </v>
   <v>       0.00634921 </v>
   <v>       0.00634921 </v>
   <v>       0.00634921 </v>
   <v>       0.00634921 </v>
   <v>       0.00634921 </v>
   <v>       0.00634921 </v>
   <v>       0.00634921 </v>
   <v>       0.00634921 </v>
   <v>       0.00634921 </v>
   <v>       0.00634921 </v>
   <v>       0.00634921 </v>
   <v>       0.00634921 </v>
   <v>       0.00634921 </v>
   <v>       0.00634921 </v>
   <v>       0.00634921 </v>
   <v>       0.00634921 </v>
   <v>       0.00634921 </v>
   <v>       0.00634921 </v>
   <v>       0.00634921 </v>
   <v>       0.00634921 </v>
   <v>       0.00634921 </v>
   <v>       0.00634921 </v>
   <v>       0.00634921 </v>
   <v>       0.00634921 </v>
   <v>       0.00634921 </v>
   <v>       0.00634921 </v>
   <v>       0.00634921 </v>
   <v>       0.00634921 </v>
   <v>       0.00634921 </v>
   <v>       0.00634921 </v>
   <v>       0.00634921 </v>
   <v>       0.00634921 </v>
   <v>       0.00634921 </v>
   <v>       0.00634921 </v>
   <v>       0.00634921 </v>
   <v>       0.00634921 </v>
   <v>       0.00634921 </v>
   <v>       0.00634921 </v>
   <v>       0.00634921 </v>
   <v>       0.00634921 </v>
   <v>       0.00634921 </v>
   <v>       0.00634921 </v>
   <v>       0.00634921 </v>
   <v>       0.00634921 </v>
   <v>       0.00634921 </v>
   <v>       0.00634921 </v>
   <v>       0.00634921 </v>
   <v>       0.00634921 </v>
   <v>       0.00634921 </v>
   <v>       0.00634921 </v>
   <v>       0.00634921 </v>
   <v>       0.00634921 </v>
   <v>       0.00634921 </v>
   <v>       0.00634921 </v>
   <v>       0.00634921 </v>
   <v>       0.00634921 </v>
   <v>       0.00634921 </v>
   <v>       0.00634921 </v>
   <v>       0.00634921 </v>
   <v>       0.00634921 </v>
  </varray>
 </kpoints>
 <parameters>
  <separator name="general" >
   <i type="string" name="SYSTEM">Convergence</i>
   <i type="logical" name="LCOMPAT"> F  </i>
  </separator>
  <separator name="electronic" >
   <i type="string" name="PREC">accura</i>
   <i name="ENMAX">    600.00000000</i>
   <i name="ENAUG">    535.51400000</i>
   <i name="EDIFF">      0.00000100</i>
   <i type="int" name="IALGO">    38</i>
   <i type="int" name="IWAVPR">    10</i>
   <i type="int" name="NBANDS">    24</i>
   <i type="int" name="NBANDSLOW">    -1</i>
   <i type="int" name="NBANDSHIGH">    -1</i>
   <i name="NELECT">      3.00000000</i>
   <i type="int" name="TURBO">     0</i>
   <i type="int" name="IRESTART">     0</i>
   <i type="int" name="NREBOOT">     0</i>
   <i type="int" name="NMIN">     0</i>
   <i name="EREF">      0.00000000</i>
   <separator name="electronic smearing" >
    <i type="int" name="ISMEAR">     0</i>
    <i name="SIGMA">      0.05000000</i>
    <i name="KSPACING">      0.50000000</i>
    <i type="logical" name="KGAMMA"> T  </i>
    <i type="logical" name="KBLOWUP"> T  </i>
   </separator>
   <separator name="electronic projectors" >
    <i type="logical" name="LREAL"> F  </i>
    <v name="ROPT">      0.00000000</v>
    <i type="int" name="LMAXPAW">  -100</i>
    <i type="int" name="LMAXMIX">     2</i>
    <i type="logical" name="NLSPLINE"> F  </i>
   </separator>
   <separator name="electronic startup" >
    <i type="int" name="ISTART">     0</i>
    <i type="int" name="ICHARG">     2</i>
    <i type="int" name="INIWAV">     1</i>
   </separator>
   <separator name="electronic spin" >
    <i type="int" name="ISPIN">     1</i>
    <i type="logical" name="LNONCOLLINEAR"> F  </i>
    <v name="MAGMOM">      1.00000000</v>
    <i name="NUPDOWN">     -1.00000000</i>
    <i type="logical" name="LSORBIT"> F  </i>
    <v name="SAXIS">      0.00000000      0.00000000      1.00000000</v>
    <i type="logical" name="LSPIRAL"> F  </i>
    <v name="QSPIRAL">      0.00000000      0.00000000      0.00000000</v>
    <i type="logical" name="LZEROZ"> F  </i>
   </separator>
   <separator name="electronic exchange-correlation" >
    <i type="logical" name="LASPH"> F  </i>
   </separator>
   <separator name="electronic convergence" >
    <i type="int" name="NELM">   100</i>
    <i type="int" name="NELMDL">    -5</i>
    <i type="int" name="NELMIN">     2</i>
    <i name="ENINI">    600.00000000</i>
    <separator name="electronic convergence detail" >
     <i type="logical" name="LDIAG"> T  </i>
     <i type="logical" name="LSUBROT"> F  </i>
     <i name="WEIMIN">      0.00000000</i>
     <i name="EBREAK">      0.00000001</i>
     <i name="DEPER">      0.30000000</i>
     <i type="int" name="NRMM">     4</i>
     <i name="TIME">      0.40000000</i>
    </separator>
   </separator>
   <separator name="electronic mixer" >
    <i name="AMIX">      0.40000000</i>
    <i name="BMIX">      1.00000000</i>
    <i name="AMIN">      0.10000000</i>
    <i name="AMIX_MAG">      1.60000000</i>
    <i name="BMIX_MAG">      1.00000000</i>
    <separator name="electronic mixer details" >
     <i type="int" name="IMIX">     4</i>
     <i type="logical" name="MIXFIRST"> F  </i>
     <i type="int" name="MAXMIX">   -45</i>
     <i name="WC">    100.00000000</i>
     <i type="int" name="INIMIX">     1</i>
     <i type="int" name="MIXPRE">     1</i>
     <i type="int" name="MREMOVE">     5</i>
    </separator>
   </separator>
   <separator name="electronic dipolcorrection" >
    <i type="logical" name="LDIPOL"> F  </i>
    <i type="logical" name="LMONO"> F  </i>
    <i type="int" name="IDIPOL">     0</i>
    <i name="EPSILON">      1.00000000</i>
    <v name="DIPOL">   -100.00000000   -100.00000000   -100.00000000</v>
    <i name="EFIELD">      0.00000000</i>
    <i type="logical" name="LVACPOTAV"> F  </i>
   </separator>
  </separator>
  <separator name="grids" >
   <i type="int" name="NGX">   120</i>
   <i type="int" name="NGY">   100</i>
   <i type="int" name="NGZ">   144</i>
   <i type="int" name="NGXF">   240</i>
   <i type="int" name="NGYF">   200</i>
   <i type="int" name="NGZF">   288</i>
   <i type="logical" name="ADDGRID"> F  </i>
  </separator>
  <separator name="ionic" >
   <i type="int" name="NSW">     0</i>
   <i type="int" name="IBRION">    -1</i>
   <i type="int" name="MDALGO">     0</i>
   <i type="int" name="ISIF">     2</i>
   <i name="PSTRESS">      0.00000000</i>
   <i name="EDIFFG">     -0.00100000</i>
   <i type="int" name="NFREE">     0</i>
   <i name="POTIM">      0.50000000</i>
   <i name="SMASS">     -3.00000000</i>
   <i name="SCALEE">      1.00000000</i>
  </separator>
  <separator name="ionic md" >
   <i name="TEBEG">      0.00010000</i>
   <i name="TEEND">      0.00010000</i>
   <i type="int" name="NBLOCK">     1</i>
   <i type="int" name="KBLOCK">     1</i>
   <i type="int" name="NPACO">   256</i>
   <i name="APACO">     10.00000000</i>
  </separator>
  <separator name="symmetry" >
   <i type="int" name="ISYM">     2</i>
   <i name="SYMPREC">      0.00001000</i>
  </separator>
  <separator name="dos" >
   <i type="int" name="LORBIT">     0</i>
   <v name="RWIGS">     -1.00000000</v>
   <i type="int" name="NEDOS">   301</i>
   <i name="EMIN">     10.00000000</i>
   <i name="EMAX">    -10.00000000</i>
   <i name="EFERMI">      0.00000000</i>
  </separator>
  <separator name="writing" >
   <i type="int" name="NWRITE">     2</i>
   <i type="logical" name="LWAVE"> F  </i>
   <i type="logical" name="LDOWNSAMPLE"> F  </i>
   <i type="logical" name="LCHARG"> F  </i>
   <i type="logical" name="LPARD"> F  </i>
   <i type="logical" name="LVTOT"> F  </i>
   <i type="logical" name="LVHAR"> F  </i>
   <i type="logical" name="LELF"> F  </i>
   <i type="logical" name="LOPTICS"> F  </i>
   <v name="STM">      0.00000000      0.00000000      0.00000000      0.00000000      0.00000000      0.00000000      0.00000000</v>
  </separator>
  <separator name="performance" >
   <i type="int" name="NPAR">    24</i>
   <i type="int" name="NSIM">     4</i>
   <i type="int" name="NBLK">    -1</i>
   <i type="logical" name="LPLANE"> T  </i>
   <i type="logical" name="LSCALAPACK"> T  </i>
   <i type="logical" name="LSCAAWARE"> F  </i>
   <i type="logical" name="LSCALU"> F  </i>
   <i type="logical" name="LASYNC"> F  </i>
   <i type="logical" name="LORBITALREAL"> F  </i>
  </separator>
  <separator name="miscellaneous" >
   <i type="int" name="IDIOT">     3</i>
   <i type="int" name="PHON_NSTRUCT">    -1</i>
   <i type="logical" name="LMUSIC"> F  </i>
   <v name="POMASS">     10.81100000</v>
   <v name="DARWINR">      0.00000000</v>
   <v name="DARWINV">      1.00000000</v>
   <i type="logical" name="LCORR"> T  </i>
  </separator>
  <i type="logical" name="GGA_COMPAT"> T  </i>
  <i type="logical" name="LBERRY"> F  </i>
  <i type="int" name="ICORELEVEL">     0</i>
  <i type="logical" name="LDAU"> F  </i>
  <i type="int" name="I_CONSTRAINED_M">     0</i>
  <separator name="electronic exchange-correlation" >
   <i type="string" name="GGA    ">PE</i>
   <i type="string" name="XC_C">1</i>
   <i type="int" name="VOSKOWN">     0</i>
   <i type="logical" name="LHFCALC"> F  </i>
   <i type="string" name="PRECFOCK"></i>
   <i type="logical" name="LSYMGRAD"> F  </i>
   <i type="logical" name="LHFONE"> F  </i>
   <i type="logical" name="LRHFCALC"> F  </i>
   <i type="logical" name="LTHOMAS"> F  </i>
   <i type="logical" name="LMODELHF"> F  </i>
   <i type="logical" name="LFOCKACE"> F  </i>
   <i name="ENCUT4O">     -1.00000000</i>
   <i type="int" name="EXXOEP">     0</i>
   <i type="int" name="FOURORBIT">     0</i>
   <i name="AEXX">      0.00000000</i>
   <i name="HFALPHA">      0.00000000</i>
   <i name="MCALPHA">      0.00000000</i>
   <i name="ALDAX">      1.00000000</i>
   <i name="AGGAX">      1.00000000</i>
   <i name="AMGGAX">      1.00000000</i>
   <i name="ALDAC">      1.00000000</i>
   <i name="AGGAC">      1.00000000</i>
   <i name="AMGGAC">      1.00000000</i>
   <i type="int" name="NKREDX">     1</i>
   <i type="int" name="NKREDY">     1</i>
   <i type="int" name="NKREDZ">     1</i>
   <i type="logical" name="SHIFTRED"> F  </i>
   <i type="logical" name="ODDONLY"> F  </i>
   <i type="logical" name="EVENONLY"> F  </i>
   <i type="int" name="LMAXFOCK">     0</i>
   <i type="int" name="NMAXFOCKAE">     0</i>
   <i type="logical" name="LFOCKAEDFT"> F  </i>
   <i name="HFSCREEN">      0.00000000</i>
   <i name="HFSCREENC">      0.00000000</i>
   <i type="int" name="NBANDSGWLOW">     0</i>
  </separator>
  <separator name="vdW DFT" >
   <i type="logical" name="LUSE_VDW"> F  </i>
   <i type="int" name="IVDW_NL">    -1</i>
   <i type="logical" name="LSPIN_VDW"> F  </i>
   <i name="ZAB_VDW">     -0.84910000</i>
   <i name="GAMMA_VDW">      1.39626340</i>
   <i name="ALPHA_VDW">      0.00000000</i>
   <i name="PARAM1">      0.12340000</i>
   <i name="PARAM2">      1.00000000</i>
   <i name="BPARAM">      6.30000000</i>
   <i name="CPARAM">      0.00930000</i>
  </separator>
  <separator name="model GW" >
   <i type="int" name="MODEL_GW">     0</i>
   <i name="MODEL_EPS0">   2024.39256075</i>
   <i name="MODEL_ALPHA">      1.00000000</i>
  </separator>
  <separator name="linear response parameters" >
   <i type="logical" name="LEPSILON"> F  </i>
   <i type="logical" name="LRPA"> F  </i>
   <i type="logical" name="LNABLA"> F  </i>
   <i type="logical" name="LVEL"> F  </i>
   <i name="CSHIFT">      0.10000000</i>
   <i name="OMEGAMAX">     -1.00000000</i>
   <i name="DEG_THRESHOLD">      0.00200000</i>
   <i name="RTIME">     -0.10000000</i>
   <i name="WPLASMAI">      0.00000000</i>
   <v name="DFIELD">      0.00000000      0.00000000      0.00000000</v>
   <v name="WPLASMA">      0.00000000      0.00000000      0.00000000      0.00000000      0.00000000      0.00000000      0.00000000      0.00000000      0.00000000</v>
  </separator>
  <separator name="orbital magnetization" >
   <i type="logical" name="NUCIND"> F  </i>
   <v name="MAGPOS">      0.00000000      0.00000000      0.00000000</v>
   <i type="logical" name="LNICSALL"> T  </i>
   <i type="logical" name="ORBITALMAG"> F  </i>
   <i type="logical" name="LMAGBLOCH"> F  </i>
   <i type="logical" name="LCHIMAG"> F  </i>
   <i type="logical" name="LGAUGE"> T  </i>
   <i type="int" name="MAGATOM">     0</i>
   <v name="MAGDIPOL">      0.00000000      0.00000000      0.00000000</v>
   <v name="AVECCONST">      0.00000000      0.00000000      0.00000000</v>
  </separator>
  <separator name="response functions" >
   <i type="logical" name="LALL_IN_ONE"> F  </i>
   <i type="int" name="IALL_IN_ONE">    -1</i>
   <i type="int" name="NBANDS_WAVE">    -1</i>
   <i type="logical" name="LFINITE_TEMPERATURE"> F  </i>
   <i type="logical" name="LADDER"> F  </i>
   <i type="logical" name="LRPAFORCE"> F  </i>
   <i type="logical" name="LFXC"> F  </i>
   <i type="logical" name="LHARTREE"> T  </i>
   <i type="int" name="IBSE">     0</i>
   <v type="int" name="KPOINT">    -1     0     0     0</v>
   <i type="logical" name="LTCTC"> F  </i>
   <i type="logical" name="LTCTE"> F  </i>
   <i type="logical" name="LTETE"> F  </i>
   <i type="logical" name="LTRIPLET"> F  </i>
   <i type="logical" name="LFXCEPS"> F  </i>
   <i type="logical" name="LFXHEG"> F  </i>
   <i type="int" name="NATURALO">     2</i>
   <i type="logical" name="LHOLEGF"> F  </i>
   <i type="logical" name="L2ORDER"> F  </i>
   <i type="logical" name="LDMP1"> F  </i>
   <i type="logical" name="LMP2LT"> F  </i>
   <i type="logical" name="LSMP2LT"> F  </i>
   <i type="logical" name="LGWLF"> F  </i>
   <i name="ENCUTGW">     -1.60000002</i>
   <i name="ENCUTGWSOFT">     -1.60000002</i>
   <i name="ENCUTLF">     -1.00000000</i>
   <i type="logical" name="ESF_SPLINES"> F  </i>
   <i name="ESF_CONV">      0.01000000</i>
   <i type="int" name="ESF_NINTER">    15</i>
   <i type="int" name="LMAXMP2">    -1</i>
   <i name="SCISSOR">      0.00000000</i>
   <i type="int" name="NOMEGA">     0</i>
   <i type="int" name="NOMEGAR">     0</i>
   <i type="int" name="NBANDSGW">    -1</i>
   <i type="int" name="NBANDSO">    -1</i>
   <i type="int" name="NBANDSV">    -1</i>
   <i type="int" name="NELMGW">     1</i>
   <i type="int" name="NELMHF">     1</i>
   <i type="int" name="DIM">     3</i>
   <i type="int" name="IESPILON">     4</i>
   <i type="int" name="ANTIRES">     0</i>
   <i name="OMEGAMAX">    -30.00000000</i>
   <i name="OMEGAMIN">    -30.00000000</i>
   <i name="OMEGATL">   -200.00000000</i>
   <i type="int" name="OMEGAGRID">     0</i>
   <i name="CSHIFT">     -0.10000000</i>
   <i type="logical" name="LSELFENERGY"> F  </i>
   <i type="logical" name="LSPECTRAL"> F  </i>
   <i type="logical" name="LSPECTRALGW"> F  </i>
   <i type="logical" name="LSINGLES"> F  </i>
   <i type="logical" name="LFERMIGW"> F  </i>
   <i type="logical" name="ODDONLYGW"> F  </i>
   <i type="logical" name="EVENONLYGW"> F  </i>
   <i type="int" name="NKREDLFX">     1</i>
   <i type="int" name="NKREDLFY">     1</i>
   <i type="int" name="NKREDLFZ">     1</i>
   <i type="int" name="MAXMEM">  2800</i>
   <i type="int" name="TELESCOPE">     0</i>
   <i type="int" name="NTAUPAR">    -1</i>
   <i type="int" name="NOMEGAPAR">    -1</i>
   <i name="DAMP_NEWTON">      0.80000001</i>
   <i name="LAMBDA">      1.00000000</i>
  </separator>
  <separator name="External order field" >
   <i name="OFIELD_KAPPA">      0.00000000</i>
   <v name="OFIELD_K">      0.00000000      0.00000000      0.00000000</v>
   <i name="OFIELD_Q6_NEAR">      0.00000000</i>
   <i name="OFIELD_Q6_FAR">      0.00000000</i>
   <i name="OFIELD_A">      0.00000000</i>
  </separator>
  <separator name="optional k-points parameters" >
   <i type="int" name="KPOINTS_OPT_MODE">     1</i>
   <i type="logical" name="LKPOINTS_OPT"> F  </i>
  </separator>
 </parameters>
 <atominfo>
  <atoms>       1 </atoms>
  <types>       1 </types>
  <array name="atoms" >
   <dimension dim="1">ion</dimension>
   <field type="string">element</field>
   <field type="int">atomtype</field>
   <set>
    <rc><c>B </c><c>   1</c></rc>
   </set>
  </array>
  <array name="atomtypes" >
   <dimension dim="1">type</dimension>
   <field type="int">atomspertype</field>
   <field type="string">element</field>
   <field>mass</field>
   <field>valence</field>
   <field type="string">pseudopotential</field>
   <set>
    <rc><c>   1</c><c>B </c><c>     10.81100000</c><c>      3.00000000</c><c>  PAW_PBE B 06Sep2000                   </c></rc>
   </set>
  </array>
 </atominfo>
 <structure name="initialpos" >
  <crystal>
   <varray name="basis" >
    <v>      14.99850000       0.00000000       0.00000000 </v>
    <v>       0.00000000      12.49875000       0.00000000 </v>
    <v>       0.00000000       0.00000000      17.99820000 </v>
   </varray>
   <i name="volume">   3373.98760125 </i>
   <varray name="rec_basis" >
    <v>       0.06667333       0.00000000       0.00000000 </v>
    <v>       0.00000000       0.08000800       0.00000000 </v>
    <v>       0.00000000       0.00000000       0.05556111 </v>
   </varray>
  </crystal>
  <varray name="positions" >
   <v>       0.52123000       0.54500000       0.63796000 </v>
  </varray>
 </structure>
 <calculation>
  <scstep>
   <time name="dav">   65.86   66.11</time>
   <time name="total">   66.37   66.62</time>
   <energy>
    <i name="alphaZ">      0.02038985 </i>
    <i name="ewald">    -11.83019966 </i>
    <i name="hartreedc">    -42.58281862 </i>
    <i name="XCdc">      4.75549674 </i>
    <i name="pawpsdc">     43.49986551 </i>
    <i name="pawaedc">    -42.64454556 </i>
    <i name="eentropy">     -0.01092412 </i>
    <i name="bandstr">    -14.36192270 </i>
    <i name="atom">     71.16960075 </i>
    <i name="e_fr_energy">      8.01494219 </i>
    <i name="e_wo_entrp">      8.02586631 </i>
    <i name="e_0_energy">      8.02040425 </i>
   </energy>
  </scstep>
  <scstep>
   <time name="dav">  108.61  108.81</time>
   <time name="total">  108.61  108.81</time>
   <energy>
    <i name="e_fr_energy">      0.11298551 </i>
    <i name="e_wo_entrp">      0.14253005 </i>
    <i name="e_0_energy">      0.12775778 </i>
   </energy>
  </scstep>
  <scstep>
   <time name="dav">   68.06   68.22</time>
   <time name="total">   68.06   68.22</time>
   <energy>
    <i name="e_fr_energy">     -0.05483544 </i>
    <i name="e_wo_entrp">     -0.00200430 </i>
    <i name="e_0_energy">     -0.02841987 </i>
   </energy>
  </scstep>
  <scstep>
   <time name="dav">   73.32   73.50</time>
   <time name="total">   73.32   73.50</time>
   <energy>
    <i name="e_fr_energy">     -0.05821367 </i>
    <i name="e_wo_entrp">     -0.00521236 </i>
    <i name="e_0_energy">     -0.03171302 </i>
   </energy>
  </scstep>
  <scstep>
   <time name="dav">   93.23   93.40</time>
   <time name="total">   97.30   97.63</time>
   <energy>
    <i name="e_fr_energy">     -0.05825222 </i>
    <i name="e_wo_entrp">     -0.00525088 </i>
    <i name="e_0_energy">     -0.03175155 </i>
   </energy>
  </scstep>
  <scstep>
   <time name="dav">   82.22   82.42</time>
   <time name="total">   82.73   82.94</time>
   <energy>
    <i name="alphaZ">      0.02038985 </i>
    <i name="ewald">    -11.83019966 </i>
    <i name="hartreedc">    -42.58303653 </i>
    <i name="XCdc">      4.75548694 </i>
    <i name="pawpsdc">     43.56782831 </i>
    <i name="pawaedc">    -42.71254130 </i>
    <i name="eentropy">     -0.05300134 </i>
    <i name="bandstr">    -22.39277955 </i>
    <i name="atom">     71.16960075 </i>
    <i name="e_fr_energy">     -0.05825252 </i>
    <i name="e_wo_entrp">     -0.00525118 </i>
    <i name="e_0_energy">     -0.03175185 </i>
   </energy>
  </scstep>
  <structure>
   <crystal>
    <varray name="basis" >
     <v>      14.99850000       0.00000000       0.00000000 </v>
     <v>       0.00000000      12.49875000       0.00000000 </v>
     <v>       0.00000000       0.00000000      17.99820000 </v>
    </varray>
    <i name="volume">   3373.98760125 </i>
    <varray name="rec_basis" >
     <v>       0.06667333       0.00000000       0.00000000 </v>
     <v>       0.00000000       0.08000800       0.00000000 </v>
     <v>       0.00000000       0.00000000       0.05556111 </v>
    </varray>
   </crystal>
   <varray name="positions" >
    <v>       0.52123000       0.54500000       0.63796000 </v>
   </varray>
  </structure>
  <varray name="forces" >
   <v>       0.00000000       0.00000000       0.00000000 </v>
  </varray>
  <varray name="stress" >
   <v>      -0.00047047       0.00000000       0.00000000 </v>
   <v>       0.00000000      -0.00047807       0.00000000 </v>
   <v>       0.00000000       0.00000000      -0.00045757 </v>
  </varray>
  <energy>
   <i name="e_fr_energy">     -0.05825252 </i>
   <i name="e_wo_entrp">     -0.00525118 </i>
   <i name="e_0_energy">     -0.03175185 </i>
  </energy>
  <time name="totalsc">  559.72  561.05</time>
  <eigenvalues>
   <array>
    <dimension dim="1">band</dimension>
    <dimension dim="2">kpoint</dimension>
    <dimension dim="3">spin</dimension>
    <field>eigene</field>
    <field>occ</field>
    <set>
     <set comment="spin 1">
      <set comment="kpoint 1">
       <r>   -9.4099    1.0000 </r>
       <r>   -3.5730    0.1667 </r>
       <r>   -3.5730    0.1667 </r>
       <r>   -3.5729    0.1659 </r>
       <r>   -0.2620    0.0000 </r>
       <r>    0.2945    0.0000 </r>
       <r>    0.3096    0.0000 </r>
       <r>    0.4392    0.0000 </r>
       <r>    0.5735    0.0000 </r>
       <r>    0.6866    0.0000 </r>
       <r>    0.8287    0.0000 </r>
       <r>    0.9106    0.0000 </r>
       <r>    0.9441    0.0000 </r>
       <r>    1.0358    0.0000 </r>
       <r>    1.0789    0.0000 </r>
       <r>    1.1739    0.0000 </r>
       <r>    1.2088    0.0000 </r>
       <r>    1.2895    0.0000 </r>
       <r>    1.3347    0.0000 </r>
       <r>    1.3526    0.0000 </r>
       <r>    1.4281    0.0000 </r>
       <r>    1.4986    0.0000 </r>
       <r>    1.5763    0.0000 </r>
       <r>    1.7079    0.0000 </r>
      </set>
      <set comment="kpoint 2">
       <r>   -9.4099    1.0000 </r>
       <r>   -3.5730    0.1667 </r>
       <r>   -3.5730    0.1667 </r>
       <r>   -3.5729    0.1659 </r>
       <r>   -0.2521    0.0000 </r>
       <r>    0.2690    0.0000 </r>
       <r>    0.3208    0.0000 </r>
       <r>    0.3735    0.0000 </r>
       <r>    0.6894    0.0000 </r>
       <r>    0.7080    0.0000 </r>
       <r>    0.8008    0.0000 </r>
       <r>    0.8305    0.0000 </r>
       <r>    0.8414    0.0000 </r>
       <r>    1.1519    0.0000 </r>
       <r>    1.1650    0.0000 </r>
       <r>    1.1977    0.0000 </r>
       <r>    1.2197    0.0000 </r>
       <r>    1.2571    0.0000 </r>
       <r>    1.3320    0.0000 </r>
       <r>    1.3514    0.0000 </r>
       <r>    1.3880    0.0000 </r>
       <r>    1.5767    0.0000 </r>
       <r>    1.6378    0.0000 </r>
       <r>    1.6880    0.0000 </r>
      </set>
      <set comment="kpoint 3">
       <r>   -9.4099    1.0000 </r>
       <r>   -3.5730    0.1667 </r>
       <r>   -3.5730    0.1667 </r>
       <r>   -3.5729    0.1659 </r>
       <r>   -0.2339    0.0000 </r>
       <r>    0.1991    0.0000 </r>
       <r>    0.3424    0.0000 </r>
       <r>    0.3755    0.0000 </r>
       <r>    0.7039    0.0000 </r>
       <r>    0.7115    0.0000 </r>
       <r>    0.7158    0.0000 </r>
       <r>    0.8545    0.0000 </r>
       <r>    0.8722    0.0000 </r>
       <r>    1.0896    0.0000 </r>
       <r>    1.1936    0.0000 </r>
       <r>    1.2340    0.0000 </r>
       <r>    1.2732    0.0000 </r>
       <r>    1.2955    0.0000 </r>
       <r>    1.3878    0.0000 </r>
       <r>    1.3987    0.0000 </r>
       <r>    1.4062    0.0000 </r>
       <r>    1.5963    0.0000 </r>
       <r>    1.5969    0.0000 </r>
       <r>    1.6496    0.0000 </r>
      </set>
      <set comment="kpoint 4">
       <r>   -9.4099    1.0000 </r>
       <r>   -3.5730    0.1668 </r>
       <r>   -3.5730    0.1667 </r>
       <r>   -3.5729    0.1659 </r>
       <r>   -0.2117    0.0000 </r>
       <r>    0.1312    0.0000 </r>
       <r>    0.3716    0.0000 </r>
       <r>    0.4068    0.0000 </r>
       <r>    0.6243    0.0000 </r>
       <r>    0.6269    0.0000 </r>
       <r>    0.7394    0.0000 </r>
       <r>    0.8873    0.0000 </r>
       <r>    1.0012    0.0000 </r>
       <r>    1.0404    0.0000 </r>
       <r>    1.1669    0.0000 </r>
       <r>    1.2196    0.0000 </r>
       <r>    1.3073    0.0000 </r>
       <r>    1.3629    0.0000 </r>
       <r>    1.4364    0.0000 </r>
       <r>    1.4852    0.0000 </r>
       <r>    1.5056    0.0000 </r>
       <r>    1.5455    0.0000 </r>
       <r>    1.5593    0.0000 </r>
       <r>    1.6052    0.0000 </r>
      </set>
      <set comment="kpoint 5">
       <r>   -9.4099    1.0000 </r>
       <r>   -3.5730    0.1668 </r>
       <r>   -3.5730    0.1667 </r>
       <r>   -3.5729    0.1659 </r>
       <r>   -0.1946    0.0000 </r>
       <r>    0.0900    0.0000 </r>
       <r>    0.3981    0.0000 </r>
       <r>    0.4450    0.0000 </r>
       <r>    0.5612    0.0000 </r>
       <r>    0.5725    0.0000 </r>
       <r>    0.7598    0.0000 </r>
       <r>    0.9122    0.0000 </r>
       <r>    0.9707    0.0000 </r>
       <r>    1.1012    0.0000 </r>
       <r>    1.2120    0.0000 </r>
       <r>    1.2394    0.0000 </r>
       <r>    1.3419    0.0000 </r>
       <r>    1.4037    0.0000 </r>
       <r>    1.4039    0.0000 </r>
       <r>    1.4484    0.0000 </r>
       <r>    1.4534    0.0000 </r>
       <r>    1.5159    0.0000 </r>
       <r>    1.5810    0.0000 </r>
       <r>    1.5835    0.0000 </r>
      </set>
      <set comment="kpoint 6">
       <r>   -9.4099    1.0000 </r>
       <r>   -3.5730    0.1667 </r>
       <r>   -3.5730    0.1666 </r>
       <r>   -3.5729    0.1660 </r>
       <r>   -0.2528    0.0000 </r>
       <r>    0.3026    0.0000 </r>
       <r>    0.3185    0.0000 </r>
       <r>    0.4480    0.0000 </r>
       <r>    0.5619    0.0000 </r>
       <r>    0.5920    0.0000 </r>
       <r>    0.9182    0.0000 </r>
       <r>    0.9464    0.0000 </r>
       <r>    0.9640    0.0000 </r>
       <r>    1.0250    0.0000 </r>
       <r>    1.0847    0.0000 </r>
       <r>    1.0873    0.0000 </r>
       <r>    1.0958    0.0000 </r>
       <r>    1.1891    0.0000 </r>
       <r>    1.3342    0.0000 </r>
       <r>    1.4560    0.0000 </r>
       <r>    1.4933    0.0000 </r>
       <r>    1.5845    0.0000 </r>
       <r>    1.6381    0.0000 </r>
       <r>    1.6795    0.0000 </r>
      </set>
      <set comment="kpoint 7">
       <r>   -9.4099    1.0000 </r>
       <r>   -3.5730    0.1667 </r>
       <r>   -3.5730    0.1667 </r>
       <r>   -3.5729    0.1660 </r>
       <r>   -0.2430    0.0000 </r>
       <r>    0.2775    0.0000 </r>
       <r>    0.3298    0.0000 </r>
       <r>    0.3825    0.0000 </r>
       <r>    0.5788    0.0000 </r>
       <r>    0.7121    0.0000 </r>
       <r>    0.8095    0.0000 </r>
       <r>    0.8404    0.0000 </r>
       <r>    0.9676    0.0000 </r>
       <r>    1.0590    0.0000 </r>
       <r>    1.0617    0.0000 </r>
       <r>    1.1358    0.0000 </r>
       <r>    1.1930    0.0000 </r>
       <r>    1.2343    0.0000 </r>
       <r>    1.4205    0.0000 </r>
       <r>    1.4660    0.0000 </r>
       <r>    1.4705    0.0000 </r>
       <r>    1.5587    0.0000 </r>
       <r>    1.5748    0.0000 </r>
       <r>    1.6052    0.0000 </r>
      </set>
      <set comment="kpoint 8">
       <r>   -9.4099    1.0000 </r>
       <r>   -3.5730    0.1667 </r>
       <r>   -3.5730    0.1667 </r>
       <r>   -3.5729    0.1660 </r>
       <r>   -0.2248    0.0000 </r>
       <r>    0.2082    0.0000 </r>
       <r>    0.3513    0.0000 </r>
       <r>    0.3842    0.0000 </r>
       <r>    0.5994    0.0000 </r>
       <r>    0.7130    0.0000 </r>
       <r>    0.7212    0.0000 </r>
       <r>    0.8741    0.0000 </r>
       <r>    0.9649    0.0000 </r>
       <r>    1.0030    0.0000 </r>
       <r>    1.0848    0.0000 </r>
       <r>    1.1523    0.0000 </r>
       <r>    1.3251    0.0000 </r>
       <r>    1.3503    0.0000 </r>
       <r>    1.3967    0.0000 </r>
       <r>    1.4688    0.0000 </r>
       <r>    1.4979    0.0000 </r>
       <r>    1.5095    0.0000 </r>
       <r>    1.5321    0.0000 </r>
       <r>    1.6322    0.0000 </r>
      </set>
      <set comment="kpoint 9">
       <r>   -9.4099    1.0000 </r>
       <r>   -3.5730    0.1668 </r>
       <r>   -3.5730    0.1667 </r>
       <r>   -3.5729    0.1660 </r>
       <r>   -0.2026    0.0000 </r>
       <r>    0.1405    0.0000 </r>
       <r>    0.3804    0.0000 </r>
       <r>    0.4153    0.0000 </r>
       <r>    0.6252    0.0000 </r>
       <r>    0.6336    0.0000 </r>
       <r>    0.6361    0.0000 </r>
       <r>    0.8939    0.0000 </r>
       <r>    1.0186    0.0000 </r>
       <r>    1.0394    0.0000 </r>
       <r>    1.1123    0.0000 </r>
       <r>    1.1878    0.0000 </r>
       <r>    1.2919    0.0000 </r>
       <r>    1.3688    0.0000 </r>
       <r>    1.3992    0.0000 </r>
       <r>    1.4851    0.0000 </r>
       <r>    1.5456    0.0000 </r>
       <r>    1.5516    0.0000 </r>
       <r>    1.5709    0.0000 </r>
       <r>    1.6408    0.0000 </r>
      </set>
      <set comment="kpoint 10">
       <r>   -9.4099    1.0000 </r>
       <r>   -3.5730    0.1668 </r>
       <r>   -3.5730    0.1667 </r>
       <r>   -3.5729    0.1660 </r>
       <r>   -0.1856    0.0000 </r>
       <r>    0.0994    0.0000 </r>
       <r>    0.4067    0.0000 </r>
       <r>    0.4534    0.0000 </r>
       <r>    0.5699    0.0000 </r>
       <r>    0.5820    0.0000 </r>
       <r>    0.6483    0.0000 </r>
       <r>    0.8501    0.0000 </r>
       <r>    1.0384    0.0000 </r>
       <r>    1.1355    0.0000 </r>
       <r>    1.1909    0.0000 </r>
       <r>    1.2306    0.0000 </r>
       <r>    1.2591    0.0000 </r>
       <r>    1.3316    0.0000 </r>
       <r>    1.3358    0.0000 </r>
       <r>    1.4200    0.0000 </r>
       <r>    1.5253    0.0000 </r>
       <r>    1.6425    0.0000 </r>
       <r>    1.6483    0.0000 </r>
       <r>    1.7065    0.0000 </r>
      </set>
      <set comment="kpoint 11">
       <r>   -9.4099    1.0000 </r>
       <r>   -3.5730    0.1667 </r>
       <r>   -3.5730    0.1666 </r>
       <r>   -3.5729    0.1663 </r>
       <r>   -0.2349    0.0000 </r>
       <r>    0.3155    0.0000 </r>
       <r>    0.3364    0.0000 </r>
       <r>    0.4611    0.0000 </r>
       <r>    0.4677    0.0000 </r>
       <r>    0.6045    0.0000 </r>
       <r>    0.9180    0.0000 </r>
       <r>    0.9548    0.0000 </r>
       <r>    0.9607    0.0000 </r>
       <r>    0.9745    0.0000 </r>
       <r>    1.0725    0.0000 </r>
       <r>    1.0796    0.0000 </r>
       <r>    1.1033    0.0000 </r>
       <r>    1.1350    0.0000 </r>
       <r>    1.2296    0.0000 </r>
       <r>    1.5465    0.0000 </r>
       <r>    1.5753    0.0000 </r>
       <r>    1.6089    0.0000 </r>
       <r>    1.6440    0.0000 </r>
       <r>    1.6606    0.0000 </r>
      </set>
      <set comment="kpoint 12">
       <r>   -9.4099    1.0000 </r>
       <r>   -3.5730    0.1667 </r>
       <r>   -3.5730    0.1667 </r>
       <r>   -3.5729    0.1663 </r>
       <r>   -0.2251    0.0000 </r>
       <r>    0.2927    0.0000 </r>
       <r>    0.3476    0.0000 </r>
       <r>    0.3990    0.0000 </r>
       <r>    0.4736    0.0000 </r>
       <r>    0.7291    0.0000 </r>
       <r>    0.8259    0.0000 </r>
       <r>    0.8569    0.0000 </r>
       <r>    0.9395    0.0000 </r>
       <r>    0.9581    0.0000 </r>
       <r>    1.0182    0.0000 </r>
       <r>    1.1275    0.0000 </r>
       <r>    1.2083    0.0000 </r>
       <r>    1.2532    0.0000 </r>
       <r>    1.3427    0.0000 </r>
       <r>    1.4519    0.0000 </r>
       <r>    1.4801    0.0000 </r>
       <r>    1.6104    0.0000 </r>
       <r>    1.6139    0.0000 </r>
       <r>    1.6745    0.0000 </r>
      </set>
      <set comment="kpoint 13">
       <r>   -9.4099    1.0000 </r>
       <r>   -3.5730    0.1667 </r>
       <r>   -3.5730    0.1667 </r>
       <r>   -3.5729    0.1663 </r>
       <r>   -0.2070    0.0000 </r>
       <r>    0.2258    0.0000 </r>
       <r>    0.3690    0.0000 </r>
       <r>    0.3983    0.0000 </r>
       <r>    0.4943    0.0000 </r>
       <r>    0.7310    0.0000 </r>
       <r>    0.7358    0.0000 </r>
       <r>    0.8573    0.0000 </r>
       <r>    0.9021    0.0000 </r>
       <r>    0.9781    0.0000 </r>
       <r>    1.0265    0.0000 </r>
       <r>    1.1482    0.0000 </r>
       <r>    1.3187    0.0000 </r>
       <r>    1.3462    0.0000 </r>
       <r>    1.3925    0.0000 </r>
       <r>    1.4078    0.0000 </r>
       <r>    1.5011    0.0000 </r>
       <r>    1.5552    0.0000 </r>
       <r>    1.6304    0.0000 </r>
       <r>    1.6907    0.0000 </r>
      </set>
      <set comment="kpoint 14">
       <r>   -9.4099    1.0000 </r>
       <r>   -3.5730    0.1667 </r>
       <r>   -3.5730    0.1667 </r>
       <r>   -3.5729    0.1663 </r>
       <r>   -0.1849    0.0000 </r>
       <r>    0.1590    0.0000 </r>
       <r>    0.3978    0.0000 </r>
       <r>    0.4283    0.0000 </r>
       <r>    0.5217    0.0000 </r>
       <r>    0.6513    0.0000 </r>
       <r>    0.6522    0.0000 </r>
       <r>    0.7872    0.0000 </r>
       <r>    1.0057    0.0000 </r>
       <r>    1.0506    0.0000 </r>
       <r>    1.0640    0.0000 </r>
       <r>    1.1735    0.0000 </r>
       <r>    1.2671    0.0000 </r>
       <r>    1.2734    0.0000 </r>
       <r>    1.4482    0.0000 </r>
       <r>    1.5161    0.0000 </r>
       <r>    1.5798    0.0000 </r>
       <r>    1.6036    0.0000 </r>
       <r>    1.6589    0.0000 </r>
       <r>    1.6820    0.0000 </r>
      </set>
      <set comment="kpoint 15">
       <r>   -9.4099    1.0000 </r>
       <r>   -3.5730    0.1668 </r>
       <r>   -3.5730    0.1667 </r>
       <r>   -3.5729    0.1663 </r>
       <r>   -0.1680    0.0000 </r>
       <r>    0.1182    0.0000 </r>
       <r>    0.4238    0.0000 </r>
       <r>    0.4646    0.0000 </r>
       <r>    0.5463    0.0000 </r>
       <r>    0.5864    0.0000 </r>
       <r>    0.6011    0.0000 </r>
       <r>    0.7398    0.0000 </r>
       <r>    1.0302    0.0000 </r>
       <r>    1.0939    0.0000 </r>
       <r>    1.1893    0.0000 </r>
       <r>    1.1952    0.0000 </r>
       <r>    1.2193    0.0000 </r>
       <r>    1.2498    0.0000 </r>
       <r>    1.3874    0.0000 </r>
       <r>    1.4594    0.0000 </r>
       <r>    1.6353    0.0000 </r>
       <r>    1.6931    0.0000 </r>
       <r>    1.7404    0.0000 </r>
       <r>    1.7654    0.0000 </r>
      </set>
      <set comment="kpoint 16">
       <r>   -9.4099    1.0000 </r>
       <r>   -3.5730    0.1667 </r>
       <r>   -3.5730    0.1667 </r>
       <r>   -3.5730    0.1666 </r>
       <r>   -0.2089    0.0000 </r>
       <r>    0.3075    0.0000 </r>
       <r>    0.3628    0.0000 </r>
       <r>    0.3993    0.0000 </r>
       <r>    0.4919    0.0000 </r>
       <r>    0.6317    0.0000 </r>
       <r>    0.8384    0.0000 </r>
       <r>    0.8582    0.0000 </r>
       <r>    0.9585    0.0000 </r>
       <r>    0.9703    0.0000 </r>
       <r>    1.0206    0.0000 </r>
       <r>    1.1028    0.0000 </r>
       <r>    1.1084    0.0000 </r>
       <r>    1.1510    0.0000 </r>
       <r>    1.2758    0.0000 </r>
       <r>    1.4615    0.0000 </r>
       <r>    1.4837    0.0000 </r>
       <r>    1.5840    0.0000 </r>
       <r>    1.6218    0.0000 </r>
       <r>    1.6947    0.0000 </r>
      </set>
      <set comment="kpoint 17">
       <r>   -9.4099    1.0000 </r>
       <r>   -3.5730    0.1667 </r>
       <r>   -3.5730    0.1667 </r>
       <r>   -3.5730    0.1666 </r>
       <r>   -0.1992    0.0000 </r>
       <r>    0.3006    0.0000 </r>
       <r>    0.3739    0.0000 </r>
       <r>    0.3843    0.0000 </r>
       <r>    0.4353    0.0000 </r>
       <r>    0.7519    0.0000 </r>
       <r>    0.8302    0.0000 </r>
       <r>    0.8331    0.0000 </r>
       <r>    0.8789    0.0000 </r>
       <r>    0.8928    0.0000 </r>
       <r>    0.9210    0.0000 </r>
       <r>    1.2220    0.0000 </r>
       <r>    1.2303    0.0000 </r>
       <r>    1.2793    0.0000 </r>
       <r>    1.2972    0.0000 </r>
       <r>    1.3559    0.0000 </r>
       <r>    1.3873    0.0000 </r>
       <r>    1.6937    0.0000 </r>
       <r>    1.6993    0.0000 </r>
       <r>    1.7465    0.0000 </r>
      </set>
      <set comment="kpoint 18">
       <r>   -9.4099    1.0000 </r>
       <r>   -3.5730    0.1667 </r>
       <r>   -3.5730    0.1667 </r>
       <r>   -3.5730    0.1667 </r>
       <r>   -0.1813    0.0000 </r>
       <r>    0.2499    0.0000 </r>
       <r>    0.3743    0.0000 </r>
       <r>    0.3951    0.0000 </r>
       <r>    0.4495    0.0000 </r>
       <r>    0.7277    0.0000 </r>
       <r>    0.7567    0.0000 </r>
       <r>    0.7959    0.0000 </r>
       <r>    0.8806    0.0000 </r>
       <r>    0.9226    0.0000 </r>
       <r>    0.9265    0.0000 </r>
       <r>    1.2409    0.0000 </r>
       <r>    1.2462    0.0000 </r>
       <r>    1.2912    0.0000 </r>
       <r>    1.3946    0.0000 </r>
       <r>    1.4191    0.0000 </r>
       <r>    1.4448    0.0000 </r>
       <r>    1.6753    0.0000 </r>
       <r>    1.7408    0.0000 </r>
       <r>    1.7413    0.0000 </r>
      </set>
      <set comment="kpoint 19">
       <r>   -9.4099    1.0000 </r>
       <r>   -3.5730    0.1667 </r>
       <r>   -3.5730    0.1667 </r>
       <r>   -3.5730    0.1667 </r>
       <r>   -0.1594    0.0000 </r>
       <r>    0.1860    0.0000 </r>
       <r>    0.3969    0.0000 </r>
       <r>    0.4235    0.0000 </r>
       <r>    0.4820    0.0000 </r>
       <r>    0.6504    0.0000 </r>
       <r>    0.6798    0.0000 </r>
       <r>    0.7139    0.0000 </r>
       <r>    0.9076    0.0000 </r>
       <r>    0.9575    0.0000 </r>
       <r>    1.0805    0.0000 </r>
       <r>    1.1654    0.0000 </r>
       <r>    1.1698    0.0000 </r>
       <r>    1.3203    0.0000 </r>
       <r>    1.5405    0.0000 </r>
       <r>    1.5438    0.0000 </r>
       <r>    1.5830    0.0000 </r>
       <r>    1.6492    0.0000 </r>
       <r>    1.6686    0.0000 </r>
       <r>    1.7681    0.0000 </r>
      </set>
      <set comment="kpoint 20">
       <r>   -9.4099    1.0000 </r>
       <r>   -3.5730    0.1667 </r>
       <r>   -3.5730    0.1667 </r>
       <r>   -3.5730    0.1667 </r>
       <r>   -0.1428    0.0000 </r>
       <r>    0.1461    0.0000 </r>
       <r>    0.4215    0.0000 </r>
       <r>    0.4490    0.0000 </r>
       <r>    0.5187    0.0000 </r>
       <r>    0.5932    0.0000 </r>
       <r>    0.6295    0.0000 </r>
       <r>    0.6574    0.0000 </r>
       <r>    0.9329    0.0000 </r>
       <r>    0.9979    0.0000 </r>
       <r>    1.0966    0.0000 </r>
       <r>    1.1148    0.0000 </r>
       <r>    1.2564    0.0000 </r>
       <r>    1.3419    0.0000 </r>
       <r>    1.4456    0.0000 </r>
       <r>    1.5799    0.0000 </r>
       <r>    1.6873    0.0000 </r>
       <r>    1.7221    0.0000 </r>
       <r>    1.7728    0.0000 </r>
       <r>    1.8018    0.0000 </r>
      </set>
      <set comment="kpoint 21">
       <r>   -9.4099    1.0000 </r>
       <r>   -3.5730    0.1670 </r>
       <r>   -3.5730    0.1666 </r>
       <r>   -3.5730    0.1666 </r>
       <r>   -0.1767    0.0000 </r>
       <r>    0.2430    0.0000 </r>
       <r>    0.3970    0.0000 </r>
       <r>    0.4137    0.0000 </r>
       <r>    0.5255    0.0000 </r>
       <r>    0.6675    0.0000 </r>
       <r>    0.7512    0.0000 </r>
       <r>    0.7623    0.0000 </r>
       <r>    0.8820    0.0000 </r>
       <r>    1.0026    0.0000 </r>
       <r>    1.0233    0.0000 </r>
       <r>    1.0500    0.0000 </r>
       <r>    1.1361    0.0000 </r>
       <r>    1.1809    0.0000 </r>
       <r>    1.3724    0.0000 </r>
       <r>    1.3754    0.0000 </r>
       <r>    1.4369    0.0000 </r>
       <r>    1.4975    0.0000 </r>
       <r>    1.5406    0.0000 </r>
       <r>    1.7315    0.0000 </r>
      </set>
      <set comment="kpoint 22">
       <r>   -9.4099    1.0000 </r>
       <r>   -3.5730    0.1670 </r>
       <r>   -3.5730    0.1666 </r>
       <r>   -3.5730    0.1666 </r>
       <r>   -0.1671    0.0000 </r>
       <r>    0.2519    0.0000 </r>
       <r>    0.3842    0.0000 </r>
       <r>    0.4079    0.0000 </r>
       <r>    0.4687    0.0000 </r>
       <r>    0.7280    0.0000 </r>
       <r>    0.7614    0.0000 </r>
       <r>    0.7955    0.0000 </r>
       <r>    0.8240    0.0000 </r>
       <r>    0.8964    0.0000 </r>
       <r>    0.9347    0.0000 </r>
       <r>    1.1481    0.0000 </r>
       <r>    1.2322    0.0000 </r>
       <r>    1.2744    0.0000 </r>
       <r>    1.2964    0.0000 </r>
       <r>    1.3217    0.0000 </r>
       <r>    1.4509    0.0000 </r>
       <r>    1.6341    0.0000 </r>
       <r>    1.6680    0.0000 </r>
       <r>    1.7389    0.0000 </r>
      </set>
      <set comment="kpoint 23">
       <r>   -9.4099    1.0000 </r>
       <r>   -3.5730    0.1670 </r>
       <r>   -3.5730    0.1666 </r>
       <r>   -3.5730    0.1666 </r>
       <r>   -0.1495    0.0000 </r>
       <r>    0.2584    0.0000 </r>
       <r>    0.3213    0.0000 </r>
       <r>    0.4288    0.0000 </r>
       <r>    0.4794    0.0000 </r>
       <r>    0.6516    0.0000 </r>
       <r>    0.7710    0.0000 </r>
       <r>    0.8131    0.0000 </r>
       <r>    0.8167    0.0000 </r>
       <r>    0.8293    0.0000 </r>
       <r>    0.9594    0.0000 </r>
       <r>    1.1521    0.0000 </r>
       <r>    1.1575    0.0000 </r>
       <r>    1.3098    0.0000 </r>
       <r>    1.4243    0.0000 </r>
       <r>    1.4504    0.0000 </r>
       <r>    1.4973    0.0000 </r>
       <r>    1.7330    0.0000 </r>
       <r>    1.7720    0.0000 </r>
       <r>    1.8185    0.0000 </r>
      </set>
      <set comment="kpoint 24">
       <r>   -9.4099    1.0000 </r>
       <r>   -3.5730    0.1670 </r>
       <r>   -3.5730    0.1667 </r>
       <r>   -3.5730    0.1666 </r>
       <r>   -0.1282    0.0000 </r>
       <r>    0.2197    0.0000 </r>
       <r>    0.3193    0.0000 </r>
       <r>    0.4566    0.0000 </r>
       <r>    0.5122    0.0000 </r>
       <r>    0.5770    0.0000 </r>
       <r>    0.7150    0.0000 </r>
       <r>    0.7324    0.0000 </r>
       <r>    0.8207    0.0000 </r>
       <r>    0.8622    0.0000 </r>
       <r>    1.0638    0.0000 </r>
       <r>    1.0724    0.0000 </r>
       <r>    1.1278    0.0000 </r>
       <r>    1.4388    0.0000 </r>
       <r>    1.5069    0.0000 </r>
       <r>    1.5766    0.0000 </r>
       <r>    1.6370    0.0000 </r>
       <r>    1.6699    0.0000 </r>
       <r>    1.8017    0.0000 </r>
       <r>    1.8331    0.0000 </r>
      </set>
      <set comment="kpoint 25">
       <r>   -9.4099    1.0000 </r>
       <r>   -3.5730    0.1670 </r>
       <r>   -3.5730    0.1667 </r>
       <r>   -3.5730    0.1666 </r>
       <r>   -0.1120    0.0000 </r>
       <r>    0.1827    0.0000 </r>
       <r>    0.3403    0.0000 </r>
       <r>    0.4811    0.0000 </r>
       <r>    0.5255    0.0000 </r>
       <r>    0.5528    0.0000 </r>
       <r>    0.6668    0.0000 </r>
       <r>    0.6675    0.0000 </r>
       <r>    0.8462    0.0000 </r>
       <r>    0.9030    0.0000 </r>
       <r>    1.0029    0.0000 </r>
       <r>    1.0199    0.0000 </r>
       <r>    1.2919    0.0000 </r>
       <r>    1.4550    0.0000 </r>
       <r>    1.5120    0.0000 </r>
       <r>    1.6437    0.0000 </r>
       <r>    1.7216    0.0000 </r>
       <r>    1.7382    0.0000 </r>
       <r>    1.8145    0.0000 </r>
       <r>    1.8346    0.0000 </r>
      </set>
      <set comment="kpoint 26">
       <r>   -9.4099    1.0000 </r>
       <r>   -3.5731    0.1673 </r>
       <r>   -3.5730    0.1666 </r>
       <r>   -3.5730    0.1666 </r>
       <r>   -0.1427    0.0000 </r>
       <r>    0.1759    0.0000 </r>
       <r>    0.4365    0.0000 </r>
       <r>    0.4560    0.0000 </r>
       <r>    0.5638    0.0000 </r>
       <r>    0.6754    0.0000 </r>
       <r>    0.6760    0.0000 </r>
       <r>    0.7102    0.0000 </r>
       <r>    0.8091    0.0000 </r>
       <r>    0.9458    0.0000 </r>
       <r>    1.0406    0.0000 </r>
       <r>    1.0937    0.0000 </r>
       <r>    1.1754    0.0000 </r>
       <r>    1.2275    0.0000 </r>
       <r>    1.2961    0.0000 </r>
       <r>    1.3003    0.0000 </r>
       <r>    1.4217    0.0000 </r>
       <r>    1.4305    0.0000 </r>
       <r>    1.6078    0.0000 </r>
       <r>    1.7766    0.0000 </r>
      </set>
      <set comment="kpoint 27">
       <r>   -9.4099    1.0000 </r>
       <r>   -3.5731    0.1673 </r>
       <r>   -3.5730    0.1666 </r>
       <r>   -3.5730    0.1666 </r>
       <r>   -0.1333    0.0000 </r>
       <r>    0.1869    0.0000 </r>
       <r>    0.4217    0.0000 </r>
       <r>    0.4472    0.0000 </r>
       <r>    0.5118    0.0000 </r>
       <r>    0.6510    0.0000 </r>
       <r>    0.6869    0.0000 </r>
       <r>    0.7377    0.0000 </r>
       <r>    0.8362    0.0000 </r>
       <r>    0.9354    0.0000 </r>
       <r>    0.9816    0.0000 </r>
       <r>    1.0735    0.0000 </r>
       <r>    1.1704    0.0000 </r>
       <r>    1.1909    0.0000 </r>
       <r>    1.3182    0.0000 </r>
       <r>    1.3689    0.0000 </r>
       <r>    1.5543    0.0000 </r>
       <r>    1.5607    0.0000 </r>
       <r>    1.6321    0.0000 </r>
       <r>    1.7820    0.0000 </r>
      </set>
      <set comment="kpoint 28">
       <r>   -9.4099    1.0000 </r>
       <r>   -3.5731    0.1673 </r>
       <r>   -3.5730    0.1666 </r>
       <r>   -3.5730    0.1666 </r>
       <r>   -0.1162    0.0000 </r>
       <r>    0.2078    0.0000 </r>
       <r>    0.3446    0.0000 </r>
       <r>    0.4675    0.0000 </r>
       <r>    0.5233    0.0000 </r>
       <r>    0.5749    0.0000 </r>
       <r>    0.7088    0.0000 </r>
       <r>    0.7441    0.0000 </r>
       <r>    0.8416    0.0000 </r>
       <r>    0.8597    0.0000 </r>
       <r>    0.9985    0.0000 </r>
       <r>    1.0732    0.0000 </r>
       <r>    1.0782    0.0000 </r>
       <r>    1.2372    0.0000 </r>
       <r>    1.4608    0.0000 </r>
       <r>    1.5180    0.0000 </r>
       <r>    1.6160    0.0000 </r>
       <r>    1.7094    0.0000 </r>
       <r>    1.7367    0.0000 </r>
       <r>    1.7818    0.0000 </r>
      </set>
      <set comment="kpoint 29">
       <r>   -9.4099    1.0000 </r>
       <r>   -3.5731    0.1673 </r>
       <r>   -3.5730    0.1666 </r>
       <r>   -3.5730    0.1666 </r>
       <r>   -0.0957    0.0000 </r>
       <r>    0.2319    0.0000 </r>
       <r>    0.2812    0.0000 </r>
       <r>    0.4942    0.0000 </r>
       <r>    0.4972    0.0000 </r>
       <r>    0.5590    0.0000 </r>
       <r>    0.7341    0.0000 </r>
       <r>    0.7705    0.0000 </r>
       <r>    0.7750    0.0000 </r>
       <r>    0.7782    0.0000 </r>
       <r>    0.9848    0.0000 </r>
       <r>    0.9911    0.0000 </r>
       <r>    1.1625    0.0000 </r>
       <r>    1.3950    0.0000 </r>
       <r>    1.6124    0.0000 </r>
       <r>    1.6140    0.0000 </r>
       <r>    1.6832    0.0000 </r>
       <r>    1.7100    0.0000 </r>
       <r>    1.8495    0.0000 </r>
       <r>    1.8833    0.0000 </r>
      </set>
      <set comment="kpoint 30">
       <r>   -9.4099    1.0000 </r>
       <r>   -3.5731    0.1673 </r>
       <r>   -3.5730    0.1667 </r>
       <r>   -3.5730    0.1666 </r>
       <r>   -0.0803    0.0000 </r>
       <r>    0.2260    0.0000 </r>
       <r>    0.2731    0.0000 </r>
       <r>    0.4474    0.0000 </r>
       <r>    0.5172    0.0000 </r>
       <r>    0.5978    0.0000 </r>
       <r>    0.7105    0.0000 </r>
       <r>    0.7115    0.0000 </r>
       <r>    0.7739    0.0000 </r>
       <r>    0.8178    0.0000 </r>
       <r>    0.9187    0.0000 </r>
       <r>    0.9364    0.0000 </r>
       <r>    1.3298    0.0000 </r>
       <r>    1.5011    0.0000 </r>
       <r>    1.5808    0.0000 </r>
       <r>    1.6392    0.0000 </r>
       <r>    1.7516    0.0000 </r>
       <r>    1.7541    0.0000 </r>
       <r>    1.8755    0.0000 </r>
       <r>    1.8805    0.0000 </r>
      </set>
      <set comment="kpoint 31">
       <r>   -9.4099    1.0000 </r>
       <r>   -3.5731    0.1675 </r>
       <r>   -3.5730    0.1666 </r>
       <r>   -3.5730    0.1665 </r>
       <r>   -0.1174    0.0000 </r>
       <r>    0.1330    0.0000 </r>
       <r>    0.4716    0.0000 </r>
       <r>    0.5039    0.0000 </r>
       <r>    0.5961    0.0000 </r>
       <r>    0.6082    0.0000 </r>
       <r>    0.6220    0.0000 </r>
       <r>    0.7466    0.0000 </r>
       <r>    0.7609    0.0000 </r>
       <r>    0.8880    0.0000 </r>
       <r>    1.0729    0.0000 </r>
       <r>    1.1457    0.0000 </r>
       <r>    1.2119    0.0000 </r>
       <r>    1.2284    0.0000 </r>
       <r>    1.2420    0.0000 </r>
       <r>    1.2827    0.0000 </r>
       <r>    1.3616    0.0000 </r>
       <r>    1.3693    0.0000 </r>
       <r>    1.7129    0.0000 </r>
       <r>    1.8541    0.0000 </r>
      </set>
      <set comment="kpoint 32">
       <r>   -9.4099    1.0000 </r>
       <r>   -3.5731    0.1675 </r>
       <r>   -3.5730    0.1666 </r>
       <r>   -3.5730    0.1666 </r>
       <r>   -0.1083    0.0000 </r>
       <r>    0.1447    0.0000 </r>
       <r>    0.4617    0.0000 </r>
       <r>    0.4818    0.0000 </r>
       <r>    0.5551    0.0000 </r>
       <r>    0.5899    0.0000 </r>
       <r>    0.6342    0.0000 </r>
       <r>    0.6772    0.0000 </r>
       <r>    0.8701    0.0000 </r>
       <r>    0.9716    0.0000 </r>
       <r>    1.0201    0.0000 </r>
       <r>    1.0364    0.0000 </r>
       <r>    1.1172    0.0000 </r>
       <r>    1.1175    0.0000 </r>
       <r>    1.3490    0.0000 </r>
       <r>    1.4218    0.0000 </r>
       <r>    1.5014    0.0000 </r>
       <r>    1.5095    0.0000 </r>
       <r>    1.7208    0.0000 </r>
       <r>    1.8544    0.0000 </r>
      </set>
      <set comment="kpoint 33">
       <r>   -9.4099    1.0000 </r>
       <r>   -3.5731    0.1675 </r>
       <r>   -3.5730    0.1666 </r>
       <r>   -3.5730    0.1666 </r>
       <r>   -0.0918    0.0000 </r>
       <r>    0.1674    0.0000 </r>
       <r>    0.3814    0.0000 </r>
       <r>    0.5011    0.0000 </r>
       <r>    0.5149    0.0000 </r>
       <r>    0.5732    0.0000 </r>
       <r>    0.6579    0.0000 </r>
       <r>    0.6768    0.0000 </r>
       <r>    0.8793    0.0000 </r>
       <r>    0.9058    0.0000 </r>
       <r>    0.9994    0.0000 </r>
       <r>    1.0156    0.0000 </r>
       <r>    1.0504    0.0000 </r>
       <r>    1.1811    0.0000 </r>
       <r>    1.4918    0.0000 </r>
       <r>    1.5713    0.0000 </r>
       <r>    1.6502    0.0000 </r>
       <r>    1.6618    0.0000 </r>
       <r>    1.7386    0.0000 </r>
       <r>    1.8289    0.0000 </r>
      </set>
      <set comment="kpoint 34">
       <r>   -9.4099    1.0000 </r>
       <r>   -3.5731    0.1675 </r>
       <r>   -3.5730    0.1666 </r>
       <r>   -3.5730    0.1666 </r>
       <r>   -0.0722    0.0000 </r>
       <r>    0.1986    0.0000 </r>
       <r>    0.3135    0.0000 </r>
       <r>    0.4384    0.0000 </r>
       <r>    0.5261    0.0000 </r>
       <r>    0.6072    0.0000 </r>
       <r>    0.6909    0.0000 </r>
       <r>    0.7085    0.0000 </r>
       <r>    0.8049    0.0000 </r>
       <r>    0.8256    0.0000 </r>
       <r>    0.9164    0.0000 </r>
       <r>    0.9304    0.0000 </r>
       <r>    1.1968    0.0000 </r>
       <r>    1.3449    0.0000 </r>
       <r>    1.6412    0.0000 </r>
       <r>    1.6968    0.0000 </r>
       <r>    1.7100    0.0000 </r>
       <r>    1.7724    0.0000 </r>
       <r>    1.8169    0.0000 </r>
       <r>    1.8271    0.0000 </r>
      </set>
      <set comment="kpoint 35">
       <r>   -9.4099    1.0000 </r>
       <r>   -3.5731    0.1675 </r>
       <r>   -3.5730    0.1667 </r>
       <r>   -3.5730    0.1666 </r>
       <r>   -0.0578    0.0000 </r>
       <r>    0.2292    0.0000 </r>
       <r>    0.2730    0.0000 </r>
       <r>    0.3850    0.0000 </r>
       <r>    0.5470    0.0000 </r>
       <r>    0.6468    0.0000 </r>
       <r>    0.7241    0.0000 </r>
       <r>    0.7489    0.0000 </r>
       <r>    0.7585    0.0000 </r>
       <r>    0.7605    0.0000 </r>
       <r>    0.8491    0.0000 </r>
       <r>    0.8719    0.0000 </r>
       <r>    1.3612    0.0000 </r>
       <r>    1.5137    0.0000 </r>
       <r>    1.5532    0.0000 </r>
       <r>    1.7173    0.0000 </r>
       <r>    1.7316    0.0000 </r>
       <r>    1.7774    0.0000 </r>
       <r>    1.9204    0.0000 </r>
       <r>    1.9273    0.0000 </r>
      </set>
      <set comment="kpoint 36">
       <r>   -9.4099    1.0000 </r>
       <r>   -3.5730    0.1667 </r>
       <r>   -3.5730    0.1667 </r>
       <r>   -3.5729    0.1659 </r>
       <r>   -0.2589    0.0000 </r>
       <r>    0.2174    0.0000 </r>
       <r>    0.3880    0.0000 </r>
       <r>    0.4524    0.0000 </r>
       <r>    0.5803    0.0000 </r>
       <r>    0.6901    0.0000 </r>
       <r>    0.8314    0.0000 </r>
       <r>    0.8374    0.0000 </r>
       <r>    0.9650    0.0000 </r>
       <r>    1.0295    0.0000 </r>
       <r>    1.1042    0.0000 </r>
       <r>    1.1635    0.0000 </r>
       <r>    1.2538    0.0000 </r>
       <r>    1.2701    0.0000 </r>
       <r>    1.3121    0.0000 </r>
       <r>    1.4144    0.0000 </r>
       <r>    1.4388    0.0000 </r>
       <r>    1.4974    0.0000 </r>
       <r>    1.5194    0.0000 </r>
       <r>    1.6266    0.0000 </r>
      </set>
      <set comment="kpoint 37">
       <r>   -9.4099    1.0000 </r>
       <r>   -3.5730    0.1667 </r>
       <r>   -3.5730    0.1667 </r>
       <r>   -3.5729    0.1659 </r>
       <r>   -0.2491    0.0000 </r>
       <r>    0.2228    0.0000 </r>
       <r>    0.3189    0.0000 </r>
       <r>    0.4383    0.0000 </r>
       <r>    0.6921    0.0000 </r>
       <r>    0.7058    0.0000 </r>
       <r>    0.7330    0.0000 </r>
       <r>    0.8438    0.0000 </r>
       <r>    0.9193    0.0000 </r>
       <r>    1.0929    0.0000 </r>
       <r>    1.1206    0.0000 </r>
       <r>    1.1923    0.0000 </r>
       <r>    1.2481    0.0000 </r>
       <r>    1.2988    0.0000 </r>
       <r>    1.3358    0.0000 </r>
       <r>    1.3478    0.0000 </r>
       <r>    1.4619    0.0000 </r>
       <r>    1.5001    0.0000 </r>
       <r>    1.5870    0.0000 </r>
       <r>    1.6322    0.0000 </r>
      </set>
      <set comment="kpoint 38">
       <r>   -9.4099    1.0000 </r>
       <r>   -3.5730    0.1667 </r>
       <r>   -3.5730    0.1667 </r>
       <r>   -3.5729    0.1659 </r>
       <r>   -0.2310    0.0000 </r>
       <r>    0.1971    0.0000 </r>
       <r>    0.2785    0.0000 </r>
       <r>    0.4582    0.0000 </r>
       <r>    0.6198    0.0000 </r>
       <r>    0.7179    0.0000 </r>
       <r>    0.8034    0.0000 </r>
       <r>    0.8621    0.0000 </r>
       <r>    0.8789    0.0000 </r>
       <r>    1.0900    0.0000 </r>
       <r>    1.1448    0.0000 </r>
       <r>    1.2335    0.0000 </r>
       <r>    1.2444    0.0000 </r>
       <r>    1.3033    0.0000 </r>
       <r>    1.3466    0.0000 </r>
       <r>    1.4552    0.0000 </r>
       <r>    1.4925    0.0000 </r>
       <r>    1.5153    0.0000 </r>
       <r>    1.5252    0.0000 </r>
       <r>    1.6412    0.0000 </r>
      </set>
      <set comment="kpoint 39">
       <r>   -9.4099    1.0000 </r>
       <r>   -3.5730    0.1668 </r>
       <r>   -3.5730    0.1667 </r>
       <r>   -3.5729    0.1659 </r>
       <r>   -0.2090    0.0000 </r>
       <r>    0.1352    0.0000 </r>
       <r>    0.3010    0.0000 </r>
       <r>    0.4871    0.0000 </r>
       <r>    0.5386    0.0000 </r>
       <r>    0.7281    0.0000 </r>
       <r>    0.7426    0.0000 </r>
       <r>    0.8910    0.0000 </r>
       <r>    1.0053    0.0000 </r>
       <r>    1.0445    0.0000 </r>
       <r>    1.1680    0.0000 </r>
       <r>    1.1744    0.0000 </r>
       <r>    1.3021    0.0000 </r>
       <r>    1.3649    0.0000 </r>
       <r>    1.4056    0.0000 </r>
       <r>    1.4644    0.0000 </r>
       <r>    1.4992    0.0000 </r>
       <r>    1.5366    0.0000 </r>
       <r>    1.5701    0.0000 </r>
       <r>    1.6075    0.0000 </r>
      </set>
      <set comment="kpoint 40">
       <r>   -9.4099    1.0000 </r>
       <r>   -3.5730    0.1668 </r>
       <r>   -3.5730    0.1667 </r>
       <r>   -3.5729    0.1659 </r>
       <r>   -0.1921    0.0000 </r>
       <r>    0.0949    0.0000 </r>
       <r>    0.3315    0.0000 </r>
       <r>    0.4719    0.0000 </r>
       <r>    0.5276    0.0000 </r>
       <r>    0.6710    0.0000 </r>
       <r>    0.7626    0.0000 </r>
       <r>    0.9156    0.0000 </r>
       <r>    0.9755    0.0000 </r>
       <r>    1.1058    0.0000 </r>
       <r>    1.1938    0.0000 </r>
       <r>    1.2190    0.0000 </r>
       <r>    1.3274    0.0000 </r>
       <r>    1.3675    0.0000 </r>
       <r>    1.4035    0.0000 </r>
       <r>    1.4269    0.0000 </r>
       <r>    1.4803    0.0000 </r>
       <r>    1.5405    0.0000 </r>
       <r>    1.5660    0.0000 </r>
       <r>    1.6113    0.0000 </r>
      </set>
      <set comment="kpoint 41">
       <r>   -9.4099    1.0000 </r>
       <r>   -3.5730    0.1667 </r>
       <r>   -3.5730    0.1666 </r>
       <r>   -3.5729    0.1660 </r>
       <r>   -0.2498    0.0000 </r>
       <r>    0.2264    0.0000 </r>
       <r>    0.3956    0.0000 </r>
       <r>    0.4612    0.0000 </r>
       <r>    0.5680    0.0000 </r>
       <r>    0.5971    0.0000 </r>
       <r>    0.8444    0.0000 </r>
       <r>    0.9499    0.0000 </r>
       <r>    0.9736    0.0000 </r>
       <r>    1.0002    0.0000 </r>
       <r>    1.0416    0.0000 </r>
       <r>    1.1628    0.0000 </r>
       <r>    1.1680    0.0000 </r>
       <r>    1.2089    0.0000 </r>
       <r>    1.3343    0.0000 </r>
       <r>    1.3958    0.0000 </r>
       <r>    1.4923    0.0000 </r>
       <r>    1.5698    0.0000 </r>
       <r>    1.5885    0.0000 </r>
       <r>    1.6285    0.0000 </r>
      </set>
      <set comment="kpoint 42">
       <r>   -9.4099    1.0000 </r>
       <r>   -3.5730    0.1667 </r>
       <r>   -3.5730    0.1667 </r>
       <r>   -3.5729    0.1660 </r>
       <r>   -0.2400    0.0000 </r>
       <r>    0.2317    0.0000 </r>
       <r>    0.3277    0.0000 </r>
       <r>    0.4464    0.0000 </r>
       <r>    0.5831    0.0000 </r>
       <r>    0.7091    0.0000 </r>
       <r>    0.7422    0.0000 </r>
       <r>    0.9260    0.0000 </r>
       <r>    0.9645    0.0000 </r>
       <r>    1.0049    0.0000 </r>
       <r>    1.0734    0.0000 </r>
       <r>    1.1253    0.0000 </r>
       <r>    1.1988    0.0000 </r>
       <r>    1.3087    0.0000 </r>
       <r>    1.4027    0.0000 </r>
       <r>    1.4124    0.0000 </r>
       <r>    1.4960    0.0000 </r>
       <r>    1.5137    0.0000 </r>
       <r>    1.5336    0.0000 </r>
       <r>    1.6070    0.0000 </r>
      </set>
      <set comment="kpoint 43">
       <r>   -9.4099    1.0000 </r>
       <r>   -3.5730    0.1667 </r>
       <r>   -3.5730    0.1667 </r>
       <r>   -3.5729    0.1660 </r>
       <r>   -0.2219    0.0000 </r>
       <r>    0.2061    0.0000 </r>
       <r>    0.2876    0.0000 </r>
       <r>    0.4660    0.0000 </r>
       <r>    0.6032    0.0000 </r>
       <r>    0.6293    0.0000 </r>
       <r>    0.8114    0.0000 </r>
       <r>    0.8845    0.0000 </r>
       <r>    0.9644    0.0000 </r>
       <r>    1.0068    0.0000 </r>
       <r>    1.0326    0.0000 </r>
       <r>    1.2175    0.0000 </r>
       <r>    1.2643    0.0000 </r>
       <r>    1.3475    0.0000 </r>
       <r>    1.4121    0.0000 </r>
       <r>    1.4167    0.0000 </r>
       <r>    1.4815    0.0000 </r>
       <r>    1.5346    0.0000 </r>
       <r>    1.5793    0.0000 </r>
       <r>    1.6004    0.0000 </r>
      </set>
      <set comment="kpoint 44">
       <r>   -9.4099    1.0000 </r>
       <r>   -3.5730    0.1668 </r>
       <r>   -3.5730    0.1667 </r>
       <r>   -3.5729    0.1660 </r>
       <r>   -0.1999    0.0000 </r>
       <r>    0.1445    0.0000 </r>
       <r>    0.3100    0.0000 </r>
       <r>    0.4950    0.0000 </r>
       <r>    0.5476    0.0000 </r>
       <r>    0.6299    0.0000 </r>
       <r>    0.7364    0.0000 </r>
       <r>    0.8987    0.0000 </r>
       <r>    1.0191    0.0000 </r>
       <r>    1.0429    0.0000 </r>
       <r>    1.0618    0.0000 </r>
       <r>    1.2422    0.0000 </r>
       <r>    1.2843    0.0000 </r>
       <r>    1.3200    0.0000 </r>
       <r>    1.4162    0.0000 </r>
       <r>    1.4742    0.0000 </r>
       <r>    1.4916    0.0000 </r>
       <r>    1.5546    0.0000 </r>
       <r>    1.6028    0.0000 </r>
       <r>    1.6522    0.0000 </r>
      </set>
      <set comment="kpoint 45">
       <r>   -9.4099    1.0000 </r>
       <r>   -3.5730    0.1668 </r>
       <r>   -3.5730    0.1667 </r>
       <r>   -3.5729    0.1660 </r>
       <r>   -0.1831    0.0000 </r>
       <r>    0.1043    0.0000 </r>
       <r>    0.3404    0.0000 </r>
       <r>    0.4812    0.0000 </r>
       <r>    0.5351    0.0000 </r>
       <r>    0.6519    0.0000 </r>
       <r>    0.6794    0.0000 </r>
       <r>    0.8555    0.0000 </r>
       <r>    1.0388    0.0000 </r>
       <r>    1.0892    0.0000 </r>
       <r>    1.1999    0.0000 </r>
       <r>    1.2231    0.0000 </r>
       <r>    1.2624    0.0000 </r>
       <r>    1.3110    0.0000 </r>
       <r>    1.4149    0.0000 </r>
       <r>    1.4305    0.0000 </r>
       <r>    1.4861    0.0000 </r>
       <r>    1.5827    0.0000 </r>
       <r>    1.6010    0.0000 </r>
       <r>    1.6596    0.0000 </r>
      </set>
      <set comment="kpoint 46">
       <r>   -9.4099    1.0000 </r>
       <r>   -3.5730    0.1667 </r>
       <r>   -3.5730    0.1666 </r>
       <r>   -3.5729    0.1663 </r>
       <r>   -0.2319    0.0000 </r>
       <r>    0.2438    0.0000 </r>
       <r>    0.4023    0.0000 </r>
       <r>    0.4711    0.0000 </r>
       <r>    0.4824    0.0000 </r>
       <r>    0.6108    0.0000 </r>
       <r>    0.8499    0.0000 </r>
       <r>    0.8809    0.0000 </r>
       <r>    0.9943    0.0000 </r>
       <r>    1.0251    0.0000 </r>
       <r>    1.0647    0.0000 </r>
       <r>    1.0952    0.0000 </r>
       <r>    1.1274    0.0000 </r>
       <r>    1.2009    0.0000 </r>
       <r>    1.2354    0.0000 </r>
       <r>    1.4769    0.0000 </r>
       <r>    1.5058    0.0000 </r>
       <r>    1.5515    0.0000 </r>
       <r>    1.6222    0.0000 </r>
       <r>    1.6648    0.0000 </r>
      </set>
      <set comment="kpoint 47">
       <r>   -9.4099    1.0000 </r>
       <r>   -3.5730    0.1667 </r>
       <r>   -3.5730    0.1667 </r>
       <r>   -3.5729    0.1663 </r>
       <r>   -0.2221    0.0000 </r>
       <r>    0.2490    0.0000 </r>
       <r>    0.3447    0.0000 </r>
       <r>    0.4493    0.0000 </r>
[...]
       <r>    1.0331    0.0000 </r>
       <r>    1.0708    0.0000 </r>
       <r>    1.1366    0.0000 </r>
       <r>    1.1589    0.0000 </r>
       <r>    1.2821    0.0000 </r>
       <r>    1.5667    0.0000 </r>
       <r>    1.6834    0.0000 </r>
       <r>    1.7165    0.0000 </r>
       <r>    1.7634    0.0000 </r>
      </set>
      <set comment="kpoint 172">
       <r>   -9.4099    1.0000 </r>
       <r>   -3.5731    0.1675 </r>
       <r>   -3.5730    0.1666 </r>
       <r>   -3.5730    0.1666 </r>
       <r>   -0.0849    0.0000 </r>
       <r>    0.1971    0.0000 </r>
       <r>    0.2651    0.0000 </r>
       <r>    0.3637    0.0000 </r>
       <r>    0.5243    0.0000 </r>
       <r>    0.6859    0.0000 </r>
       <r>    0.7317    0.0000 </r>
       <r>    0.8307    0.0000 </r>
       <r>    0.9157    0.0000 </r>
       <r>    0.9859    0.0000 </r>
       <r>    1.0554    0.0000 </r>
       <r>    1.1088    0.0000 </r>
       <r>    1.1313    0.0000 </r>
       <r>    1.1893    0.0000 </r>
       <r>    1.2321    0.0000 </r>
       <r>    1.3049    0.0000 </r>
       <r>    1.4730    0.0000 </r>
       <r>    1.6024    0.0000 </r>
       <r>    1.6296    0.0000 </r>
       <r>    1.7490    0.0000 </r>
      </set>
      <set comment="kpoint 173">
       <r>   -9.4099    1.0000 </r>
       <r>   -3.5731    0.1675 </r>
       <r>   -3.5730    0.1666 </r>
       <r>   -3.5730    0.1666 </r>
       <r>   -0.0693    0.0000 </r>
       <r>    0.2183    0.0000 </r>
       <r>    0.2890    0.0000 </r>
       <r>    0.3892    0.0000 </r>
       <r>    0.4347    0.0000 </r>
       <r>    0.5894    0.0000 </r>
       <r>    0.6330    0.0000 </r>
       <r>    0.7273    0.0000 </r>
       <r>    1.0123    0.0000 </r>
       <r>    1.0595    0.0000 </r>
       <r>    1.1363    0.0000 </r>
       <r>    1.1575    0.0000 </r>
       <r>    1.2223    0.0000 </r>
       <r>    1.2962    0.0000 </r>
       <r>    1.3101    0.0000 </r>
       <r>    1.3858    0.0000 </r>
       <r>    1.4170    0.0000 </r>
       <r>    1.5046    0.0000 </r>
       <r>    1.5436    0.0000 </r>
       <r>    1.6547    0.0000 </r>
      </set>
      <set comment="kpoint 174">
       <r>   -9.4099    1.0000 </r>
       <r>   -3.5731    0.1675 </r>
       <r>   -3.5730    0.1666 </r>
       <r>   -3.5730    0.1666 </r>
       <r>   -0.0512    0.0000 </r>
       <r>    0.2465    0.0000 </r>
       <r>    0.3225    0.0000 </r>
       <r>    0.3662    0.0000 </r>
       <r>    0.4264    0.0000 </r>
       <r>    0.5110    0.0000 </r>
       <r>    0.5486    0.0000 </r>
       <r>    0.6374    0.0000 </r>
       <r>    1.0434    0.0000 </r>
       <r>    1.1732    0.0000 </r>
       <r>    1.1816    0.0000 </r>
       <r>    1.2172    0.0000 </r>
       <r>    1.2974    0.0000 </r>
       <r>    1.3180    0.0000 </r>
       <r>    1.3967    0.0000 </r>
       <r>    1.4229    0.0000 </r>
       <r>    1.4519    0.0000 </r>
       <r>    1.5051    0.0000 </r>
       <r>    1.5681    0.0000 </r>
       <r>    1.5850    0.0000 </r>
      </set>
      <set comment="kpoint 175">
       <r>   -9.4099    1.0000 </r>
       <r>   -3.5731    0.1675 </r>
       <r>   -3.5730    0.1667 </r>
       <r>   -3.5730    0.1666 </r>
       <r>   -0.0382    0.0000 </r>
       <r>    0.2718    0.0000 </r>
       <r>    0.3255    0.0000 </r>
       <r>    0.3590    0.0000 </r>
       <r>    0.4552    0.0000 </r>
       <r>    0.4749    0.0000 </r>
       <r>    0.4898    0.0000 </r>
       <r>    0.5667    0.0000 </r>
       <r>    1.0709    0.0000 </r>
       <r>    1.2069    0.0000 </r>
       <r>    1.2145    0.0000 </r>
       <r>    1.2304    0.0000 </r>
       <r>    1.3412    0.0000 </r>
       <r>    1.3628    0.0000 </r>
       <r>    1.3754    0.0000 </r>
       <r>    1.4419    0.0000 </r>
       <r>    1.4953    0.0000 </r>
       <r>    1.5780    0.0000 </r>
       <r>    1.6065    0.0000 </r>
       <r>    1.6668    0.0000 </r>
      </set>
     </set>
    </set>
   </array>
  </eigenvalues>
  <separator name="orbital magnetization" >
   <v name="MAGDIPOLOUT">      0.00000000      0.00000000      0.00000000</v>
  </separator>
  <dos>
   <i name="efermi">     -3.60719041 </i>
   <total>
    <array>
     <dimension dim="1">gridpoints</dimension>
     <dimension dim="2">spin</dimension>
     <field>energy</field>
     <field>total</field>
     <field>integrated</field>
     <set>
      <set comment="spin 1">
       <r>    -9.9768     0.0000     0.0000 </r>
       <r>    -9.9352     0.0000     0.0000 </r>
       <r>    -9.8936     0.0000     0.0000 </r>
       <r>    -9.8520     0.0000     0.0000 </r>
       <r>    -9.8105     0.0000     0.0000 </r>
       <r>    -9.7689     0.0000     0.0000 </r>
       <r>    -9.7273     0.0000     0.0000 </r>
       <r>    -9.6858     0.0000     0.0000 </r>
       <r>    -9.6442     0.0000     0.0000 </r>
       <r>    -9.6026     0.0000     0.0000 </r>
       <r>    -9.5611     0.0005     0.0000 </r>
       <r>    -9.5195     0.0461     0.0019 </r>
       <r>    -9.4779     1.2610     0.0544 </r>
       <r>    -9.4364     9.6216     0.4543 </r>
       <r>    -9.3948    21.0897     1.3310 </r>
       <r>    -9.3532    13.4742     1.8911 </r>
       <r>    -9.3116     2.4877     1.9945 </r>
       <r>    -9.2701     0.1293     1.9999 </r>
       <r>    -9.2285     0.0018     2.0000 </r>
       <r>    -9.1869     0.0000     2.0000 </r>
       <r>    -9.1454     0.0000     2.0000 </r>
       <r>    -9.1038     0.0000     2.0000 </r>
       <r>    -9.0622     0.0000     2.0000 </r>
       <r>    -9.0207     0.0000     2.0000 </r>
       <r>    -8.9791     0.0000     2.0000 </r>
       <r>    -8.9375     0.0000     2.0000 </r>
       <r>    -8.8959     0.0000     2.0000 </r>
       <r>    -8.8544     0.0000     2.0000 </r>
       <r>    -8.8128     0.0000     2.0000 </r>
       <r>    -8.7712     0.0000     2.0000 </r>
       <r>    -8.7297     0.0000     2.0000 </r>
       <r>    -8.6881     0.0000     2.0000 </r>
       <r>    -8.6465     0.0000     2.0000 </r>
       <r>    -8.6050     0.0000     2.0000 </r>
       <r>    -8.5634     0.0000     2.0000 </r>
       <r>    -8.5218     0.0000     2.0000 </r>
       <r>    -8.4802     0.0000     2.0000 </r>
       <r>    -8.4387     0.0000     2.0000 </r>
       <r>    -8.3971     0.0000     2.0000 </r>
       <r>    -8.3555     0.0000     2.0000 </r>
       <r>    -8.3140     0.0000     2.0000 </r>
       <r>    -8.2724     0.0000     2.0000 </r>
       <r>    -8.2308     0.0000     2.0000 </r>
       <r>    -8.1893     0.0000     2.0000 </r>
       <r>    -8.1477     0.0000     2.0000 </r>
       <r>    -8.1061     0.0000     2.0000 </r>
       <r>    -8.0645     0.0000     2.0000 </r>
       <r>    -8.0230     0.0000     2.0000 </r>
       <r>    -7.9814     0.0000     2.0000 </r>
       <r>    -7.9398     0.0000     2.0000 </r>
       <r>    -7.8983     0.0000     2.0000 </r>
       <r>    -7.8567     0.0000     2.0000 </r>
       <r>    -7.8151     0.0000     2.0000 </r>
       <r>    -7.7736     0.0000     2.0000 </r>
       <r>    -7.7320     0.0000     2.0000 </r>
       <r>    -7.6904     0.0000     2.0000 </r>
       <r>    -7.6488     0.0000     2.0000 </r>
       <r>    -7.6073     0.0000     2.0000 </r>
       <r>    -7.5657     0.0000     2.0000 </r>
       <r>    -7.5241     0.0000     2.0000 </r>
       <r>    -7.4826     0.0000     2.0000 </r>
       <r>    -7.4410     0.0000     2.0000 </r>
       <r>    -7.3994     0.0000     2.0000 </r>
       <r>    -7.3579     0.0000     2.0000 </r>
       <r>    -7.3163     0.0000     2.0000 </r>
       <r>    -7.2747     0.0000     2.0000 </r>
       <r>    -7.2332     0.0000     2.0000 </r>
       <r>    -7.1916     0.0000     2.0000 </r>
       <r>    -7.1500     0.0000     2.0000 </r>
       <r>    -7.1084     0.0000     2.0000 </r>
       <r>    -7.0669     0.0000     2.0000 </r>
       <r>    -7.0253     0.0000     2.0000 </r>
       <r>    -6.9837     0.0000     2.0000 </r>
       <r>    -6.9422     0.0000     2.0000 </r>
       <r>    -6.9006     0.0000     2.0000 </r>
       <r>    -6.8590     0.0000     2.0000 </r>
       <r>    -6.8175     0.0000     2.0000 </r>
       <r>    -6.7759     0.0000     2.0000 </r>
       <r>    -6.7343     0.0000     2.0000 </r>
       <r>    -6.6927     0.0000     2.0000 </r>
       <r>    -6.6512     0.0000     2.0000 </r>
       <r>    -6.6096     0.0000     2.0000 </r>
       <r>    -6.5680     0.0000     2.0000 </r>
       <r>    -6.5265     0.0000     2.0000 </r>
       <r>    -6.4849     0.0000     2.0000 </r>
       <r>    -6.4433     0.0000     2.0000 </r>
       <r>    -6.4018     0.0000     2.0000 </r>
       <r>    -6.3602     0.0000     2.0000 </r>
       <r>    -6.3186     0.0000     2.0000 </r>
       <r>    -6.2770     0.0000     2.0000 </r>
       <r>    -6.2355     0.0000     2.0000 </r>
       <r>    -6.1939     0.0000     2.0000 </r>
       <r>    -6.1523     0.0000     2.0000 </r>
       <r>    -6.1108     0.0000     2.0000 </r>
       <r>    -6.0692     0.0000     2.0000 </r>
       <r>    -6.0276     0.0000     2.0000 </r>
       <r>    -5.9861     0.0000     2.0000 </r>
       <r>    -5.9445     0.0000     2.0000 </r>
       <r>    -5.9029     0.0000     2.0000 </r>
       <r>    -5.8613     0.0000     2.0000 </r>
       <r>    -5.8198     0.0000     2.0000 </r>
       <r>    -5.7782     0.0000     2.0000 </r>
       <r>    -5.7366     0.0000     2.0000 </r>
       <r>    -5.6951     0.0000     2.0000 </r>
       <r>    -5.6535     0.0000     2.0000 </r>
       <r>    -5.6119     0.0000     2.0000 </r>
       <r>    -5.5704     0.0000     2.0000 </r>
       <r>    -5.5288     0.0000     2.0000 </r>
       <r>    -5.4872     0.0000     2.0000 </r>
       <r>    -5.4457     0.0000     2.0000 </r>
       <r>    -5.4041     0.0000     2.0000 </r>
       <r>    -5.3625     0.0000     2.0000 </r>
       <r>    -5.3209     0.0000     2.0000 </r>
       <r>    -5.2794     0.0000     2.0000 </r>
       <r>    -5.2378     0.0000     2.0000 </r>
       <r>    -5.1962     0.0000     2.0000 </r>
       <r>    -5.1547     0.0000     2.0000 </r>
       <r>    -5.1131     0.0000     2.0000 </r>
       <r>    -5.0715     0.0000     2.0000 </r>
       <r>    -5.0300     0.0000     2.0000 </r>
       <r>    -4.9884     0.0000     2.0000 </r>
       <r>    -4.9468     0.0000     2.0000 </r>
       <r>    -4.9052     0.0000     2.0000 </r>
       <r>    -4.8637     0.0000     2.0000 </r>
       <r>    -4.8221     0.0000     2.0000 </r>
       <r>    -4.7805     0.0000     2.0000 </r>
       <r>    -4.7390     0.0000     2.0000 </r>
       <r>    -4.6974     0.0000     2.0000 </r>
       <r>    -4.6558     0.0000     2.0000 </r>
       <r>    -4.6143     0.0000     2.0000 </r>
       <r>    -4.5727     0.0000     2.0000 </r>
       <r>    -4.5311     0.0000     2.0000 </r>
       <r>    -4.4895     0.0000     2.0000 </r>
       <r>    -4.4480     0.0000     2.0000 </r>
       <r>    -4.4064     0.0000     2.0000 </r>
       <r>    -4.3648     0.0000     2.0000 </r>
       <r>    -4.3233     0.0000     2.0000 </r>
       <r>    -4.2817     0.0000     2.0000 </r>
       <r>    -4.2401     0.0000     2.0000 </r>
       <r>    -4.1986     0.0000     2.0000 </r>
       <r>    -4.1570     0.0000     2.0000 </r>
       <r>    -4.1154     0.0000     2.0000 </r>
       <r>    -4.0738     0.0000     2.0000 </r>
       <r>    -4.0323     0.0000     2.0000 </r>
       <r>    -3.9907     0.0000     2.0000 </r>
       <r>    -3.9491     0.0000     2.0000 </r>
       <r>    -3.9076     0.0000     2.0000 </r>
       <r>    -3.8660     0.0000     2.0000 </r>
       <r>    -3.8244     0.0000     2.0000 </r>
       <r>    -3.7829     0.0000     2.0000 </r>
       <r>    -3.7413     0.0001     2.0000 </r>
       <r>    -3.6997     0.0242     2.0010 </r>
       <r>    -3.6582     1.1306     2.0480 </r>
       <r>    -3.6166    14.5456     2.6527 </r>
       <r>    -3.5750    53.1706     4.8630 </r>
       <r>    -3.5334    56.4584     7.2099 </r>
       <r>    -3.4919    17.4345     7.9347 </r>
       <r>    -3.4503     1.5340     7.9984 </r>
       <r>    -3.4087     0.0373     8.0000 </r>
       <r>    -3.3672     0.0002     8.0000 </r>
       <r>    -3.3256     0.0000     8.0000 </r>
       <r>    -3.2840     0.0000     8.0000 </r>
       <r>    -3.2425     0.0000     8.0000 </r>
       <r>    -3.2009     0.0000     8.0000 </r>
       <r>    -3.1593     0.0000     8.0000 </r>
       <r>    -3.1177     0.0000     8.0000 </r>
       <r>    -3.0762     0.0000     8.0000 </r>
       <r>    -3.0346     0.0000     8.0000 </r>
       <r>    -2.9930     0.0000     8.0000 </r>
       <r>    -2.9515     0.0000     8.0000 </r>
       <r>    -2.9099     0.0000     8.0000 </r>
       <r>    -2.8683     0.0000     8.0000 </r>
       <r>    -2.8268     0.0000     8.0000 </r>
       <r>    -2.7852     0.0000     8.0000 </r>
       <r>    -2.7436     0.0000     8.0000 </r>
       <r>    -2.7020     0.0000     8.0000 </r>
       <r>    -2.6605     0.0000     8.0000 </r>
       <r>    -2.6189     0.0000     8.0000 </r>
       <r>    -2.5773     0.0000     8.0000 </r>
       <r>    -2.5358     0.0000     8.0000 </r>
       <r>    -2.4942     0.0000     8.0000 </r>
       <r>    -2.4526     0.0000     8.0000 </r>
       <r>    -2.4111     0.0000     8.0000 </r>
       <r>    -2.3695     0.0000     8.0000 </r>
       <r>    -2.3279     0.0000     8.0000 </r>
       <r>    -2.2863     0.0000     8.0000 </r>
       <r>    -2.2448     0.0000     8.0000 </r>
       <r>    -2.2032     0.0000     8.0000 </r>
       <r>    -2.1616     0.0000     8.0000 </r>
       <r>    -2.1201     0.0000     8.0000 </r>
       <r>    -2.0785     0.0000     8.0000 </r>
       <r>    -2.0369     0.0000     8.0000 </r>
       <r>    -1.9954     0.0000     8.0000 </r>
       <r>    -1.9538     0.0000     8.0000 </r>
       <r>    -1.9122     0.0000     8.0000 </r>
       <r>    -1.8707     0.0000     8.0000 </r>
       <r>    -1.8291     0.0000     8.0000 </r>
       <r>    -1.7875     0.0000     8.0000 </r>
       <r>    -1.7459     0.0000     8.0000 </r>
       <r>    -1.7044     0.0000     8.0000 </r>
       <r>    -1.6628     0.0000     8.0000 </r>
       <r>    -1.6212     0.0000     8.0000 </r>
       <r>    -1.5797     0.0000     8.0000 </r>
       <r>    -1.5381     0.0000     8.0000 </r>
       <r>    -1.4965     0.0000     8.0000 </r>
       <r>    -1.4550     0.0000     8.0000 </r>
       <r>    -1.4134     0.0000     8.0000 </r>
       <r>    -1.3718     0.0000     8.0000 </r>
       <r>    -1.3302     0.0000     8.0000 </r>
       <r>    -1.2887     0.0000     8.0000 </r>
       <r>    -1.2471     0.0000     8.0000 </r>
       <r>    -1.2055     0.0000     8.0000 </r>
       <r>    -1.1640     0.0000     8.0000 </r>
       <r>    -1.1224     0.0000     8.0000 </r>
       <r>    -1.0808     0.0000     8.0000 </r>
       <r>    -1.0393     0.0000     8.0000 </r>
       <r>    -0.9977     0.0000     8.0000 </r>
       <r>    -0.9561     0.0000     8.0000 </r>
       <r>    -0.9145     0.0000     8.0000 </r>
       <r>    -0.8730     0.0000     8.0000 </r>
       <r>    -0.8314     0.0000     8.0000 </r>
       <r>    -0.7898     0.0000     8.0000 </r>
       <r>    -0.7483     0.0000     8.0000 </r>
       <r>    -0.7067     0.0000     8.0000 </r>
       <r>    -0.6651     0.0000     8.0000 </r>
       <r>    -0.6236     0.0000     8.0000 </r>
       <r>    -0.5820     0.0000     8.0000 </r>
       <r>    -0.5404     0.0000     8.0000 </r>
       <r>    -0.4988     0.0000     8.0000 </r>
       <r>    -0.4573     0.0000     8.0000 </r>
       <r>    -0.4157     0.0000     8.0000 </r>
       <r>    -0.3741     0.0008     8.0000 </r>
       <r>    -0.3326     0.0358     8.0015 </r>
       <r>    -0.2910     0.5435     8.0241 </r>
       <r>    -0.2494     3.0760     8.1520 </r>
       <r>    -0.2079     7.7324     8.4734 </r>
       <r>    -0.1663    10.7156     8.9189 </r>
       <r>    -0.1247    10.4044     9.3514 </r>
       <r>    -0.0832     8.4792     9.7038 </r>
       <r>    -0.0416     5.1216     9.9167 </r>
       <r>    -0.0000     1.7636     9.9901 </r>
       <r>     0.0416     0.6629    10.0176 </r>
       <r>     0.0831     2.1085    10.1053 </r>
       <r>     0.1247     5.7685    10.3451 </r>
       <r>     0.1663    10.3868    10.7768 </r>
       <r>     0.2078    14.0032    11.3589 </r>
       <r>     0.2494    15.6216    12.0083 </r>
       <r>     0.2910    15.7841    12.6645 </r>
       <r>     0.3325    15.9198    13.3263 </r>
       <r>     0.3741    16.2043    13.9999 </r>
       <r>     0.4157    16.5138    14.6863 </r>
       <r>     0.4573    17.5771    15.4170 </r>
       <r>     0.4988    18.4835    16.1854 </r>
       <r>     0.5404    18.4807    16.9536 </r>
       <r>     0.5820    18.9826    17.7427 </r>
       <r>     0.6235    19.8964    18.5698 </r>
       <r>     0.6651    20.3625    19.4163 </r>
       <r>     0.7067    21.0101    20.2897 </r>
       <r>     0.7482    22.4141    21.2214 </r>
       <r>     0.7898    22.4060    22.1528 </r>
       <r>     0.8314    21.8730    23.0621 </r>
       <r>     0.8730    23.3397    24.0323 </r>
       <r>     0.9145    24.5317    25.0521 </r>
       <r>     0.9561    24.2250    26.0591 </r>
       <r>     0.9977    24.8621    27.0926 </r>
       <r>     1.0392    25.9038    28.1694 </r>
       <r>     1.0808    26.0044    29.2504 </r>
       <r>     1.1224    26.0704    30.3342 </r>
       <r>     1.1639    26.8285    31.4494 </r>
       <r>     1.2055    27.7139    32.6015 </r>
       <r>     1.2471    27.3213    33.7372 </r>
       <r>     1.2887    27.4876    34.8799 </r>
       <r>     1.3302    28.5570    36.0670 </r>
       <r>     1.3718    28.6077    37.2562 </r>
       <r>     1.4134    28.3137    38.4332 </r>
       <r>     1.4549    29.3368    39.6527 </r>
       <r>     1.4965    30.8905    40.9368 </r>
       <r>     1.5381    30.0282    42.1851 </r>
       <r>     1.5796    29.5708    43.4143 </r>
       <r>     1.6212    30.0838    44.6649 </r>
       <r>     1.6628    27.7077    45.8167 </r>
       <r>     1.7043    21.2285    46.6992 </r>
       <r>     1.7459    14.0655    47.2839 </r>
       <r>     1.7875     8.3342    47.6303 </r>
       <r>     1.8291     4.8017    47.8299 </r>
       <r>     1.8706     2.5740    47.9369 </r>
       <r>     1.9122     1.0906    47.9823 </r>
       <r>     1.9538     0.3461    47.9967 </r>
       <r>     1.9953     0.0730    47.9997 </r>
       <r>     2.0369     0.0071    48.0000 </r>
       <r>     2.0785     0.0002    48.0000 </r>
       <r>     2.1200     0.0000    48.0000 </r>
       <r>     2.1616     0.0000    48.0000 </r>
       <r>     2.2032     0.0000    48.0000 </r>
       <r>     2.2448     0.0000    48.0000 </r>
       <r>     2.2863     0.0000    48.0000 </r>
       <r>     2.3279     0.0000    48.0000 </r>
       <r>     2.3695     0.0000    48.0000 </r>
       <r>     2.4110     0.0000    48.0000 </r>
       <r>     2.4526     0.0000    48.0000 </r>
       <r>     2.4942     0.0000    48.0000 </r>
      </set>
     </set>
    </array>
   </total>
  </dos>
 </calculation>
 <structure name="finalpos" >
  <crystal>
   <varray name="basis" >
    <v>      14.99850000       0.00000000       0.00000000 </v>
    <v>       0.00000000      12.49875000       0.00000000 </v>
    <v>       0.00000000       0.00000000      17.99820000 </v>
   </varray>
   <i name="volume">   3373.98760125 </i>
   <varray name="rec_basis" >
    <v>       0.06667333       0.00000000       0.00000000 </v>
    <v>       0.00000000       0.08000800       0.00000000 </v>
    <v>       0.00000000       0.00000000       0.05556111 </v>
   </varray>
  </crystal>
  <varray name="positions" >
   <v>       0.52123000       0.54500000       0.63796000 </v>
  </varray>
 </structure>
</modeling>
