   1   1   0   0
  0.3367917E+04  0.1498950E-08  0.1249125E-08  0.1798740E-08  0.5000000E-15
  1.000000000000000E-004
  CAR 
 Convergence                             
      2.49665415     -9.97681779  301     -3.60713485      1.00000000
     -9.977  0.0000E+00  0.0000E+00
     -9.935  0.0000E+00  0.0000E+00
     -9.894  0.0000E+00  0.0000E+00
     -9.852  0.0000E+00  0.0000E+00
     -9.811  0.0000E+00  0.0000E+00
     -9.769  0.0000E+00  0.0000E+00
     -9.727  0.0000E+00  0.0000E+00
     -9.686  0.1442E-12  0.5995E-14
     -9.644  0.8158E-09  0.3393E-10
     -9.603  0.1194E-05  0.4969E-07
     -9.561  0.4556E-03  0.1899E-04
     -9.519  0.4602E-01  0.1933E-02
     -9.478  0.1260E+01  0.5431E-01
     -9.436  0.9619E+01  0.4542E+00
     -9.395  0.2109E+02  0.1331E+01
     -9.353  0.1347E+02  0.1891E+01
     -9.312  0.2486E+01  0.1995E+01
     -9.270  0.1290E+00  0.2000E+01
     -9.228  0.1829E-02  0.2000E+01
     -9.187  0.6900E-05  0.2000E+01
     -9.145  0.6811E-08  0.2000E+01
     -9.104  0.1741E-11  0.2000E+01
     -9.062  0.0000E+00  0.2000E+01
     -9.021  0.0000E+00  0.2000E+01
     -8.979  0.0000E+00  0.2000E+01
     -8.937  0.0000E+00  0.2000E+01
     -8.896  0.0000E+00  0.2000E+01
     -8.854  0.0000E+00  0.2000E+01
     -8.813  0.0000E+00  0.2000E+01
     -8.771  0.0000E+00  0.2000E+01
     -8.729  0.0000E+00  0.2000E+01
     -8.688  0.0000E+00  0.2000E+01
     -8.646  0.0000E+00  0.2000E+01
     -8.605  0.0000E+00  0.2000E+01
     -8.563  0.0000E+00  0.2000E+01
     -8.522  0.0000E+00  0.2000E+01
     -8.480  0.0000E+00  0.2000E+01
     -8.438  0.0000E+00  0.2000E+01
     -8.397  0.0000E+00  0.2000E+01
     -8.355  0.0000E+00  0.2000E+01
     -8.314  0.0000E+00  0.2000E+01
     -8.272  0.0000E+00  0.2000E+01
     -8.231  0.0000E+00  0.2000E+01
     -8.189  0.0000E+00  0.2000E+01
     -8.147  0.0000E+00  0.2000E+01
     -8.106  0.0000E+00  0.2000E+01
     -8.064  0.0000E+00  0.2000E+01
     -8.023  0.0000E+00  0.2000E+01
     -7.981  0.0000E+00  0.2000E+01
     -7.939  0.0000E+00  0.2000E+01
     -7.898  0.0000E+00  0.2000E+01
     -7.856  0.0000E+00  0.2000E+01
     -7.815  0.0000E+00  0.2000E+01
     -7.773  0.0000E+00  0.2000E+01
     -7.732  0.0000E+00  0.2000E+01
     -7.690  0.0000E+00  0.2000E+01
     -7.648  0.0000E+00  0.2000E+01
     -7.607  0.0000E+00  0.2000E+01
     -7.565  0.0000E+00  0.2000E+01
     -7.524  0.0000E+00  0.2000E+01
     -7.482  0.0000E+00  0.2000E+01
     -7.441  0.0000E+00  0.2000E+01
     -7.399  0.0000E+00  0.2000E+01
     -7.357  0.0000E+00  0.2000E+01
     -7.316  0.0000E+00  0.2000E+01
     -7.274  0.0000E+00  0.2000E+01
     -7.233  0.0000E+00  0.2000E+01
     -7.191  0.0000E+00  0.2000E+01
     -7.149  0.0000E+00  0.2000E+01
     -7.108  0.0000E+00  0.2000E+01
     -7.066  0.0000E+00  0.2000E+01
     -7.025  0.0000E+00  0.2000E+01
     -6.983  0.0000E+00  0.2000E+01
     -6.942  0.0000E+00  0.2000E+01
     -6.900  0.0000E+00  0.2000E+01
     -6.858  0.0000E+00  0.2000E+01
     -6.817  0.0000E+00  0.2000E+01
     -6.775  0.0000E+00  0.2000E+01
     -6.734  0.0000E+00  0.2000E+01
     -6.692  0.0000E+00  0.2000E+01
     -6.651  0.0000E+00  0.2000E+01
     -6.609  0.0000E+00  0.2000E+01
     -6.567  0.0000E+00  0.2000E+01
     -6.526  0.0000E+00  0.2000E+01
     -6.484  0.0000E+00  0.2000E+01
     -6.443  0.0000E+00  0.2000E+01
     -6.401  0.0000E+00  0.2000E+01
     -6.360  0.0000E+00  0.2000E+01
     -6.318  0.0000E+00  0.2000E+01
     -6.276  0.0000E+00  0.2000E+01
     -6.235  0.0000E+00  0.2000E+01
     -6.193  0.0000E+00  0.2000E+01
     -6.152  0.0000E+00  0.2000E+01
     -6.110  0.0000E+00  0.2000E+01
     -6.068  0.0000E+00  0.2000E+01
     -6.027  0.0000E+00  0.2000E+01
     -5.985  0.0000E+00  0.2000E+01
     -5.944  0.0000E+00  0.2000E+01
     -5.902  0.0000E+00  0.2000E+01
     -5.861  0.0000E+00  0.2000E+01
     -5.819  0.0000E+00  0.2000E+01
     -5.777  0.0000E+00  0.2000E+01
     -5.736  0.0000E+00  0.2000E+01
     -5.694  0.0000E+00  0.2000E+01
     -5.653  0.0000E+00  0.2000E+01
     -5.611  0.0000E+00  0.2000E+01
     -5.570  0.0000E+00  0.2000E+01
     -5.528  0.0000E+00  0.2000E+01
     -5.486  0.0000E+00  0.2000E+01
     -5.445  0.0000E+00  0.2000E+01
     -5.403  0.0000E+00  0.2000E+01
     -5.362  0.0000E+00  0.2000E+01
     -5.320  0.0000E+00  0.2000E+01
     -5.278  0.0000E+00  0.2000E+01
     -5.237  0.0000E+00  0.2000E+01
     -5.195  0.0000E+00  0.2000E+01
     -5.154  0.0000E+00  0.2000E+01
     -5.112  0.0000E+00  0.2000E+01
     -5.071  0.0000E+00  0.2000E+01
     -5.029  0.0000E+00  0.2000E+01
     -4.987  0.0000E+00  0.2000E+01
     -4.946  0.0000E+00  0.2000E+01
     -4.904  0.0000E+00  0.2000E+01
     -4.863  0.0000E+00  0.2000E+01
     -4.821  0.0000E+00  0.2000E+01
     -4.780  0.0000E+00  0.2000E+01
     -4.738  0.0000E+00  0.2000E+01
     -4.696  0.0000E+00  0.2000E+01
     -4.655  0.0000E+00  0.2000E+01
     -4.613  0.0000E+00  0.2000E+01
     -4.572  0.0000E+00  0.2000E+01
     -4.530  0.0000E+00  0.2000E+01
     -4.488  0.0000E+00  0.2000E+01
     -4.447  0.0000E+00  0.2000E+01
     -4.405  0.0000E+00  0.2000E+01
     -4.364  0.0000E+00  0.2000E+01
     -4.322  0.0000E+00  0.2000E+01
     -4.281  0.0000E+00  0.2000E+01
     -4.239  0.0000E+00  0.2000E+01
     -4.197  0.0000E+00  0.2000E+01
     -4.156  0.0000E+00  0.2000E+01
     -4.114  0.0000E+00  0.2000E+01
     -4.073  0.0000E+00  0.2000E+01
     -4.031  0.0000E+00  0.2000E+01
     -3.990  0.0000E+00  0.2000E+01
     -3.948  0.0000E+00  0.2000E+01
     -3.906  0.0000E+00  0.2000E+01
     -3.865  0.8011E-14  0.2000E+01
     -3.823  0.1042E-09  0.2000E+01
     -3.782  0.2563E-06  0.2000E+01
     -3.740  0.1636E-03  0.2000E+01
     -3.699  0.2745E-01  0.2001E+01
     -3.657  0.1236E+01  0.2053E+01
     -3.615  0.1535E+02  0.2691E+01
     -3.574  0.5418E+02  0.4943E+01
     -3.532  0.5554E+02  0.7252E+01
     -3.491  0.1654E+02  0.7940E+01
     -3.449  0.1402E+01  0.7999E+01
     -3.407  0.3282E-01  0.8000E+01
     -3.366  0.2063E-03  0.8000E+01
     -3.324  0.3412E-06  0.8000E+01
     -3.283  0.1465E-09  0.8000E+01
     -3.241  0.1602E-13  0.8000E+01
     -3.200  0.0000E+00  0.8000E+01
     -3.158  0.0000E+00  0.8000E+01
     -3.116  0.0000E+00  0.8000E+01
     -3.075  0.0000E+00  0.8000E+01
     -3.033  0.0000E+00  0.8000E+01
     -2.992  0.0000E+00  0.8000E+01
     -2.950  0.0000E+00  0.8000E+01
     -2.909  0.0000E+00  0.8000E+01
     -2.867  0.0000E+00  0.8000E+01
     -2.825  0.0000E+00  0.8000E+01
     -2.784  0.0000E+00  0.8000E+01
     -2.742  0.0000E+00  0.8000E+01
     -2.701  0.0000E+00  0.8000E+01
     -2.659  0.0000E+00  0.8000E+01
     -2.617  0.0000E+00  0.8000E+01
     -2.576  0.0000E+00  0.8000E+01
     -2.534  0.0000E+00  0.8000E+01
     -2.493  0.0000E+00  0.8000E+01
     -2.451  0.0000E+00  0.8000E+01
     -2.410  0.0000E+00  0.8000E+01
     -2.368  0.0000E+00  0.8000E+01
     -2.326  0.0000E+00  0.8000E+01
     -2.285  0.0000E+00  0.8000E+01
     -2.243  0.0000E+00  0.8000E+01
     -2.202  0.0000E+00  0.8000E+01
     -2.160  0.0000E+00  0.8000E+01
     -2.119  0.0000E+00  0.8000E+01
     -2.077  0.0000E+00  0.8000E+01
     -2.035  0.0000E+00  0.8000E+01
     -1.994  0.0000E+00  0.8000E+01
     -1.952  0.0000E+00  0.8000E+01
     -1.911  0.0000E+00  0.8000E+01
     -1.869  0.0000E+00  0.8000E+01
     -1.827  0.0000E+00  0.8000E+01
     -1.786  0.0000E+00  0.8000E+01
     -1.744  0.0000E+00  0.8000E+01
     -1.703  0.0000E+00  0.8000E+01
     -1.661  0.0000E+00  0.8000E+01
     -1.620  0.0000E+00  0.8000E+01
     -1.578  0.0000E+00  0.8000E+01
     -1.536  0.0000E+00  0.8000E+01
     -1.495  0.0000E+00  0.8000E+01
     -1.453  0.0000E+00  0.8000E+01
     -1.412  0.0000E+00  0.8000E+01
     -1.370  0.0000E+00  0.8000E+01
     -1.329  0.0000E+00  0.8000E+01
     -1.287  0.0000E+00  0.8000E+01
     -1.245  0.0000E+00  0.8000E+01
     -1.204  0.0000E+00  0.8000E+01
     -1.162  0.0000E+00  0.8000E+01
     -1.121  0.0000E+00  0.8000E+01
     -1.079  0.0000E+00  0.8000E+01
     -1.037  0.0000E+00  0.8000E+01
     -0.996  0.0000E+00  0.8000E+01
     -0.954  0.0000E+00  0.8000E+01
     -0.913  0.0000E+00  0.8000E+01
     -0.871  0.0000E+00  0.8000E+01
     -0.830  0.0000E+00  0.8000E+01
     -0.788  0.0000E+00  0.8000E+01
     -0.746  0.0000E+00  0.8000E+01
     -0.705  0.0000E+00  0.8000E+01
     -0.663  0.0000E+00  0.8000E+01
     -0.622  0.0000E+00  0.8000E+01
     -0.580  0.0000E+00  0.8000E+01
     -0.539  0.1068E-14  0.8000E+01
     -0.497  0.7361E-11  0.8000E+01
     -0.455  0.1337E-07  0.8000E+01
     -0.414  0.6693E-05  0.8000E+01
     -0.372  0.9602E-03  0.8000E+01
     -0.331  0.4183E-01  0.8002E+01
     -0.289  0.6033E+00  0.8027E+01
     -0.248  0.3267E+01  0.8163E+01
     -0.206  0.7934E+01  0.8493E+01
     -0.164  0.1075E+02  0.8939E+01
     -0.123  0.1032E+02  0.9369E+01
     -0.081  0.8351E+01  0.9716E+01
     -0.040  0.4957E+01  0.9922E+01
      0.002  0.1667E+01  0.9991E+01
      0.044  0.6779E+00  0.1002E+02
      0.085  0.2229E+01  0.1011E+02
      0.127  0.5963E+01  0.1036E+02
      0.168  0.1057E+02  0.1080E+02
      0.210  0.1410E+02  0.1139E+02
      0.251  0.1563E+02  0.1204E+02
      0.293  0.1576E+02  0.1269E+02
      0.335  0.1591E+02  0.1335E+02
      0.376  0.1619E+02  0.1403E+02
      0.418  0.1652E+02  0.1471E+02
      0.459  0.1761E+02  0.1544E+02
      0.501  0.1847E+02  0.1621E+02
      0.542  0.1846E+02  0.1698E+02
      0.584  0.1899E+02  0.1777E+02
      0.626  0.1990E+02  0.1860E+02
      0.667  0.2035E+02  0.1944E+02
      0.709  0.2102E+02  0.2032E+02
      0.750  0.2242E+02  0.2125E+02
      0.792  0.2235E+02  0.2218E+02
      0.834  0.2186E+02  0.2309E+02
      0.875  0.2337E+02  0.2406E+02
      0.917  0.2451E+02  0.2508E+02
      0.958  0.2419E+02  0.2608E+02
      1.000  0.2487E+02  0.2712E+02
      1.041  0.2589E+02  0.2819E+02
      1.083  0.2597E+02  0.2927E+02
      1.125  0.2605E+02  0.3036E+02
      1.166  0.2682E+02  0.3147E+02
      1.208  0.2769E+02  0.3262E+02
      1.249  0.2728E+02  0.3376E+02
      1.291  0.2747E+02  0.3490E+02
      1.332  0.2853E+02  0.3609E+02
      1.374  0.2856E+02  0.3727E+02
      1.416  0.2828E+02  0.3845E+02
      1.457  0.2933E+02  0.3967E+02
      1.499  0.3086E+02  0.4095E+02
      1.540  0.2997E+02  0.4220E+02
      1.582  0.2954E+02  0.4343E+02
      1.624  0.3005E+02  0.4468E+02
      1.665  0.2764E+02  0.4583E+02
      1.707  0.2114E+02  0.4671E+02
      1.748  0.1400E+02  0.4729E+02
      1.790  0.8290E+01  0.4763E+02
      1.831  0.4779E+01  0.4783E+02
      1.873  0.2565E+01  0.4794E+02
      1.915  0.1087E+01  0.4798E+02
      1.956  0.3449E+00  0.4800E+02
      1.998  0.7275E-01  0.4800E+02
      2.039  0.7029E-02  0.4800E+02
      2.081  0.2241E-03  0.4800E+02
      2.122  0.2041E-05  0.4800E+02
      2.164  0.5021E-08  0.4800E+02
      2.206  0.3257E-11  0.4800E+02
      2.247  0.5595E-15  0.4800E+02
      2.289  0.0000E+00  0.4800E+02
      2.330  0.0000E+00  0.4800E+02
      2.372  0.0000E+00  0.4800E+02
      2.413  0.0000E+00  0.4800E+02
      2.455  0.0000E+00  0.4800E+02
      2.497  0.0000E+00  0.4800E+02
