<?xml version="1.0" encoding="ISO-8859-1"?>
<modeling>
 <generator>
  <i name="program" type="string">vasp </i>
  <i name="version" type="string">6.4.3  </i>
  <i name="subversion" type="string">19Mar24 (build May 31 2024 16:31:43) complex                          parallel </i>
  <i name="platform" type="string">LinuxIFC </i>
  <i name="date" type="string">2024 11 11 </i>
  <i name="time" type="string">18:52:38 </i>
 </generator>
 <incar>
  <i type="string" name="SYSTEM">Convergence</i>
  <i type="int" name="ISTART">     0</i>
  <i type="string" name="PREC">Accurate</i>
  <i type="string" name="ALGO">Normal</i>
  <i type="int" name="ISPIN">     1</i>
  <i type="int" name="ICHARG">     2</i>
  <i type="int" name="NELM">   100</i>
  <i type="int" name="IBRION">    -1</i>
  <i name="EDIFF">      0.00000100</i>
  <i name="EDIFFG">     -0.00100000</i>
  <i type="int" name="NSW">     0</i>
  <i type="int" name="ISIF">     2</i>
  <i name="ENCUT">    600.00000000</i>
  <i name="POTIM">      0.50000000</i>
  <i type="int" name="ISMEAR">     0</i>
  <i name="SIGMA">      0.05000000</i>
  <i type="logical" name="LWAVE"> F  </i>
  <i type="logical" name="LCHARG"> F  </i>
  <i type="string" name="GGA">PE</i>
 </incar>
 <primitive_cell>
  <structure name="primitive_cell" >
   <crystal>
    <varray name="basis" >
     <v>      14.98950000       0.00000000       0.00000000 </v>
     <v>       0.00000000      12.49125000       0.00000000 </v>
     <v>       0.00000000       0.00000000      17.98740000 </v>
    </varray>
    <i name="volume">   3367.91746009 </i>
    <varray name="rec_basis" >
     <v>       0.06671337       0.00000000       0.00000000 </v>
     <v>       0.00000000       0.08005604       0.00000000 </v>
     <v>       0.00000000       0.00000000       0.05559447 </v>
    </varray>
   </crystal>
   <varray name="positions" >
    <v>       0.52123000       0.54500000       0.63796000 </v>
   </varray>
  </structure>
  <varray name="primitive_index" >
   <v type="int" >        1 </v>
  </varray>
 </primitive_cell>
 <kpoints>
  <generation param="Monkhorst-Pack">
   <v type="int" name="divisions">      10       14        9 </v>
   <v name="usershift">      0.00000000       0.00000000       0.00000000 </v>
   <v name="genvec1">      0.10000000       0.00000000       0.00000000 </v>
   <v name="genvec2">      0.00000000       0.07142857       0.00000000 </v>
   <v name="genvec3">      0.00000000       0.00000000       0.11111111 </v>
   <v name="shift">      0.50000000       0.50000000       0.00000000 </v>
  </generation>
  <varray name="kpointlist" >
   <v>       0.05000000       0.03571429       0.00000000 </v>
   <v>       0.15000000       0.03571429       0.00000000 </v>
   <v>       0.25000000       0.03571429       0.00000000 </v>
   <v>       0.35000000       0.03571429       0.00000000 </v>
   <v>       0.45000000       0.03571429       0.00000000 </v>
   <v>       0.05000000       0.10714286       0.00000000 </v>
   <v>       0.15000000       0.10714286       0.00000000 </v>
   <v>       0.25000000       0.10714286       0.00000000 </v>
   <v>       0.35000000       0.10714286       0.00000000 </v>
   <v>       0.45000000       0.10714286       0.00000000 </v>
   <v>       0.05000000       0.17857143       0.00000000 </v>
   <v>       0.15000000       0.17857143       0.00000000 </v>
   <v>       0.25000000       0.17857143       0.00000000 </v>
   <v>       0.35000000       0.17857143       0.00000000 </v>
   <v>       0.45000000       0.17857143       0.00000000 </v>
   <v>       0.05000000       0.25000000       0.00000000 </v>
   <v>       0.15000000       0.25000000       0.00000000 </v>
   <v>       0.25000000       0.25000000       0.00000000 </v>
   <v>       0.35000000       0.25000000       0.00000000 </v>
   <v>       0.45000000       0.25000000       0.00000000 </v>
   <v>       0.05000000       0.32142857       0.00000000 </v>
   <v>       0.15000000       0.32142857       0.00000000 </v>
   <v>       0.25000000       0.32142857       0.00000000 </v>
   <v>       0.35000000       0.32142857       0.00000000 </v>
   <v>       0.45000000       0.32142857       0.00000000 </v>
   <v>       0.05000000       0.39285714       0.00000000 </v>
   <v>       0.15000000       0.39285714       0.00000000 </v>
   <v>       0.25000000       0.39285714       0.00000000 </v>
   <v>       0.35000000       0.39285714       0.00000000 </v>
   <v>       0.45000000       0.39285714       0.00000000 </v>
   <v>       0.05000000       0.46428571       0.00000000 </v>
   <v>       0.15000000       0.46428571       0.00000000 </v>
   <v>       0.25000000       0.46428571       0.00000000 </v>
   <v>       0.35000000       0.46428571       0.00000000 </v>
   <v>       0.45000000       0.46428571       0.00000000 </v>
   <v>       0.05000000       0.03571429       0.11111111 </v>
   <v>       0.15000000       0.03571429       0.11111111 </v>
   <v>       0.25000000       0.03571429       0.11111111 </v>
   <v>       0.35000000       0.03571429       0.11111111 </v>
   <v>       0.45000000       0.03571429       0.11111111 </v>
   <v>       0.05000000       0.10714286       0.11111111 </v>
   <v>       0.15000000       0.10714286       0.11111111 </v>
   <v>       0.25000000       0.10714286       0.11111111 </v>
   <v>       0.35000000       0.10714286       0.11111111 </v>
   <v>       0.45000000       0.10714286       0.11111111 </v>
   <v>       0.05000000       0.17857143       0.11111111 </v>
   <v>       0.15000000       0.17857143       0.11111111 </v>
   <v>       0.25000000       0.17857143       0.11111111 </v>
   <v>       0.35000000       0.17857143       0.11111111 </v>
   <v>       0.45000000       0.17857143       0.11111111 </v>
   <v>       0.05000000       0.25000000       0.11111111 </v>
   <v>       0.15000000       0.25000000       0.11111111 </v>
   <v>       0.25000000       0.25000000       0.11111111 </v>
   <v>       0.35000000       0.25000000       0.11111111 </v>
   <v>       0.45000000       0.25000000       0.11111111 </v>
   <v>       0.05000000       0.32142857       0.11111111 </v>
   <v>       0.15000000       0.32142857       0.11111111 </v>
   <v>       0.25000000       0.32142857       0.11111111 </v>
   <v>       0.35000000       0.32142857       0.11111111 </v>
   <v>       0.45000000       0.32142857       0.11111111 </v>
   <v>       0.05000000       0.39285714       0.11111111 </v>
   <v>       0.15000000       0.39285714       0.11111111 </v>
   <v>       0.25000000       0.39285714       0.11111111 </v>
   <v>       0.35000000       0.39285714       0.11111111 </v>
   <v>       0.45000000       0.39285714       0.11111111 </v>
   <v>       0.05000000       0.46428571       0.11111111 </v>
   <v>       0.15000000       0.46428571       0.11111111 </v>
   <v>       0.25000000       0.46428571       0.11111111 </v>
   <v>       0.35000000       0.46428571       0.11111111 </v>
   <v>       0.45000000       0.46428571       0.11111111 </v>
   <v>       0.05000000       0.03571429       0.22222222 </v>
   <v>       0.15000000       0.03571429       0.22222222 </v>
   <v>       0.25000000       0.03571429       0.22222222 </v>
   <v>       0.35000000       0.03571429       0.22222222 </v>
   <v>       0.45000000       0.03571429       0.22222222 </v>
   <v>       0.05000000       0.10714286       0.22222222 </v>
   <v>       0.15000000       0.10714286       0.22222222 </v>
   <v>       0.25000000       0.10714286       0.22222222 </v>
   <v>       0.35000000       0.10714286       0.22222222 </v>
   <v>       0.45000000       0.10714286       0.22222222 </v>
   <v>       0.05000000       0.17857143       0.22222222 </v>
   <v>       0.15000000       0.17857143       0.22222222 </v>
   <v>       0.25000000       0.17857143       0.22222222 </v>
   <v>       0.35000000       0.17857143       0.22222222 </v>
   <v>       0.45000000       0.17857143       0.22222222 </v>
   <v>       0.05000000       0.25000000       0.22222222 </v>
   <v>       0.15000000       0.25000000       0.22222222 </v>
   <v>       0.25000000       0.25000000       0.22222222 </v>
   <v>       0.35000000       0.25000000       0.22222222 </v>
   <v>       0.45000000       0.25000000       0.22222222 </v>
   <v>       0.05000000       0.32142857       0.22222222 </v>
   <v>       0.15000000       0.32142857       0.22222222 </v>
   <v>       0.25000000       0.32142857       0.22222222 </v>
   <v>       0.35000000       0.32142857       0.22222222 </v>
   <v>       0.45000000       0.32142857       0.22222222 </v>
   <v>       0.05000000       0.39285714       0.22222222 </v>
   <v>       0.15000000       0.39285714       0.22222222 </v>
   <v>       0.25000000       0.39285714       0.22222222 </v>
   <v>       0.35000000       0.39285714       0.22222222 </v>
   <v>       0.45000000       0.39285714       0.22222222 </v>
   <v>       0.05000000       0.46428571       0.22222222 </v>
   <v>       0.15000000       0.46428571       0.22222222 </v>
   <v>       0.25000000       0.46428571       0.22222222 </v>
   <v>       0.35000000       0.46428571       0.22222222 </v>
   <v>       0.45000000       0.46428571       0.22222222 </v>
   <v>       0.05000000       0.03571429       0.33333333 </v>
   <v>       0.15000000       0.03571429       0.33333333 </v>
   <v>       0.25000000       0.03571429       0.33333333 </v>
   <v>       0.35000000       0.03571429       0.33333333 </v>
   <v>       0.45000000       0.03571429       0.33333333 </v>
   <v>       0.05000000       0.10714286       0.33333333 </v>
   <v>       0.15000000       0.10714286       0.33333333 </v>
   <v>       0.25000000       0.10714286       0.33333333 </v>
   <v>       0.35000000       0.10714286       0.33333333 </v>
   <v>       0.45000000       0.10714286       0.33333333 </v>
   <v>       0.05000000       0.17857143       0.33333333 </v>
   <v>       0.15000000       0.17857143       0.33333333 </v>
   <v>       0.25000000       0.17857143       0.33333333 </v>
   <v>       0.35000000       0.17857143       0.33333333 </v>
   <v>       0.45000000       0.17857143       0.33333333 </v>
   <v>       0.05000000       0.25000000       0.33333333 </v>
   <v>       0.15000000       0.25000000       0.33333333 </v>
   <v>       0.25000000       0.25000000       0.33333333 </v>
   <v>       0.35000000       0.25000000       0.33333333 </v>
   <v>       0.45000000       0.25000000       0.33333333 </v>
   <v>       0.05000000       0.32142857       0.33333333 </v>
   <v>       0.15000000       0.32142857       0.33333333 </v>
   <v>       0.25000000       0.32142857       0.33333333 </v>
   <v>       0.35000000       0.32142857       0.33333333 </v>
   <v>       0.45000000       0.32142857       0.33333333 </v>
   <v>       0.05000000       0.39285714       0.33333333 </v>
   <v>       0.15000000       0.39285714       0.33333333 </v>
   <v>       0.25000000       0.39285714       0.33333333 </v>
   <v>       0.35000000       0.39285714       0.33333333 </v>
   <v>       0.45000000       0.39285714       0.33333333 </v>
   <v>       0.05000000       0.46428571       0.33333333 </v>
   <v>       0.15000000       0.46428571       0.33333333 </v>
   <v>       0.25000000       0.46428571       0.33333333 </v>
   <v>       0.35000000       0.46428571       0.33333333 </v>
   <v>       0.45000000       0.46428571       0.33333333 </v>
   <v>       0.05000000       0.03571429       0.44444444 </v>
   <v>       0.15000000       0.03571429       0.44444444 </v>
   <v>       0.25000000       0.03571429       0.44444444 </v>
   <v>       0.35000000       0.03571429       0.44444444 </v>
   <v>       0.45000000       0.03571429       0.44444444 </v>
   <v>       0.05000000       0.10714286       0.44444444 </v>
   <v>       0.15000000       0.10714286       0.44444444 </v>
   <v>       0.25000000       0.10714286       0.44444444 </v>
   <v>       0.35000000       0.10714286       0.44444444 </v>
   <v>       0.45000000       0.10714286       0.44444444 </v>
   <v>       0.05000000       0.17857143       0.44444444 </v>
   <v>       0.15000000       0.17857143       0.44444444 </v>
   <v>       0.25000000       0.17857143       0.44444444 </v>
   <v>       0.35000000       0.17857143       0.44444444 </v>
   <v>       0.45000000       0.17857143       0.44444444 </v>
   <v>       0.05000000       0.25000000       0.44444444 </v>
   <v>       0.15000000       0.25000000       0.44444444 </v>
   <v>       0.25000000       0.25000000       0.44444444 </v>
   <v>       0.35000000       0.25000000       0.44444444 </v>
   <v>       0.45000000       0.25000000       0.44444444 </v>
   <v>       0.05000000       0.32142857       0.44444444 </v>
   <v>       0.15000000       0.32142857       0.44444444 </v>
   <v>       0.25000000       0.32142857       0.44444444 </v>
   <v>       0.35000000       0.32142857       0.44444444 </v>
   <v>       0.45000000       0.32142857       0.44444444 </v>
   <v>       0.05000000       0.39285714       0.44444444 </v>
   <v>       0.15000000       0.39285714       0.44444444 </v>
   <v>       0.25000000       0.39285714       0.44444444 </v>
   <v>       0.35000000       0.39285714       0.44444444 </v>
   <v>       0.45000000       0.39285714       0.44444444 </v>
   <v>       0.05000000       0.46428571       0.44444444 </v>
   <v>       0.15000000       0.46428571       0.44444444 </v>
   <v>       0.25000000       0.46428571       0.44444444 </v>
   <v>       0.35000000       0.46428571       0.44444444 </v>
   <v>       0.45000000       0.46428571       0.44444444 </v>
  </varray>
  <varray name="weights" >
   <v>       0.00317460 </v>
   <v>       0.00317460 </v>
   <v>       0.00317460 </v>
   <v>       0.00317460 </v>
   <v>       0.00317460 </v>
   <v>       0.00317460 </v>
   <v>       0.00317460 </v>
   <v>       0.00317460 </v>
   <v>       0.00317460 </v>
   <v>       0.00317460 </v>
   <v>       0.00317460 </v>
   <v>       0.00317460 </v>
   <v>       0.00317460 </v>
   <v>       0.00317460 </v>
   <v>       0.00317460 </v>
   <v>       0.00317460 </v>
   <v>       0.00317460 </v>
   <v>       0.00317460 </v>
   <v>       0.00317460 </v>
   <v>       0.00317460 </v>
   <v>       0.00317460 </v>
   <v>       0.00317460 </v>
   <v>       0.00317460 </v>
   <v>       0.00317460 </v>
   <v>       0.00317460 </v>
   <v>       0.00317460 </v>
   <v>       0.00317460 </v>
   <v>       0.00317460 </v>
   <v>       0.00317460 </v>
   <v>       0.00317460 </v>
   <v>       0.00317460 </v>
   <v>       0.00317460 </v>
   <v>       0.00317460 </v>
   <v>       0.00317460 </v>
   <v>       0.00317460 </v>
   <v>       0.00634921 </v>
   <v>       0.00634921 </v>
   <v>       0.00634921 </v>
   <v>       0.00634921 </v>
   <v>       0.00634921 </v>
   <v>       0.00634921 </v>
   <v>       0.00634921 </v>
   <v>       0.00634921 </v>
   <v>       0.00634921 </v>
   <v>       0.00634921 </v>
   <v>       0.00634921 </v>
   <v>       0.00634921 </v>
   <v>       0.00634921 </v>
   <v>       0.00634921 </v>
   <v>       0.00634921 </v>
   <v>       0.00634921 </v>
   <v>       0.00634921 </v>
   <v>       0.00634921 </v>
   <v>       0.00634921 </v>
   <v>       0.00634921 </v>
   <v>       0.00634921 </v>
   <v>       0.00634921 </v>
   <v>       0.00634921 </v>
   <v>       0.00634921 </v>
   <v>       0.00634921 </v>
   <v>       0.00634921 </v>
   <v>       0.00634921 </v>
   <v>       0.00634921 </v>
   <v>       0.00634921 </v>
   <v>       0.00634921 </v>
   <v>       0.00634921 </v>
   <v>       0.00634921 </v>
   <v>       0.00634921 </v>
   <v>       0.00634921 </v>
   <v>       0.00634921 </v>
   <v>       0.00634921 </v>
   <v>       0.00634921 </v>
   <v>       0.00634921 </v>
   <v>       0.00634921 </v>
   <v>       0.00634921 </v>
   <v>       0.00634921 </v>
   <v>       0.00634921 </v>
   <v>       0.00634921 </v>
   <v>       0.00634921 </v>
   <v>       0.00634921 </v>
   <v>       0.00634921 </v>
   <v>       0.00634921 </v>
   <v>       0.00634921 </v>
   <v>       0.00634921 </v>
   <v>       0.00634921 </v>
   <v>       0.00634921 </v>
   <v>       0.00634921 </v>
   <v>       0.00634921 </v>
   <v>       0.00634921 </v>
   <v>       0.00634921 </v>
   <v>       0.00634921 </v>
   <v>       0.00634921 </v>
   <v>       0.00634921 </v>
   <v>       0.00634921 </v>
   <v>       0.00634921 </v>
   <v>       0.00634921 </v>
   <v>       0.00634921 </v>
   <v>       0.00634921 </v>
   <v>       0.00634921 </v>
   <v>       0.00634921 </v>
   <v>       0.00634921 </v>
   <v>       0.00634921 </v>
   <v>       0.00634921 </v>
   <v>       0.00634921 </v>
   <v>       0.00634921 </v>
   <v>       0.00634921 </v>
   <v>       0.00634921 </v>
   <v>       0.00634921 </v>
   <v>       0.00634921 </v>
   <v>       0.00634921 </v>
   <v>       0.00634921 </v>
   <v>       0.00634921 </v>
   <v>       0.00634921 </v>
   <v>       0.00634921 </v>
   <v>       0.00634921 </v>
   <v>       0.00634921 </v>
   <v>       0.00634921 </v>
   <v>       0.00634921 </v>
   <v>       0.00634921 </v>
   <v>       0.00634921 </v>
   <v>       0.00634921 </v>
   <v>       0.00634921 </v>
   <v>       0.00634921 </v>
   <v>       0.00634921 </v>
   <v>       0.00634921 </v>
   <v>       0.00634921 </v>
   <v>       0.00634921 </v>
   <v>       0.00634921 </v>
   <v>       0.00634921 </v>
   <v>       0.00634921 </v>
   <v>       0.00634921 </v>
   <v>       0.00634921 </v>
   <v>       0.00634921 </v>
   <v>       0.00634921 </v>
   <v>       0.00634921 </v>
   <v>       0.00634921 </v>
   <v>       0.00634921 </v>
   <v>       0.00634921 </v>
   <v>       0.00634921 </v>
   <v>       0.00634921 </v>
   <v>       0.00634921 </v>
   <v>       0.00634921 </v>
   <v>       0.00634921 </v>
   <v>       0.00634921 </v>
   <v>       0.00634921 </v>
   <v>       0.00634921 </v>
   <v>       0.00634921 </v>
   <v>       0.00634921 </v>
   <v>       0.00634921 </v>
   <v>       0.00634921 </v>
   <v>       0.00634921 </v>
   <v>       0.00634921 </v>
   <v>       0.00634921 </v>
   <v>       0.00634921 </v>
   <v>       0.00634921 </v>
   <v>       0.00634921 </v>
   <v>       0.00634921 </v>
   <v>       0.00634921 </v>
   <v>       0.00634921 </v>
   <v>       0.00634921 </v>
   <v>       0.00634921 </v>
   <v>       0.00634921 </v>
   <v>       0.00634921 </v>
   <v>       0.00634921 </v>
   <v>       0.00634921 </v>
   <v>       0.00634921 </v>
   <v>       0.00634921 </v>
   <v>       0.00634921 </v>
   <v>       0.00634921 </v>
   <v>       0.00634921 </v>
   <v>       0.00634921 </v>
   <v>       0.00634921 </v>
   <v>       0.00634921 </v>
   <v>       0.00634921 </v>
   <v>       0.00634921 </v>
  </varray>
 </kpoints>
 <parameters>
  <separator name="general" >
   <i type="string" name="SYSTEM">Convergence</i>
   <i type="logical" name="LCOMPAT"> F  </i>
  </separator>
  <separator name="electronic" >
   <i type="string" name="PREC">accura</i>
   <i name="ENMAX">    600.00000000</i>
   <i name="ENAUG">    535.51400000</i>
   <i name="EDIFF">      0.00000100</i>
   <i type="int" name="IALGO">    38</i>
   <i type="int" name="IWAVPR">    10</i>
   <i type="int" name="NBANDS">    24</i>
   <i type="int" name="NBANDSLOW">    -1</i>
   <i type="int" name="NBANDSHIGH">    -1</i>
   <i name="NELECT">      3.00000000</i>
   <i type="int" name="TURBO">     0</i>
   <i type="int" name="IRESTART">     0</i>
   <i type="int" name="NREBOOT">     0</i>
   <i type="int" name="NMIN">     0</i>
   <i name="EREF">      0.00000000</i>
   <separator name="electronic smearing" >
    <i type="int" name="ISMEAR">     0</i>
    <i name="SIGMA">      0.05000000</i>
    <i name="KSPACING">      0.50000000</i>
    <i type="logical" name="KGAMMA"> T  </i>
    <i type="logical" name="KBLOWUP"> T  </i>
   </separator>
   <separator name="electronic projectors" >
    <i type="logical" name="LREAL"> F  </i>
    <v name="ROPT">      0.00000000</v>
    <i type="int" name="LMAXPAW">  -100</i>
    <i type="int" name="LMAXMIX">     2</i>
    <i type="logical" name="NLSPLINE"> F  </i>
   </separator>
   <separator name="electronic startup" >
    <i type="int" name="ISTART">     0</i>
    <i type="int" name="ICHARG">     2</i>
    <i type="int" name="INIWAV">     1</i>
   </separator>
   <separator name="electronic spin" >
    <i type="int" name="ISPIN">     1</i>
    <i type="logical" name="LNONCOLLINEAR"> F  </i>
    <v name="MAGMOM">      1.00000000</v>
    <i name="NUPDOWN">     -1.00000000</i>
    <i type="logical" name="LSORBIT"> F  </i>
    <v name="SAXIS">      0.00000000      0.00000000      1.00000000</v>
    <i type="logical" name="LSPIRAL"> F  </i>
    <v name="QSPIRAL">      0.00000000      0.00000000      0.00000000</v>
    <i type="logical" name="LZEROZ"> F  </i>
   </separator>
   <separator name="electronic exchange-correlation" >
    <i type="logical" name="LASPH"> F  </i>
   </separator>
   <separator name="electronic convergence" >
    <i type="int" name="NELM">   100</i>
    <i type="int" name="NELMDL">    -5</i>
    <i type="int" name="NELMIN">     2</i>
    <i name="ENINI">    600.00000000</i>
    <separator name="electronic convergence detail" >
     <i type="logical" name="LDIAG"> T  </i>
     <i type="logical" name="LSUBROT"> F  </i>
     <i name="WEIMIN">      0.00000000</i>
     <i name="EBREAK">      0.00000001</i>
     <i name="DEPER">      0.30000000</i>
     <i type="int" name="NRMM">     4</i>
     <i name="TIME">      0.40000000</i>
    </separator>
   </separator>
   <separator name="electronic mixer" >
    <i name="AMIX">      0.40000000</i>
    <i name="BMIX">      1.00000000</i>
    <i name="AMIN">      0.10000000</i>
    <i name="AMIX_MAG">      1.60000000</i>
    <i name="BMIX_MAG">      1.00000000</i>
    <separator name="electronic mixer details" >
     <i type="int" name="IMIX">     4</i>
     <i type="logical" name="MIXFIRST"> F  </i>
     <i type="int" name="MAXMIX">   -45</i>
     <i name="WC">    100.00000000</i>
     <i type="int" name="INIMIX">     1</i>
     <i type="int" name="MIXPRE">     1</i>
     <i type="int" name="MREMOVE">     5</i>
    </separator>
   </separator>
   <separator name="electronic dipolcorrection" >
    <i type="logical" name="LDIPOL"> F  </i>
    <i type="logical" name="LMONO"> F  </i>
    <i type="int" name="IDIPOL">     0</i>
    <i name="EPSILON">      1.00000000</i>
    <v name="DIPOL">   -100.00000000   -100.00000000   -100.00000000</v>
    <i name="EFIELD">      0.00000000</i>
    <i type="logical" name="LVACPOTAV"> F  </i>
   </separator>
  </separator>
  <separator name="grids" >
   <i type="int" name="NGX">   120</i>
   <i type="int" name="NGY">   100</i>
   <i type="int" name="NGZ">   144</i>
   <i type="int" name="NGXF">   240</i>
   <i type="int" name="NGYF">   200</i>
   <i type="int" name="NGZF">   288</i>
   <i type="logical" name="ADDGRID"> F  </i>
  </separator>
  <separator name="ionic" >
   <i type="int" name="NSW">     0</i>
   <i type="int" name="IBRION">    -1</i>
   <i type="int" name="MDALGO">     0</i>
   <i type="int" name="ISIF">     2</i>
   <i name="PSTRESS">      0.00000000</i>
   <i name="EDIFFG">     -0.00100000</i>
   <i type="int" name="NFREE">     0</i>
   <i name="POTIM">      0.50000000</i>
   <i name="SMASS">     -3.00000000</i>
   <i name="SCALEE">      1.00000000</i>
  </separator>
  <separator name="ionic md" >
   <i name="TEBEG">      0.00010000</i>
   <i name="TEEND">      0.00010000</i>
   <i type="int" name="NBLOCK">     1</i>
   <i type="int" name="KBLOCK">     1</i>
   <i type="int" name="NPACO">   256</i>
   <i name="APACO">     10.00000000</i>
  </separator>
  <separator name="symmetry" >
   <i type="int" name="ISYM">     2</i>
   <i name="SYMPREC">      0.00001000</i>
  </separator>
  <separator name="dos" >
   <i type="int" name="LORBIT">     0</i>
   <v name="RWIGS">     -1.00000000</v>
   <i type="int" name="NEDOS">   301</i>
   <i name="EMIN">     10.00000000</i>
   <i name="EMAX">    -10.00000000</i>
   <i name="EFERMI">      0.00000000</i>
  </separator>
  <separator name="writing" >
   <i type="int" name="NWRITE">     2</i>
   <i type="logical" name="LWAVE"> F  </i>
   <i type="logical" name="LDOWNSAMPLE"> F  </i>
   <i type="logical" name="LCHARG"> F  </i>
   <i type="logical" name="LPARD"> F  </i>
   <i type="logical" name="LVTOT"> F  </i>
   <i type="logical" name="LVHAR"> F  </i>
   <i type="logical" name="LELF"> F  </i>
   <i type="logical" name="LOPTICS"> F  </i>
   <v name="STM">      0.00000000      0.00000000      0.00000000      0.00000000      0.00000000      0.00000000      0.00000000</v>
  </separator>
  <separator name="performance" >
   <i type="int" name="NPAR">    24</i>
   <i type="int" name="NSIM">     4</i>
   <i type="int" name="NBLK">    -1</i>
   <i type="logical" name="LPLANE"> T  </i>
   <i type="logical" name="LSCALAPACK"> T  </i>
   <i type="logical" name="LSCAAWARE"> F  </i>
   <i type="logical" name="LSCALU"> F  </i>
   <i type="logical" name="LASYNC"> F  </i>
   <i type="logical" name="LORBITALREAL"> F  </i>
  </separator>
  <separator name="miscellaneous" >
   <i type="int" name="IDIOT">     3</i>
   <i type="int" name="PHON_NSTRUCT">    -1</i>
   <i type="logical" name="LMUSIC"> F  </i>
   <v name="POMASS">     10.81100000</v>
   <v name="DARWINR">      0.00000000</v>
   <v name="DARWINV">      1.00000000</v>
   <i type="logical" name="LCORR"> T  </i>
  </separator>
  <i type="logical" name="GGA_COMPAT"> T  </i>
  <i type="logical" name="LBERRY"> F  </i>
  <i type="int" name="ICORELEVEL">     0</i>
  <i type="logical" name="LDAU"> F  </i>
  <i type="int" name="I_CONSTRAINED_M">     0</i>
  <separator name="electronic exchange-correlation" >
   <i type="string" name="GGA    ">PE</i>
   <i type="string" name="XC_C">1</i>
   <i type="int" name="VOSKOWN">     0</i>
   <i type="logical" name="LHFCALC"> F  </i>
   <i type="string" name="PRECFOCK"></i>
   <i type="logical" name="LSYMGRAD"> F  </i>
   <i type="logical" name="LHFONE"> F  </i>
   <i type="logical" name="LRHFCALC"> F  </i>
   <i type="logical" name="LTHOMAS"> F  </i>
   <i type="logical" name="LMODELHF"> F  </i>
   <i type="logical" name="LFOCKACE"> F  </i>
   <i name="ENCUT4O">     -1.00000000</i>
   <i type="int" name="EXXOEP">     0</i>
   <i type="int" name="FOURORBIT">     0</i>
   <i name="AEXX">      0.00000000</i>
   <i name="HFALPHA">      0.00000000</i>
   <i name="MCALPHA">      0.00000000</i>
   <i name="ALDAX">      1.00000000</i>
   <i name="AGGAX">      1.00000000</i>
   <i name="AMGGAX">      1.00000000</i>
   <i name="ALDAC">      1.00000000</i>
   <i name="AGGAC">      1.00000000</i>
   <i name="AMGGAC">      1.00000000</i>
   <i type="int" name="NKREDX">     1</i>
   <i type="int" name="NKREDY">     1</i>
   <i type="int" name="NKREDZ">     1</i>
   <i type="logical" name="SHIFTRED"> F  </i>
   <i type="logical" name="ODDONLY"> F  </i>
   <i type="logical" name="EVENONLY"> F  </i>
   <i type="int" name="LMAXFOCK">     0</i>
   <i type="int" name="NMAXFOCKAE">     0</i>
   <i type="logical" name="LFOCKAEDFT"> F  </i>
   <i name="HFSCREEN">      0.00000000</i>
   <i name="HFSCREENC">      0.00000000</i>
   <i type="int" name="NBANDSGWLOW">     0</i>
  </separator>
  <separator name="vdW DFT" >
   <i type="logical" name="LUSE_VDW"> F  </i>
   <i type="int" name="IVDW_NL">    -1</i>
   <i type="logical" name="LSPIN_VDW"> F  </i>
   <i name="ZAB_VDW">     -0.84910000</i>
   <i name="GAMMA_VDW">      1.39626340</i>
   <i name="ALPHA_VDW">      0.00000000</i>
   <i name="PARAM1">      0.12340000</i>
   <i name="PARAM2">      1.00000000</i>
   <i name="BPARAM">      6.30000000</i>
   <i name="CPARAM">      0.00930000</i>
  </separator>
  <separator name="model GW" >
   <i type="int" name="MODEL_GW">     0</i>
   <i name="MODEL_EPS0">   2020.75047606</i>
   <i name="MODEL_ALPHA">      1.00000000</i>
  </separator>
  <separator name="linear response parameters" >
   <i type="logical" name="LEPSILON"> F  </i>
   <i type="logical" name="LRPA"> F  </i>
   <i type="logical" name="LNABLA"> F  </i>
   <i type="logical" name="LVEL"> F  </i>
   <i name="CSHIFT">      0.10000000</i>
   <i name="OMEGAMAX">     -1.00000000</i>
   <i name="DEG_THRESHOLD">      0.00200000</i>
   <i name="RTIME">     -0.10000000</i>
   <i name="WPLASMAI">      0.00000000</i>
   <v name="DFIELD">      0.00000000      0.00000000      0.00000000</v>
   <v name="WPLASMA">      0.00000000      0.00000000      0.00000000      0.00000000      0.00000000      0.00000000      0.00000000      0.00000000      0.00000000</v>
  </separator>
  <separator name="orbital magnetization" >
   <i type="logical" name="NUCIND"> F  </i>
   <v name="MAGPOS">      0.00000000      0.00000000      0.00000000</v>
   <i type="logical" name="LNICSALL"> T  </i>
   <i type="logical" name="ORBITALMAG"> F  </i>
   <i type="logical" name="LMAGBLOCH"> F  </i>
   <i type="logical" name="LCHIMAG"> F  </i>
   <i type="logical" name="LGAUGE"> T  </i>
   <i type="int" name="MAGATOM">     0</i>
   <v name="MAGDIPOL">      0.00000000      0.00000000      0.00000000</v>
   <v name="AVECCONST">      0.00000000      0.00000000      0.00000000</v>
  </separator>
  <separator name="response functions" >
   <i type="logical" name="LALL_IN_ONE"> F  </i>
   <i type="int" name="IALL_IN_ONE">    -1</i>
   <i type="int" name="NBANDS_WAVE">    -1</i>
   <i type="logical" name="LFINITE_TEMPERATURE"> F  </i>
   <i type="logical" name="LADDER"> F  </i>
   <i type="logical" name="LRPAFORCE"> F  </i>
   <i type="logical" name="LFXC"> F  </i>
   <i type="logical" name="LHARTREE"> T  </i>
   <i type="int" name="IBSE">     0</i>
   <v type="int" name="KPOINT">    -1     0     0     0</v>
   <i type="logical" name="LTCTC"> F  </i>
   <i type="logical" name="LTCTE"> F  </i>
   <i type="logical" name="LTETE"> F  </i>
   <i type="logical" name="LTRIPLET"> F  </i>
   <i type="logical" name="LFXCEPS"> F  </i>
   <i type="logical" name="LFXHEG"> F  </i>
   <i type="int" name="NATURALO">     2</i>
   <i type="logical" name="LHOLEGF"> F  </i>
   <i type="logical" name="L2ORDER"> F  </i>
   <i type="logical" name="LDMP1"> F  </i>
   <i type="logical" name="LMP2LT"> F  </i>
   <i type="logical" name="LSMP2LT"> F  </i>
   <i type="logical" name="LGWLF"> F  </i>
   <i name="ENCUTGW">     -1.60000002</i>
   <i name="ENCUTGWSOFT">     -1.60000002</i>
   <i name="ENCUTLF">     -1.00000000</i>
   <i type="logical" name="ESF_SPLINES"> F  </i>
   <i name="ESF_CONV">      0.01000000</i>
   <i type="int" name="ESF_NINTER">    15</i>
   <i type="int" name="LMAXMP2">    -1</i>
   <i name="SCISSOR">      0.00000000</i>
   <i type="int" name="NOMEGA">     0</i>
   <i type="int" name="NOMEGAR">     0</i>
   <i type="int" name="NBANDSGW">    -1</i>
   <i type="int" name="NBANDSO">    -1</i>
   <i type="int" name="NBANDSV">    -1</i>
   <i type="int" name="NELMGW">     1</i>
   <i type="int" name="NELMHF">     1</i>
   <i type="int" name="DIM">     3</i>
   <i type="int" name="IESPILON">     4</i>
   <i type="int" name="ANTIRES">     0</i>
   <i name="OMEGAMAX">    -30.00000000</i>
   <i name="OMEGAMIN">    -30.00000000</i>
   <i name="OMEGATL">   -200.00000000</i>
   <i type="int" name="OMEGAGRID">     0</i>
   <i name="CSHIFT">     -0.10000000</i>
   <i type="logical" name="LSELFENERGY"> F  </i>
   <i type="logical" name="LSPECTRAL"> F  </i>
   <i type="logical" name="LSPECTRALGW"> F  </i>
   <i type="logical" name="LSINGLES"> F  </i>
   <i type="logical" name="LFERMIGW"> F  </i>
   <i type="logical" name="ODDONLYGW"> F  </i>
   <i type="logical" name="EVENONLYGW"> F  </i>
   <i type="int" name="NKREDLFX">     1</i>
   <i type="int" name="NKREDLFY">     1</i>
   <i type="int" name="NKREDLFZ">     1</i>
   <i type="int" name="MAXMEM">  2800</i>
   <i type="int" name="TELESCOPE">     0</i>
   <i type="int" name="NTAUPAR">    -1</i>
   <i type="int" name="NOMEGAPAR">    -1</i>
   <i name="DAMP_NEWTON">      0.80000001</i>
   <i name="LAMBDA">      1.00000000</i>
  </separator>
  <separator name="External order field" >
   <i name="OFIELD_KAPPA">      0.00000000</i>
   <v name="OFIELD_K">      0.00000000      0.00000000      0.00000000</v>
   <i name="OFIELD_Q6_NEAR">      0.00000000</i>
   <i name="OFIELD_Q6_FAR">      0.00000000</i>
   <i name="OFIELD_A">      0.00000000</i>
  </separator>
  <separator name="optional k-points parameters" >
   <i type="int" name="KPOINTS_OPT_MODE">     1</i>
   <i type="logical" name="LKPOINTS_OPT"> F  </i>
  </separator>
 </parameters>
 <atominfo>
  <atoms>       1 </atoms>
  <types>       1 </types>
  <array name="atoms" >
   <dimension dim="1">ion</dimension>
   <field type="string">element</field>
   <field type="int">atomtype</field>
   <set>
    <rc><c>B </c><c>   1</c></rc>
   </set>
  </array>
  <array name="atomtypes" >
   <dimension dim="1">type</dimension>
   <field type="int">atomspertype</field>
   <field type="string">element</field>
   <field>mass</field>
   <field>valence</field>
   <field type="string">pseudopotential</field>
   <set>
    <rc><c>   1</c><c>B </c><c>     10.81100000</c><c>      3.00000000</c><c>  PAW_PBE B 06Sep2000                   </c></rc>
   </set>
  </array>
 </atominfo>
 <structure name="initialpos" >
  <crystal>
   <varray name="basis" >
    <v>      14.98950000       0.00000000       0.00000000 </v>
    <v>       0.00000000      12.49125000       0.00000000 </v>
    <v>       0.00000000       0.00000000      17.98740000 </v>
   </varray>
   <i name="volume">   3367.91746009 </i>
   <varray name="rec_basis" >
    <v>       0.06671337       0.00000000       0.00000000 </v>
    <v>       0.00000000       0.08005604       0.00000000 </v>
    <v>       0.00000000       0.00000000       0.05559447 </v>
   </varray>
  </crystal>
  <varray name="positions" >
   <v>       0.52123000       0.54500000       0.63796000 </v>
  </varray>
 </structure>
 <calculation>
  <scstep>
   <time name="dav">   47.50   48.09</time>
   <time name="total">   47.93   48.53</time>
   <energy>
    <i name="alphaZ">      0.02042660 </i>
    <i name="ewald">    -11.83730275 </i>
    <i name="hartreedc">    -42.57593364 </i>
    <i name="XCdc">      4.75549675 </i>
    <i name="pawpsdc">     43.49986551 </i>
    <i name="pawaedc">    -42.64454556 </i>
    <i name="eentropy">     -0.01155159 </i>
    <i name="bandstr">    -14.40000869 </i>
    <i name="atom">     71.16960075 </i>
    <i name="e_fr_energy">      7.97604738 </i>
    <i name="e_wo_entrp">      7.98759897 </i>
    <i name="e_0_energy">      7.98182317 </i>
   </energy>
  </scstep>
  <scstep>
   <time name="dav">   79.52   80.05</time>
   <time name="total">   79.52   80.05</time>
   <energy>
    <i name="e_fr_energy">      0.10259235 </i>
    <i name="e_wo_entrp">      0.13196564 </i>
    <i name="e_0_energy">      0.11727900 </i>
   </energy>
  </scstep>
  <scstep>
   <time name="dav">   49.88   50.40</time>
   <time name="total">   49.88   50.41</time>
   <energy>
    <i name="e_fr_energy">     -0.05501067 </i>
    <i name="e_wo_entrp">     -0.00213089 </i>
    <i name="e_0_energy">     -0.02857078 </i>
   </energy>
  </scstep>
  <scstep>
   <time name="dav">   53.83   54.38</time>
   <time name="total">   53.84   54.38</time>
   <energy>
    <i name="e_fr_energy">     -0.05821586 </i>
    <i name="e_wo_entrp">     -0.00521454 </i>
    <i name="e_0_energy">     -0.03171520 </i>
   </energy>
  </scstep>
  <scstep>
   <time name="dav">   66.87   67.43</time>
   <time name="total">   70.57   71.15</time>
   <energy>
    <i name="e_fr_energy">     -0.05825222 </i>
    <i name="e_wo_entrp">     -0.00525088 </i>
    <i name="e_0_energy">     -0.03175155 </i>
   </energy>
  </scstep>
  <scstep>
   <time name="dav">   60.23   60.78</time>
   <time name="total">   60.63   61.18</time>
   <energy>
    <i name="alphaZ">      0.02042660 </i>
    <i name="ewald">    -11.83730275 </i>
    <i name="hartreedc">    -42.57613430 </i>
    <i name="XCdc">      4.75548515 </i>
    <i name="pawpsdc">     43.56782645 </i>
    <i name="pawaedc">    -42.71253910 </i>
    <i name="eentropy">     -0.05300134 </i>
    <i name="bandstr">    -22.39261395 </i>
    <i name="atom">     71.16960075 </i>
    <i name="e_fr_energy">     -0.05825250 </i>
    <i name="e_wo_entrp">     -0.00525116 </i>
    <i name="e_0_energy">     -0.03175183 </i>
   </energy>
  </scstep>
  <structure>
   <crystal>
    <varray name="basis" >
     <v>      14.98950000       0.00000000       0.00000000 </v>
     <v>       0.00000000      12.49125000       0.00000000 </v>
     <v>       0.00000000       0.00000000      17.98740000 </v>
    </varray>
    <i name="volume">   3367.91746009 </i>
    <varray name="rec_basis" >
     <v>       0.06671337       0.00000000       0.00000000 </v>
     <v>       0.00000000       0.08005604       0.00000000 </v>
     <v>       0.00000000       0.00000000       0.05559447 </v>
    </varray>
   </crystal>
   <varray name="positions" >
    <v>       0.52123000       0.54500000       0.63796000 </v>
   </varray>
  </structure>
  <varray name="forces" >
   <v>      -0.00000000       0.00000000       0.00000000 </v>
  </varray>
  <varray name="stress" >
   <v>      -0.00046756       0.00000000       0.00000000 </v>
   <v>       0.00000000      -0.00047507       0.00000000 </v>
   <v>       0.00000000       0.00000000      -0.00045291 </v>
  </varray>
  <energy>
   <i name="e_fr_energy">     -0.05825250 </i>
   <i name="e_wo_entrp">     -0.00525116 </i>
   <i name="e_0_energy">     -0.03175183 </i>
  </energy>
  <time name="totalsc">  415.79  419.12</time>
  <eigenvalues>
   <array>
    <dimension dim="1">band</dimension>
    <dimension dim="2">kpoint</dimension>
    <dimension dim="3">spin</dimension>
    <field>eigene</field>
    <field>occ</field>
    <set>
     <set comment="spin 1">
      <set comment="kpoint 1">
       <r>   -9.4098    1.0000 </r>
       <r>   -3.5729    0.1667 </r>
       <r>   -3.5729    0.1667 </r>
       <r>   -3.5728    0.1659 </r>
       <r>   -0.2621    0.0000 </r>
       <r>    0.2950    0.0000 </r>
       <r>    0.3099    0.0000 </r>
       <r>    0.4397    0.0000 </r>
       <r>    0.5742    0.0000 </r>
       <r>    0.6875    0.0000 </r>
       <r>    0.8297    0.0000 </r>
       <r>    0.9116    0.0000 </r>
       <r>    0.9454    0.0000 </r>
       <r>    1.0370    0.0000 </r>
       <r>    1.0803    0.0000 </r>
       <r>    1.1751    0.0000 </r>
       <r>    1.2104    0.0000 </r>
       <r>    1.2908    0.0000 </r>
       <r>    1.3362    0.0000 </r>
       <r>    1.3542    0.0000 </r>
       <r>    1.4297    0.0000 </r>
       <r>    1.5004    0.0000 </r>
       <r>    1.5781    0.0000 </r>
       <r>    1.7103    0.0000 </r>
      </set>
      <set comment="kpoint 2">
       <r>   -9.4098    1.0000 </r>
       <r>   -3.5729    0.1667 </r>
       <r>   -3.5729    0.1667 </r>
       <r>   -3.5728    0.1659 </r>
       <r>   -0.2522    0.0000 </r>
       <r>    0.2695    0.0000 </r>
       <r>    0.3212    0.0000 </r>
       <r>    0.3740    0.0000 </r>
       <r>    0.6902    0.0000 </r>
       <r>    0.7088    0.0000 </r>
       <r>    0.8017    0.0000 </r>
       <r>    0.8315    0.0000 </r>
       <r>    0.8424    0.0000 </r>
       <r>    1.1532    0.0000 </r>
       <r>    1.1664    0.0000 </r>
       <r>    1.1990    0.0000 </r>
       <r>    1.2213    0.0000 </r>
       <r>    1.2586    0.0000 </r>
       <r>    1.3336    0.0000 </r>
       <r>    1.3529    0.0000 </r>
       <r>    1.3897    0.0000 </r>
       <r>    1.5784    0.0000 </r>
       <r>    1.6397    0.0000 </r>
       <r>    1.6899    0.0000 </r>
      </set>
      <set comment="kpoint 3">
       <r>   -9.4098    1.0000 </r>
       <r>   -3.5729    0.1667 </r>
       <r>   -3.5729    0.1667 </r>
       <r>   -3.5728    0.1659 </r>
       <r>   -0.2340    0.0000 </r>
       <r>    0.1994    0.0000 </r>
       <r>    0.3428    0.0000 </r>
       <r>    0.3761    0.0000 </r>
       <r>    0.7046    0.0000 </r>
       <r>    0.7124    0.0000 </r>
       <r>    0.7168    0.0000 </r>
       <r>    0.8556    0.0000 </r>
       <r>    0.8731    0.0000 </r>
       <r>    1.0908    0.0000 </r>
       <r>    1.1949    0.0000 </r>
       <r>    1.2355    0.0000 </r>
       <r>    1.2748    0.0000 </r>
       <r>    1.2970    0.0000 </r>
       <r>    1.3895    0.0000 </r>
       <r>    1.4003    0.0000 </r>
       <r>    1.4080    0.0000 </r>
       <r>    1.5983    0.0000 </r>
       <r>    1.5988    0.0000 </r>
       <r>    1.6514    0.0000 </r>
      </set>
      <set comment="kpoint 4">
       <r>   -9.4098    1.0000 </r>
       <r>   -3.5729    0.1668 </r>
       <r>   -3.5729    0.1667 </r>
       <r>   -3.5728    0.1659 </r>
       <r>   -0.2117    0.0000 </r>
       <r>    0.1314    0.0000 </r>
       <r>    0.3720    0.0000 </r>
       <r>    0.4074    0.0000 </r>
       <r>    0.6249    0.0000 </r>
       <r>    0.6277    0.0000 </r>
       <r>    0.7404    0.0000 </r>
       <r>    0.8884    0.0000 </r>
       <r>    1.0023    0.0000 </r>
       <r>    1.0416    0.0000 </r>
       <r>    1.1683    0.0000 </r>
       <r>    1.2208    0.0000 </r>
       <r>    1.3090    0.0000 </r>
       <r>    1.3644    0.0000 </r>
       <r>    1.4382    0.0000 </r>
       <r>    1.4868    0.0000 </r>
       <r>    1.5075    0.0000 </r>
       <r>    1.5473    0.0000 </r>
       <r>    1.5612    0.0000 </r>
       <r>    1.6070    0.0000 </r>
      </set>
      <set comment="kpoint 5">
       <r>   -9.4098    1.0000 </r>
       <r>   -3.5729    0.1668 </r>
       <r>   -3.5729    0.1667 </r>
       <r>   -3.5728    0.1659 </r>
       <r>   -0.1946    0.0000 </r>
       <r>    0.0901    0.0000 </r>
       <r>    0.3985    0.0000 </r>
       <r>    0.4457    0.0000 </r>
       <r>    0.5619    0.0000 </r>
       <r>    0.5730    0.0000 </r>
       <r>    0.7608    0.0000 </r>
       <r>    0.9133    0.0000 </r>
       <r>    0.9718    0.0000 </r>
       <r>    1.1024    0.0000 </r>
       <r>    1.2133    0.0000 </r>
       <r>    1.2406    0.0000 </r>
       <r>    1.3436    0.0000 </r>
       <r>    1.4055    0.0000 </r>
       <r>    1.4056    0.0000 </r>
       <r>    1.4502    0.0000 </r>
       <r>    1.4551    0.0000 </r>
       <r>    1.5178    0.0000 </r>
       <r>    1.5828    0.0000 </r>
       <r>    1.5854    0.0000 </r>
      </set>
      <set comment="kpoint 6">
       <r>   -9.4098    1.0000 </r>
       <r>   -3.5729    0.1667 </r>
       <r>   -3.5729    0.1666 </r>
       <r>   -3.5728    0.1660 </r>
       <r>   -0.2530    0.0000 </r>
       <r>    0.3031    0.0000 </r>
       <r>    0.3189    0.0000 </r>
       <r>    0.4485    0.0000 </r>
       <r>    0.5626    0.0000 </r>
       <r>    0.5926    0.0000 </r>
       <r>    0.9192    0.0000 </r>
       <r>    0.9475    0.0000 </r>
       <r>    0.9652    0.0000 </r>
       <r>    1.0261    0.0000 </r>
       <r>    1.0861    0.0000 </r>
       <r>    1.0885    0.0000 </r>
       <r>    1.0973    0.0000 </r>
       <r>    1.1904    0.0000 </r>
       <r>    1.3357    0.0000 </r>
       <r>    1.4576    0.0000 </r>
       <r>    1.4952    0.0000 </r>
       <r>    1.5863    0.0000 </r>
       <r>    1.6399    0.0000 </r>
       <r>    1.6815    0.0000 </r>
      </set>
      <set comment="kpoint 7">
       <r>   -9.4098    1.0000 </r>
       <r>   -3.5729    0.1667 </r>
       <r>   -3.5729    0.1667 </r>
       <r>   -3.5728    0.1660 </r>
       <r>   -0.2431    0.0000 </r>
       <r>    0.2780    0.0000 </r>
       <r>    0.3301    0.0000 </r>
       <r>    0.3830    0.0000 </r>
       <r>    0.5795    0.0000 </r>
       <r>    0.7129    0.0000 </r>
       <r>    0.8104    0.0000 </r>
       <r>    0.8415    0.0000 </r>
       <r>    0.9688    0.0000 </r>
       <r>    1.0603    0.0000 </r>
       <r>    1.0629    0.0000 </r>
       <r>    1.1372    0.0000 </r>
       <r>    1.1943    0.0000 </r>
       <r>    1.2359    0.0000 </r>
       <r>    1.4220    0.0000 </r>
       <r>    1.4677    0.0000 </r>
       <r>    1.4723    0.0000 </r>
       <r>    1.5606    0.0000 </r>
       <r>    1.5766    0.0000 </r>
       <r>    1.6071    0.0000 </r>
      </set>
      <set comment="kpoint 8">
       <r>   -9.4098    1.0000 </r>
       <r>   -3.5729    0.1667 </r>
       <r>   -3.5729    0.1667 </r>
       <r>   -3.5728    0.1660 </r>
       <r>   -0.2249    0.0000 </r>
       <r>    0.2085    0.0000 </r>
       <r>    0.3517    0.0000 </r>
       <r>    0.3847    0.0000 </r>
       <r>    0.6001    0.0000 </r>
       <r>    0.7138    0.0000 </r>
       <r>    0.7221    0.0000 </r>
       <r>    0.8751    0.0000 </r>
       <r>    0.9661    0.0000 </r>
       <r>    1.0042    0.0000 </r>
       <r>    1.0860    0.0000 </r>
       <r>    1.1537    0.0000 </r>
       <r>    1.3265    0.0000 </r>
       <r>    1.3518    0.0000 </r>
       <r>    1.3984    0.0000 </r>
       <r>    1.4704    0.0000 </r>
       <r>    1.4997    0.0000 </r>
       <r>    1.5113    0.0000 </r>
       <r>    1.5339    0.0000 </r>
       <r>    1.6340    0.0000 </r>
      </set>
      <set comment="kpoint 9">
       <r>   -9.4098    1.0000 </r>
       <r>   -3.5729    0.1668 </r>
       <r>   -3.5729    0.1667 </r>
       <r>   -3.5728    0.1660 </r>
       <r>   -0.2027    0.0000 </r>
       <r>    0.1407    0.0000 </r>
       <r>    0.3808    0.0000 </r>
       <r>    0.4159    0.0000 </r>
       <r>    0.6261    0.0000 </r>
       <r>    0.6343    0.0000 </r>
       <r>    0.6368    0.0000 </r>
       <r>    0.8949    0.0000 </r>
       <r>    1.0197    0.0000 </r>
       <r>    1.0406    0.0000 </r>
       <r>    1.1135    0.0000 </r>
       <r>    1.1894    0.0000 </r>
       <r>    1.2933    0.0000 </r>
       <r>    1.3702    0.0000 </r>
       <r>    1.4010    0.0000 </r>
       <r>    1.4869    0.0000 </r>
       <r>    1.5475    0.0000 </r>
       <r>    1.5533    0.0000 </r>
       <r>    1.5729    0.0000 </r>
       <r>    1.6427    0.0000 </r>
      </set>
      <set comment="kpoint 10">
       <r>   -9.4098    1.0000 </r>
       <r>   -3.5729    0.1668 </r>
       <r>   -3.5729    0.1667 </r>
       <r>   -3.5728    0.1660 </r>
       <r>   -0.1856    0.0000 </r>
       <r>    0.0995    0.0000 </r>
       <r>    0.4072    0.0000 </r>
       <r>    0.4541    0.0000 </r>
       <r>    0.5706    0.0000 </r>
       <r>    0.5826    0.0000 </r>
       <r>    0.6491    0.0000 </r>
       <r>    0.8510    0.0000 </r>
       <r>    1.0396    0.0000 </r>
       <r>    1.1367    0.0000 </r>
       <r>    1.1923    0.0000 </r>
       <r>    1.2322    0.0000 </r>
       <r>    1.2605    0.0000 </r>
       <r>    1.3330    0.0000 </r>
       <r>    1.3375    0.0000 </r>
       <r>    1.4216    0.0000 </r>
       <r>    1.5271    0.0000 </r>
       <r>    1.6446    0.0000 </r>
       <r>    1.6500    0.0000 </r>
       <r>    1.7086    0.0000 </r>
      </set>
      <set comment="kpoint 11">
       <r>   -9.4098    1.0000 </r>
       <r>   -3.5729    0.1667 </r>
       <r>   -3.5729    0.1666 </r>
       <r>   -3.5729    0.1663 </r>
       <r>   -0.2350    0.0000 </r>
       <r>    0.3161    0.0000 </r>
       <r>    0.3368    0.0000 </r>
       <r>    0.4617    0.0000 </r>
       <r>    0.4683    0.0000 </r>
       <r>    0.6052    0.0000 </r>
       <r>    0.9191    0.0000 </r>
       <r>    0.9561    0.0000 </r>
       <r>    0.9617    0.0000 </r>
       <r>    0.9758    0.0000 </r>
       <r>    1.0737    0.0000 </r>
       <r>    1.0808    0.0000 </r>
       <r>    1.1046    0.0000 </r>
       <r>    1.1365    0.0000 </r>
       <r>    1.2310    0.0000 </r>
       <r>    1.5482    0.0000 </r>
       <r>    1.5771    0.0000 </r>
       <r>    1.6108    0.0000 </r>
       <r>    1.6459    0.0000 </r>
       <r>    1.6625    0.0000 </r>
      </set>
      <set comment="kpoint 12">
       <r>   -9.4098    1.0000 </r>
       <r>   -3.5729    0.1667 </r>
       <r>   -3.5729    0.1667 </r>
       <r>   -3.5729    0.1663 </r>
       <r>   -0.2251    0.0000 </r>
       <r>    0.2932    0.0000 </r>
       <r>    0.3479    0.0000 </r>
       <r>    0.3995    0.0000 </r>
       <r>    0.4742    0.0000 </r>
       <r>    0.7299    0.0000 </r>
       <r>    0.8268    0.0000 </r>
       <r>    0.8580    0.0000 </r>
       <r>    0.9407    0.0000 </r>
       <r>    0.9591    0.0000 </r>
       <r>    1.0193    0.0000 </r>
       <r>    1.1289    0.0000 </r>
       <r>    1.2096    0.0000 </r>
       <r>    1.2548    0.0000 </r>
       <r>    1.3442    0.0000 </r>
       <r>    1.4535    0.0000 </r>
       <r>    1.4819    0.0000 </r>
       <r>    1.6123    0.0000 </r>
       <r>    1.6158    0.0000 </r>
       <r>    1.6766    0.0000 </r>
      </set>
      <set comment="kpoint 13">
       <r>   -9.4098    1.0000 </r>
       <r>   -3.5729    0.1667 </r>
       <r>   -3.5729    0.1667 </r>
       <r>   -3.5729    0.1663 </r>
       <r>   -0.2070    0.0000 </r>
       <r>    0.2261    0.0000 </r>
       <r>    0.3694    0.0000 </r>
       <r>    0.3989    0.0000 </r>
       <r>    0.4949    0.0000 </r>
       <r>    0.7318    0.0000 </r>
       <r>    0.7368    0.0000 </r>
       <r>    0.8583    0.0000 </r>
       <r>    0.9031    0.0000 </r>
       <r>    0.9791    0.0000 </r>
       <r>    1.0278    0.0000 </r>
       <r>    1.1496    0.0000 </r>
       <r>    1.3201    0.0000 </r>
       <r>    1.3477    0.0000 </r>
       <r>    1.3941    0.0000 </r>
       <r>    1.4096    0.0000 </r>
       <r>    1.5028    0.0000 </r>
       <r>    1.5570    0.0000 </r>
       <r>    1.6322    0.0000 </r>
       <r>    1.6928    0.0000 </r>
      </set>
      <set comment="kpoint 14">
       <r>   -9.4098    1.0000 </r>
       <r>   -3.5729    0.1667 </r>
       <r>   -3.5729    0.1667 </r>
       <r>   -3.5729    0.1663 </r>
       <r>   -0.1849    0.0000 </r>
       <r>    0.1591    0.0000 </r>
       <r>    0.3983    0.0000 </r>
       <r>    0.4289    0.0000 </r>
       <r>    0.5223    0.0000 </r>
       <r>    0.6522    0.0000 </r>
       <r>    0.6529    0.0000 </r>
       <r>    0.7880    0.0000 </r>
       <r>    1.0068    0.0000 </r>
       <r>    1.0518    0.0000 </r>
       <r>    1.0654    0.0000 </r>
       <r>    1.1749    0.0000 </r>
       <r>    1.2685    0.0000 </r>
       <r>    1.2749    0.0000 </r>
       <r>    1.4499    0.0000 </r>
       <r>    1.5179    0.0000 </r>
       <r>    1.5817    0.0000 </r>
       <r>    1.6055    0.0000 </r>
       <r>    1.6608    0.0000 </r>
       <r>    1.6840    0.0000 </r>
      </set>
      <set comment="kpoint 15">
       <r>   -9.4098    1.0000 </r>
       <r>   -3.5729    0.1668 </r>
       <r>   -3.5729    0.1667 </r>
       <r>   -3.5729    0.1663 </r>
       <r>   -0.1680    0.0000 </r>
       <r>    0.1183    0.0000 </r>
       <r>    0.4243    0.0000 </r>
       <r>    0.4654    0.0000 </r>
       <r>    0.5470    0.0000 </r>
       <r>    0.5871    0.0000 </r>
       <r>    0.6017    0.0000 </r>
       <r>    0.7406    0.0000 </r>
       <r>    1.0313    0.0000 </r>
       <r>    1.0953    0.0000 </r>
       <r>    1.1906    0.0000 </r>
       <r>    1.1966    0.0000 </r>
       <r>    1.2206    0.0000 </r>
       <r>    1.2513    0.0000 </r>
       <r>    1.3890    0.0000 </r>
       <r>    1.4611    0.0000 </r>
       <r>    1.6372    0.0000 </r>
       <r>    1.6949    0.0000 </r>
       <r>    1.7425    0.0000 </r>
       <r>    1.7675    0.0000 </r>
      </set>
      <set comment="kpoint 16">
       <r>   -9.4098    1.0000 </r>
       <r>   -3.5729    0.1667 </r>
       <r>   -3.5729    0.1667 </r>
       <r>   -3.5729    0.1666 </r>
       <r>   -0.2090    0.0000 </r>
       <r>    0.3080    0.0000 </r>
       <r>    0.3632    0.0000 </r>
       <r>    0.3998    0.0000 </r>
       <r>    0.4925    0.0000 </r>
       <r>    0.6324    0.0000 </r>
       <r>    0.8393    0.0000 </r>
       <r>    0.8593    0.0000 </r>
       <r>    0.9596    0.0000 </r>
       <r>    0.9713    0.0000 </r>
       <r>    1.0218    0.0000 </r>
       <r>    1.1040    0.0000 </r>
       <r>    1.1097    0.0000 </r>
       <r>    1.1523    0.0000 </r>
       <r>    1.2773    0.0000 </r>
       <r>    1.4632    0.0000 </r>
       <r>    1.4855    0.0000 </r>
       <r>    1.5858    0.0000 </r>
       <r>    1.6238    0.0000 </r>
       <r>    1.6966    0.0000 </r>
      </set>
      <set comment="kpoint 17">
       <r>   -9.4098    1.0000 </r>
       <r>   -3.5729    0.1667 </r>
       <r>   -3.5729    0.1667 </r>
       <r>   -3.5729    0.1666 </r>
       <r>   -0.1992    0.0000 </r>
       <r>    0.3012    0.0000 </r>
       <r>    0.3743    0.0000 </r>
       <r>    0.3847    0.0000 </r>
       <r>    0.4358    0.0000 </r>
       <r>    0.7527    0.0000 </r>
       <r>    0.8313    0.0000 </r>
       <r>    0.8340    0.0000 </r>
       <r>    0.8798    0.0000 </r>
       <r>    0.8939    0.0000 </r>
       <r>    0.9221    0.0000 </r>
       <r>    1.2234    0.0000 </r>
       <r>    1.2316    0.0000 </r>
       <r>    1.2807    0.0000 </r>
       <r>    1.2989    0.0000 </r>
       <r>    1.3575    0.0000 </r>
       <r>    1.3890    0.0000 </r>
       <r>    1.6956    0.0000 </r>
       <r>    1.7012    0.0000 </r>
       <r>    1.7491    0.0000 </r>
      </set>
      <set comment="kpoint 18">
       <r>   -9.4098    1.0000 </r>
       <r>   -3.5729    0.1667 </r>
       <r>   -3.5729    0.1667 </r>
       <r>   -3.5729    0.1666 </r>
       <r>   -0.1812    0.0000 </r>
       <r>    0.2502    0.0000 </r>
       <r>    0.3748    0.0000 </r>
       <r>    0.3956    0.0000 </r>
       <r>    0.4500    0.0000 </r>
       <r>    0.7286    0.0000 </r>
       <r>    0.7575    0.0000 </r>
       <r>    0.7968    0.0000 </r>
       <r>    0.8815    0.0000 </r>
       <r>    0.9237    0.0000 </r>
       <r>    0.9277    0.0000 </r>
       <r>    1.2422    0.0000 </r>
       <r>    1.2476    0.0000 </r>
       <r>    1.2927    0.0000 </r>
       <r>    1.3962    0.0000 </r>
       <r>    1.4207    0.0000 </r>
       <r>    1.4466    0.0000 </r>
       <r>    1.6772    0.0000 </r>
       <r>    1.7428    0.0000 </r>
       <r>    1.7434    0.0000 </r>
      </set>
      <set comment="kpoint 19">
       <r>   -9.4098    1.0000 </r>
       <r>   -3.5729    0.1667 </r>
       <r>   -3.5729    0.1667 </r>
       <r>   -3.5729    0.1667 </r>
       <r>   -0.1594    0.0000 </r>
       <r>    0.1863    0.0000 </r>
       <r>    0.3975    0.0000 </r>
       <r>    0.4240    0.0000 </r>
       <r>    0.4826    0.0000 </r>
       <r>    0.6511    0.0000 </r>
       <r>    0.6805    0.0000 </r>
       <r>    0.7147    0.0000 </r>
       <r>    0.9085    0.0000 </r>
       <r>    0.9587    0.0000 </r>
       <r>    1.0818    0.0000 </r>
       <r>    1.1667    0.0000 </r>
       <r>    1.1712    0.0000 </r>
       <r>    1.3219    0.0000 </r>
       <r>    1.5422    0.0000 </r>
       <r>    1.5456    0.0000 </r>
       <r>    1.5850    0.0000 </r>
       <r>    1.6512    0.0000 </r>
       <r>    1.6706    0.0000 </r>
       <r>    1.7702    0.0000 </r>
      </set>
      <set comment="kpoint 20">
       <r>   -9.4098    1.0000 </r>
       <r>   -3.5729    0.1667 </r>
       <r>   -3.5729    0.1667 </r>
       <r>   -3.5729    0.1667 </r>
       <r>   -0.1427    0.0000 </r>
       <r>    0.1462    0.0000 </r>
       <r>    0.4222    0.0000 </r>
       <r>    0.4495    0.0000 </r>
       <r>    0.5194    0.0000 </r>
       <r>    0.5939    0.0000 </r>
       <r>    0.6301    0.0000 </r>
       <r>    0.6581    0.0000 </r>
       <r>    0.9339    0.0000 </r>
       <r>    0.9992    0.0000 </r>
       <r>    1.0979    0.0000 </r>
       <r>    1.1160    0.0000 </r>
       <r>    1.2578    0.0000 </r>
       <r>    1.3435    0.0000 </r>
       <r>    1.4473    0.0000 </r>
       <r>    1.5817    0.0000 </r>
       <r>    1.6892    0.0000 </r>
       <r>    1.7242    0.0000 </r>
       <r>    1.7749    0.0000 </r>
       <r>    1.8042    0.0000 </r>
      </set>
      <set comment="kpoint 21">
       <r>   -9.4098    1.0000 </r>
       <r>   -3.5730    0.1670 </r>
       <r>   -3.5729    0.1666 </r>
       <r>   -3.5729    0.1666 </r>
       <r>   -0.1767    0.0000 </r>
       <r>    0.2434    0.0000 </r>
       <r>    0.3974    0.0000 </r>
       <r>    0.4142    0.0000 </r>
       <r>    0.5261    0.0000 </r>
       <r>    0.6683    0.0000 </r>
       <r>    0.7520    0.0000 </r>
       <r>    0.7633    0.0000 </r>
       <r>    0.8830    0.0000 </r>
       <r>    1.0036    0.0000 </r>
       <r>    1.0245    0.0000 </r>
       <r>    1.0513    0.0000 </r>
       <r>    1.1374    0.0000 </r>
       <r>    1.1823    0.0000 </r>
       <r>    1.3739    0.0000 </r>
       <r>    1.3771    0.0000 </r>
       <r>    1.4386    0.0000 </r>
       <r>    1.4992    0.0000 </r>
       <r>    1.5424    0.0000 </r>
       <r>    1.7335    0.0000 </r>
      </set>
      <set comment="kpoint 22">
       <r>   -9.4098    1.0000 </r>
       <r>   -3.5730    0.1670 </r>
       <r>   -3.5729    0.1666 </r>
       <r>   -3.5729    0.1666 </r>
       <r>   -0.1671    0.0000 </r>
       <r>    0.2523    0.0000 </r>
       <r>    0.3847    0.0000 </r>
       <r>    0.4084    0.0000 </r>
       <r>    0.4693    0.0000 </r>
       <r>    0.7289    0.0000 </r>
       <r>    0.7622    0.0000 </r>
       <r>    0.7966    0.0000 </r>
       <r>    0.8249    0.0000 </r>
       <r>    0.8974    0.0000 </r>
       <r>    0.9358    0.0000 </r>
       <r>    1.1494    0.0000 </r>
       <r>    1.2335    0.0000 </r>
       <r>    1.2760    0.0000 </r>
       <r>    1.2979    0.0000 </r>
       <r>    1.3233    0.0000 </r>
       <r>    1.4527    0.0000 </r>
       <r>    1.6359    0.0000 </r>
       <r>    1.6701    0.0000 </r>
       <r>    1.7409    0.0000 </r>
      </set>
      <set comment="kpoint 23">
       <r>   -9.4098    1.0000 </r>
       <r>   -3.5730    0.1670 </r>
       <r>   -3.5729    0.1666 </r>
       <r>   -3.5729    0.1666 </r>
       <r>   -0.1494    0.0000 </r>
       <r>    0.2588    0.0000 </r>
       <r>    0.3216    0.0000 </r>
       <r>    0.4293    0.0000 </r>
       <r>    0.4800    0.0000 </r>
       <r>    0.6524    0.0000 </r>
       <r>    0.7718    0.0000 </r>
       <r>    0.8140    0.0000 </r>
       <r>    0.8178    0.0000 </r>
       <r>    0.8303    0.0000 </r>
       <r>    0.9606    0.0000 </r>
       <r>    1.1533    0.0000 </r>
       <r>    1.1589    0.0000 </r>
       <r>    1.3113    0.0000 </r>
       <r>    1.4260    0.0000 </r>
       <r>    1.4519    0.0000 </r>
       <r>    1.4992    0.0000 </r>
       <r>    1.7349    0.0000 </r>
       <r>    1.7740    0.0000 </r>
       <r>    1.8227    0.0000 </r>
      </set>
      <set comment="kpoint 24">
       <r>   -9.4098    1.0000 </r>
       <r>   -3.5730    0.1670 </r>
       <r>   -3.5729    0.1667 </r>
       <r>   -3.5729    0.1666 </r>
       <r>   -0.1280    0.0000 </r>
       <r>    0.2199    0.0000 </r>
       <r>    0.3197    0.0000 </r>
       <r>    0.4571    0.0000 </r>
       <r>    0.5129    0.0000 </r>
       <r>    0.5777    0.0000 </r>
       <r>    0.7157    0.0000 </r>
       <r>    0.7333    0.0000 </r>
       <r>    0.8216    0.0000 </r>
       <r>    0.8633    0.0000 </r>
       <r>    1.0651    0.0000 </r>
       <r>    1.0736    0.0000 </r>
       <r>    1.1291    0.0000 </r>
       <r>    1.4405    0.0000 </r>
       <r>    1.5085    0.0000 </r>
       <r>    1.5784    0.0000 </r>
       <r>    1.6390    0.0000 </r>
       <r>    1.6719    0.0000 </r>
       <r>    1.8038    0.0000 </r>
       <r>    1.8357    0.0000 </r>
      </set>
      <set comment="kpoint 25">
       <r>   -9.4098    1.0000 </r>
       <r>   -3.5730    0.1670 </r>
       <r>   -3.5729    0.1667 </r>
       <r>   -3.5729    0.1666 </r>
       <r>   -0.1118    0.0000 </r>
       <r>    0.1829    0.0000 </r>
       <r>    0.3408    0.0000 </r>
       <r>    0.4817    0.0000 </r>
       <r>    0.5261    0.0000 </r>
       <r>    0.5535    0.0000 </r>
       <r>    0.6675    0.0000 </r>
       <r>    0.6683    0.0000 </r>
       <r>    0.8471    0.0000 </r>
       <r>    0.9042    0.0000 </r>
       <r>    1.0041    0.0000 </r>
       <r>    1.0210    0.0000 </r>
       <r>    1.2933    0.0000 </r>
       <r>    1.4566    0.0000 </r>
       <r>    1.5138    0.0000 </r>
       <r>    1.6456    0.0000 </r>
       <r>    1.7235    0.0000 </r>
       <r>    1.7402    0.0000 </r>
       <r>    1.8166    0.0000 </r>
       <r>    1.8367    0.0000 </r>
      </set>
      <set comment="kpoint 26">
       <r>   -9.4098    1.0000 </r>
       <r>   -3.5730    0.1673 </r>
       <r>   -3.5729    0.1666 </r>
       <r>   -3.5729    0.1666 </r>
       <r>   -0.1426    0.0000 </r>
       <r>    0.1761    0.0000 </r>
       <r>    0.4370    0.0000 </r>
       <r>    0.4567    0.0000 </r>
       <r>    0.5644    0.0000 </r>
       <r>    0.6761    0.0000 </r>
       <r>    0.6768    0.0000 </r>
       <r>    0.7111    0.0000 </r>
       <r>    0.8099    0.0000 </r>
       <r>    0.9469    0.0000 </r>
       <r>    1.0417    0.0000 </r>
       <r>    1.0951    0.0000 </r>
       <r>    1.1767    0.0000 </r>
       <r>    1.2290    0.0000 </r>
       <r>    1.2976    0.0000 </r>
       <r>    1.3019    0.0000 </r>
       <r>    1.4233    0.0000 </r>
       <r>    1.4323    0.0000 </r>
       <r>    1.6097    0.0000 </r>
       <r>    1.7787    0.0000 </r>
      </set>
      <set comment="kpoint 27">
       <r>   -9.4098    1.0000 </r>
       <r>   -3.5730    0.1673 </r>
       <r>   -3.5729    0.1666 </r>
       <r>   -3.5729    0.1666 </r>
       <r>   -0.1332    0.0000 </r>
       <r>    0.1872    0.0000 </r>
       <r>    0.4223    0.0000 </r>
       <r>    0.4477    0.0000 </r>
       <r>    0.5124    0.0000 </r>
       <r>    0.6518    0.0000 </r>
       <r>    0.6876    0.0000 </r>
       <r>    0.7386    0.0000 </r>
       <r>    0.8372    0.0000 </r>
       <r>    0.9364    0.0000 </r>
       <r>    0.9829    0.0000 </r>
       <r>    1.0747    0.0000 </r>
       <r>    1.1717    0.0000 </r>
       <r>    1.1924    0.0000 </r>
       <r>    1.3197    0.0000 </r>
       <r>    1.3706    0.0000 </r>
       <r>    1.5562    0.0000 </r>
       <r>    1.5624    0.0000 </r>
       <r>    1.6340    0.0000 </r>
       <r>    1.7841    0.0000 </r>
      </set>
      <set comment="kpoint 28">
       <r>   -9.4098    1.0000 </r>
       <r>   -3.5730    0.1673 </r>
       <r>   -3.5729    0.1666 </r>
       <r>   -3.5729    0.1666 </r>
       <r>   -0.1160    0.0000 </r>
       <r>    0.2080    0.0000 </r>
       <r>    0.3450    0.0000 </r>
       <r>    0.4680    0.0000 </r>
       <r>    0.5240    0.0000 </r>
       <r>    0.5755    0.0000 </r>
       <r>    0.7096    0.0000 </r>
       <r>    0.7451    0.0000 </r>
       <r>    0.8425    0.0000 </r>
       <r>    0.8607    0.0000 </r>
       <r>    0.9997    0.0000 </r>
       <r>    1.0744    0.0000 </r>
       <r>    1.0794    0.0000 </r>
       <r>    1.2386    0.0000 </r>
       <r>    1.4625    0.0000 </r>
       <r>    1.5198    0.0000 </r>
       <r>    1.6179    0.0000 </r>
       <r>    1.7113    0.0000 </r>
       <r>    1.7387    0.0000 </r>
       <r>    1.7840    0.0000 </r>
      </set>
      <set comment="kpoint 29">
       <r>   -9.4098    1.0000 </r>
       <r>   -3.5730    0.1673 </r>
       <r>   -3.5729    0.1667 </r>
       <r>   -3.5729    0.1666 </r>
       <r>   -0.0954    0.0000 </r>
       <r>    0.2322    0.0000 </r>
       <r>    0.2815    0.0000 </r>
       <r>    0.4948    0.0000 </r>
       <r>    0.4978    0.0000 </r>
       <r>    0.5597    0.0000 </r>
       <r>    0.7349    0.0000 </r>
       <r>    0.7712    0.0000 </r>
       <r>    0.7759    0.0000 </r>
       <r>    0.7792    0.0000 </r>
       <r>    0.9860    0.0000 </r>
       <r>    0.9922    0.0000 </r>
       <r>    1.1638    0.0000 </r>
       <r>    1.3966    0.0000 </r>
       <r>    1.6142    0.0000 </r>
       <r>    1.6158    0.0000 </r>
       <r>    1.6852    0.0000 </r>
       <r>    1.7121    0.0000 </r>
       <r>    1.8515    0.0000 </r>
       <r>    1.8857    0.0000 </r>
      </set>
      <set comment="kpoint 30">
       <r>   -9.4098    1.0000 </r>
       <r>   -3.5730    0.1673 </r>
       <r>   -3.5729    0.1667 </r>
       <r>   -3.5729    0.1666 </r>
       <r>   -0.0801    0.0000 </r>
       <r>    0.2262    0.0000 </r>
       <r>    0.2734    0.0000 </r>
       <r>    0.4478    0.0000 </r>
       <r>    0.5178    0.0000 </r>
       <r>    0.5986    0.0000 </r>
       <r>    0.7113    0.0000 </r>
       <r>    0.7122    0.0000 </r>
       <r>    0.7747    0.0000 </r>
       <r>    0.8189    0.0000 </r>
       <r>    0.9198    0.0000 </r>
       <r>    0.9374    0.0000 </r>
       <r>    1.3313    0.0000 </r>
       <r>    1.5028    0.0000 </r>
       <r>    1.5827    0.0000 </r>
       <r>    1.6410    0.0000 </r>
       <r>    1.7536    0.0000 </r>
       <r>    1.7560    0.0000 </r>
       <r>    1.8779    0.0000 </r>
       <r>    1.8828    0.0000 </r>
      </set>
      <set comment="kpoint 31">
       <r>   -9.4098    1.0000 </r>
       <r>   -3.5730    0.1675 </r>
       <r>   -3.5729    0.1666 </r>
       <r>   -3.5729    0.1665 </r>
       <r>   -0.1173    0.0000 </r>
       <r>    0.1331    0.0000 </r>
       <r>    0.4721    0.0000 </r>
       <r>    0.5046    0.0000 </r>
       <r>    0.5969    0.0000 </r>
       <r>    0.6090    0.0000 </r>
       <r>    0.6226    0.0000 </r>
       <r>    0.7474    0.0000 </r>
       <r>    0.7617    0.0000 </r>
       <r>    0.8890    0.0000 </r>
       <r>    1.0740    0.0000 </r>
       <r>    1.1472    0.0000 </r>
       <r>    1.2133    0.0000 </r>
       <r>    1.2299    0.0000 </r>
       <r>    1.2434    0.0000 </r>
       <r>    1.2843    0.0000 </r>
       <r>    1.3632    0.0000 </r>
       <r>    1.3708    0.0000 </r>
       <r>    1.7148    0.0000 </r>
       <r>    1.8563    0.0000 </r>
      </set>
      <set comment="kpoint 32">
       <r>   -9.4098    1.0000 </r>
       <r>   -3.5730    0.1675 </r>
       <r>   -3.5729    0.1666 </r>
       <r>   -3.5729    0.1666 </r>
       <r>   -0.1081    0.0000 </r>
       <r>    0.1448    0.0000 </r>
       <r>    0.4623    0.0000 </r>
       <r>    0.4824    0.0000 </r>
       <r>    0.5558    0.0000 </r>
       <r>    0.5906    0.0000 </r>
       <r>    0.6348    0.0000 </r>
       <r>    0.6780    0.0000 </r>
       <r>    0.8711    0.0000 </r>
       <r>    0.9727    0.0000 </r>
       <r>    1.0212    0.0000 </r>
       <r>    1.0377    0.0000 </r>
       <r>    1.1184    0.0000 </r>
       <r>    1.1189    0.0000 </r>
       <r>    1.3506    0.0000 </r>
       <r>    1.4235    0.0000 </r>
       <r>    1.5033    0.0000 </r>
       <r>    1.5112    0.0000 </r>
       <r>    1.7227    0.0000 </r>
       <r>    1.8566    0.0000 </r>
      </set>
      <set comment="kpoint 33">
       <r>   -9.4098    1.0000 </r>
       <r>   -3.5730    0.1675 </r>
       <r>   -3.5729    0.1666 </r>
       <r>   -3.5729    0.1666 </r>
       <r>   -0.0916    0.0000 </r>
       <r>    0.1675    0.0000 </r>
       <r>    0.3819    0.0000 </r>
       <r>    0.5017    0.0000 </r>
       <r>    0.5155    0.0000 </r>
       <r>    0.5740    0.0000 </r>
       <r>    0.6585    0.0000 </r>
       <r>    0.6776    0.0000 </r>
       <r>    0.8802    0.0000 </r>
       <r>    0.9069    0.0000 </r>
       <r>    1.0006    0.0000 </r>
       <r>    1.0167    0.0000 </r>
       <r>    1.0516    0.0000 </r>
       <r>    1.1825    0.0000 </r>
       <r>    1.4935    0.0000 </r>
       <r>    1.5732    0.0000 </r>
       <r>    1.6522    0.0000 </r>
       <r>    1.6636    0.0000 </r>
       <r>    1.7406    0.0000 </r>
       <r>    1.8310    0.0000 </r>
      </set>
      <set comment="kpoint 34">
       <r>   -9.4098    1.0000 </r>
       <r>   -3.5730    0.1675 </r>
       <r>   -3.5729    0.1666 </r>
       <r>   -3.5729    0.1666 </r>
       <r>   -0.0719    0.0000 </r>
       <r>    0.1988    0.0000 </r>
       <r>    0.3138    0.0000 </r>
       <r>    0.4389    0.0000 </r>
       <r>    0.5267    0.0000 </r>
       <r>    0.6081    0.0000 </r>
       <r>    0.6916    0.0000 </r>
       <r>    0.7094    0.0000 </r>
       <r>    0.8057    0.0000 </r>
       <r>    0.8267    0.0000 </r>
       <r>    0.9174    0.0000 </r>
       <r>    0.9314    0.0000 </r>
       <r>    1.1983    0.0000 </r>
       <r>    1.3464    0.0000 </r>
       <r>    1.6431    0.0000 </r>
       <r>    1.6986    0.0000 </r>
       <r>    1.7120    0.0000 </r>
       <r>    1.7745    0.0000 </r>
       <r>    1.8189    0.0000 </r>
       <r>    1.8293    0.0000 </r>
      </set>
      <set comment="kpoint 35">
       <r>   -9.4098    1.0000 </r>
       <r>   -3.5730    0.1675 </r>
       <r>   -3.5729    0.1667 </r>
       <r>   -3.5729    0.1666 </r>
       <r>   -0.0575    0.0000 </r>
       <r>    0.2294    0.0000 </r>
       <r>    0.2733    0.0000 </r>
       <r>    0.3854    0.0000 </r>
       <r>    0.5476    0.0000 </r>
       <r>    0.6477    0.0000 </r>
       <r>    0.7248    0.0000 </r>
       <r>    0.7499    0.0000 </r>
       <r>    0.7593    0.0000 </r>
       <r>    0.7615    0.0000 </r>
       <r>    0.8500    0.0000 </r>
       <r>    0.8728    0.0000 </r>
       <r>    1.3628    0.0000 </r>
       <r>    1.5154    0.0000 </r>
       <r>    1.5551    0.0000 </r>
       <r>    1.7192    0.0000 </r>
       <r>    1.7334    0.0000 </r>
       <r>    1.7794    0.0000 </r>
       <r>    1.9227    0.0000 </r>
       <r>    1.9297    0.0000 </r>
      </set>
      <set comment="kpoint 36">
       <r>   -9.4098    1.0000 </r>
       <r>   -3.5729    0.1667 </r>
       <r>   -3.5729    0.1667 </r>
       <r>   -3.5728    0.1659 </r>
       <r>   -0.2590    0.0000 </r>
       <r>    0.2177    0.0000 </r>
       <r>    0.3886    0.0000 </r>
       <r>    0.4529    0.0000 </r>
       <r>    0.5810    0.0000 </r>
       <r>    0.6909    0.0000 </r>
       <r>    0.8323    0.0000 </r>
       <r>    0.8384    0.0000 </r>
       <r>    0.9662    0.0000 </r>
       <r>    1.0307    0.0000 </r>
       <r>    1.1055    0.0000 </r>
       <r>    1.1649    0.0000 </r>
       <r>    1.2552    0.0000 </r>
       <r>    1.2716    0.0000 </r>
       <r>    1.3136    0.0000 </r>
       <r>    1.4160    0.0000 </r>
       <r>    1.4404    0.0000 </r>
       <r>    1.4991    0.0000 </r>
       <r>    1.5212    0.0000 </r>
       <r>    1.6285    0.0000 </r>
      </set>
      <set comment="kpoint 37">
       <r>   -9.4098    1.0000 </r>
       <r>   -3.5729    0.1667 </r>
       <r>   -3.5729    0.1667 </r>
       <r>   -3.5728    0.1659 </r>
       <r>   -0.2492    0.0000 </r>
       <r>    0.2231    0.0000 </r>
       <r>    0.3193    0.0000 </r>
       <r>    0.4389    0.0000 </r>
       <r>    0.6929    0.0000 </r>
       <r>    0.7067    0.0000 </r>
       <r>    0.7338    0.0000 </r>
       <r>    0.8448    0.0000 </r>
       <r>    0.9204    0.0000 </r>
       <r>    1.0942    0.0000 </r>
       <r>    1.1219    0.0000 </r>
       <r>    1.1936    0.0000 </r>
       <r>    1.2495    0.0000 </r>
       <r>    1.3003    0.0000 </r>
       <r>    1.3374    0.0000 </r>
       <r>    1.3493    0.0000 </r>
       <r>    1.4636    0.0000 </r>
       <r>    1.5019    0.0000 </r>
       <r>    1.5888    0.0000 </r>
       <r>    1.6341    0.0000 </r>
      </set>
      <set comment="kpoint 38">
       <r>   -9.4098    1.0000 </r>
       <r>   -3.5729    0.1667 </r>
       <r>   -3.5729    0.1667 </r>
       <r>   -3.5728    0.1659 </r>
       <r>   -0.2311    0.0000 </r>
       <r>    0.1974    0.0000 </r>
       <r>    0.2788    0.0000 </r>
       <r>    0.4588    0.0000 </r>
       <r>    0.6205    0.0000 </r>
       <r>    0.7188    0.0000 </r>
       <r>    0.8043    0.0000 </r>
       <r>    0.8632    0.0000 </r>
       <r>    0.8798    0.0000 </r>
       <r>    1.0913    0.0000 </r>
       <r>    1.1461    0.0000 </r>
       <r>    1.2349    0.0000 </r>
       <r>    1.2458    0.0000 </r>
       <r>    1.3047    0.0000 </r>
       <r>    1.3483    0.0000 </r>
       <r>    1.4570    0.0000 </r>
       <r>    1.4942    0.0000 </r>
       <r>    1.5172    0.0000 </r>
       <r>    1.5269    0.0000 </r>
       <r>    1.6431    0.0000 </r>
      </set>
      <set comment="kpoint 39">
       <r>   -9.4098    1.0000 </r>
       <r>   -3.5729    0.1668 </r>
       <r>   -3.5729    0.1667 </r>
       <r>   -3.5728    0.1659 </r>
       <r>   -0.2090    0.0000 </r>
       <r>    0.1354    0.0000 </r>
       <r>    0.3014    0.0000 </r>
       <r>    0.4878    0.0000 </r>
       <r>    0.5393    0.0000 </r>
       <r>    0.7290    0.0000 </r>
       <r>    0.7436    0.0000 </r>
       <r>    0.8921    0.0000 </r>
       <r>    1.0064    0.0000 </r>
       <r>    1.0457    0.0000 </r>
       <r>    1.1694    0.0000 </r>
       <r>    1.1757    0.0000 </r>
       <r>    1.3036    0.0000 </r>
       <r>    1.3666    0.0000 </r>
       <r>    1.4072    0.0000 </r>
       <r>    1.4662    0.0000 </r>
       <r>    1.5010    0.0000 </r>
       <r>    1.5384    0.0000 </r>
       <r>    1.5720    0.0000 </r>
       <r>    1.6093    0.0000 </r>
      </set>
      <set comment="kpoint 40">
       <r>   -9.4098    1.0000 </r>
       <r>   -3.5729    0.1668 </r>
       <r>   -3.5729    0.1667 </r>
       <r>   -3.5728    0.1659 </r>
       <r>   -0.1921    0.0000 </r>
       <r>    0.0950    0.0000 </r>
       <r>    0.3319    0.0000 </r>
       <r>    0.4724    0.0000 </r>
       <r>    0.5283    0.0000 </r>
       <r>    0.6717    0.0000 </r>
       <r>    0.7636    0.0000 </r>
       <r>    0.9167    0.0000 </r>
       <r>    0.9765    0.0000 </r>
       <r>    1.1070    0.0000 </r>
       <r>    1.1951    0.0000 </r>
       <r>    1.2203    0.0000 </r>
       <r>    1.3290    0.0000 </r>
       <r>    1.3691    0.0000 </r>
       <r>    1.4052    0.0000 </r>
       <r>    1.4287    0.0000 </r>
       <r>    1.4820    0.0000 </r>
       <r>    1.5424    0.0000 </r>
       <r>    1.5678    0.0000 </r>
       <r>    1.6134    0.0000 </r>
      </set>
      <set comment="kpoint 41">
       <r>   -9.4098    1.0000 </r>
       <r>   -3.5729    0.1667 </r>
       <r>   -3.5729    0.1666 </r>
       <r>   -3.5728    0.1660 </r>
       <r>   -0.2499    0.0000 </r>
       <r>    0.2267    0.0000 </r>
       <r>    0.3961    0.0000 </r>
       <r>    0.4617    0.0000 </r>
       <r>    0.5687    0.0000 </r>
       <r>    0.5977    0.0000 </r>
       <r>    0.8454    0.0000 </r>
       <r>    0.9510    0.0000 </r>
       <r>    0.9748    0.0000 </r>
       <r>    1.0014    0.0000 </r>
       <r>    1.0429    0.0000 </r>
       <r>    1.1642    0.0000 </r>
       <r>    1.1694    0.0000 </r>
       <r>    1.2102    0.0000 </r>
       <r>    1.3358    0.0000 </r>
       <r>    1.3974    0.0000 </r>
       <r>    1.4941    0.0000 </r>
       <r>    1.5716    0.0000 </r>
       <r>    1.5904    0.0000 </r>
       <r>    1.6304    0.0000 </r>
      </set>
      <set comment="kpoint 42">
       <r>   -9.4098    1.0000 </r>
       <r>   -3.5729    0.1667 </r>
       <r>   -3.5729    0.1667 </r>
       <r>   -3.5728    0.1660 </r>
       <r>   -0.2401    0.0000 </r>
       <r>    0.2321    0.0000 </r>
       <r>    0.3281    0.0000 </r>
       <r>    0.4469    0.0000 </r>
       <r>    0.5838    0.0000 </r>
       <r>    0.7099    0.0000 </r>
       <r>    0.7431    0.0000 </r>
       <r>    0.9271    0.0000 </r>
       <r>    0.9656    0.0000 </r>
       <r>    1.0061    0.0000 </r>
       <r>    1.0746    0.0000 </r>
       <r>    1.1266    0.0000 </r>
       <r>    1.2002    0.0000 </r>
       <r>    1.3103    0.0000 </r>
       <r>    1.4044    0.0000 </r>
       <r>    1.4139    0.0000 </r>
       <r>    1.4978    0.0000 </r>
       <r>    1.5154    0.0000 </r>
       <r>    1.5355    0.0000 </r>
       <r>    1.6089    0.0000 </r>
      </set>
      <set comment="kpoint 43">
       <r>   -9.4098    1.0000 </r>
       <r>   -3.5729    0.1667 </r>
       <r>   -3.5729    0.1667 </r>
       <r>   -3.5728    0.1660 </r>
       <r>   -0.2220    0.0000 </r>
       <r>    0.2064    0.0000 </r>
       <r>    0.2880    0.0000 </r>
       <r>    0.4666    0.0000 </r>
       <r>    0.6039    0.0000 </r>
       <r>    0.6300    0.0000 </r>
       <r>    0.8124    0.0000 </r>
       <r>    0.8856    0.0000 </r>
       <r>    0.9655    0.0000 </r>
       <r>    1.0079    0.0000 </r>
       <r>    1.0338    0.0000 </r>
       <r>    1.2190    0.0000 </r>
       <r>    1.2658    0.0000 </r>
       <r>    1.3490    0.0000 </r>
       <r>    1.4139    0.0000 </r>
       <r>    1.4183    0.0000 </r>
       <r>    1.4833    0.0000 </r>
       <r>    1.5364    0.0000 </r>
       <r>    1.5812    0.0000 </r>
       <r>    1.6023    0.0000 </r>
      </set>
      <set comment="kpoint 44">
       <r>   -9.4098    1.0000 </r>
       <r>   -3.5729    0.1668 </r>
       <r>   -3.5729    0.1667 </r>
       <r>   -3.5728    0.1660 </r>
       <r>   -0.1999    0.0000 </r>
       <r>    0.1447    0.0000 </r>
       <r>    0.3104    0.0000 </r>
       <r>    0.4956    0.0000 </r>
       <r>    0.5483    0.0000 </r>
       <r>    0.6306    0.0000 </r>
       <r>    0.7373    0.0000 </r>
       <r>    0.8997    0.0000 </r>
       <r>    1.0203    0.0000 </r>
       <r>    1.0441    0.0000 </r>
       <r>    1.0630    0.0000 </r>
       <r>    1.2437    0.0000 </r>
       <r>    1.2857    0.0000 </r>
       <r>    1.3215    0.0000 </r>
       <r>    1.4179    0.0000 </r>
       <r>    1.4759    0.0000 </r>
       <r>    1.4934    0.0000 </r>
       <r>    1.5564    0.0000 </r>
       <r>    1.6047    0.0000 </r>
       <r>    1.6541    0.0000 </r>
      </set>
      <set comment="kpoint 45">
       <r>   -9.4098    1.0000 </r>
       <r>   -3.5729    0.1668 </r>
       <r>   -3.5729    0.1667 </r>
       <r>   -3.5728    0.1660 </r>
       <r>   -0.1831    0.0000 </r>
       <r>    0.1044    0.0000 </r>
       <r>    0.3408    0.0000 </r>
       <r>    0.4817    0.0000 </r>
       <r>    0.5358    0.0000 </r>
       <r>    0.6528    0.0000 </r>
       <r>    0.6802    0.0000 </r>
       <r>    0.8565    0.0000 </r>
       <r>    1.0401    0.0000 </r>
       <r>    1.0905    0.0000 </r>
       <r>    1.2013    0.0000 </r>
       <r>    1.2244    0.0000 </r>
       <r>    1.2639    0.0000 </r>
       <r>    1.3127    0.0000 </r>
       <r>    1.4166    0.0000 </r>
       <r>    1.4322    0.0000 </r>
       <r>    1.4880    0.0000 </r>
       <r>    1.5845    0.0000 </r>
       <r>    1.6029    0.0000 </r>
       <r>    1.6615    0.0000 </r>
      </set>
      <set comment="kpoint 46">
       <r>   -9.4098    1.0000 </r>
       <r>   -3.5729    0.1667 </r>
       <r>   -3.5729    0.1666 </r>
       <r>   -3.5729    0.1663 </r>
       <r>   -0.2320    0.0000 </r>
       <r>    0.2441    0.0000 </r>
       <r>    0.4029    0.0000 </r>
       <r>    0.4716    0.0000 </r>
       <r>    0.4830    0.0000 </r>
       <r>    0.6115    0.0000 </r>
       <r>    0.8509    0.0000 </r>
       <r>    0.8820    0.0000 </r>
       <r>    0.9955    0.0000 </r>
       <r>    1.0263    0.0000 </r>
       <r>    1.0660    0.0000 </r>
       <r>    1.0964    0.0000 </r>
       <r>    1.1288    0.0000 </r>
       <r>    1.2024    0.0000 </r>
       <r>    1.2368    0.0000 </r>
       <r>    1.4785    0.0000 </r>
       <r>    1.5076    0.0000 </r>
       <r>    1.5533    0.0000 </r>
       <r>    1.6241    0.0000 </r>
       <r>    1.6667    0.0000 </r>
      </set>
      <set comment="kpoint 47">
       <r>   -9.4098    1.0000 </r>
       <r>   -3.5729    0.1667 </r>
       <r>   -3.5729    0.1667 </r>
       <r>   -3.5729    0.1663 </r>
       <r>   -0.2222    0.0000 </r>
       <r>    0.2494    0.0000 </r>
       <r>    0.3451    0.0000 </r>
       <r>    0.4499    0.0000 </r>
[...]
       <r>    1.0344    0.0000 </r>
       <r>    1.0721    0.0000 </r>
       <r>    1.1380    0.0000 </r>
       <r>    1.1603    0.0000 </r>
       <r>    1.2836    0.0000 </r>
       <r>    1.5685    0.0000 </r>
       <r>    1.6852    0.0000 </r>
       <r>    1.7185    0.0000 </r>
       <r>    1.7656    0.0000 </r>
      </set>
      <set comment="kpoint 172">
       <r>   -9.4098    1.0000 </r>
       <r>   -3.5730    0.1675 </r>
       <r>   -3.5729    0.1666 </r>
       <r>   -3.5729    0.1666 </r>
       <r>   -0.0846    0.0000 </r>
       <r>    0.1973    0.0000 </r>
       <r>    0.2654    0.0000 </r>
       <r>    0.3641    0.0000 </r>
       <r>    0.5250    0.0000 </r>
       <r>    0.6866    0.0000 </r>
       <r>    0.7326    0.0000 </r>
       <r>    0.8316    0.0000 </r>
       <r>    0.9168    0.0000 </r>
       <r>    0.9871    0.0000 </r>
       <r>    1.0566    0.0000 </r>
       <r>    1.1102    0.0000 </r>
       <r>    1.1325    0.0000 </r>
       <r>    1.1907    0.0000 </r>
       <r>    1.2336    0.0000 </r>
       <r>    1.3065    0.0000 </r>
       <r>    1.4747    0.0000 </r>
       <r>    1.6043    0.0000 </r>
       <r>    1.6314    0.0000 </r>
       <r>    1.7510    0.0000 </r>
      </set>
      <set comment="kpoint 173">
       <r>   -9.4098    1.0000 </r>
       <r>   -3.5730    0.1675 </r>
       <r>   -3.5729    0.1666 </r>
       <r>   -3.5729    0.1666 </r>
       <r>   -0.0690    0.0000 </r>
       <r>    0.2185    0.0000 </r>
       <r>    0.2894    0.0000 </r>
       <r>    0.3897    0.0000 </r>
       <r>    0.4353    0.0000 </r>
       <r>    0.5899    0.0000 </r>
       <r>    0.6338    0.0000 </r>
       <r>    0.7281    0.0000 </r>
       <r>    1.0136    0.0000 </r>
       <r>    1.0608    0.0000 </r>
       <r>    1.1376    0.0000 </r>
       <r>    1.1590    0.0000 </r>
       <r>    1.2237    0.0000 </r>
       <r>    1.2977    0.0000 </r>
       <r>    1.3116    0.0000 </r>
       <r>    1.3874    0.0000 </r>
       <r>    1.4187    0.0000 </r>
       <r>    1.5063    0.0000 </r>
       <r>    1.5454    0.0000 </r>
       <r>    1.6566    0.0000 </r>
      </set>
      <set comment="kpoint 174">
       <r>   -9.4098    1.0000 </r>
       <r>   -3.5730    0.1675 </r>
       <r>   -3.5729    0.1666 </r>
       <r>   -3.5729    0.1666 </r>
       <r>   -0.0509    0.0000 </r>
       <r>    0.2467    0.0000 </r>
       <r>    0.3229    0.0000 </r>
       <r>    0.3666    0.0000 </r>
       <r>    0.4269    0.0000 </r>
       <r>    0.5115    0.0000 </r>
       <r>    0.5493    0.0000 </r>
       <r>    0.6381    0.0000 </r>
       <r>    1.0448    0.0000 </r>
       <r>    1.1745    0.0000 </r>
       <r>    1.1830    0.0000 </r>
       <r>    1.2189    0.0000 </r>
       <r>    1.2989    0.0000 </r>
       <r>    1.3195    0.0000 </r>
       <r>    1.3982    0.0000 </r>
       <r>    1.4245    0.0000 </r>
       <r>    1.4536    0.0000 </r>
       <r>    1.5069    0.0000 </r>
       <r>    1.5700    0.0000 </r>
       <r>    1.5869    0.0000 </r>
      </set>
      <set comment="kpoint 175">
       <r>   -9.4098    1.0000 </r>
       <r>   -3.5730    0.1675 </r>
       <r>   -3.5729    0.1667 </r>
       <r>   -3.5729    0.1666 </r>
       <r>   -0.0378    0.0000 </r>
       <r>    0.2721    0.0000 </r>
       <r>    0.3259    0.0000 </r>
       <r>    0.3594    0.0000 </r>
       <r>    0.4556    0.0000 </r>
       <r>    0.4754    0.0000 </r>
       <r>    0.4904    0.0000 </r>
       <r>    0.5673    0.0000 </r>
       <r>    1.0723    0.0000 </r>
       <r>    1.2083    0.0000 </r>
       <r>    1.2160    0.0000 </r>
       <r>    1.2318    0.0000 </r>
       <r>    1.3427    0.0000 </r>
       <r>    1.3644    0.0000 </r>
       <r>    1.3770    0.0000 </r>
       <r>    1.4436    0.0000 </r>
       <r>    1.4969    0.0000 </r>
       <r>    1.5798    0.0000 </r>
       <r>    1.6084    0.0000 </r>
       <r>    1.6688    0.0000 </r>
      </set>
     </set>
    </set>
   </array>
  </eigenvalues>
  <separator name="orbital magnetization" >
   <v name="MAGDIPOLOUT">      0.00000000      0.00000000      0.00000000</v>
  </separator>
  <dos>
   <i name="efermi">     -3.60713485 </i>
   <total>
    <array>
     <dimension dim="1">gridpoints</dimension>
     <dimension dim="2">spin</dimension>
     <field>energy</field>
     <field>total</field>
     <field>integrated</field>
     <set>
      <set comment="spin 1">
       <r>    -9.9768     0.0000     0.0000 </r>
       <r>    -9.9352     0.0000     0.0000 </r>
       <r>    -9.8937     0.0000     0.0000 </r>
       <r>    -9.8521     0.0000     0.0000 </r>
       <r>    -9.8105     0.0000     0.0000 </r>
       <r>    -9.7689     0.0000     0.0000 </r>
       <r>    -9.7273     0.0000     0.0000 </r>
       <r>    -9.6858     0.0000     0.0000 </r>
       <r>    -9.6442     0.0000     0.0000 </r>
       <r>    -9.6026     0.0000     0.0000 </r>
       <r>    -9.5610     0.0005     0.0000 </r>
       <r>    -9.5195     0.0460     0.0019 </r>
       <r>    -9.4779     1.2596     0.0543 </r>
       <r>    -9.4363     9.6186     0.4542 </r>
       <r>    -9.3947    21.0891     1.3311 </r>
       <r>    -9.3531    13.4717     1.8912 </r>
       <r>    -9.3116     2.4857     1.9946 </r>
       <r>    -9.2700     0.1290     1.9999 </r>
       <r>    -9.2284     0.0018     2.0000 </r>
       <r>    -9.1868     0.0000     2.0000 </r>
       <r>    -9.1453     0.0000     2.0000 </r>
       <r>    -9.1037     0.0000     2.0000 </r>
       <r>    -9.0621     0.0000     2.0000 </r>
       <r>    -9.0205     0.0000     2.0000 </r>
       <r>    -8.9789     0.0000     2.0000 </r>
       <r>    -8.9374     0.0000     2.0000 </r>
       <r>    -8.8958     0.0000     2.0000 </r>
       <r>    -8.8542     0.0000     2.0000 </r>
       <r>    -8.8126     0.0000     2.0000 </r>
       <r>    -8.7710     0.0000     2.0000 </r>
       <r>    -8.7295     0.0000     2.0000 </r>
       <r>    -8.6879     0.0000     2.0000 </r>
       <r>    -8.6463     0.0000     2.0000 </r>
       <r>    -8.6047     0.0000     2.0000 </r>
       <r>    -8.5632     0.0000     2.0000 </r>
       <r>    -8.5216     0.0000     2.0000 </r>
       <r>    -8.4800     0.0000     2.0000 </r>
       <r>    -8.4384     0.0000     2.0000 </r>
       <r>    -8.3968     0.0000     2.0000 </r>
       <r>    -8.3553     0.0000     2.0000 </r>
       <r>    -8.3137     0.0000     2.0000 </r>
       <r>    -8.2721     0.0000     2.0000 </r>
       <r>    -8.2305     0.0000     2.0000 </r>
       <r>    -8.1890     0.0000     2.0000 </r>
       <r>    -8.1474     0.0000     2.0000 </r>
       <r>    -8.1058     0.0000     2.0000 </r>
       <r>    -8.0642     0.0000     2.0000 </r>
       <r>    -8.0226     0.0000     2.0000 </r>
       <r>    -7.9811     0.0000     2.0000 </r>
       <r>    -7.9395     0.0000     2.0000 </r>
       <r>    -7.8979     0.0000     2.0000 </r>
       <r>    -7.8563     0.0000     2.0000 </r>
       <r>    -7.8147     0.0000     2.0000 </r>
       <r>    -7.7732     0.0000     2.0000 </r>
       <r>    -7.7316     0.0000     2.0000 </r>
       <r>    -7.6900     0.0000     2.0000 </r>
       <r>    -7.6484     0.0000     2.0000 </r>
       <r>    -7.6069     0.0000     2.0000 </r>
       <r>    -7.5653     0.0000     2.0000 </r>
       <r>    -7.5237     0.0000     2.0000 </r>
       <r>    -7.4821     0.0000     2.0000 </r>
       <r>    -7.4405     0.0000     2.0000 </r>
       <r>    -7.3990     0.0000     2.0000 </r>
       <r>    -7.3574     0.0000     2.0000 </r>
       <r>    -7.3158     0.0000     2.0000 </r>
       <r>    -7.2742     0.0000     2.0000 </r>
       <r>    -7.2327     0.0000     2.0000 </r>
       <r>    -7.1911     0.0000     2.0000 </r>
       <r>    -7.1495     0.0000     2.0000 </r>
       <r>    -7.1079     0.0000     2.0000 </r>
       <r>    -7.0663     0.0000     2.0000 </r>
       <r>    -7.0248     0.0000     2.0000 </r>
       <r>    -6.9832     0.0000     2.0000 </r>
       <r>    -6.9416     0.0000     2.0000 </r>
       <r>    -6.9000     0.0000     2.0000 </r>
       <r>    -6.8584     0.0000     2.0000 </r>
       <r>    -6.8169     0.0000     2.0000 </r>
       <r>    -6.7753     0.0000     2.0000 </r>
       <r>    -6.7337     0.0000     2.0000 </r>
       <r>    -6.6921     0.0000     2.0000 </r>
       <r>    -6.6506     0.0000     2.0000 </r>
       <r>    -6.6090     0.0000     2.0000 </r>
       <r>    -6.5674     0.0000     2.0000 </r>
       <r>    -6.5258     0.0000     2.0000 </r>
       <r>    -6.4842     0.0000     2.0000 </r>
       <r>    -6.4427     0.0000     2.0000 </r>
       <r>    -6.4011     0.0000     2.0000 </r>
       <r>    -6.3595     0.0000     2.0000 </r>
       <r>    -6.3179     0.0000     2.0000 </r>
       <r>    -6.2764     0.0000     2.0000 </r>
       <r>    -6.2348     0.0000     2.0000 </r>
       <r>    -6.1932     0.0000     2.0000 </r>
       <r>    -6.1516     0.0000     2.0000 </r>
       <r>    -6.1100     0.0000     2.0000 </r>
       <r>    -6.0685     0.0000     2.0000 </r>
       <r>    -6.0269     0.0000     2.0000 </r>
       <r>    -5.9853     0.0000     2.0000 </r>
       <r>    -5.9437     0.0000     2.0000 </r>
       <r>    -5.9022     0.0000     2.0000 </r>
       <r>    -5.8606     0.0000     2.0000 </r>
       <r>    -5.8190     0.0000     2.0000 </r>
       <r>    -5.7774     0.0000     2.0000 </r>
       <r>    -5.7358     0.0000     2.0000 </r>
       <r>    -5.6943     0.0000     2.0000 </r>
       <r>    -5.6527     0.0000     2.0000 </r>
       <r>    -5.6111     0.0000     2.0000 </r>
       <r>    -5.5695     0.0000     2.0000 </r>
       <r>    -5.5279     0.0000     2.0000 </r>
       <r>    -5.4864     0.0000     2.0000 </r>
       <r>    -5.4448     0.0000     2.0000 </r>
       <r>    -5.4032     0.0000     2.0000 </r>
       <r>    -5.3616     0.0000     2.0000 </r>
       <r>    -5.3201     0.0000     2.0000 </r>
       <r>    -5.2785     0.0000     2.0000 </r>
       <r>    -5.2369     0.0000     2.0000 </r>
       <r>    -5.1953     0.0000     2.0000 </r>
       <r>    -5.1537     0.0000     2.0000 </r>
       <r>    -5.1122     0.0000     2.0000 </r>
       <r>    -5.0706     0.0000     2.0000 </r>
       <r>    -5.0290     0.0000     2.0000 </r>
       <r>    -4.9874     0.0000     2.0000 </r>
       <r>    -4.9459     0.0000     2.0000 </r>
       <r>    -4.9043     0.0000     2.0000 </r>
       <r>    -4.8627     0.0000     2.0000 </r>
       <r>    -4.8211     0.0000     2.0000 </r>
       <r>    -4.7795     0.0000     2.0000 </r>
       <r>    -4.7380     0.0000     2.0000 </r>
       <r>    -4.6964     0.0000     2.0000 </r>
       <r>    -4.6548     0.0000     2.0000 </r>
       <r>    -4.6132     0.0000     2.0000 </r>
       <r>    -4.5716     0.0000     2.0000 </r>
       <r>    -4.5301     0.0000     2.0000 </r>
       <r>    -4.4885     0.0000     2.0000 </r>
       <r>    -4.4469     0.0000     2.0000 </r>
       <r>    -4.4053     0.0000     2.0000 </r>
       <r>    -4.3638     0.0000     2.0000 </r>
       <r>    -4.3222     0.0000     2.0000 </r>
       <r>    -4.2806     0.0000     2.0000 </r>
       <r>    -4.2390     0.0000     2.0000 </r>
       <r>    -4.1974     0.0000     2.0000 </r>
       <r>    -4.1559     0.0000     2.0000 </r>
       <r>    -4.1143     0.0000     2.0000 </r>
       <r>    -4.0727     0.0000     2.0000 </r>
       <r>    -4.0311     0.0000     2.0000 </r>
       <r>    -3.9896     0.0000     2.0000 </r>
       <r>    -3.9480     0.0000     2.0000 </r>
       <r>    -3.9064     0.0000     2.0000 </r>
       <r>    -3.8648     0.0000     2.0000 </r>
       <r>    -3.8232     0.0000     2.0000 </r>
       <r>    -3.7817     0.0000     2.0000 </r>
       <r>    -3.7401     0.0002     2.0000 </r>
       <r>    -3.6985     0.0275     2.0011 </r>
       <r>    -3.6569     1.2362     2.0525 </r>
       <r>    -3.6153    15.3499     2.6908 </r>
       <r>    -3.5738    54.1757     4.9433 </r>
       <r>    -3.5322    55.5370     7.2524 </r>
       <r>    -3.4906    16.5444     7.9403 </r>
       <r>    -3.4490     1.4024     7.9986 </r>
       <r>    -3.4075     0.0328     8.0000 </r>
       <r>    -3.3659     0.0002     8.0000 </r>
       <r>    -3.3243     0.0000     8.0000 </r>
       <r>    -3.2827     0.0000     8.0000 </r>
       <r>    -3.2411     0.0000     8.0000 </r>
       <r>    -3.1996     0.0000     8.0000 </r>
       <r>    -3.1580     0.0000     8.0000 </r>
       <r>    -3.1164     0.0000     8.0000 </r>
       <r>    -3.0748     0.0000     8.0000 </r>
       <r>    -3.0333     0.0000     8.0000 </r>
       <r>    -2.9917     0.0000     8.0000 </r>
       <r>    -2.9501     0.0000     8.0000 </r>
       <r>    -2.9085     0.0000     8.0000 </r>
       <r>    -2.8669     0.0000     8.0000 </r>
       <r>    -2.8254     0.0000     8.0000 </r>
       <r>    -2.7838     0.0000     8.0000 </r>
       <r>    -2.7422     0.0000     8.0000 </r>
       <r>    -2.7006     0.0000     8.0000 </r>
       <r>    -2.6590     0.0000     8.0000 </r>
       <r>    -2.6175     0.0000     8.0000 </r>
       <r>    -2.5759     0.0000     8.0000 </r>
       <r>    -2.5343     0.0000     8.0000 </r>
       <r>    -2.4927     0.0000     8.0000 </r>
       <r>    -2.4512     0.0000     8.0000 </r>
       <r>    -2.4096     0.0000     8.0000 </r>
       <r>    -2.3680     0.0000     8.0000 </r>
       <r>    -2.3264     0.0000     8.0000 </r>
       <r>    -2.2848     0.0000     8.0000 </r>
       <r>    -2.2433     0.0000     8.0000 </r>
       <r>    -2.2017     0.0000     8.0000 </r>
       <r>    -2.1601     0.0000     8.0000 </r>
       <r>    -2.1185     0.0000     8.0000 </r>
       <r>    -2.0770     0.0000     8.0000 </r>
       <r>    -2.0354     0.0000     8.0000 </r>
       <r>    -1.9938     0.0000     8.0000 </r>
       <r>    -1.9522     0.0000     8.0000 </r>
       <r>    -1.9106     0.0000     8.0000 </r>
       <r>    -1.8691     0.0000     8.0000 </r>
       <r>    -1.8275     0.0000     8.0000 </r>
       <r>    -1.7859     0.0000     8.0000 </r>
       <r>    -1.7443     0.0000     8.0000 </r>
       <r>    -1.7027     0.0000     8.0000 </r>
       <r>    -1.6612     0.0000     8.0000 </r>
       <r>    -1.6196     0.0000     8.0000 </r>
       <r>    -1.5780     0.0000     8.0000 </r>
       <r>    -1.5364     0.0000     8.0000 </r>
       <r>    -1.4949     0.0000     8.0000 </r>
       <r>    -1.4533     0.0000     8.0000 </r>
       <r>    -1.4117     0.0000     8.0000 </r>
       <r>    -1.3701     0.0000     8.0000 </r>
       <r>    -1.3285     0.0000     8.0000 </r>
       <r>    -1.2870     0.0000     8.0000 </r>
       <r>    -1.2454     0.0000     8.0000 </r>
       <r>    -1.2038     0.0000     8.0000 </r>
       <r>    -1.1622     0.0000     8.0000 </r>
       <r>    -1.1207     0.0000     8.0000 </r>
       <r>    -1.0791     0.0000     8.0000 </r>
       <r>    -1.0375     0.0000     8.0000 </r>
       <r>    -0.9959     0.0000     8.0000 </r>
       <r>    -0.9543     0.0000     8.0000 </r>
       <r>    -0.9128     0.0000     8.0000 </r>
       <r>    -0.8712     0.0000     8.0000 </r>
       <r>    -0.8296     0.0000     8.0000 </r>
       <r>    -0.7880     0.0000     8.0000 </r>
       <r>    -0.7464     0.0000     8.0000 </r>
       <r>    -0.7049     0.0000     8.0000 </r>
       <r>    -0.6633     0.0000     8.0000 </r>
       <r>    -0.6217     0.0000     8.0000 </r>
       <r>    -0.5801     0.0000     8.0000 </r>
       <r>    -0.5386     0.0000     8.0000 </r>
       <r>    -0.4970     0.0000     8.0000 </r>
       <r>    -0.4554     0.0000     8.0000 </r>
       <r>    -0.4138     0.0000     8.0000 </r>
       <r>    -0.3722     0.0010     8.0000 </r>
       <r>    -0.3307     0.0418     8.0018 </r>
       <r>    -0.2891     0.6033     8.0269 </r>
       <r>    -0.2475     3.2665     8.1627 </r>
       <r>    -0.2059     7.9342     8.4926 </r>
       <r>    -0.1644    10.7473     8.9394 </r>
       <r>    -0.1228    10.3240     9.3687 </r>
       <r>    -0.0812     8.3511     9.7159 </r>
       <r>    -0.0396     4.9567     9.9220 </r>
       <r>     0.0020     1.6674     9.9913 </r>
       <r>     0.0435     0.6779    10.0195 </r>
       <r>     0.0851     2.2290    10.1122 </r>
       <r>     0.1267     5.9631    10.3601 </r>
       <r>     0.1683    10.5671    10.7995 </r>
       <r>     0.2099    14.0978    11.3856 </r>
       <r>     0.2514    15.6281    12.0354 </r>
       <r>     0.2930    15.7650    12.6909 </r>
       <r>     0.3346    15.9123    13.3525 </r>
       <r>     0.3762    16.1945    14.0259 </r>
       <r>     0.4177    16.5163    14.7126 </r>
       <r>     0.4593    17.6069    15.4446 </r>
       <r>     0.5009    18.4722    16.2127 </r>
       <r>     0.5425    18.4593    16.9802 </r>
       <r>     0.5841    18.9922    17.7698 </r>
       <r>     0.6256    19.8970    18.5971 </r>
       <r>     0.6672    20.3520    19.4433 </r>
       <r>     0.7088    21.0199    20.3173 </r>
       <r>     0.7504    22.4244    21.2497 </r>
       <r>     0.7919    22.3546    22.1791 </r>
       <r>     0.8335    21.8633    23.0882 </r>
       <r>     0.8751    23.3654    24.0597 </r>
       <r>     0.9167    24.5114    25.0788 </r>
       <r>     0.9583    24.1909    26.0846 </r>
       <r>     0.9998    24.8657    27.1185 </r>
       <r>     1.0414    25.8859    28.1948 </r>
       <r>     1.0830    25.9731    29.2747 </r>
       <r>     1.1246    26.0469    30.3577 </r>
       <r>     1.1662    26.8210    31.4729 </r>
       <r>     1.2077    27.6904    32.6242 </r>
       <r>     1.2493    27.2761    33.7583 </r>
       <r>     1.2909    27.4697    34.9004 </r>
       <r>     1.3325    28.5331    36.0868 </r>
       <r>     1.3740    28.5641    37.2744 </r>
       <r>     1.4156    28.2817    38.4503 </r>
       <r>     1.4572    29.3266    39.6697 </r>
       <r>     1.4988    30.8627    40.9529 </r>
       <r>     1.5404    29.9748    42.1992 </r>
       <r>     1.5819    29.5424    43.4275 </r>
       <r>     1.6235    30.0487    44.6769 </r>
       <r>     1.6651    27.6357    45.8259 </r>
       <r>     1.7067    21.1438    46.7050 </r>
       <r>     1.7482    13.9994    47.2871 </r>
       <r>     1.7898     8.2902    47.6318 </r>
       <r>     1.8314     4.7792    47.8305 </r>
       <r>     1.8730     2.5647    47.9371 </r>
       <r>     1.9146     1.0868    47.9823 </r>
       <r>     1.9561     0.3449    47.9967 </r>
       <r>     1.9977     0.0728    47.9997 </r>
       <r>     2.0393     0.0070    48.0000 </r>
       <r>     2.0809     0.0002    48.0000 </r>
       <r>     2.1224     0.0000    48.0000 </r>
       <r>     2.1640     0.0000    48.0000 </r>
       <r>     2.2056     0.0000    48.0000 </r>
       <r>     2.2472     0.0000    48.0000 </r>
       <r>     2.2888     0.0000    48.0000 </r>
       <r>     2.3303     0.0000    48.0000 </r>
       <r>     2.3719     0.0000    48.0000 </r>
       <r>     2.4135     0.0000    48.0000 </r>
       <r>     2.4551     0.0000    48.0000 </r>
       <r>     2.4967     0.0000    48.0000 </r>
      </set>
     </set>
    </array>
   </total>
  </dos>
 </calculation>
 <structure name="finalpos" >
  <crystal>
   <varray name="basis" >
    <v>      14.98950000       0.00000000       0.00000000 </v>
    <v>       0.00000000      12.49125000       0.00000000 </v>
    <v>       0.00000000       0.00000000      17.98740000 </v>
   </varray>
   <i name="volume">   3367.91746009 </i>
   <varray name="rec_basis" >
    <v>       0.06671337       0.00000000       0.00000000 </v>
    <v>       0.00000000       0.08005604       0.00000000 </v>
    <v>       0.00000000       0.00000000       0.05559447 </v>
   </varray>
  </crystal>
  <varray name="positions" >
   <v>       0.52123000       0.54500000       0.63796000 </v>
  </varray>
 </structure>
</modeling>
