<?xml version="1.0" encoding="ISO-8859-1"?>
<modeling>
 <generator>
  <i name="program" type="string">vasp </i>
  <i name="version" type="string">6.4.3  </i>
  <i name="subversion" type="string">19Mar24 (build May 31 2024 16:31:43) complex                          parallel </i>
  <i name="platform" type="string">LinuxIFC </i>
  <i name="date" type="string">2024 11 01 </i>
  <i name="time" type="string">17:02:49 </i>
 </generator>
 <incar>
  <i type="string" name="SYSTEM">Convergence</i>
  <i type="int" name="ISTART">     0</i>
  <i type="string" name="PREC">Accurate</i>
  <i type="string" name="ALGO">Normal</i>
  <i type="int" name="ISPIN">     1</i>
  <i type="int" name="ICHARG">     2</i>
  <i type="int" name="NELM">   100</i>
  <i type="int" name="IBRION">    -1</i>
  <i name="EDIFF">      0.00000100</i>
  <i name="EDIFFG">     -0.00100000</i>
  <i type="int" name="NSW">     0</i>
  <i type="int" name="ISIF">     2</i>
  <i name="ENCUT">    480.00000000</i>
  <i name="POTIM">      0.50000000</i>
  <i type="int" name="ISMEAR">     0</i>
  <i name="SIGMA">      0.05000000</i>
  <i type="logical" name="LWAVE"> F  </i>
  <i type="logical" name="LCHARG"> F  </i>
  <i type="string" name="GGA">PE</i>
 </incar>
 <primitive_cell>
  <structure name="primitive_cell" >
   <crystal>
    <varray name="basis" >
     <v>      15.00000000       0.00000000       0.00000000 </v>
     <v>       0.00000000      12.50000000       0.00000000 </v>
     <v>       0.00000000       0.00000000      18.00000000 </v>
    </varray>
    <i name="volume">   3375.00000000 </i>
    <varray name="rec_basis" >
     <v>       0.06666667       0.00000000       0.00000000 </v>
     <v>       0.00000000       0.08000000       0.00000000 </v>
     <v>       0.00000000       0.00000000       0.05555556 </v>
    </varray>
   </crystal>
   <varray name="positions" >
    <v>       0.52123000       0.54500000       0.63796000 </v>
   </varray>
  </structure>
  <varray name="primitive_index" >
   <v type="int" >        1 </v>
  </varray>
 </primitive_cell>
 <kpoints>
  <generation param="Monkhorst-Pack">
   <v type="int" name="divisions">       9       13        8 </v>
   <v name="usershift">      0.00000000       0.00000000       0.00000000 </v>
   <v name="genvec1">      0.11111111       0.00000000       0.00000000 </v>
   <v name="genvec2">      0.00000000       0.07692308       0.00000000 </v>
   <v name="genvec3">      0.00000000       0.00000000       0.12500000 </v>
   <v name="shift">      0.00000000       0.00000000       0.50000000 </v>
  </generation>
  <varray name="kpointlist" >
   <v>       0.00000000       0.00000000       0.06250000 </v>
   <v>       0.11111111       0.00000000       0.06250000 </v>
   <v>       0.22222222       0.00000000       0.06250000 </v>
   <v>       0.33333333       0.00000000       0.06250000 </v>
   <v>       0.44444444       0.00000000       0.06250000 </v>
   <v>       0.00000000       0.07692308       0.06250000 </v>
   <v>       0.11111111       0.07692308       0.06250000 </v>
   <v>       0.22222222       0.07692308       0.06250000 </v>
   <v>       0.33333333       0.07692308       0.06250000 </v>
   <v>       0.44444444       0.07692308       0.06250000 </v>
   <v>       0.00000000       0.15384615       0.06250000 </v>
   <v>       0.11111111       0.15384615       0.06250000 </v>
   <v>       0.22222222       0.15384615       0.06250000 </v>
   <v>       0.33333333       0.15384615       0.06250000 </v>
   <v>       0.44444444       0.15384615       0.06250000 </v>
   <v>       0.00000000       0.23076923       0.06250000 </v>
   <v>       0.11111111       0.23076923       0.06250000 </v>
   <v>       0.22222222       0.23076923       0.06250000 </v>
   <v>       0.33333333       0.23076923       0.06250000 </v>
   <v>       0.44444444       0.23076923       0.06250000 </v>
   <v>       0.00000000       0.30769231       0.06250000 </v>
   <v>       0.11111111       0.30769231       0.06250000 </v>
   <v>       0.22222222       0.30769231       0.06250000 </v>
   <v>       0.33333333       0.30769231       0.06250000 </v>
   <v>       0.44444444       0.30769231       0.06250000 </v>
   <v>       0.00000000       0.38461538       0.06250000 </v>
   <v>       0.11111111       0.38461538       0.06250000 </v>
   <v>       0.22222222       0.38461538       0.06250000 </v>
   <v>       0.33333333       0.38461538       0.06250000 </v>
   <v>       0.44444444       0.38461538       0.06250000 </v>
   <v>       0.00000000       0.46153846       0.06250000 </v>
   <v>       0.11111111       0.46153846       0.06250000 </v>
   <v>       0.22222222       0.46153846       0.06250000 </v>
   <v>       0.33333333       0.46153846       0.06250000 </v>
   <v>       0.44444444       0.46153846       0.06250000 </v>
   <v>       0.00000000       0.00000000       0.18750000 </v>
   <v>       0.11111111       0.00000000       0.18750000 </v>
   <v>       0.22222222       0.00000000       0.18750000 </v>
   <v>       0.33333333       0.00000000       0.18750000 </v>
   <v>       0.44444444       0.00000000       0.18750000 </v>
   <v>       0.00000000       0.07692308       0.18750000 </v>
   <v>       0.11111111       0.07692308       0.18750000 </v>
   <v>       0.22222222       0.07692308       0.18750000 </v>
   <v>       0.33333333       0.07692308       0.18750000 </v>
   <v>       0.44444444       0.07692308       0.18750000 </v>
   <v>       0.00000000       0.15384615       0.18750000 </v>
   <v>       0.11111111       0.15384615       0.18750000 </v>
   <v>       0.22222222       0.15384615       0.18750000 </v>
   <v>       0.33333333       0.15384615       0.18750000 </v>
   <v>       0.44444444       0.15384615       0.18750000 </v>
   <v>       0.00000000       0.23076923       0.18750000 </v>
   <v>       0.11111111       0.23076923       0.18750000 </v>
   <v>       0.22222222       0.23076923       0.18750000 </v>
   <v>       0.33333333       0.23076923       0.18750000 </v>
   <v>       0.44444444       0.23076923       0.18750000 </v>
   <v>       0.00000000       0.30769231       0.18750000 </v>
   <v>       0.11111111       0.30769231       0.18750000 </v>
   <v>       0.22222222       0.30769231       0.18750000 </v>
   <v>       0.33333333       0.30769231       0.18750000 </v>
   <v>       0.44444444       0.30769231       0.18750000 </v>
   <v>       0.00000000       0.38461538       0.18750000 </v>
   <v>       0.11111111       0.38461538       0.18750000 </v>
   <v>       0.22222222       0.38461538       0.18750000 </v>
   <v>       0.33333333       0.38461538       0.18750000 </v>
   <v>       0.44444444       0.38461538       0.18750000 </v>
   <v>       0.00000000       0.46153846       0.18750000 </v>
   <v>       0.11111111       0.46153846       0.18750000 </v>
   <v>       0.22222222       0.46153846       0.18750000 </v>
   <v>       0.33333333       0.46153846       0.18750000 </v>
   <v>       0.44444444       0.46153846       0.18750000 </v>
   <v>       0.00000000       0.00000000       0.31250000 </v>
   <v>       0.11111111       0.00000000       0.31250000 </v>
   <v>       0.22222222       0.00000000       0.31250000 </v>
   <v>       0.33333333       0.00000000       0.31250000 </v>
   <v>       0.44444444       0.00000000       0.31250000 </v>
   <v>       0.00000000       0.07692308       0.31250000 </v>
   <v>       0.11111111       0.07692308       0.31250000 </v>
   <v>       0.22222222       0.07692308       0.31250000 </v>
   <v>       0.33333333       0.07692308       0.31250000 </v>
   <v>       0.44444444       0.07692308       0.31250000 </v>
   <v>       0.00000000       0.15384615       0.31250000 </v>
   <v>       0.11111111       0.15384615       0.31250000 </v>
   <v>       0.22222222       0.15384615       0.31250000 </v>
   <v>       0.33333333       0.15384615       0.31250000 </v>
   <v>       0.44444444       0.15384615       0.31250000 </v>
   <v>       0.00000000       0.23076923       0.31250000 </v>
   <v>       0.11111111       0.23076923       0.31250000 </v>
   <v>       0.22222222       0.23076923       0.31250000 </v>
   <v>       0.33333333       0.23076923       0.31250000 </v>
   <v>       0.44444444       0.23076923       0.31250000 </v>
   <v>       0.00000000       0.30769231       0.31250000 </v>
   <v>       0.11111111       0.30769231       0.31250000 </v>
   <v>       0.22222222       0.30769231       0.31250000 </v>
   <v>       0.33333333       0.30769231       0.31250000 </v>
   <v>       0.44444444       0.30769231       0.31250000 </v>
   <v>       0.00000000       0.38461538       0.31250000 </v>
   <v>       0.11111111       0.38461538       0.31250000 </v>
   <v>       0.22222222       0.38461538       0.31250000 </v>
   <v>       0.33333333       0.38461538       0.31250000 </v>
   <v>       0.44444444       0.38461538       0.31250000 </v>
   <v>       0.00000000       0.46153846       0.31250000 </v>
   <v>       0.11111111       0.46153846       0.31250000 </v>
   <v>       0.22222222       0.46153846       0.31250000 </v>
   <v>       0.33333333       0.46153846       0.31250000 </v>
   <v>       0.44444444       0.46153846       0.31250000 </v>
   <v>       0.00000000       0.00000000       0.43750000 </v>
   <v>       0.11111111       0.00000000       0.43750000 </v>
   <v>       0.22222222       0.00000000       0.43750000 </v>
   <v>       0.33333333       0.00000000       0.43750000 </v>
   <v>       0.44444444       0.00000000       0.43750000 </v>
   <v>       0.00000000       0.07692308       0.43750000 </v>
   <v>       0.11111111       0.07692308       0.43750000 </v>
   <v>       0.22222222       0.07692308       0.43750000 </v>
   <v>       0.33333333       0.07692308       0.43750000 </v>
   <v>       0.44444444       0.07692308       0.43750000 </v>
   <v>       0.00000000       0.15384615       0.43750000 </v>
   <v>       0.11111111       0.15384615       0.43750000 </v>
   <v>       0.22222222       0.15384615       0.43750000 </v>
   <v>       0.33333333       0.15384615       0.43750000 </v>
   <v>       0.44444444       0.15384615       0.43750000 </v>
   <v>       0.00000000       0.23076923       0.43750000 </v>
   <v>       0.11111111       0.23076923       0.43750000 </v>
   <v>       0.22222222       0.23076923       0.43750000 </v>
   <v>       0.33333333       0.23076923       0.43750000 </v>
   <v>       0.44444444       0.23076923       0.43750000 </v>
   <v>       0.00000000       0.30769231       0.43750000 </v>
   <v>       0.11111111       0.30769231       0.43750000 </v>
   <v>       0.22222222       0.30769231       0.43750000 </v>
   <v>       0.33333333       0.30769231       0.43750000 </v>
   <v>       0.44444444       0.30769231       0.43750000 </v>
   <v>       0.00000000       0.38461538       0.43750000 </v>
   <v>       0.11111111       0.38461538       0.43750000 </v>
   <v>       0.22222222       0.38461538       0.43750000 </v>
   <v>       0.33333333       0.38461538       0.43750000 </v>
   <v>       0.44444444       0.38461538       0.43750000 </v>
   <v>       0.00000000       0.46153846       0.43750000 </v>
   <v>       0.11111111       0.46153846       0.43750000 </v>
   <v>       0.22222222       0.46153846       0.43750000 </v>
   <v>       0.33333333       0.46153846       0.43750000 </v>
   <v>       0.44444444       0.46153846       0.43750000 </v>
  </varray>
  <varray name="weights" >
   <v>       0.00213675 </v>
   <v>       0.00427350 </v>
   <v>       0.00427350 </v>
   <v>       0.00427350 </v>
   <v>       0.00427350 </v>
   <v>       0.00427350 </v>
   <v>       0.00854701 </v>
   <v>       0.00854701 </v>
   <v>       0.00854701 </v>
   <v>       0.00854701 </v>
   <v>       0.00427350 </v>
   <v>       0.00854701 </v>
   <v>       0.00854701 </v>
   <v>       0.00854701 </v>
   <v>       0.00854701 </v>
   <v>       0.00427350 </v>
   <v>       0.00854701 </v>
   <v>       0.00854701 </v>
   <v>       0.00854701 </v>
   <v>       0.00854701 </v>
   <v>       0.00427350 </v>
   <v>       0.00854701 </v>
   <v>       0.00854701 </v>
   <v>       0.00854701 </v>
   <v>       0.00854701 </v>
   <v>       0.00427350 </v>
   <v>       0.00854701 </v>
   <v>       0.00854701 </v>
   <v>       0.00854701 </v>
   <v>       0.00854701 </v>
   <v>       0.00427350 </v>
   <v>       0.00854701 </v>
   <v>       0.00854701 </v>
   <v>       0.00854701 </v>
   <v>       0.00854701 </v>
   <v>       0.00213675 </v>
   <v>       0.00427350 </v>
   <v>       0.00427350 </v>
   <v>       0.00427350 </v>
   <v>       0.00427350 </v>
   <v>       0.00427350 </v>
   <v>       0.00854701 </v>
   <v>       0.00854701 </v>
   <v>       0.00854701 </v>
   <v>       0.00854701 </v>
   <v>       0.00427350 </v>
   <v>       0.00854701 </v>
   <v>       0.00854701 </v>
   <v>       0.00854701 </v>
   <v>       0.00854701 </v>
   <v>       0.00427350 </v>
   <v>       0.00854701 </v>
   <v>       0.00854701 </v>
   <v>       0.00854701 </v>
   <v>       0.00854701 </v>
   <v>       0.00427350 </v>
   <v>       0.00854701 </v>
   <v>       0.00854701 </v>
   <v>       0.00854701 </v>
   <v>       0.00854701 </v>
   <v>       0.00427350 </v>
   <v>       0.00854701 </v>
   <v>       0.00854701 </v>
   <v>       0.00854701 </v>
   <v>       0.00854701 </v>
   <v>       0.00427350 </v>
   <v>       0.00854701 </v>
   <v>       0.00854701 </v>
   <v>       0.00854701 </v>
   <v>       0.00854701 </v>
   <v>       0.00213675 </v>
   <v>       0.00427350 </v>
   <v>       0.00427350 </v>
   <v>       0.00427350 </v>
   <v>       0.00427350 </v>
   <v>       0.00427350 </v>
   <v>       0.00854701 </v>
   <v>       0.00854701 </v>
   <v>       0.00854701 </v>
   <v>       0.00854701 </v>
   <v>       0.00427350 </v>
   <v>       0.00854701 </v>
   <v>       0.00854701 </v>
   <v>       0.00854701 </v>
   <v>       0.00854701 </v>
   <v>       0.00427350 </v>
   <v>       0.00854701 </v>
   <v>       0.00854701 </v>
   <v>       0.00854701 </v>
   <v>       0.00854701 </v>
   <v>       0.00427350 </v>
   <v>       0.00854701 </v>
   <v>       0.00854701 </v>
   <v>       0.00854701 </v>
   <v>       0.00854701 </v>
   <v>       0.00427350 </v>
   <v>       0.00854701 </v>
   <v>       0.00854701 </v>
   <v>       0.00854701 </v>
   <v>       0.00854701 </v>
   <v>       0.00427350 </v>
   <v>       0.00854701 </v>
   <v>       0.00854701 </v>
   <v>       0.00854701 </v>
   <v>       0.00854701 </v>
   <v>       0.00213675 </v>
   <v>       0.00427350 </v>
   <v>       0.00427350 </v>
   <v>       0.00427350 </v>
   <v>       0.00427350 </v>
   <v>       0.00427350 </v>
   <v>       0.00854701 </v>
   <v>       0.00854701 </v>
   <v>       0.00854701 </v>
   <v>       0.00854701 </v>
   <v>       0.00427350 </v>
   <v>       0.00854701 </v>
   <v>       0.00854701 </v>
   <v>       0.00854701 </v>
   <v>       0.00854701 </v>
   <v>       0.00427350 </v>
   <v>       0.00854701 </v>
   <v>       0.00854701 </v>
   <v>       0.00854701 </v>
   <v>       0.00854701 </v>
   <v>       0.00427350 </v>
   <v>       0.00854701 </v>
   <v>       0.00854701 </v>
   <v>       0.00854701 </v>
   <v>       0.00854701 </v>
   <v>       0.00427350 </v>
   <v>       0.00854701 </v>
   <v>       0.00854701 </v>
   <v>       0.00854701 </v>
   <v>       0.00854701 </v>
   <v>       0.00427350 </v>
   <v>       0.00854701 </v>
   <v>       0.00854701 </v>
   <v>       0.00854701 </v>
   <v>       0.00854701 </v>
  </varray>
 </kpoints>
 <parameters>
  <separator name="general" >
   <i type="string" name="SYSTEM">Convergence</i>
   <i type="logical" name="LCOMPAT"> F  </i>
  </separator>
  <separator name="electronic" >
   <i type="string" name="PREC">accura</i>
   <i name="ENMAX">    480.00000000</i>
   <i name="ENAUG">    535.51400000</i>
   <i name="EDIFF">      0.00000100</i>
   <i type="int" name="IALGO">    38</i>
   <i type="int" name="IWAVPR">    10</i>
   <i type="int" name="NBANDS">    24</i>
   <i type="int" name="NBANDSLOW">    -1</i>
   <i type="int" name="NBANDSHIGH">    -1</i>
   <i name="NELECT">      3.00000000</i>
   <i type="int" name="TURBO">     0</i>
   <i type="int" name="IRESTART">     0</i>
   <i type="int" name="NREBOOT">     0</i>
   <i type="int" name="NMIN">     0</i>
   <i name="EREF">      0.00000000</i>
   <separator name="electronic smearing" >
    <i type="int" name="ISMEAR">     0</i>
    <i name="SIGMA">      0.05000000</i>
    <i name="KSPACING">      0.50000000</i>
    <i type="logical" name="KGAMMA"> T  </i>
    <i type="logical" name="KBLOWUP"> T  </i>
   </separator>
   <separator name="electronic projectors" >
    <i type="logical" name="LREAL"> F  </i>
    <v name="ROPT">      0.00000000</v>
    <i type="int" name="LMAXPAW">  -100</i>
    <i type="int" name="LMAXMIX">     2</i>
    <i type="logical" name="NLSPLINE"> F  </i>
   </separator>
   <separator name="electronic startup" >
    <i type="int" name="ISTART">     0</i>
    <i type="int" name="ICHARG">     2</i>
    <i type="int" name="INIWAV">     1</i>
   </separator>
   <separator name="electronic spin" >
    <i type="int" name="ISPIN">     1</i>
    <i type="logical" name="LNONCOLLINEAR"> F  </i>
    <v name="MAGMOM">      1.00000000</v>
    <i name="NUPDOWN">     -1.00000000</i>
    <i type="logical" name="LSORBIT"> F  </i>
    <v name="SAXIS">      0.00000000      0.00000000      1.00000000</v>
    <i type="logical" name="LSPIRAL"> F  </i>
    <v name="QSPIRAL">      0.00000000      0.00000000      0.00000000</v>
    <i type="logical" name="LZEROZ"> F  </i>
   </separator>
   <separator name="electronic exchange-correlation" >
    <i type="logical" name="LASPH"> F  </i>
   </separator>
   <separator name="electronic convergence" >
    <i type="int" name="NELM">   100</i>
    <i type="int" name="NELMDL">    -5</i>
    <i type="int" name="NELMIN">     2</i>
    <i name="ENINI">    480.00000000</i>
    <separator name="electronic convergence detail" >
     <i type="logical" name="LDIAG"> T  </i>
     <i type="logical" name="LSUBROT"> F  </i>
     <i name="WEIMIN">      0.00000000</i>
     <i name="EBREAK">      0.00000001</i>
     <i name="DEPER">      0.30000000</i>
     <i type="int" name="NRMM">     4</i>
     <i name="TIME">      0.40000000</i>
    </separator>
   </separator>
   <separator name="electronic mixer" >
    <i name="AMIX">      0.40000000</i>
    <i name="BMIX">      1.00000000</i>
    <i name="AMIN">      0.10000000</i>
    <i name="AMIX_MAG">      1.60000000</i>
    <i name="BMIX_MAG">      1.00000000</i>
    <separator name="electronic mixer details" >
     <i type="int" name="IMIX">     4</i>
     <i type="logical" name="MIXFIRST"> F  </i>
     <i type="int" name="MAXMIX">   -45</i>
     <i name="WC">    100.00000000</i>
     <i type="int" name="INIMIX">     1</i>
     <i type="int" name="MIXPRE">     1</i>
     <i type="int" name="MREMOVE">     5</i>
    </separator>
   </separator>
   <separator name="electronic dipolcorrection" >
    <i type="logical" name="LDIPOL"> F  </i>
    <i type="logical" name="LMONO"> F  </i>
    <i type="int" name="IDIPOL">     0</i>
    <i name="EPSILON">      1.00000000</i>
    <v name="DIPOL">   -100.00000000   -100.00000000   -100.00000000</v>
    <i name="EFIELD">      0.00000000</i>
    <i type="logical" name="LVACPOTAV"> F  </i>
   </separator>
  </separator>
  <separator name="grids" >
   <i type="int" name="NGX">   108</i>
   <i type="int" name="NGY">    90</i>
   <i type="int" name="NGZ">   140</i>
   <i type="int" name="NGXF">   216</i>
   <i type="int" name="NGYF">   180</i>
   <i type="int" name="NGZF">   280</i>
   <i type="logical" name="ADDGRID"> F  </i>
  </separator>
  <separator name="ionic" >
   <i type="int" name="NSW">     0</i>
   <i type="int" name="IBRION">    -1</i>
   <i type="int" name="MDALGO">     0</i>
   <i type="int" name="ISIF">     2</i>
   <i name="PSTRESS">      0.00000000</i>
   <i name="EDIFFG">     -0.00100000</i>
   <i type="int" name="NFREE">     0</i>
   <i name="POTIM">      0.50000000</i>
   <i name="SMASS">     -3.00000000</i>
   <i name="SCALEE">      1.00000000</i>
  </separator>
  <separator name="ionic md" >
   <i name="TEBEG">      0.00010000</i>
   <i name="TEEND">      0.00010000</i>
   <i type="int" name="NBLOCK">     1</i>
   <i type="int" name="KBLOCK">     1</i>
   <i type="int" name="NPACO">   256</i>
   <i name="APACO">     10.00000000</i>
  </separator>
  <separator name="symmetry" >
   <i type="int" name="ISYM">     2</i>
   <i name="SYMPREC">      0.00001000</i>
  </separator>
  <separator name="dos" >
   <i type="int" name="LORBIT">     0</i>
   <v name="RWIGS">     -1.00000000</v>
   <i type="int" name="NEDOS">   301</i>
   <i name="EMIN">     10.00000000</i>
   <i name="EMAX">    -10.00000000</i>
   <i name="EFERMI">      0.00000000</i>
  </separator>
  <separator name="writing" >
   <i type="int" name="NWRITE">     2</i>
   <i type="logical" name="LWAVE"> F  </i>
   <i type="logical" name="LDOWNSAMPLE"> F  </i>
   <i type="logical" name="LCHARG"> F  </i>
   <i type="logical" name="LPARD"> F  </i>
   <i type="logical" name="LVTOT"> F  </i>
   <i type="logical" name="LVHAR"> F  </i>
   <i type="logical" name="LELF"> F  </i>
   <i type="logical" name="LOPTICS"> F  </i>
   <v name="STM">      0.00000000      0.00000000      0.00000000      0.00000000      0.00000000      0.00000000      0.00000000</v>
  </separator>
  <separator name="performance" >
   <i type="int" name="NPAR">    24</i>
   <i type="int" name="NSIM">     4</i>
   <i type="int" name="NBLK">    -1</i>
   <i type="logical" name="LPLANE"> T  </i>
   <i type="logical" name="LSCALAPACK"> T  </i>
   <i type="logical" name="LSCAAWARE"> F  </i>
   <i type="logical" name="LSCALU"> F  </i>
   <i type="logical" name="LASYNC"> F  </i>
   <i type="logical" name="LORBITALREAL"> F  </i>
  </separator>
  <separator name="miscellaneous" >
   <i type="int" name="IDIOT">     3</i>
   <i type="int" name="PHON_NSTRUCT">    -1</i>
   <i type="logical" name="LMUSIC"> F  </i>
   <v name="POMASS">     10.81100000</v>
   <v name="DARWINR">      0.00000000</v>
   <v name="DARWINV">      1.00000000</v>
   <i type="logical" name="LCORR"> T  </i>
  </separator>
  <i type="logical" name="GGA_COMPAT"> T  </i>
  <i type="logical" name="LBERRY"> F  </i>
  <i type="int" name="ICORELEVEL">     0</i>
  <i type="logical" name="LDAU"> F  </i>
  <i type="int" name="I_CONSTRAINED_M">     0</i>
  <separator name="electronic exchange-correlation" >
   <i type="string" name="GGA    ">PE</i>
   <i type="string" name="XC_C">1</i>
   <i type="int" name="VOSKOWN">     0</i>
   <i type="logical" name="LHFCALC"> F  </i>
   <i type="string" name="PRECFOCK"></i>
   <i type="logical" name="LSYMGRAD"> F  </i>
   <i type="logical" name="LHFONE"> F  </i>
   <i type="logical" name="LRHFCALC"> F  </i>
   <i type="logical" name="LTHOMAS"> F  </i>
   <i type="logical" name="LMODELHF"> F  </i>
   <i type="logical" name="LFOCKACE"> F  </i>
   <i name="ENCUT4O">     -1.00000000</i>
   <i type="int" name="EXXOEP">     0</i>
   <i type="int" name="FOURORBIT">     0</i>
   <i name="AEXX">      0.00000000</i>
   <i name="HFALPHA">      0.00000000</i>
   <i name="MCALPHA">      0.00000000</i>
   <i name="ALDAX">      1.00000000</i>
   <i name="AGGAX">      1.00000000</i>
   <i name="AMGGAX">      1.00000000</i>
   <i name="ALDAC">      1.00000000</i>
   <i name="AGGAC">      1.00000000</i>
   <i name="AMGGAC">      1.00000000</i>
   <i type="int" name="NKREDX">     1</i>
   <i type="int" name="NKREDY">     1</i>
   <i type="int" name="NKREDZ">     1</i>
   <i type="logical" name="SHIFTRED"> F  </i>
   <i type="logical" name="ODDONLY"> F  </i>
   <i type="logical" name="EVENONLY"> F  </i>
   <i type="int" name="LMAXFOCK">     0</i>
   <i type="int" name="NMAXFOCKAE">     0</i>
   <i type="logical" name="LFOCKAEDFT"> F  </i>
   <i name="HFSCREEN">      0.00000000</i>
   <i name="HFSCREENC">      0.00000000</i>
   <i type="int" name="NBANDSGWLOW">     0</i>
  </separator>
  <separator name="vdW DFT" >
   <i type="logical" name="LUSE_VDW"> F  </i>
   <i type="int" name="IVDW_NL">    -1</i>
   <i type="logical" name="LSPIN_VDW"> F  </i>
   <i name="ZAB_VDW">     -0.84910000</i>
   <i name="GAMMA_VDW">      1.39626340</i>
   <i name="ALPHA_VDW">      0.00000000</i>
   <i name="PARAM1">      0.12340000</i>
   <i name="PARAM2">      1.00000000</i>
   <i name="BPARAM">      6.30000000</i>
   <i name="CPARAM">      0.00930000</i>
  </separator>
  <separator name="model GW" >
   <i type="int" name="MODEL_GW">     0</i>
   <i name="MODEL_EPS0">   2025.00000000</i>
   <i name="MODEL_ALPHA">      1.00000000</i>
  </separator>
  <separator name="linear response parameters" >
   <i type="logical" name="LEPSILON"> F  </i>
   <i type="logical" name="LRPA"> F  </i>
   <i type="logical" name="LNABLA"> F  </i>
   <i type="logical" name="LVEL"> F  </i>
   <i name="CSHIFT">      0.10000000</i>
   <i name="OMEGAMAX">     -1.00000000</i>
   <i name="DEG_THRESHOLD">      0.00200000</i>
   <i name="RTIME">     -0.10000000</i>
   <i name="WPLASMAI">      0.00000000</i>
   <v name="DFIELD">      0.00000000      0.00000000      0.00000000</v>
   <v name="WPLASMA">      0.00000000      0.00000000      0.00000000      0.00000000      0.00000000      0.00000000      0.00000000      0.00000000      0.00000000</v>
  </separator>
  <separator name="orbital magnetization" >
   <i type="logical" name="NUCIND"> F  </i>
   <v name="MAGPOS">      0.00000000      0.00000000      0.00000000</v>
   <i type="logical" name="LNICSALL"> T  </i>
   <i type="logical" name="ORBITALMAG"> F  </i>
   <i type="logical" name="LMAGBLOCH"> F  </i>
   <i type="logical" name="LCHIMAG"> F  </i>
   <i type="logical" name="LGAUGE"> T  </i>
   <i type="int" name="MAGATOM">     0</i>
   <v name="MAGDIPOL">      0.00000000      0.00000000      0.00000000</v>
   <v name="AVECCONST">      0.00000000      0.00000000      0.00000000</v>
  </separator>
  <separator name="response functions" >
   <i type="logical" name="LALL_IN_ONE"> F  </i>
   <i type="int" name="IALL_IN_ONE">    -1</i>
   <i type="int" name="NBANDS_WAVE">    -1</i>
   <i type="logical" name="LFINITE_TEMPERATURE"> F  </i>
   <i type="logical" name="LADDER"> F  </i>
   <i type="logical" name="LRPAFORCE"> F  </i>
   <i type="logical" name="LFXC"> F  </i>
   <i type="logical" name="LHARTREE"> T  </i>
   <i type="int" name="IBSE">     0</i>
   <v type="int" name="KPOINT">    -1     0     0     0</v>
   <i type="logical" name="LTCTC"> F  </i>
   <i type="logical" name="LTCTE"> F  </i>
   <i type="logical" name="LTETE"> F  </i>
   <i type="logical" name="LTRIPLET"> F  </i>
   <i type="logical" name="LFXCEPS"> F  </i>
   <i type="logical" name="LFXHEG"> F  </i>
   <i type="int" name="NATURALO">     2</i>
   <i type="logical" name="LHOLEGF"> F  </i>
   <i type="logical" name="L2ORDER"> F  </i>
   <i type="logical" name="LDMP1"> F  </i>
   <i type="logical" name="LMP2LT"> F  </i>
   <i type="logical" name="LSMP2LT"> F  </i>
   <i type="logical" name="LGWLF"> F  </i>
   <i name="ENCUTGW">     -1.60000002</i>
   <i name="ENCUTGWSOFT">     -1.60000002</i>
   <i name="ENCUTLF">     -1.00000000</i>
   <i type="logical" name="ESF_SPLINES"> F  </i>
   <i name="ESF_CONV">      0.01000000</i>
   <i type="int" name="ESF_NINTER">    15</i>
   <i type="int" name="LMAXMP2">    -1</i>
   <i name="SCISSOR">      0.00000000</i>
   <i type="int" name="NOMEGA">     0</i>
   <i type="int" name="NOMEGAR">     0</i>
   <i type="int" name="NBANDSGW">    -1</i>
   <i type="int" name="NBANDSO">    -1</i>
   <i type="int" name="NBANDSV">    -1</i>
   <i type="int" name="NELMGW">     1</i>
   <i type="int" name="NELMHF">     1</i>
   <i type="int" name="DIM">     3</i>
   <i type="int" name="IESPILON">     4</i>
   <i type="int" name="ANTIRES">     0</i>
   <i name="OMEGAMAX">    -30.00000000</i>
   <i name="OMEGAMIN">    -30.00000000</i>
   <i name="OMEGATL">   -200.00000000</i>
   <i type="int" name="OMEGAGRID">     0</i>
   <i name="CSHIFT">     -0.10000000</i>
   <i type="logical" name="LSELFENERGY"> F  </i>
   <i type="logical" name="LSPECTRAL"> F  </i>
   <i type="logical" name="LSPECTRALGW"> F  </i>
   <i type="logical" name="LSINGLES"> F  </i>
   <i type="logical" name="LFERMIGW"> F  </i>
   <i type="logical" name="ODDONLYGW"> F  </i>
   <i type="logical" name="EVENONLYGW"> F  </i>
   <i type="int" name="NKREDLFX">     1</i>
   <i type="int" name="NKREDLFY">     1</i>
   <i type="int" name="NKREDLFZ">     1</i>
   <i type="int" name="MAXMEM">  2800</i>
   <i type="int" name="TELESCOPE">     0</i>
   <i type="int" name="NTAUPAR">    -1</i>
   <i type="int" name="NOMEGAPAR">    -1</i>
   <i name="DAMP_NEWTON">      0.80000001</i>
   <i name="LAMBDA">      1.00000000</i>
  </separator>
  <separator name="External order field" >
   <i name="OFIELD_KAPPA">      0.00000000</i>
   <v name="OFIELD_K">      0.00000000      0.00000000      0.00000000</v>
   <i name="OFIELD_Q6_NEAR">      0.00000000</i>
   <i name="OFIELD_Q6_FAR">      0.00000000</i>
   <i name="OFIELD_A">      0.00000000</i>
  </separator>
  <separator name="optional k-points parameters" >
   <i type="int" name="KPOINTS_OPT_MODE">     1</i>
   <i type="logical" name="LKPOINTS_OPT"> F  </i>
  </separator>
 </parameters>
 <atominfo>
  <atoms>       1 </atoms>
  <types>       1 </types>
  <array name="atoms" >
   <dimension dim="1">ion</dimension>
   <field type="string">element</field>
   <field type="int">atomtype</field>
   <set>
    <rc><c>B </c><c>   1</c></rc>
   </set>
  </array>
  <array name="atomtypes" >
   <dimension dim="1">type</dimension>
   <field type="int">atomspertype</field>
   <field type="string">element</field>
   <field>mass</field>
   <field>valence</field>
   <field type="string">pseudopotential</field>
   <set>
    <rc><c>   1</c><c>B </c><c>     10.81100000</c><c>      3.00000000</c><c>  PAW_PBE B 06Sep2000                   </c></rc>
   </set>
  </array>
 </atominfo>
 <structure name="initialpos" >
  <crystal>
   <varray name="basis" >
    <v>      15.00000000       0.00000000       0.00000000 </v>
    <v>       0.00000000      12.50000000       0.00000000 </v>
    <v>       0.00000000       0.00000000      18.00000000 </v>
   </varray>
   <i name="volume">   3375.00000000 </i>
   <varray name="rec_basis" >
    <v>       0.06666667       0.00000000       0.00000000 </v>
    <v>       0.00000000       0.08000000       0.00000000 </v>
    <v>       0.00000000       0.00000000       0.05555556 </v>
   </varray>
  </crystal>
  <varray name="positions" >
   <v>       0.52123000       0.54500000       0.63796000 </v>
  </varray>
 </structure>
 <calculation>
  <scstep>
   <time name="dav">   49.76   50.58</time>
   <time name="total">   50.20   51.07</time>
   <energy>
    <i name="alphaZ">      0.02038373 </i>
    <i name="ewald">    -11.82901664 </i>
    <i name="hartreedc">    -42.58396533 </i>
    <i name="XCdc">      4.75549673 </i>
    <i name="pawpsdc">     43.49986551 </i>
    <i name="pawaedc">    -42.64454556 </i>
    <i name="eentropy">     -0.01228770 </i>
    <i name="bandstr">    -14.83897046 </i>
    <i name="atom">     71.16900941 </i>
    <i name="e_fr_energy">      7.53596969 </i>
    <i name="e_wo_entrp">      7.54825738 </i>
    <i name="e_0_energy">      7.54211354 </i>
   </energy>
  </scstep>
  <scstep>
   <time name="dav">   74.45   75.56</time>
   <time name="total">   74.45   75.56</time>
   <energy>
    <i name="e_fr_energy">      0.07098679 </i>
    <i name="e_wo_entrp">      0.10321810 </i>
    <i name="e_0_energy">      0.08710244 </i>
   </energy>
  </scstep>
  <scstep>
   <time name="dav">   46.11   46.75</time>
   <time name="total">   46.11   46.75</time>
   <energy>
    <i name="e_fr_energy">     -0.05586364 </i>
    <i name="e_wo_entrp">     -0.00291902 </i>
    <i name="e_0_energy">     -0.02939133 </i>
   </energy>
  </scstep>
  <scstep>
   <time name="dav">   50.31   51.10</time>
   <time name="total">   50.31   51.10</time>
   <energy>
    <i name="e_fr_energy">     -0.05824439 </i>
    <i name="e_wo_entrp">     -0.00524307 </i>
    <i name="e_0_energy">     -0.03174373 </i>
   </energy>
  </scstep>
  <scstep>
   <time name="dav">   60.91   61.75</time>
   <time name="total">   63.56   64.44</time>
   <energy>
    <i name="e_fr_energy">     -0.05827177 </i>
    <i name="e_wo_entrp">     -0.00527043 </i>
    <i name="e_0_energy">     -0.03177110 </i>
   </energy>
  </scstep>
  <scstep>
   <time name="dav">   49.54   50.33</time>
   <time name="total">   49.90   50.69</time>
   <energy>
    <i name="alphaZ">      0.02038373 </i>
    <i name="ewald">    -11.82901664 </i>
    <i name="hartreedc">    -42.58388049 </i>
    <i name="XCdc">      4.75537000 </i>
    <i name="pawpsdc">     43.51354760 </i>
    <i name="pawaedc">    -42.65833406 </i>
    <i name="eentropy">     -0.05300134 </i>
    <i name="bandstr">    -22.39235029 </i>
    <i name="atom">     71.16900941 </i>
    <i name="e_fr_energy">     -0.05827208 </i>
    <i name="e_wo_entrp">     -0.00527074 </i>
    <i name="e_0_energy">     -0.03177141 </i>
   </energy>
  </scstep>
  <structure>
   <crystal>
    <varray name="basis" >
     <v>      15.00000000       0.00000000       0.00000000 </v>
     <v>       0.00000000      12.50000000       0.00000000 </v>
     <v>       0.00000000       0.00000000      18.00000000 </v>
    </varray>
    <i name="volume">   3375.00000000 </i>
    <varray name="rec_basis" >
     <v>       0.06666667       0.00000000       0.00000000 </v>
     <v>       0.00000000       0.08000000       0.00000000 </v>
     <v>       0.00000000       0.00000000       0.05555556 </v>
    </varray>
   </crystal>
   <varray name="positions" >
    <v>       0.52123000       0.54500000       0.63796000 </v>
   </varray>
  </structure>
  <varray name="forces" >
   <v>      -0.00000000      -0.00000000       0.00000000 </v>
  </varray>
  <varray name="stress" >
   <v>      -0.00063099       0.00000000       0.00000000 </v>
   <v>       0.00000000      -0.00056903       0.00000000 </v>
   <v>       0.00000000       0.00000000      -0.00062355 </v>
  </varray>
  <energy>
   <i name="e_fr_energy">     -0.05827208 </i>
   <i name="e_wo_entrp">     -0.00527074 </i>
   <i name="e_0_energy">     -0.03177141 </i>
  </energy>
  <time name="totalsc">  369.85  375.33</time>
  <eigenvalues>
   <array>
    <dimension dim="1">band</dimension>
    <dimension dim="2">kpoint</dimension>
    <dimension dim="3">spin</dimension>
    <field>eigene</field>
    <field>occ</field>
    <set>
     <set comment="spin 1">
      <set comment="kpoint 1">
       <r>   -9.4099    1.0000 </r>
       <r>   -3.5726    0.1667 </r>
       <r>   -3.5726    0.1667 </r>
       <r>   -3.5724    0.1659 </r>
       <r>   -0.2633    0.0000 </r>
       <r>    0.2508    0.0000 </r>
       <r>    0.3533    0.0000 </r>
       <r>    0.4702    0.0000 </r>
       <r>    0.5384    0.0000 </r>
       <r>    0.7262    0.0000 </r>
       <r>    0.7864    0.0000 </r>
       <r>    0.9203    0.0000 </r>
       <r>    0.9487    0.0000 </r>
       <r>    1.0306    0.0000 </r>
       <r>    1.0659    0.0000 </r>
       <r>    1.1747    0.0000 </r>
       <r>    1.2516    0.0000 </r>
       <r>    1.2830    0.0000 </r>
       <r>    1.3286    0.0000 </r>
       <r>    1.3574    0.0000 </r>
       <r>    1.4660    0.0000 </r>
       <r>    1.4797    0.0000 </r>
       <r>    1.5126    0.0000 </r>
       <r>    1.6107    0.0000 </r>
      </set>
      <set comment="kpoint 2">
       <r>   -9.4099    1.0000 </r>
       <r>   -3.5726    0.1667 </r>
       <r>   -3.5726    0.1667 </r>
       <r>   -3.5724    0.1659 </r>
       <r>   -0.2572    0.0000 </r>
       <r>    0.2525    0.0000 </r>
       <r>    0.3356    0.0000 </r>
       <r>    0.4046    0.0000 </r>
       <r>    0.6500    0.0000 </r>
       <r>    0.7321    0.0000 </r>
       <r>    0.7941    0.0000 </r>
       <r>    0.8019    0.0000 </r>
       <r>    0.9143    0.0000 </r>
       <r>    1.0808    0.0000 </r>
       <r>    1.1788    0.0000 </r>
       <r>    1.1899    0.0000 </r>
       <r>    1.2431    0.0000 </r>
       <r>    1.2664    0.0000 </r>
       <r>    1.3214    0.0000 </r>
       <r>    1.3428    0.0000 </r>
       <r>    1.3813    0.0000 </r>
       <r>    1.5521    0.0000 </r>
       <r>    1.5801    0.0000 </r>
       <r>    1.6668    0.0000 </r>
      </set>
      <set comment="kpoint 3">
       <r>   -9.4099    1.0000 </r>
       <r>   -3.5726    0.1667 </r>
       <r>   -3.5726    0.1667 </r>
       <r>   -3.5724    0.1659 </r>
       <r>   -0.2398    0.0000 </r>
       <r>    0.2168    0.0000 </r>
       <r>    0.3038    0.0000 </r>
       <r>    0.4073    0.0000 </r>
       <r>    0.6811    0.0000 </r>
       <r>    0.7489    0.0000 </r>
       <r>    0.7764    0.0000 </r>
       <r>    0.8135    0.0000 </r>
       <r>    0.8373    0.0000 </r>
       <r>    1.1459    0.0000 </r>
       <r>    1.2070    0.0000 </r>
       <r>    1.2142    0.0000 </r>
       <r>    1.2249    0.0000 </r>
       <r>    1.3052    0.0000 </r>
       <r>    1.3387    0.0000 </r>
       <r>    1.3688    0.0000 </r>
       <r>    1.4088    0.0000 </r>
       <r>    1.5832    0.0000 </r>
       <r>    1.6190    0.0000 </r>
       <r>    1.6509    0.0000 </r>
      </set>
      <set comment="kpoint 4">
       <r>   -9.4099    1.0000 </r>
       <r>   -3.5726    0.1668 </r>
       <r>   -3.5726    0.1667 </r>
       <r>   -3.5724    0.1659 </r>
       <r>   -0.2156    0.0000 </r>
       <r>    0.1411    0.0000 </r>
       <r>    0.3293    0.0000 </r>
       <r>    0.4393    0.0000 </r>
       <r>    0.5847    0.0000 </r>
       <r>    0.6931    0.0000 </r>
       <r>    0.7729    0.0000 </r>
       <r>    0.8452    0.0000 </r>
       <r>    0.9927    0.0000 </r>
       <r>    1.0711    0.0000 </r>
       <r>    1.1385    0.0000 </r>
       <r>    1.2296    0.0000 </r>
       <r>    1.2959    0.0000 </r>
       <r>    1.3714    0.0000 </r>
       <r>    1.4003    0.0000 </r>
       <r>    1.4514    0.0000 </r>
       <r>    1.5349    0.0000 </r>
       <r>    1.5486    0.0000 </r>
       <r>    1.5656    0.0000 </r>
       <r>    1.5988    0.0000 </r>
      </set>
      <set comment="kpoint 5">
       <r>   -9.4099    1.0000 </r>
       <r>   -3.5726    0.1668 </r>
       <r>   -3.5726    0.1667 </r>
       <r>   -3.5724    0.1659 </r>
       <r>   -0.1955    0.0000 </r>
       <r>    0.0917    0.0000 </r>
       <r>    0.3634    0.0000 </r>
       <r>    0.4774    0.0000 </r>
       <r>    0.5154    0.0000 </r>
       <r>    0.6249    0.0000 </r>
       <r>    0.7938    0.0000 </r>
       <r>    0.8768    0.0000 </r>
       <r>    1.0227    0.0000 </r>
       <r>    1.0534    0.0000 </r>
       <r>    1.2024    0.0000 </r>
       <r>    1.2514    0.0000 </r>
       <r>    1.3397    0.0000 </r>
       <r>    1.3994    0.0000 </r>
       <r>    1.4130    0.0000 </r>
       <r>    1.4582    0.0000 </r>
       <r>    1.4671    0.0000 </r>
       <r>    1.5007    0.0000 </r>
       <r>    1.5715    0.0000 </r>
       <r>    1.5836    0.0000 </r>
      </set>
      <set comment="kpoint 6">
       <r>   -9.4099    1.0000 </r>
       <r>   -3.5726    0.1667 </r>
       <r>   -3.5726    0.1667 </r>
       <r>   -3.5725    0.1659 </r>
       <r>   -0.2580    0.0000 </r>
       <r>    0.2560    0.0000 </r>
       <r>    0.3581    0.0000 </r>
       <r>    0.4752    0.0000 </r>
       <r>    0.5427    0.0000 </r>
       <r>    0.6204    0.0000 </r>
       <r>    0.9017    0.0000 </r>
       <r>    0.9254    0.0000 </r>
       <r>    0.9525    0.0000 </r>
       <r>    1.0350    0.0000 </r>
       <r>    1.0566    0.0000 </r>
       <r>    1.0928    0.0000 </r>
       <r>    1.1793    0.0000 </r>
       <r>    1.2547    0.0000 </r>
       <r>    1.3449    0.0000 </r>
       <r>    1.3792    0.0000 </r>
       <r>    1.4696    0.0000 </r>
       <r>    1.5611    0.0000 </r>
       <r>    1.5632    0.0000 </r>
       <r>    1.6753    0.0000 </r>
      </set>
      <set comment="kpoint 7">
       <r>   -9.4099    1.0000 </r>
       <r>   -3.5726    0.1667 </r>
       <r>   -3.5726    0.1667 </r>
       <r>   -3.5725    0.1660 </r>
       <r>   -0.2518    0.0000 </r>
       <r>    0.2576    0.0000 </r>
       <r>    0.3406    0.0000 </r>
       <r>    0.4098    0.0000 </r>
       <r>    0.6209    0.0000 </r>
       <r>    0.6602    0.0000 </r>
       <r>    0.8069    0.0000 </r>
       <r>    0.9068    0.0000 </r>
       <r>    0.9216    0.0000 </r>
       <r>    1.0624    0.0000 </r>
       <r>    1.0974    0.0000 </r>
       <r>    1.1560    0.0000 </r>
       <r>    1.1960    0.0000 </r>
       <r>    1.2231    0.0000 </r>
       <r>    1.3723    0.0000 </r>
       <r>    1.4170    0.0000 </r>
       <r>    1.4592    0.0000 </r>
       <r>    1.5310    0.0000 </r>
       <r>    1.5825    0.0000 </r>
       <r>    1.6267    0.0000 </r>
      </set>
      <set comment="kpoint 8">
       <r>   -9.4099    1.0000 </r>
       <r>   -3.5726    0.1667 </r>
       <r>   -3.5726    0.1667 </r>
       <r>   -3.5725    0.1659 </r>
       <r>   -0.2345    0.0000 </r>
       <r>    0.2220    0.0000 </r>
       <r>    0.3090    0.0000 </r>
       <r>    0.4122    0.0000 </r>
       <r>    0.6426    0.0000 </r>
       <r>    0.6863    0.0000 </r>
       <r>    0.7836    0.0000 </r>
       <r>    0.8400    0.0000 </r>
       <r>    0.9280    0.0000 </r>
       <r>    1.0465    0.0000 </r>
       <r>    1.1017    0.0000 </r>
       <r>    1.2206    0.0000 </r>
       <r>    1.2538    0.0000 </r>
       <r>    1.3202    0.0000 </r>
       <r>    1.3778    0.0000 </r>
       <r>    1.4142    0.0000 </r>
       <r>    1.4936    0.0000 </r>
       <r>    1.5200    0.0000 </r>
       <r>    1.5862    0.0000 </r>
       <r>    1.5969    0.0000 </r>
      </set>
      <set comment="kpoint 9">
       <r>   -9.4099    1.0000 </r>
       <r>   -3.5726    0.1668 </r>
       <r>   -3.5726    0.1667 </r>
       <r>   -3.5725    0.1659 </r>
       <r>   -0.2103    0.0000 </r>
       <r>    0.1465    0.0000 </r>
       <r>    0.3345    0.0000 </r>
       <r>    0.4442    0.0000 </r>
       <r>    0.5900    0.0000 </r>
       <r>    0.6706    0.0000 </r>
       <r>    0.6982    0.0000 </r>
       <r>    0.9405    0.0000 </r>
       <r>    0.9687    0.0000 </r>
       <r>    1.0134    0.0000 </r>
       <r>    1.1306    0.0000 </r>
       <r>    1.2483    0.0000 </r>
       <r>    1.2560    0.0000 </r>
       <r>    1.3665    0.0000 </r>
       <r>    1.4248    0.0000 </r>
       <r>    1.4702    0.0000 </r>
       <r>    1.5016    0.0000 </r>
       <r>    1.5368    0.0000 </r>
       <r>    1.5761    0.0000 </r>
       <r>    1.6090    0.0000 </r>
      </set>
      <set comment="kpoint 10">
       <r>   -9.4099    1.0000 </r>
       <r>   -3.5726    0.1668 </r>
       <r>   -3.5726    0.1667 </r>
       <r>   -3.5725    0.1659 </r>
       <r>   -0.1902    0.0000 </r>
       <r>    0.0971    0.0000 </r>
       <r>    0.3685    0.0000 </r>
       <r>    0.4823    0.0000 </r>
       <r>    0.5207    0.0000 </r>
       <r>    0.6301    0.0000 </r>
       <r>    0.6959    0.0000 </r>
       <r>    0.9026    0.0000 </r>
       <r>    0.9840    0.0000 </r>
       <r>    1.1584    0.0000 </r>
       <r>    1.1672    0.0000 </r>
       <r>    1.2213    0.0000 </r>
       <r>    1.2915    0.0000 </r>
       <r>    1.3398    0.0000 </r>
       <r>    1.4174    0.0000 </r>
       <r>    1.4298    0.0000 </r>
       <r>    1.4645    0.0000 </r>
       <r>    1.5914    0.0000 </r>
       <r>    1.5953    0.0000 </r>
       <r>    1.6683    0.0000 </r>
      </set>
      <set comment="kpoint 11">
       <r>   -9.4099    1.0000 </r>
       <r>   -3.5726    0.1667 </r>
       <r>   -3.5726    0.1666 </r>
       <r>   -3.5725    0.1662 </r>
       <r>   -0.2423    0.0000 </r>
       <r>    0.2709    0.0000 </r>
       <r>    0.3706    0.0000 </r>
       <r>    0.4901    0.0000 </r>
       <r>    0.4966    0.0000 </r>
       <r>    0.5651    0.0000 </r>
       <r>    0.9248    0.0000 </r>
       <r>    0.9405    0.0000 </r>
       <r>    0.9867    0.0000 </r>
       <r>    1.0223    0.0000 </r>
       <r>    1.0454    0.0000 </r>
       <r>    1.0867    0.0000 </r>
       <r>    1.1023    0.0000 </r>
       <r>    1.1491    0.0000 </r>
       <r>    1.2367    0.0000 </r>
       <r>    1.5062    0.0000 </r>
       <r>    1.5774    0.0000 </r>
       <r>    1.6050    0.0000 </r>
       <r>    1.6234    0.0000 </r>
       <r>    1.6520    0.0000 </r>
      </set>
      <set comment="kpoint 12">
       <r>   -9.4099    1.0000 </r>
       <r>   -3.5726    0.1667 </r>
       <r>   -3.5726    0.1667 </r>
       <r>   -3.5725    0.1662 </r>
       <r>   -0.2361    0.0000 </r>
       <r>    0.2724    0.0000 </r>
       <r>    0.3547    0.0000 </r>
       <r>    0.4246    0.0000 </r>
       <r>    0.5045    0.0000 </r>
       <r>    0.6736    0.0000 </r>
       <r>    0.8217    0.0000 </r>
       <r>    0.9302    0.0000 </r>
       <r>    0.9466    0.0000 </r>
       <r>    1.0190    0.0000 </r>
       <r>    1.0665    0.0000 </r>
       <r>    1.0937    0.0000 </r>
       <r>    1.1189    0.0000 </r>
       <r>    1.2281    0.0000 </r>
       <r>    1.3323    0.0000 </r>
       <r>    1.4786    0.0000 </r>
       <r>    1.5372    0.0000 </r>
       <r>    1.5643    0.0000 </r>
       <r>    1.5887    0.0000 </r>
       <r>    1.6588    0.0000 </r>
      </set>
      <set comment="kpoint 13">
       <r>   -9.4099    1.0000 </r>
       <r>   -3.5726    0.1667 </r>
       <r>   -3.5726    0.1667 </r>
       <r>   -3.5725    0.1662 </r>
       <r>   -0.2188    0.0000 </r>
       <r>    0.2373    0.0000 </r>
       <r>    0.3247    0.0000 </r>
       <r>    0.4253    0.0000 </r>
       <r>    0.5239    0.0000 </r>
       <r>    0.7017    0.0000 </r>
       <r>    0.7964    0.0000 </r>
       <r>    0.8565    0.0000 </r>
       <r>    0.9210    0.0000 </r>
       <r>    0.9818    0.0000 </r>
       <r>    1.0691    0.0000 </r>
       <r>    1.1150    0.0000 </r>
       <r>    1.2682    0.0000 </r>
       <r>    1.3653    0.0000 </r>
       <r>    1.3829    0.0000 </r>
       <r>    1.4450    0.0000 </r>
       <r>    1.5146    0.0000 </r>
       <r>    1.5280    0.0000 </r>
       <r>    1.5614    0.0000 </r>
       <r>    1.6376    0.0000 </r>
      </set>
      <set comment="kpoint 14">
       <r>   -9.4099    1.0000 </r>
       <r>   -3.5726    0.1667 </r>
       <r>   -3.5726    0.1667 </r>
       <r>   -3.5725    0.1662 </r>
       <r>   -0.1947    0.0000 </r>
       <r>    0.1625    0.0000 </r>
       <r>    0.3499    0.0000 </r>
       <r>    0.4568    0.0000 </r>
       <r>    0.5523    0.0000 </r>
       <r>    0.6062    0.0000 </r>
       <r>    0.7123    0.0000 </r>
       <r>    0.8352    0.0000 </r>
       <r>    1.0076    0.0000 </r>
       <r>    1.0237    0.0000 </r>
       <r>    1.0947    0.0000 </r>
       <r>    1.1484    0.0000 </r>
       <r>    1.2680    0.0000 </r>
       <r>    1.3595    0.0000 </r>
       <r>    1.4191    0.0000 </r>
       <r>    1.4610    0.0000 </r>
       <r>    1.5486    0.0000 </r>
       <r>    1.5989    0.0000 </r>
       <r>    1.6193    0.0000 </r>
       <r>    1.6756    0.0000 </r>
      </set>
      <set comment="kpoint 15">
       <r>   -9.4099    1.0000 </r>
       <r>   -3.5726    0.1668 </r>
       <r>   -3.5726    0.1667 </r>
       <r>   -3.5725    0.1662 </r>
       <r>   -0.1748    0.0000 </r>
       <r>    0.1135    0.0000 </r>
       <r>    0.3836    0.0000 </r>
       <r>    0.4941    0.0000 </r>
       <r>    0.5359    0.0000 </r>
       <r>    0.5806    0.0000 </r>
       <r>    0.6449    0.0000 </r>
       <r>    0.7800    0.0000 </r>
       <r>    1.0394    0.0000 </r>
       <r>    1.1196    0.0000 </r>
       <r>    1.1765    0.0000 </r>
       <r>    1.1900    0.0000 </r>
       <r>    1.2333    0.0000 </r>
       <r>    1.3037    0.0000 </r>
       <r>    1.3593    0.0000 </r>
       <r>    1.4474    0.0000 </r>
       <r>    1.5806    0.0000 </r>
       <r>    1.6432    0.0000 </r>
       <r>    1.6898    0.0000 </r>
       <r>    1.7328    0.0000 </r>
      </set>
      <set comment="kpoint 16">
       <r>   -9.4099    1.0000 </r>
       <r>   -3.5726    0.1667 </r>
       <r>   -3.5725    0.1666 </r>
       <r>   -3.5725    0.1666 </r>
       <r>   -0.2169    0.0000 </r>
       <r>    0.2899    0.0000 </r>
       <r>    0.3634    0.0000 </r>
       <r>    0.4278    0.0000 </r>
       <r>    0.5145    0.0000 </r>
       <r>    0.5911    0.0000 </r>
       <r>    0.8235    0.0000 </r>
       <r>    0.9267    0.0000 </r>
       <r>    0.9620    0.0000 </r>
       <r>    1.0097    0.0000 </r>
       <r>    1.0210    0.0000 </r>
       <r>    1.0974    0.0000 </r>
       <r>    1.1114    0.0000 </r>
       <r>    1.1267    0.0000 </r>
       <r>    1.2361    0.0000 </r>
       <r>    1.4997    0.0000 </r>
       <r>    1.5103    0.0000 </r>
       <r>    1.6015    0.0000 </r>
       <r>    1.6037    0.0000 </r>
       <r>    1.6365    0.0000 </r>
      </set>
      <set comment="kpoint 17">
       <r>   -9.4099    1.0000 </r>
       <r>   -3.5726    0.1667 </r>
       <r>   -3.5726    0.1666 </r>
       <r>   -3.5725    0.1666 </r>
       <r>   -0.2108    0.0000 </r>
       <r>    0.2911    0.0000 </r>
       <r>    0.3647    0.0000 </r>
       <r>    0.4121    0.0000 </r>
       <r>    0.4557    0.0000 </r>
       <r>    0.6990    0.0000 </r>
       <r>    0.8205    0.0000 </r>
       <r>    0.8615    0.0000 </r>
       <r>    0.9009    0.0000 </r>
       <r>    0.9673    0.0000 </r>
       <r>    0.9799    0.0000 </r>
       <r>    1.1356    0.0000 </r>
       <r>    1.2011    0.0000 </r>
       <r>    1.2486    0.0000 </r>
       <r>    1.2632    0.0000 </r>
       <r>    1.3808    0.0000 </r>
       <r>    1.4871    0.0000 </r>
       <r>    1.6053    0.0000 </r>
       <r>    1.6482    0.0000 </r>
       <r>    1.7096    0.0000 </r>
      </set>
      <set comment="kpoint 18">
       <r>   -9.4099    1.0000 </r>
       <r>   -3.5726    0.1667 </r>
       <r>   -3.5726    0.1667 </r>
       <r>   -3.5725    0.1666 </r>
       <r>   -0.1936    0.0000 </r>
       <r>    0.2602    0.0000 </r>
       <r>    0.3499    0.0000 </r>
       <r>    0.4010    0.0000 </r>
       <r>    0.4675    0.0000 </r>
       <r>    0.7238    0.0000 </r>
       <r>    0.7905    0.0000 </r>
       <r>    0.8375    0.0000 </r>
       <r>    0.8752    0.0000 </r>
       <r>    0.8867    0.0000 </r>
       <r>    0.9793    0.0000 </r>
       <r>    1.2364    0.0000 </r>
       <r>    1.2466    0.0000 </r>
       <r>    1.3117    0.0000 </r>
       <r>    1.3409    0.0000 </r>
       <r>    1.4181    0.0000 </r>
       <r>    1.4296    0.0000 </r>
       <r>    1.6223    0.0000 </r>
       <r>    1.6760    0.0000 </r>
       <r>    1.7318    0.0000 </r>
      </set>
      <set comment="kpoint 19">
       <r>   -9.4099    1.0000 </r>
       <r>   -3.5726    0.1667 </r>
       <r>   -3.5726    0.1667 </r>
       <r>   -3.5725    0.1666 </r>
       <r>   -0.1697    0.0000 </r>
       <r>    0.1887    0.0000 </r>
       <r>    0.3726    0.0000 </r>
       <r>    0.4282    0.0000 </r>
       <r>    0.4999    0.0000 </r>
       <r>    0.6303    0.0000 </r>
       <r>    0.7067    0.0000 </r>
       <r>    0.7576    0.0000 </r>
       <r>    0.8978    0.0000 </r>
       <r>    1.0111    0.0000 </r>
       <r>    1.0483    0.0000 </r>
       <r>    1.1547    0.0000 </r>
       <r>    1.2543    0.0000 </r>
       <r>    1.2832    0.0000 </r>
       <r>    1.4791    0.0000 </r>
       <r>    1.5321    0.0000 </r>
       <r>    1.5715    0.0000 </r>
       <r>    1.6403    0.0000 </r>
       <r>    1.6557    0.0000 </r>
       <r>    1.7202    0.0000 </r>
      </set>
      <set comment="kpoint 20">
       <r>   -9.4099    1.0000 </r>
       <r>   -3.5726    0.1667 </r>
       <r>   -3.5726    0.1667 </r>
       <r>   -3.5725    0.1666 </r>
       <r>   -0.1500    0.0000 </r>
       <r>    0.1405    0.0000 </r>
       <r>    0.4053    0.0000 </r>
       <r>    0.4560    0.0000 </r>
       <r>    0.5357    0.0000 </r>
       <r>    0.5633    0.0000 </r>
       <r>    0.6473    0.0000 </r>
       <r>    0.6930    0.0000 </r>
       <r>    0.9308    0.0000 </r>
       <r>    1.0494    0.0000 </r>
       <r>    1.0836    0.0000 </r>
       <r>    1.1903    0.0000 </r>
       <r>    1.2396    0.0000 </r>
       <r>    1.3060    0.0000 </r>
       <r>    1.4418    0.0000 </r>
       <r>    1.5456    0.0000 </r>
       <r>    1.6447    0.0000 </r>
       <r>    1.6886    0.0000 </r>
       <r>    1.7564    0.0000 </r>
       <r>    1.7825    0.0000 </r>
      </set>
      <set comment="kpoint 21">
       <r>   -9.4099    1.0000 </r>
       <r>   -3.5726    0.1670 </r>
       <r>   -3.5726    0.1666 </r>
       <r>   -3.5725    0.1666 </r>
       <r>   -0.1835    0.0000 </r>
       <r>    0.2553    0.0000 </r>
       <r>    0.3512    0.0000 </r>
       <r>    0.4502    0.0000 </r>
       <r>    0.5474    0.0000 </r>
       <r>    0.6291    0.0000 </r>
       <r>    0.7227    0.0000 </r>
       <r>    0.8263    0.0000 </r>
       <r>    0.9242    0.0000 </r>
       <r>    1.0079    0.0000 </r>
       <r>    1.0104    0.0000 </r>
       <r>    1.0478    0.0000 </r>
       <r>    1.1234    0.0000 </r>
       <r>    1.1619    0.0000 </r>
       <r>    1.3800    0.0000 </r>
       <r>    1.3997    0.0000 </r>
       <r>    1.4278    0.0000 </r>
       <r>    1.5055    0.0000 </r>
       <r>    1.5439    0.0000 </r>
       <r>    1.6438    0.0000 </r>
      </set>
      <set comment="kpoint 22">
       <r>   -9.4099    1.0000 </r>
       <r>   -3.5726    0.1670 </r>
       <r>   -3.5726    0.1666 </r>
       <r>   -3.5725    0.1666 </r>
       <r>   -0.1775    0.0000 </r>
       <r>    0.2605    0.0000 </r>
       <r>    0.3564    0.0000 </r>
       <r>    0.4272    0.0000 </r>
       <r>    0.4899    0.0000 </r>
       <r>    0.7234    0.0000 </r>
       <r>    0.7362    0.0000 </r>
       <r>    0.8081    0.0000 </r>
       <r>    0.8624    0.0000 </r>
       <r>    0.8992    0.0000 </r>
       <r>    1.0065    0.0000 </r>
       <r>    1.1151    0.0000 </r>
       <r>    1.1748    0.0000 </r>
       <r>    1.2690    0.0000 </r>
       <r>    1.2967    0.0000 </r>
       <r>    1.3730    0.0000 </r>
       <r>    1.4233    0.0000 </r>
       <r>    1.5601    0.0000 </r>
       <r>    1.6473    0.0000 </r>
       <r>    1.6725    0.0000 </r>
      </set>
      <set comment="kpoint 23">
       <r>   -9.4099    1.0000 </r>
       <r>   -3.5726    0.1670 </r>
       <r>   -3.5726    0.1666 </r>
       <r>   -3.5726    0.1666 </r>
       <r>   -0.1605    0.0000 </r>
       <r>    0.2667    0.0000 </r>
       <r>    0.3362    0.0000 </r>
       <r>    0.3882    0.0000 </r>
       <r>    0.4985    0.0000 </r>
       <r>    0.6877    0.0000 </r>
       <r>    0.7596    0.0000 </r>
       <r>    0.7792    0.0000 </r>
       <r>    0.8678    0.0000 </r>
       <r>    0.8807    0.0000 </r>
       <r>    0.9232    0.0000 </r>
       <r>    1.1452    0.0000 </r>
       <r>    1.2404    0.0000 </r>
       <r>    1.2922    0.0000 </r>
       <r>    1.3475    0.0000 </r>
       <r>    1.4262    0.0000 </r>
       <r>    1.4706    0.0000 </r>
       <r>    1.6639    0.0000 </r>
       <r>    1.7193    0.0000 </r>
       <r>    1.8117    0.0000 </r>
      </set>
      <set comment="kpoint 24">
       <r>   -9.4099    1.0000 </r>
       <r>   -3.5726    0.1670 </r>
       <r>   -3.5726    0.1667 </r>
       <r>   -3.5726    0.1666 </r>
       <r>   -0.1371    0.0000 </r>
       <r>    0.2228    0.0000 </r>
       <r>    0.3305    0.0000 </r>
       <r>    0.4165    0.0000 </r>
       <r>    0.5307    0.0000 </r>
       <r>    0.6041    0.0000 </r>
       <r>    0.6790    0.0000 </r>
       <r>    0.7791    0.0000 </r>
       <r>    0.8032    0.0000 </r>
       <r>    0.9098    0.0000 </r>
       <r>    1.0443    0.0000 </r>
       <r>    1.0890    0.0000 </r>
       <r>    1.1602    0.0000 </r>
       <r>    1.4157    0.0000 </r>
       <r>    1.4859    0.0000 </r>
       <r>    1.5179    0.0000 </r>
       <r>    1.6347    0.0000 </r>
       <r>    1.6605    0.0000 </r>
       <r>    1.7693    0.0000 </r>
       <r>    1.7839    0.0000 </r>
      </set>
      <set comment="kpoint 25">
       <r>   -9.4099    1.0000 </r>
       <r>   -3.5726    0.1670 </r>
       <r>   -3.5726    0.1667 </r>
       <r>   -3.5726    0.1666 </r>
       <r>   -0.1180    0.0000 </r>
       <r>    0.1778    0.0000 </r>
       <r>    0.3549    0.0000 </r>
       <r>    0.4487    0.0000 </r>
       <r>    0.5414    0.0000 </r>
       <r>    0.5724    0.0000 </r>
       <r>    0.6132    0.0000 </r>
       <r>    0.7176    0.0000 </r>
       <r>    0.8323    0.0000 </r>
       <r>    0.9480    0.0000 </r>
       <r>    0.9799    0.0000 </r>
       <r>    1.0882    0.0000 </r>
       <r>    1.2764    0.0000 </r>
       <r>    1.4428    0.0000 </r>
       <r>    1.4967    0.0000 </r>
       <r>    1.6442    0.0000 </r>
       <r>    1.6841    0.0000 </r>
       <r>    1.7133    0.0000 </r>
       <r>    1.7657    0.0000 </r>
       <r>    1.8378    0.0000 </r>
      </set>
      <set comment="kpoint 26">
       <r>   -9.4099    1.0000 </r>
       <r>   -3.5726    0.1673 </r>
       <r>   -3.5726    0.1666 </r>
       <r>   -3.5725    0.1666 </r>
       <r>   -0.1468    0.0000 </r>
       <r>    0.1826    0.0000 </r>
       <r>    0.3910    0.0000 </r>
       <r>    0.4939    0.0000 </r>
       <r>    0.5858    0.0000 </r>
       <r>    0.6339    0.0000 </r>
       <r>    0.6763    0.0000 </r>
       <r>    0.7368    0.0000 </r>
       <r>    0.8482    0.0000 </r>
       <r>    0.9205    0.0000 </r>
       <r>    1.0464    0.0000 </r>
       <r>    1.0942    0.0000 </r>
       <r>    1.1647    0.0000 </r>
       <r>    1.2112    0.0000 </r>
       <r>    1.3137    0.0000 </r>
       <r>    1.3174    0.0000 </r>
       <r>    1.4203    0.0000 </r>
       <r>    1.4297    0.0000 </r>
       <r>    1.5858    0.0000 </r>
       <r>    1.6984    0.0000 </r>
      </set>
      <set comment="kpoint 27">
       <r>   -9.4099    1.0000 </r>
       <r>   -3.5726    0.1673 </r>
       <r>   -3.5726    0.1666 </r>
       <r>   -3.5725    0.1666 </r>
       <r>   -0.1409    0.0000 </r>
       <r>    0.1894    0.0000 </r>
       <r>    0.3950    0.0000 </r>
       <r>    0.4687    0.0000 </r>
       <r>    0.5333    0.0000 </r>
       <r>    0.6383    0.0000 </r>
       <r>    0.7157    0.0000 </r>
       <r>    0.7715    0.0000 </r>
       <r>    0.7916    0.0000 </r>
       <r>    0.9381    0.0000 </r>
       <r>    1.0302    0.0000 </r>
       <r>    1.0537    0.0000 </r>
       <r>    1.1748    0.0000 </r>
       <r>    1.2270    0.0000 </r>
       <r>    1.2885    0.0000 </r>
       <r>    1.3437    0.0000 </r>
       <r>    1.4655    0.0000 </r>
       <r>    1.5569    0.0000 </r>
       <r>    1.6074    0.0000 </r>
       <r>    1.7056    0.0000 </r>
      </set>
      <set comment="kpoint 28">
       <r>   -9.4099    1.0000 </r>
       <r>   -3.5726    0.1673 </r>
       <r>   -3.5726    0.1666 </r>
       <r>   -3.5725    0.1666 </r>
       <r>   -0.1244    0.0000 </r>
       <r>    0.2088    0.0000 </r>
       <r>    0.3606    0.0000 </r>
       <r>    0.4309    0.0000 </r>
       <r>    0.5422    0.0000 </r>
       <r>    0.6048    0.0000 </r>
       <r>    0.6787    0.0000 </r>
       <r>    0.7831    0.0000 </r>
       <r>    0.8211    0.0000 </r>
       <r>    0.9115    0.0000 </r>
       <r>    0.9689    0.0000 </r>
       <r>    1.0584    0.0000 </r>
       <r>    1.1564    0.0000 </r>
       <r>    1.2121    0.0000 </r>
       <r>    1.3857    0.0000 </r>
       <r>    1.5013    0.0000 </r>
       <r>    1.5841    0.0000 </r>
       <r>    1.6437    0.0000 </r>
       <r>    1.7132    0.0000 </r>
       <r>    1.7528    0.0000 </r>
      </set>
      <set comment="kpoint 29">
       <r>   -9.4099    1.0000 </r>
       <r>   -3.5726    0.1673 </r>
       <r>   -3.5726    0.1666 </r>
       <r>   -3.5726    0.1666 </r>
       <r>   -0.1018    0.0000 </r>
       <r>    0.2339    0.0000 </r>
       <r>    0.2881    0.0000 </r>
       <r>    0.4578    0.0000 </r>
       <r>    0.5179    0.0000 </r>
       <r>    0.5772    0.0000 </r>
       <r>    0.7046    0.0000 </r>
       <r>    0.7279    0.0000 </r>
       <r>    0.8156    0.0000 </r>
       <r>    0.8361    0.0000 </r>
       <r>    0.9572    0.0000 </r>
       <r>    1.0640    0.0000 </r>
       <r>    1.1335    0.0000 </r>
       <r>    1.3762    0.0000 </r>
       <r>    1.5514    0.0000 </r>
       <r>    1.6049    0.0000 </r>
       <r>    1.6870    0.0000 </r>
       <r>    1.6914    0.0000 </r>
       <r>    1.7987    0.0000 </r>
       <r>    1.8413    0.0000 </r>
      </set>
      <set comment="kpoint 30">
       <r>   -9.4099    1.0000 </r>
       <r>   -3.5726    0.1673 </r>
       <r>   -3.5726    0.1667 </r>
       <r>   -3.5726    0.1666 </r>
       <r>   -0.0836    0.0000 </r>
       <r>    0.2233    0.0000 </r>
       <r>    0.2800    0.0000 </r>
       <r>    0.4589    0.0000 </r>
       <r>    0.4886    0.0000 </r>
       <r>    0.6152    0.0000 </r>
       <r>    0.6569    0.0000 </r>
       <r>    0.7465    0.0000 </r>
       <r>    0.7652    0.0000 </r>
       <r>    0.8587    0.0000 </r>
       <r>    0.8872    0.0000 </r>
       <r>    0.9966    0.0000 </r>
       <r>    1.3168    0.0000 </r>
       <r>    1.5033    0.0000 </r>
       <r>    1.5811    0.0000 </r>
       <r>    1.6186    0.0000 </r>
       <r>    1.7256    0.0000 </r>
       <r>    1.7542    0.0000 </r>
       <r>    1.8340    0.0000 </r>
       <r>    1.8733    0.0000 </r>
      </set>
      <set comment="kpoint 31">
       <r>   -9.4099    1.0000 </r>
       <r>   -3.5727    0.1675 </r>
       <r>   -3.5725    0.1666 </r>
       <r>   -3.5725    0.1665 </r>
       <r>   -0.1184    0.0000 </r>
       <r>    0.1339    0.0000 </r>
       <r>    0.4348    0.0000 </r>
       <r>    0.5392    0.0000 </r>
       <r>    0.5671    0.0000 </r>
       <r>    0.6189    0.0000 </r>
       <r>    0.6689    0.0000 </r>
       <r>    0.7244    0.0000 </r>
       <r>    0.7950    0.0000 </r>
       <r>    0.8504    0.0000 </r>
       <r>    1.0819    0.0000 </r>
       <r>    1.1482    0.0000 </r>
       <r>    1.2085    0.0000 </r>
       <r>    1.2389    0.0000 </r>
       <r>    1.2496    0.0000 </r>
       <r>    1.2719    0.0000 </r>
       <r>    1.3557    0.0000 </r>
       <r>    1.3605    0.0000 </r>
       <r>    1.6789    0.0000 </r>
       <r>    1.8052    0.0000 </r>
      </set>
      <set comment="kpoint 32">
       <r>   -9.4099    1.0000 </r>
       <r>   -3.5727    0.1675 </r>
       <r>   -3.5725    0.1666 </r>
       <r>   -3.5725    0.1666 </r>
       <r>   -0.1127    0.0000 </r>
       <r>    0.1412    0.0000 </r>
       <r>    0.4387    0.0000 </r>
       <r>    0.5099    0.0000 </r>
       <r>    0.5625    0.0000 </r>
       <r>    0.5847    0.0000 </r>
       <r>    0.6546    0.0000 </r>
       <r>    0.7150    0.0000 </r>
       <r>    0.8225    0.0000 </r>
       <r>    0.9700    0.0000 </r>
       <r>    0.9830    0.0000 </r>
       <r>    1.0925    0.0000 </r>
       <r>    1.1209    0.0000 </r>
       <r>    1.2154    0.0000 </r>
       <r>    1.2702    0.0000 </r>
       <r>    1.3814    0.0000 </r>
       <r>    1.4112    0.0000 </r>
       <r>    1.5063    0.0000 </r>
       <r>    1.6842    0.0000 </r>
       <r>    1.8101    0.0000 </r>
      </set>
      <set comment="kpoint 33">
       <r>   -9.4099    1.0000 </r>
       <r>   -3.5727    0.1675 </r>
       <r>   -3.5725    0.1666 </r>
       <r>   -3.5725    0.1666 </r>
       <r>   -0.0968    0.0000 </r>
       <r>    0.1624    0.0000 </r>
       <r>    0.4014    0.0000 </r>
       <r>    0.4718    0.0000 </r>
       <r>    0.5364    0.0000 </r>
       <r>    0.5918    0.0000 </r>
       <r>    0.6164    0.0000 </r>
       <r>    0.7172    0.0000 </r>
       <r>    0.8650    0.0000 </r>
       <r>    0.9505    0.0000 </r>
       <r>    0.9800    0.0000 </r>
       <r>    1.0292    0.0000 </r>
       <r>    1.0925    0.0000 </r>
       <r>    1.1444    0.0000 </r>
       <r>    1.4259    0.0000 </r>
       <r>    1.5445    0.0000 </r>
       <r>    1.5725    0.0000 </r>
       <r>    1.6681    0.0000 </r>
       <r>    1.7015    0.0000 </r>
       <r>    1.8167    0.0000 </r>
      </set>
      <set comment="kpoint 34">
       <r>   -9.4099    1.0000 </r>
       <r>   -3.5727    0.1675 </r>
       <r>   -3.5726    0.1666 </r>
       <r>   -3.5725    0.1666 </r>
       <r>   -0.0752    0.0000 </r>
       <r>    0.1953    0.0000 </r>
       <r>    0.3232    0.0000 </r>
       <r>    0.4528    0.0000 </r>
       <r>    0.4977    0.0000 </r>
       <r>    0.6215    0.0000 </r>
       <r>    0.6473    0.0000 </r>
       <r>    0.7502    0.0000 </r>
       <r>    0.7749    0.0000 </r>
       <r>    0.8755    0.0000 </r>
       <r>    0.8903    0.0000 </r>
       <r>    0.9956    0.0000 </r>
       <r>    1.1705    0.0000 </r>
       <r>    1.3191    0.0000 </r>
       <r>    1.5914    0.0000 </r>
       <r>    1.6948    0.0000 </r>
       <r>    1.7152    0.0000 </r>
       <r>    1.7272    0.0000 </r>
       <r>    1.7799    0.0000 </r>
       <r>    1.8428    0.0000 </r>
      </set>
      <set comment="kpoint 35">
       <r>   -9.4099    1.0000 </r>
       <r>   -3.5727    0.1675 </r>
       <r>   -3.5726    0.1667 </r>
       <r>   -3.5725    0.1666 </r>
       <r>   -0.0582    0.0000 </r>
       <r>    0.2300    0.0000 </r>
       <r>    0.2745    0.0000 </r>
       <r>    0.3901    0.0000 </r>
       <r>    0.5254    0.0000 </r>
       <r>    0.6606    0.0000 </r>
       <r>    0.6887    0.0000 </r>
       <r>    0.7093    0.0000 </r>
       <r>    0.7892    0.0000 </r>
       <r>    0.8095    0.0000 </r>
       <r>    0.8190    0.0000 </r>
       <r>    0.9237    0.0000 </r>
       <r>    1.3520    0.0000 </r>
       <r>    1.5074    0.0000 </r>
       <r>    1.5603    0.0000 </r>
       <r>    1.7067    0.0000 </r>
       <r>    1.7289    0.0000 </r>
       <r>    1.7609    0.0000 </r>
       <r>    1.8780    0.0000 </r>
       <r>    1.9013    0.0000 </r>
      </set>
      <set comment="kpoint 36">
       <r>   -9.4099    1.0000 </r>
       <r>   -3.5726    0.1667 </r>
       <r>   -3.5726    0.1667 </r>
       <r>   -3.5724    0.1659 </r>
       <r>   -0.2560    0.0000 </r>
       <r>    0.1640    0.0000 </r>
       <r>    0.4561    0.0000 </r>
       <r>    0.4790    0.0000 </r>
       <r>    0.5674    0.0000 </r>
       <r>    0.7337    0.0000 </r>
       <r>    0.7967    0.0000 </r>
       <r>    0.8337    0.0000 </r>
       <r>    0.8548    0.0000 </r>
       <r>    1.0978    0.0000 </r>
       <r>    1.1318    0.0000 </r>
       <r>    1.1474    0.0000 </r>
       <r>    1.2160    0.0000 </r>
       <r>    1.3340    0.0000 </r>
       <r>    1.3421    0.0000 </r>
       <r>    1.3755    0.0000 </r>
       <r>    1.4842    0.0000 </r>
       <r>    1.4913    0.0000 </r>
       <r>    1.5365    0.0000 </r>
       <r>    1.5446    0.0000 </r>
      </set>
      <set comment="kpoint 37">
       <r>   -9.4099    1.0000 </r>
       <r>   -3.5726    0.1667 </r>
       <r>   -3.5726    0.1667 </r>
       <r>   -3.5724    0.1659 </r>
       <r>   -0.2499    0.0000 </r>
       <r>    0.1703    0.0000 </r>
       <r>    0.3622    0.0000 </r>
       <r>    0.5005    0.0000 </r>
       <r>    0.6622    0.0000 </r>
       <r>    0.7124    0.0000 </r>
       <r>    0.7395    0.0000 </r>
       <r>    0.8043    0.0000 </r>
       <r>    0.9922    0.0000 </r>
       <r>    1.0345    0.0000 </r>
       <r>    1.1040    0.0000 </r>
       <r>    1.1568    0.0000 </r>
       <r>    1.2621    0.0000 </r>
       <r>    1.3187    0.0000 </r>
       <r>    1.3323    0.0000 </r>
       <r>    1.4049    0.0000 </r>
       <r>    1.4119    0.0000 </r>
       <r>    1.4958    0.0000 </r>
       <r>    1.5955    0.0000 </r>
       <r>    1.6499    0.0000 </r>
      </set>
      <set comment="kpoint 38">
       <r>   -9.4099    1.0000 </r>
       <r>   -3.5726    0.1667 </r>
       <r>   -3.5726    0.1667 </r>
       <r>   -3.5724    0.1659 </r>
       <r>   -0.2327    0.0000 </r>
       <r>    0.1830    0.0000 </r>
       <r>    0.2639    0.0000 </r>
       <r>    0.5203    0.0000 </r>
       <r>    0.5947    0.0000 </r>
       <r>    0.7560    0.0000 </r>
       <r>    0.8088    0.0000 </r>
       <r>    0.8351    0.0000 </r>
       <r>    0.9255    0.0000 </r>
       <r>    1.1174    0.0000 </r>
       <r>    1.1366    0.0000 </r>
       <r>    1.1743    0.0000 </r>
       <r>    1.1887    0.0000 </r>
       <r>    1.2530    0.0000 </r>
       <r>    1.3919    0.0000 </r>
       <r>    1.4234    0.0000 </r>
       <r>    1.4849    0.0000 </r>
       <r>    1.5202    0.0000 </r>
       <r>    1.5555    0.0000 </r>
       <r>    1.5690    0.0000 </r>
      </set>
      <set comment="kpoint 39">
       <r>   -9.4099    1.0000 </r>
       <r>   -3.5726    0.1668 </r>
       <r>   -3.5726    0.1667 </r>
       <r>   -3.5724    0.1659 </r>
       <r>   -0.2090    0.0000 </r>
       <r>    0.1494    0.0000 </r>
       <r>    0.2463    0.0000 </r>
       <r>    0.4844    0.0000 </r>
       <r>    0.5662    0.0000 </r>
       <r>    0.7795    0.0000 </r>
       <r>    0.8145    0.0000 </r>
       <r>    0.8562    0.0000 </r>
       <r>    1.0035    0.0000 </r>
       <r>    1.0793    0.0000 </r>
       <r>    1.1498    0.0000 </r>
       <r>    1.1633    0.0000 </r>
       <r>    1.2057    0.0000 </r>
       <r>    1.3431    0.0000 </r>
       <r>    1.4104    0.0000 </r>
       <r>    1.4216    0.0000 </r>
       <r>    1.4600    0.0000 </r>
       <r>    1.5077    0.0000 </r>
       <r>    1.5470    0.0000 </r>
       <r>    1.6491    0.0000 </r>
      </set>
      <set comment="kpoint 40">
       <r>   -9.4099    1.0000 </r>
       <r>   -3.5726    0.1668 </r>
       <r>   -3.5726    0.1667 </r>
       <r>   -3.5724    0.1659 </r>
       <r>   -0.1894    0.0000 </r>
       <r>    0.1038    0.0000 </r>
       <r>    0.2791    0.0000 </r>
       <r>    0.4169    0.0000 </r>
       <r>    0.5999    0.0000 </r>
       <r>    0.7494    0.0000 </r>
       <r>    0.7998    0.0000 </r>
       <r>    0.8860    0.0000 </r>
       <r>    1.0333    0.0000 </r>
       <r>    1.0660    0.0000 </r>
       <r>    1.1895    0.0000 </r>
       <r>    1.2064    0.0000 </r>
       <r>    1.2585    0.0000 </r>
       <r>    1.3637    0.0000 </r>
       <r>    1.3671    0.0000 </r>
       <r>    1.4184    0.0000 </r>
       <r>    1.4556    0.0000 </r>
       <r>    1.5184    0.0000 </r>
       <r>    1.5445    0.0000 </r>
       <r>    1.6150    0.0000 </r>
      </set>
      <set comment="kpoint 41">
       <r>   -9.4099    1.0000 </r>
       <r>   -3.5726    0.1667 </r>
       <r>   -3.5726    0.1667 </r>
       <r>   -3.5725    0.1660 </r>
       <r>   -0.2507    0.0000 </r>
       <r>    0.1694    0.0000 </r>
       <r>    0.4597    0.0000 </r>
       <r>    0.4840    0.0000 </r>
       <r>    0.5725    0.0000 </r>
       <r>    0.6293    0.0000 </r>
       <r>    0.8390    0.0000 </r>
       <r>    0.8577    0.0000 </r>
       <r>    0.9119    0.0000 </r>
       <r>    0.9871    0.0000 </r>
       <r>    1.1499    0.0000 </r>
       <r>    1.1937    0.0000 </r>
       <r>    1.2638    0.0000 </r>
       <r>    1.2681    0.0000 </r>
       <r>    1.2858    0.0000 </r>
       <r>    1.3547    0.0000 </r>
       <r>    1.4141    0.0000 </r>
       <r>    1.5686    0.0000 </r>
       <r>    1.5843    0.0000 </r>
       <r>    1.6601    0.0000 </r>
      </set>
      <set comment="kpoint 42">
       <r>   -9.4099    1.0000 </r>
       <r>   -3.5726    0.1667 </r>
       <r>   -3.5726    0.1667 </r>
       <r>   -3.5725    0.1659 </r>
       <r>   -0.2446    0.0000 </r>
       <r>    0.1757    0.0000 </r>
       <r>    0.3672    0.0000 </r>
       <r>    0.5046    0.0000 </r>
       <r>    0.6317    0.0000 </r>
       <r>    0.6707    0.0000 </r>
       <r>    0.7182    0.0000 </r>
       <r>    0.9164    0.0000 </r>
       <r>    0.9787    0.0000 </r>
       <r>    1.0113    0.0000 </r>
       <r>    1.0436    0.0000 </r>
       <r>    1.1728    0.0000 </r>
       <r>    1.2646    0.0000 </r>
       <r>    1.2989    0.0000 </r>
       <r>    1.3514    0.0000 </r>
       <r>    1.3614    0.0000 </r>
       <r>    1.4589    0.0000 </r>
       <r>    1.5057    0.0000 </r>
       <r>    1.5431    0.0000 </r>
       <r>    1.6107    0.0000 </r>
      </set>
      <set comment="kpoint 43">
       <r>   -9.4099    1.0000 </r>
       <r>   -3.5726    0.1667 </r>
       <r>   -3.5726    0.1667 </r>
       <r>   -3.5725    0.1659 </r>
       <r>   -0.2275    0.0000 </r>
       <r>    0.1883    0.0000 </r>
       <r>    0.2692    0.0000 </r>
       <r>    0.5244    0.0000 </r>
       <r>    0.5998    0.0000 </r>
       <r>    0.6522    0.0000 </r>
       <r>    0.8246    0.0000 </r>
       <r>    0.9275    0.0000 </r>
       <r>    0.9376    0.0000 </r>
       <r>    1.0101    0.0000 </r>
       <r>    1.0697    0.0000 </r>
       <r>    1.1668    0.0000 </r>
       <r>    1.2853    0.0000 </r>
       <r>    1.3306    0.0000 </r>
       <r>    1.3383    0.0000 </r>
       <r>    1.4134    0.0000 </r>
       <r>    1.4328    0.0000 </r>
       <r>    1.5055    0.0000 </r>
       <r>    1.5972    0.0000 </r>
       <r>    1.6518    0.0000 </r>
      </set>
      <set comment="kpoint 44">
       <r>   -9.4099    1.0000 </r>
       <r>   -3.5726    0.1668 </r>
       <r>   -3.5726    0.1667 </r>
       <r>   -3.5725    0.1659 </r>
       <r>   -0.2037    0.0000 </r>
       <r>    0.1547    0.0000 </r>
       <r>    0.2517    0.0000 </r>
       <r>    0.4897    0.0000 </r>
       <r>    0.5703    0.0000 </r>
       <r>    0.6794    0.0000 </r>
       <r>    0.8193    0.0000 </r>
       <r>    0.9500    0.0000 </r>
       <r>    0.9779    0.0000 </r>
       <r>    1.0242    0.0000 </r>
       <r>    1.0538    0.0000 </r>
       <r>    1.2529    0.0000 </r>
       <r>    1.2786    0.0000 </r>
       <r>    1.3269    0.0000 </r>
       <r>    1.3519    0.0000 </r>
       <r>    1.4136    0.0000 </r>
       <r>    1.4394    0.0000 </r>
       <r>    1.5703    0.0000 </r>
       <r>    1.6031    0.0000 </r>
       <r>    1.6522    0.0000 </r>
      </set>
      <set comment="kpoint 45">
       <r>   -9.4099    1.0000 </r>
       <r>   -3.5726    0.1668 </r>
       <r>   -3.5726    0.1667 </r>
       <r>   -3.5725    0.1659 </r>
       <r>   -0.1842    0.0000 </r>
       <r>    0.1092    0.0000 </r>
       <r>    0.2844    0.0000 </r>
       <r>    0.4223    0.0000 </r>
       <r>    0.6038    0.0000 </r>
       <r>    0.7039    0.0000 </r>
       <r>    0.7538    0.0000 </r>
       <r>    0.9155    0.0000 </r>
       <r>    0.9909    0.0000 </r>
       <r>    1.0873    0.0000 </r>
       <r>    1.1758    0.0000 </r>
       <r>    1.2137    0.0000 </r>
       <r>    1.2483    0.0000 </r>
       <r>    1.3563    0.0000 </r>
       <r>    1.4079    0.0000 </r>
       <r>    1.4334    0.0000 </r>
       <r>    1.4834    0.0000 </r>
       <r>    1.4907    0.0000 </r>
       <r>    1.5682    0.0000 </r>
       <r>    1.5797    0.0000 </r>
      </set>
      <set comment="kpoint 46">
       <r>   -9.4099    1.0000 </r>
       <r>   -3.5726    0.1667 </r>
       <r>   -3.5726    0.1666 </r>
       <r>   -3.5725    0.1662 </r>
       <r>   -0.2350    0.0000 </r>
       <r>    0.1853    0.0000 </r>
       <r>    0.4571    0.0000 </r>
       <r>    0.4987    0.0000 </r>
       <r>    0.5244    0.0000 </r>
       <r>    0.5902    0.0000 </r>
       <r>    0.8400    0.0000 </r>
       <r>    0.8547    0.0000 </r>
       <r>    0.8947    0.0000 </r>
       <r>    1.0567    0.0000 </r>
       <r>    1.1282    0.0000 </r>
       <r>    1.1637    0.0000 </r>
       <r>    1.1901    0.0000 </r>
       <r>    1.2226    0.0000 </r>
       <r>    1.2537    0.0000 </r>
       <r>    1.3824    0.0000 </r>
       <r>    1.4411    0.0000 </r>
       <r>    1.5251    0.0000 </r>
       <r>    1.5575    0.0000 </r>
       <r>    1.7125    0.0000 </r>
      </set>
      <set comment="kpoint 47">
       <r>   -9.4099    1.0000 </r>
       <r>   -3.5726    0.1667 </r>
       <r>   -3.5726    0.1667 </r>
       <r>   -3.5725    0.1662 </r>
       <r>   -0.2289    0.0000 </r>
       <r>    0.1915    0.0000 </r>
       <r>    0.3812    0.0000 </r>
       <r>    0.4944    0.0000 </r>
       <r>    0.5385    0.0000 </r>
       <r>    0.6848    0.0000 </r>
       <r>    0.7339    0.0000 </r>
       <r>    0.8613    0.0000 </r>
       <r>    1.0131    0.0000 </r>
       <r>    1.0277    0.0000 </r>
       <r>    1.0750    0.0000 </r>
       <r>    1.0843    0.0000 </r>
       <r>    1.1886    0.0000 </r>
       <r>    1.3166    0.0000 </r>
       <r>    1.3465    0.0000 </r>
       <r>    1.3962    0.0000 </r>
       <r>    1.4164    0.0000 </r>
       <r>    1.4637    0.0000 </r>
       <r>    1.6207    0.0000 </r>
       <r>    1.6891    0.0000 </r>
      </set>
      <set comment="kpoint 48">
       <r>   -9.4099    1.0000 </r>
       <r>   -3.5726    0.1667 </r>
       <r>   -3.5726    0.1667 </r>
       <r>   -3.5725    0.1662 </r>
       <r>   -0.2118    0.0000 </r>
       <r>    0.2041    0.0000 </r>
       <r>    0.2849    0.0000 </r>
       <r>    0.5133    0.0000 </r>
       <r>    0.5555    0.0000 </r>
       <r>    0.6176    0.0000 </r>
       <r>    0.8368    0.0000 </r>
       <r>    0.8794    0.0000 </r>
       <r>    0.9322    0.0000 </r>
       <r>    0.9668    0.0000 </r>
       <r>    1.0908    0.0000 </r>
       <r>    1.1792    0.0000 </r>
       <r>    1.2046    0.0000 </r>
       <r>    1.2932    0.0000 </r>
       <r>    1.3801    0.0000 </r>
       <r>    1.4575    0.0000 </r>
       <r>    1.4958    0.0000 </r>
       <r>    1.5195    0.0000 </r>
       <r>    1.5604    0.0000 </r>
       <r>    1.6340    0.0000 </r>
      </set>
      <set comment="kpoint 49">
       <r>   -9.4099    1.0000 </r>
       <r>   -3.5726    0.1667 </r>
       <r>   -3.5726    0.1667 </r>
       <r>   -3.5725    0.1662 </r>
       <r>   -0.1882    0.0000 </r>
       <r>    0.1708    0.0000 </r>
       <r>    0.2676    0.0000 </r>
       <r>    0.5055    0.0000 </r>
       <r>    0.5457    0.0000 </r>
       <r>    0.5987    0.0000 </r>
       <r>    0.8168    0.0000 </r>
       <r>    0.8608    0.0000 </r>
       <r>    0.9299    0.0000 </r>
       <r>    1.0338    0.0000 </r>
       <r>    1.1159    0.0000 </r>
       <r>    1.1644    0.0000 </r>
       <r>    1.2596    0.0000 </r>
       <r>    1.3467    0.0000 </r>
       <r>    1.4212    0.0000 </r>
       <r>    1.4374    0.0000 </r>
       <r>    1.4904    0.0000 </r>
       <r>    1.5382    0.0000 </r>
       <r>    1.6616    0.0000 </r>
       <r>    1.6793    0.0000 </r>
      </set>
      <set comment="kpoint 50">
       <r>   -9.4099    1.0000 </r>
       <r>   -3.5726    0.1668 </r>
       <r>   -3.5726    0.1667 </r>
       <r>   -3.5725    0.1662 </r>
       <r>   -0.1688    0.0000 </r>
       <r>    0.1255    0.0000 </r>
       <r>    0.3001    0.0000 </r>
       <r>    0.4387    0.0000 </r>
       <r>    0.5733    0.0000 </r>
       <r>    0.6297    0.0000 </r>
       <r>    0.7556    0.0000 </r>
       <r>    0.8056    0.0000 </r>
       <r>    0.9623    0.0000 </r>
       <r>    1.0992    0.0000 </r>
       <r>    1.1377    0.0000 </r>
       <r>    1.2161    0.0000 </r>
       <r>    1.2942    0.0000 </r>
       <r>    1.3536    0.0000 </r>
       <r>    1.4226    0.0000 </r>
       <r>    1.4394    0.0000 </r>
       <r>    1.4932    0.0000 </r>
       <r>    1.5496    0.0000 </r>
[...]
       <r>    1.0210    0.0000 </r>
       <r>    1.0292    0.0000 </r>
       <r>    1.1251    0.0000 </r>
       <r>    1.1610    0.0000 </r>
       <r>    1.2903    0.0000 </r>
       <r>    1.5850    0.0000 </r>
       <r>    1.6652    0.0000 </r>
       <r>    1.7492    0.0000 </r>
       <r>    1.7692    0.0000 </r>
      </set>
      <set comment="kpoint 137">
       <r>   -9.4099    1.0000 </r>
       <r>   -3.5727    0.1675 </r>
       <r>   -3.5726    0.1666 </r>
       <r>   -3.5725    0.1666 </r>
       <r>   -0.0900    0.0000 </r>
       <r>    0.1918    0.0000 </r>
       <r>    0.2583    0.0000 </r>
       <r>    0.3602    0.0000 </r>
       <r>    0.5614    0.0000 </r>
       <r>    0.7273    0.0000 </r>
       <r>    0.7719    0.0000 </r>
       <r>    0.8621    0.0000 </r>
       <r>    0.8774    0.0000 </r>
       <r>    0.9665    0.0000 </r>
       <r>    1.0066    0.0000 </r>
       <r>    1.0754    0.0000 </r>
       <r>    1.1111    0.0000 </r>
       <r>    1.1692    0.0000 </r>
       <r>    1.1919    0.0000 </r>
       <r>    1.3020    0.0000 </r>
       <r>    1.5012    0.0000 </r>
       <r>    1.6366    0.0000 </r>
       <r>    1.6660    0.0000 </r>
       <r>    1.7714    0.0000 </r>
      </set>
      <set comment="kpoint 138">
       <r>   -9.4099    1.0000 </r>
       <r>   -3.5727    0.1675 </r>
       <r>   -3.5725    0.1666 </r>
       <r>   -3.5725    0.1666 </r>
       <r>   -0.0749    0.0000 </r>
       <r>    0.2118    0.0000 </r>
       <r>    0.2807    0.0000 </r>
       <r>    0.3839    0.0000 </r>
       <r>    0.4566    0.0000 </r>
       <r>    0.6149    0.0000 </r>
       <r>    0.6586    0.0000 </r>
       <r>    0.7579    0.0000 </r>
       <r>    0.9943    0.0000 </r>
       <r>    1.0184    0.0000 </r>
       <r>    1.1169    0.0000 </r>
       <r>    1.1523    0.0000 </r>
       <r>    1.1895    0.0000 </r>
       <r>    1.2648    0.0000 </r>
       <r>    1.3003    0.0000 </r>
       <r>    1.3707    0.0000 </r>
       <r>    1.4058    0.0000 </r>
       <r>    1.5228    0.0000 </r>
       <r>    1.5725    0.0000 </r>
       <r>    1.6905    0.0000 </r>
      </set>
      <set comment="kpoint 139">
       <r>   -9.4099    1.0000 </r>
       <r>   -3.5727    0.1675 </r>
       <r>   -3.5726    0.1666 </r>
       <r>   -3.5725    0.1666 </r>
       <r>   -0.0549    0.0000 </r>
       <r>    0.2419    0.0000 </r>
       <r>    0.3158    0.0000 </r>
       <r>    0.3744    0.0000 </r>
       <r>    0.4222    0.0000 </r>
       <r>    0.5229    0.0000 </r>
       <r>    0.5609    0.0000 </r>
       <r>    0.6547    0.0000 </r>
       <r>    1.0286    0.0000 </r>
       <r>    1.1591    0.0000 </r>
       <r>    1.1731    0.0000 </r>
       <r>    1.2040    0.0000 </r>
       <r>    1.2965    0.0000 </r>
       <r>    1.3147    0.0000 </r>
       <r>    1.3834    0.0000 </r>
       <r>    1.4181    0.0000 </r>
       <r>    1.4492    0.0000 </r>
       <r>    1.4989    0.0000 </r>
       <r>    1.5528    0.0000 </r>
       <r>    1.5979    0.0000 </r>
      </set>
      <set comment="kpoint 140">
       <r>   -9.4099    1.0000 </r>
       <r>   -3.5727    0.1675 </r>
       <r>   -3.5726    0.1667 </r>
       <r>   -3.5725    0.1666 </r>
       <r>   -0.0394    0.0000 </r>
       <r>    0.2713    0.0000 </r>
       <r>    0.3249    0.0000 </r>
       <r>    0.3573    0.0000 </r>
       <r>    0.4555    0.0000 </r>
       <r>    0.4764    0.0000 </r>
       <r>    0.4917    0.0000 </r>
       <r>    0.5735    0.0000 </r>
       <r>    1.0604    0.0000 </r>
       <r>    1.1993    0.0000 </r>
       <r>    1.2178    0.0000 </r>
       <r>    1.2244    0.0000 </r>
       <r>    1.3384    0.0000 </r>
       <r>    1.3608    0.0000 </r>
       <r>    1.3831    0.0000 </r>
       <r>    1.4405    0.0000 </r>
       <r>    1.5040    0.0000 </r>
       <r>    1.5759    0.0000 </r>
       <r>    1.6102    0.0000 </r>
       <r>    1.6568    0.0000 </r>
      </set>
     </set>
    </set>
   </array>
  </eigenvalues>
  <separator name="orbital magnetization" >
   <v name="MAGDIPOLOUT">      0.00000000      0.00000000      0.00000000</v>
  </separator>
  <dos>
   <i name="efermi">     -3.60676063 </i>
   <total>
    <array>
     <dimension dim="1">gridpoints</dimension>
     <dimension dim="2">spin</dimension>
     <field>energy</field>
     <field>total</field>
     <field>integrated</field>
     <set>
      <set comment="spin 1">
       <r>    -9.9755     0.0000     0.0000 </r>
       <r>    -9.9340     0.0000     0.0000 </r>
       <r>    -9.8925     0.0000     0.0000 </r>
       <r>    -9.8510     0.0000     0.0000 </r>
       <r>    -9.8096     0.0000     0.0000 </r>
       <r>    -9.7681     0.0000     0.0000 </r>
       <r>    -9.7266     0.0000     0.0000 </r>
       <r>    -9.6851     0.0000     0.0000 </r>
       <r>    -9.6437     0.0000     0.0000 </r>
       <r>    -9.6022     0.0000     0.0000 </r>
       <r>    -9.5607     0.0005     0.0000 </r>
       <r>    -9.5192     0.0473     0.0020 </r>
       <r>    -9.4778     1.2761     0.0549 </r>
       <r>    -9.4363     9.6552     0.4553 </r>
       <r>    -9.3948    21.0959     1.3303 </r>
       <r>    -9.3533    13.5030     1.8903 </r>
       <r>    -9.3119     2.5106     1.9944 </r>
       <r>    -9.2704     0.1321     1.9999 </r>
       <r>    -9.2289     0.0019     2.0000 </r>
       <r>    -9.1874     0.0000     2.0000 </r>
       <r>    -9.1460     0.0000     2.0000 </r>
       <r>    -9.1045     0.0000     2.0000 </r>
       <r>    -9.0630     0.0000     2.0000 </r>
       <r>    -9.0215     0.0000     2.0000 </r>
       <r>    -8.9801     0.0000     2.0000 </r>
       <r>    -8.9386     0.0000     2.0000 </r>
       <r>    -8.8971     0.0000     2.0000 </r>
       <r>    -8.8557     0.0000     2.0000 </r>
       <r>    -8.8142     0.0000     2.0000 </r>
       <r>    -8.7727     0.0000     2.0000 </r>
       <r>    -8.7312     0.0000     2.0000 </r>
       <r>    -8.6898     0.0000     2.0000 </r>
       <r>    -8.6483     0.0000     2.0000 </r>
       <r>    -8.6068     0.0000     2.0000 </r>
       <r>    -8.5653     0.0000     2.0000 </r>
       <r>    -8.5239     0.0000     2.0000 </r>
       <r>    -8.4824     0.0000     2.0000 </r>
       <r>    -8.4409     0.0000     2.0000 </r>
       <r>    -8.3994     0.0000     2.0000 </r>
       <r>    -8.3580     0.0000     2.0000 </r>
       <r>    -8.3165     0.0000     2.0000 </r>
       <r>    -8.2750     0.0000     2.0000 </r>
       <r>    -8.2335     0.0000     2.0000 </r>
       <r>    -8.1921     0.0000     2.0000 </r>
       <r>    -8.1506     0.0000     2.0000 </r>
       <r>    -8.1091     0.0000     2.0000 </r>
       <r>    -8.0676     0.0000     2.0000 </r>
       <r>    -8.0262     0.0000     2.0000 </r>
       <r>    -7.9847     0.0000     2.0000 </r>
       <r>    -7.9432     0.0000     2.0000 </r>
       <r>    -7.9017     0.0000     2.0000 </r>
       <r>    -7.8603     0.0000     2.0000 </r>
       <r>    -7.8188     0.0000     2.0000 </r>
       <r>    -7.7773     0.0000     2.0000 </r>
       <r>    -7.7358     0.0000     2.0000 </r>
       <r>    -7.6944     0.0000     2.0000 </r>
       <r>    -7.6529     0.0000     2.0000 </r>
       <r>    -7.6114     0.0000     2.0000 </r>
       <r>    -7.5699     0.0000     2.0000 </r>
       <r>    -7.5285     0.0000     2.0000 </r>
       <r>    -7.4870     0.0000     2.0000 </r>
       <r>    -7.4455     0.0000     2.0000 </r>
       <r>    -7.4041     0.0000     2.0000 </r>
       <r>    -7.3626     0.0000     2.0000 </r>
       <r>    -7.3211     0.0000     2.0000 </r>
       <r>    -7.2796     0.0000     2.0000 </r>
       <r>    -7.2382     0.0000     2.0000 </r>
       <r>    -7.1967     0.0000     2.0000 </r>
       <r>    -7.1552     0.0000     2.0000 </r>
       <r>    -7.1137     0.0000     2.0000 </r>
       <r>    -7.0723     0.0000     2.0000 </r>
       <r>    -7.0308     0.0000     2.0000 </r>
       <r>    -6.9893     0.0000     2.0000 </r>
       <r>    -6.9478     0.0000     2.0000 </r>
       <r>    -6.9064     0.0000     2.0000 </r>
       <r>    -6.8649     0.0000     2.0000 </r>
       <r>    -6.8234     0.0000     2.0000 </r>
       <r>    -6.7819     0.0000     2.0000 </r>
       <r>    -6.7405     0.0000     2.0000 </r>
       <r>    -6.6990     0.0000     2.0000 </r>
       <r>    -6.6575     0.0000     2.0000 </r>
       <r>    -6.6160     0.0000     2.0000 </r>
       <r>    -6.5746     0.0000     2.0000 </r>
       <r>    -6.5331     0.0000     2.0000 </r>
       <r>    -6.4916     0.0000     2.0000 </r>
       <r>    -6.4501     0.0000     2.0000 </r>
       <r>    -6.4087     0.0000     2.0000 </r>
       <r>    -6.3672     0.0000     2.0000 </r>
       <r>    -6.3257     0.0000     2.0000 </r>
       <r>    -6.2842     0.0000     2.0000 </r>
       <r>    -6.2428     0.0000     2.0000 </r>
       <r>    -6.2013     0.0000     2.0000 </r>
       <r>    -6.1598     0.0000     2.0000 </r>
       <r>    -6.1184     0.0000     2.0000 </r>
       <r>    -6.0769     0.0000     2.0000 </r>
       <r>    -6.0354     0.0000     2.0000 </r>
       <r>    -5.9939     0.0000     2.0000 </r>
       <r>    -5.9525     0.0000     2.0000 </r>
       <r>    -5.9110     0.0000     2.0000 </r>
       <r>    -5.8695     0.0000     2.0000 </r>
       <r>    -5.8280     0.0000     2.0000 </r>
       <r>    -5.7866     0.0000     2.0000 </r>
       <r>    -5.7451     0.0000     2.0000 </r>
       <r>    -5.7036     0.0000     2.0000 </r>
       <r>    -5.6621     0.0000     2.0000 </r>
       <r>    -5.6207     0.0000     2.0000 </r>
       <r>    -5.5792     0.0000     2.0000 </r>
       <r>    -5.5377     0.0000     2.0000 </r>
       <r>    -5.4962     0.0000     2.0000 </r>
       <r>    -5.4548     0.0000     2.0000 </r>
       <r>    -5.4133     0.0000     2.0000 </r>
       <r>    -5.3718     0.0000     2.0000 </r>
       <r>    -5.3303     0.0000     2.0000 </r>
       <r>    -5.2889     0.0000     2.0000 </r>
       <r>    -5.2474     0.0000     2.0000 </r>
       <r>    -5.2059     0.0000     2.0000 </r>
       <r>    -5.1644     0.0000     2.0000 </r>
       <r>    -5.1230     0.0000     2.0000 </r>
       <r>    -5.0815     0.0000     2.0000 </r>
       <r>    -5.0400     0.0000     2.0000 </r>
       <r>    -4.9985     0.0000     2.0000 </r>
       <r>    -4.9571     0.0000     2.0000 </r>
       <r>    -4.9156     0.0000     2.0000 </r>
       <r>    -4.8741     0.0000     2.0000 </r>
       <r>    -4.8327     0.0000     2.0000 </r>
       <r>    -4.7912     0.0000     2.0000 </r>
       <r>    -4.7497     0.0000     2.0000 </r>
       <r>    -4.7082     0.0000     2.0000 </r>
       <r>    -4.6668     0.0000     2.0000 </r>
       <r>    -4.6253     0.0000     2.0000 </r>
       <r>    -4.5838     0.0000     2.0000 </r>
       <r>    -4.5423     0.0000     2.0000 </r>
       <r>    -4.5009     0.0000     2.0000 </r>
       <r>    -4.4594     0.0000     2.0000 </r>
       <r>    -4.4179     0.0000     2.0000 </r>
       <r>    -4.3764     0.0000     2.0000 </r>
       <r>    -4.3350     0.0000     2.0000 </r>
       <r>    -4.2935     0.0000     2.0000 </r>
       <r>    -4.2520     0.0000     2.0000 </r>
       <r>    -4.2105     0.0000     2.0000 </r>
       <r>    -4.1691     0.0000     2.0000 </r>
       <r>    -4.1276     0.0000     2.0000 </r>
       <r>    -4.0861     0.0000     2.0000 </r>
       <r>    -4.0446     0.0000     2.0000 </r>
       <r>    -4.0032     0.0000     2.0000 </r>
       <r>    -3.9617     0.0000     2.0000 </r>
       <r>    -3.9202     0.0000     2.0000 </r>
       <r>    -3.8787     0.0000     2.0000 </r>
       <r>    -3.8373     0.0000     2.0000 </r>
       <r>    -3.7958     0.0000     2.0000 </r>
       <r>    -3.7543     0.0000     2.0000 </r>
       <r>    -3.7128     0.0052     2.0002 </r>
       <r>    -3.6714     0.3703     2.0156 </r>
       <r>    -3.6299     7.2080     2.3145 </r>
       <r>    -3.5884    39.6945     3.9608 </r>
       <r>    -3.5469    63.4744     6.5934 </r>
       <r>    -3.5055    29.7363     7.8267 </r>
       <r>    -3.4640     4.0247     7.9936 </r>
       <r>    -3.4225     0.1530     7.9999 </r>
       <r>    -3.3811     0.0016     8.0000 </r>
       <r>    -3.3396     0.0000     8.0000 </r>
       <r>    -3.2981     0.0000     8.0000 </r>
       <r>    -3.2566     0.0000     8.0000 </r>
       <r>    -3.2152     0.0000     8.0000 </r>
       <r>    -3.1737     0.0000     8.0000 </r>
       <r>    -3.1322     0.0000     8.0000 </r>
       <r>    -3.0907     0.0000     8.0000 </r>
       <r>    -3.0493     0.0000     8.0000 </r>
       <r>    -3.0078     0.0000     8.0000 </r>
       <r>    -2.9663     0.0000     8.0000 </r>
       <r>    -2.9248     0.0000     8.0000 </r>
       <r>    -2.8834     0.0000     8.0000 </r>
       <r>    -2.8419     0.0000     8.0000 </r>
       <r>    -2.8004     0.0000     8.0000 </r>
       <r>    -2.7589     0.0000     8.0000 </r>
       <r>    -2.7175     0.0000     8.0000 </r>
       <r>    -2.6760     0.0000     8.0000 </r>
       <r>    -2.6345     0.0000     8.0000 </r>
       <r>    -2.5930     0.0000     8.0000 </r>
       <r>    -2.5516     0.0000     8.0000 </r>
       <r>    -2.5101     0.0000     8.0000 </r>
       <r>    -2.4686     0.0000     8.0000 </r>
       <r>    -2.4271     0.0000     8.0000 </r>
       <r>    -2.3857     0.0000     8.0000 </r>
       <r>    -2.3442     0.0000     8.0000 </r>
       <r>    -2.3027     0.0000     8.0000 </r>
       <r>    -2.2612     0.0000     8.0000 </r>
       <r>    -2.2198     0.0000     8.0000 </r>
       <r>    -2.1783     0.0000     8.0000 </r>
       <r>    -2.1368     0.0000     8.0000 </r>
       <r>    -2.0954     0.0000     8.0000 </r>
       <r>    -2.0539     0.0000     8.0000 </r>
       <r>    -2.0124     0.0000     8.0000 </r>
       <r>    -1.9709     0.0000     8.0000 </r>
       <r>    -1.9295     0.0000     8.0000 </r>
       <r>    -1.8880     0.0000     8.0000 </r>
       <r>    -1.8465     0.0000     8.0000 </r>
       <r>    -1.8050     0.0000     8.0000 </r>
       <r>    -1.7636     0.0000     8.0000 </r>
       <r>    -1.7221     0.0000     8.0000 </r>
       <r>    -1.6806     0.0000     8.0000 </r>
       <r>    -1.6391     0.0000     8.0000 </r>
       <r>    -1.5977     0.0000     8.0000 </r>
       <r>    -1.5562     0.0000     8.0000 </r>
       <r>    -1.5147     0.0000     8.0000 </r>
       <r>    -1.4732     0.0000     8.0000 </r>
       <r>    -1.4318     0.0000     8.0000 </r>
       <r>    -1.3903     0.0000     8.0000 </r>
       <r>    -1.3488     0.0000     8.0000 </r>
       <r>    -1.3073     0.0000     8.0000 </r>
       <r>    -1.2659     0.0000     8.0000 </r>
       <r>    -1.2244     0.0000     8.0000 </r>
       <r>    -1.1829     0.0000     8.0000 </r>
       <r>    -1.1414     0.0000     8.0000 </r>
       <r>    -1.1000     0.0000     8.0000 </r>
       <r>    -1.0585     0.0000     8.0000 </r>
       <r>    -1.0170     0.0000     8.0000 </r>
       <r>    -0.9755     0.0000     8.0000 </r>
       <r>    -0.9341     0.0000     8.0000 </r>
       <r>    -0.8926     0.0000     8.0000 </r>
       <r>    -0.8511     0.0000     8.0000 </r>
       <r>    -0.8096     0.0000     8.0000 </r>
       <r>    -0.7682     0.0000     8.0000 </r>
       <r>    -0.7267     0.0000     8.0000 </r>
       <r>    -0.6852     0.0000     8.0000 </r>
       <r>    -0.6438     0.0000     8.0000 </r>
       <r>    -0.6023     0.0000     8.0000 </r>
       <r>    -0.5608     0.0000     8.0000 </r>
       <r>    -0.5193     0.0000     8.0000 </r>
       <r>    -0.4779     0.0000     8.0000 </r>
       <r>    -0.4364     0.0000     8.0000 </r>
       <r>    -0.3949     0.0001     8.0000 </r>
       <r>    -0.3534     0.0060     8.0003 </r>
       <r>    -0.3120     0.1571     8.0068 </r>
       <r>    -0.2705     1.4312     8.0661 </r>
       <r>    -0.2290     5.2857     8.2853 </r>
       <r>    -0.1875     9.6361     8.6850 </r>
       <r>    -0.1461    10.8780     9.1362 </r>
       <r>    -0.1046     9.6312     9.5356 </r>
       <r>    -0.0631     7.0251     9.8270 </r>
       <r>    -0.0216     3.3233     9.9648 </r>
       <r>     0.0198     0.9030    10.0022 </r>
       <r>     0.0613     1.0491    10.0458 </r>
       <r>     0.1028     3.6195    10.1959 </r>
       <r>     0.1443     7.9483    10.5255 </r>
       <r>     0.1857    12.3268    11.0368 </r>
       <r>     0.2272    14.9859    11.6583 </r>
       <r>     0.2687    15.7738    12.3125 </r>
       <r>     0.3102    15.9024    12.9720 </r>
       <r>     0.3516    15.8904    13.6311 </r>
       <r>     0.3931    16.3849    14.3106 </r>
       <r>     0.4346    17.1457    15.0217 </r>
       <r>     0.4761    17.7366    15.7573 </r>
       <r>     0.5175    18.5719    16.5276 </r>
       <r>     0.5590    19.0770    17.3188 </r>
       <r>     0.6005    19.0940    18.1107 </r>
       <r>     0.6419    19.7024    18.9279 </r>
       <r>     0.6834    21.1513    19.8051 </r>
       <r>     0.7249    22.0361    20.7190 </r>
       <r>     0.7664    21.6656    21.6176 </r>
       <r>     0.8078    22.1124    22.5347 </r>
       <r>     0.8493    23.2371    23.4984 </r>
       <r>     0.8908    23.5721    24.4761 </r>
       <r>     0.9323    24.0223    25.4724 </r>
       <r>     0.9737    24.9244    26.5061 </r>
       <r>     1.0152    25.1387    27.5487 </r>
       <r>     1.0567    25.8744    28.6218 </r>
       <r>     1.0982    26.4897    29.7205 </r>
       <r>     1.1396    26.1902    30.8067 </r>
       <r>     1.1811    26.8354    31.9197 </r>
       <r>     1.2226    27.5400    33.0619 </r>
       <r>     1.2641    27.9741    34.2221 </r>
       <r>     1.3055    28.1237    35.3885 </r>
       <r>     1.3470    27.8296    36.5427 </r>
       <r>     1.3885    28.4694    37.7234 </r>
       <r>     1.4300    29.2273    38.9356 </r>
       <r>     1.4714    29.7679    40.1702 </r>
       <r>     1.5129    30.4070    41.4313 </r>
       <r>     1.5544    30.4231    42.6931 </r>
       <r>     1.5959    30.1654    43.9442 </r>
       <r>     1.6373    28.5888    45.1299 </r>
       <r>     1.6788    25.3232    46.1801 </r>
       <r>     1.7203    18.8847    46.9634 </r>
       <r>     1.7618    11.8258    47.4538 </r>
       <r>     1.8032     6.7909    47.7355 </r>
       <r>     1.8447     3.7577    47.8913 </r>
       <r>     1.8862     1.7956    47.9658 </r>
       <r>     1.9277     0.6592    47.9931 </r>
       <r>     1.9691     0.1505    47.9994 </r>
       <r>     2.0106     0.0145    48.0000 </r>
       <r>     2.0521     0.0005    48.0000 </r>
       <r>     2.0935     0.0000    48.0000 </r>
       <r>     2.1350     0.0000    48.0000 </r>
       <r>     2.1765     0.0000    48.0000 </r>
       <r>     2.2180     0.0000    48.0000 </r>
       <r>     2.2594     0.0000    48.0000 </r>
       <r>     2.3009     0.0000    48.0000 </r>
       <r>     2.3424     0.0000    48.0000 </r>
       <r>     2.3839     0.0000    48.0000 </r>
       <r>     2.4253     0.0000    48.0000 </r>
       <r>     2.4668     0.0000    48.0000 </r>
      </set>
     </set>
    </array>
   </total>
  </dos>
 </calculation>
 <structure name="finalpos" >
  <crystal>
   <varray name="basis" >
    <v>      15.00000000       0.00000000       0.00000000 </v>
    <v>       0.00000000      12.50000000       0.00000000 </v>
    <v>       0.00000000       0.00000000      18.00000000 </v>
   </varray>
   <i name="volume">   3375.00000000 </i>
   <varray name="rec_basis" >
    <v>       0.06666667       0.00000000       0.00000000 </v>
    <v>       0.00000000       0.08000000       0.00000000 </v>
    <v>       0.00000000       0.00000000       0.05555556 </v>
   </varray>
  </crystal>
  <varray name="positions" >
   <v>       0.52123000       0.54500000       0.63796000 </v>
  </varray>
 </structure>
</modeling>
