  14  14   0   0
  0.1025336E+02  0.5703267E-09  0.4052353E-09  0.6211025E-09  0.5000000E-15
  1.000000000000000E-004
  CAR 
 Convergence                             
     17.91866630    -14.18010992  301      1.86493663      1.00000000
    -14.180  0.0000E+00  0.0000E+00
    -14.073  0.0000E+00  0.0000E+00
    -13.966  0.0000E+00  0.0000E+00
    -13.859  0.0000E+00  0.0000E+00
    -13.752  0.0000E+00  0.0000E+00
    -13.645  0.0000E+00  0.0000E+00
    -13.538  0.0000E+00  0.0000E+00
    -13.431  0.0000E+00  0.0000E+00
    -13.324  0.0000E+00  0.0000E+00
    -13.217  0.0000E+00  0.0000E+00
    -13.110  0.0000E+00  0.0000E+00
    -13.003  0.4941E-16  0.5287E-17
    -12.896  0.3130E-07  0.3349E-08
    -12.789  0.3868E-02  0.4139E-03
    -12.682  0.5098E+00  0.5496E-01
    -12.575  0.2394E+01  0.3111E+00
    -12.468  0.3572E+01  0.6933E+00
    -12.361  0.4377E+01  0.1162E+01
    -12.254  0.3539E+01  0.1540E+01
    -12.147  0.2737E+01  0.1833E+01
    -12.040  0.2755E+01  0.2128E+01
    -11.933  0.2500E+01  0.2395E+01
    -11.826  0.2772E+01  0.2692E+01
    -11.719  0.3415E+01  0.3057E+01
    -11.612  0.3537E+01  0.3436E+01
    -11.505  0.3134E+01  0.3771E+01
    -11.398  0.1692E+01  0.3952E+01
    -11.291  0.4396E+00  0.3999E+01
    -11.184  0.8356E-02  0.4000E+01
    -11.077  0.2437E-06  0.4000E+01
    -10.970  0.1654E-14  0.4000E+01
    -10.863  0.0000E+00  0.4000E+01
    -10.756  0.0000E+00  0.4000E+01
    -10.649  0.0000E+00  0.4000E+01
    -10.542  0.0000E+00  0.4000E+01
    -10.435  0.0000E+00  0.4000E+01
    -10.328  0.0000E+00  0.4000E+01
    -10.221  0.0000E+00  0.4000E+01
    -10.114  0.0000E+00  0.4000E+01
    -10.007  0.0000E+00  0.4000E+01
     -9.900  0.0000E+00  0.4000E+01
     -9.793  0.0000E+00  0.4000E+01
     -9.686  0.0000E+00  0.4000E+01
     -9.579  0.0000E+00  0.4000E+01
     -9.472  0.0000E+00  0.4000E+01
     -9.365  0.0000E+00  0.4000E+01
     -9.258  0.0000E+00  0.4000E+01
     -9.151  0.0000E+00  0.4000E+01
     -9.044  0.1062E-08  0.4000E+01
     -8.937  0.6543E-03  0.4000E+01
     -8.830  0.2808E+00  0.4030E+01
     -8.723  0.2108E+01  0.4256E+01
     -8.616  0.5369E+01  0.4830E+01
     -8.509  0.7010E+01  0.5580E+01
     -8.402  0.6286E+01  0.6253E+01
     -8.295  0.5329E+01  0.6823E+01
     -8.188  0.4845E+01  0.7341E+01
     -8.081  0.3865E+01  0.7755E+01
     -7.974  0.1662E+01  0.7933E+01
     -7.867  0.5766E+00  0.7994E+01
     -7.760  0.5209E-01  0.8000E+01
     -7.653  0.2462E-04  0.8000E+01
     -7.546  0.2922E-11  0.8000E+01
     -7.439  0.0000E+00  0.8000E+01
     -7.332  0.0000E+00  0.8000E+01
     -7.225  0.0000E+00  0.8000E+01
     -7.118  0.4294E-09  0.8000E+01
     -7.011  0.3665E-03  0.8000E+01
     -6.904  0.1104E+00  0.8012E+01
     -6.797  0.2593E+00  0.8040E+01
     -6.690  0.4246E+00  0.8085E+01
     -6.583  0.7663E+00  0.8167E+01
     -6.476  0.8460E+00  0.8258E+01
     -6.369  0.1435E+01  0.8411E+01
     -6.262  0.1940E+01  0.8619E+01
     -6.155  0.3052E+01  0.8945E+01
     -6.048  0.3797E+01  0.9351E+01
     -5.941  0.4122E+01  0.9793E+01
     -5.834  0.4052E+01  0.1023E+02
     -5.727  0.3883E+01  0.1064E+02
     -5.620  0.4076E+01  0.1108E+02
     -5.513  0.4217E+01  0.1153E+02
     -5.406  0.4564E+01  0.1202E+02
     -5.299  0.4621E+01  0.1251E+02
     -5.192  0.4497E+01  0.1299E+02
     -5.085  0.3882E+01  0.1341E+02
     -4.978  0.3223E+01  0.1375E+02
     -4.871  0.2972E+01  0.1407E+02
     -4.764  0.2311E+01  0.1432E+02
     -4.657  0.2898E+01  0.1463E+02
     -4.550  0.3372E+01  0.1499E+02
     -4.443  0.3450E+01  0.1536E+02
     -4.336  0.3359E+01  0.1572E+02
     -4.229  0.2962E+01  0.1603E+02
     -4.122  0.2911E+01  0.1635E+02
     -4.015  0.2933E+01  0.1666E+02
     -3.909  0.2881E+01  0.1697E+02
     -3.802  0.3108E+01  0.1730E+02
     -3.695  0.2895E+01  0.1761E+02
     -3.588  0.2708E+01  0.1790E+02
     -3.481  0.3077E+01  0.1823E+02
     -3.374  0.2658E+01  0.1851E+02
     -3.267  0.2834E+01  0.1882E+02
     -3.160  0.2787E+01  0.1912E+02
     -3.053  0.2714E+01  0.1941E+02
     -2.946  0.3079E+01  0.1973E+02
     -2.839  0.2985E+01  0.2005E+02
     -2.732  0.2445E+01  0.2032E+02
     -2.625  0.2639E+01  0.2060E+02
     -2.518  0.3012E+01  0.2092E+02
     -2.411  0.3002E+01  0.2124E+02
     -2.304  0.3183E+01  0.2158E+02
     -2.197  0.4001E+01  0.2201E+02
     -2.090  0.3657E+01  0.2240E+02
     -1.983  0.3218E+01  0.2275E+02
     -1.876  0.5008E+01  0.2328E+02
     -1.769  0.5536E+01  0.2387E+02
     -1.662  0.5645E+01  0.2448E+02
     -1.555  0.6172E+01  0.2514E+02
     -1.448  0.6145E+01  0.2580E+02
     -1.341  0.5609E+01  0.2640E+02
     -1.234  0.4687E+01  0.2690E+02
     -1.127  0.6490E+01  0.2759E+02
     -1.020  0.4151E+01  0.2804E+02
     -0.913  0.2285E+01  0.2828E+02
     -0.806  0.2705E+01  0.2857E+02
     -0.699  0.2883E+01  0.2888E+02
     -0.592  0.4440E+01  0.2935E+02
     -0.485  0.6822E+01  0.3008E+02
     -0.378  0.5678E+01  0.3069E+02
     -0.271  0.6645E+01  0.3140E+02
     -0.164  0.6380E+01  0.3208E+02
     -0.057  0.6737E+01  0.3281E+02
      0.050  0.6827E+01  0.3354E+02
      0.157  0.6245E+01  0.3420E+02
      0.264  0.8834E+01  0.3515E+02
      0.371  0.8087E+01  0.3601E+02
      0.478  0.8680E+01  0.3694E+02
      0.585  0.5378E+01  0.3752E+02
      0.692  0.3005E+01  0.3784E+02
      0.799  0.3237E+01  0.3819E+02
      0.906  0.3591E+01  0.3857E+02
      1.013  0.3582E+01  0.3895E+02
      1.120  0.2806E+01  0.3925E+02
      1.227  0.3366E+01  0.3961E+02
      1.334  0.4477E+01  0.4009E+02
      1.441  0.3817E+01  0.4050E+02
      1.548  0.3701E+01  0.4090E+02
      1.655  0.4589E+01  0.4139E+02
      1.762  0.3340E+01  0.4175E+02
      1.869  0.2475E+01  0.4201E+02
      1.976  0.2678E+01  0.4230E+02
      2.083  0.2096E+01  0.4252E+02
      2.190  0.2648E+01  0.4281E+02
      2.297  0.2607E+01  0.4308E+02
      2.404  0.1974E+01  0.4330E+02
      2.511  0.8992E+00  0.4339E+02
      2.618  0.3795E+00  0.4343E+02
      2.725  0.5753E+00  0.4349E+02
      2.832  0.4209E+00  0.4354E+02
      2.939  0.3057E+00  0.4357E+02
      3.046  0.7362E+00  0.4365E+02
      3.153  0.1024E+01  0.4376E+02
      3.260  0.5663E+00  0.4382E+02
      3.367  0.1625E-01  0.4382E+02
      3.474  0.1212E+00  0.4384E+02
      3.581  0.3927E+00  0.4388E+02
      3.688  0.3389E+00  0.4391E+02
      3.795  0.3651E+00  0.4395E+02
      3.902  0.4121E+00  0.4400E+02
      4.009  0.3115E-01  0.4400E+02
      4.116  0.1122E-04  0.4400E+02
      4.223  0.2016E-01  0.4400E+02
      4.330  0.1658E+00  0.4402E+02
      4.437  0.3868E+00  0.4406E+02
      4.544  0.4518E+00  0.4411E+02
      4.651  0.6218E+00  0.4418E+02
      4.758  0.8732E+00  0.4427E+02
      4.865  0.8383E+00  0.4436E+02
      4.972  0.8647E+00  0.4445E+02
      5.079  0.1256E+01  0.4459E+02
      5.186  0.1176E+01  0.4471E+02
      5.293  0.1598E+01  0.4488E+02
      5.400  0.2148E+01  0.4511E+02
      5.507  0.2500E+01  0.4538E+02
      5.614  0.2796E+01  0.4568E+02
      5.721  0.3307E+01  0.4603E+02
      5.828  0.3258E+01  0.4638E+02
      5.935  0.4249E+01  0.4684E+02
      6.042  0.4803E+01  0.4735E+02
      6.149  0.4081E+01  0.4779E+02
      6.256  0.4606E+01  0.4828E+02
      6.363  0.4259E+01  0.4874E+02
      6.470  0.3970E+01  0.4916E+02
      6.577  0.4518E+01  0.4964E+02
      6.684  0.3253E+01  0.4999E+02
      6.791  0.3966E+01  0.5042E+02
      6.898  0.4606E+01  0.5091E+02
      7.005  0.4583E+01  0.5140E+02
      7.112  0.4340E+01  0.5186E+02
      7.219  0.5580E+01  0.5246E+02
      7.326  0.4985E+01  0.5299E+02
      7.433  0.4478E+01  0.5347E+02
      7.540  0.4226E+01  0.5393E+02
      7.647  0.3590E+01  0.5431E+02
      7.754  0.3109E+01  0.5464E+02
      7.861  0.3028E+01  0.5497E+02
      7.968  0.2970E+01  0.5528E+02
      8.075  0.4159E+01  0.5573E+02
      8.182  0.3920E+01  0.5615E+02
      8.289  0.3736E+01  0.5655E+02
      8.396  0.4009E+01  0.5698E+02
      8.503  0.4246E+01  0.5743E+02
      8.610  0.4489E+01  0.5791E+02
      8.717  0.4278E+01  0.5837E+02
      8.824  0.5334E+01  0.5894E+02
      8.931  0.4831E+01  0.5946E+02
      9.038  0.5284E+01  0.6002E+02
      9.145  0.5229E+01  0.6058E+02
      9.252  0.5007E+01  0.6112E+02
      9.359  0.4669E+01  0.6162E+02
      9.466  0.4399E+01  0.6209E+02
      9.573  0.5093E+01  0.6263E+02
      9.680  0.5037E+01  0.6317E+02
      9.787  0.5287E+01  0.6374E+02
      9.894  0.4494E+01  0.6422E+02
     10.001  0.3679E+01  0.6461E+02
     10.108  0.5189E+01  0.6517E+02
     10.215  0.4722E+01  0.6567E+02
     10.322  0.4154E+01  0.6612E+02
     10.429  0.5350E+01  0.6669E+02
     10.536  0.5829E+01  0.6731E+02
     10.643  0.4081E+01  0.6775E+02
     10.750  0.3909E+01  0.6817E+02
     10.857  0.3271E+01  0.6852E+02
     10.964  0.4687E+01  0.6902E+02
     11.071  0.5424E+01  0.6960E+02
     11.178  0.6272E+01  0.7027E+02
     11.285  0.6006E+01  0.7091E+02
     11.392  0.5209E+01  0.7147E+02
     11.499  0.4396E+01  0.7194E+02
     11.606  0.4476E+01  0.7242E+02
     11.713  0.4973E+01  0.7295E+02
     11.820  0.4823E+01  0.7347E+02
     11.927  0.6002E+01  0.7411E+02
     12.034  0.6004E+01  0.7475E+02
     12.141  0.6049E+01  0.7540E+02
     12.248  0.5562E+01  0.7599E+02
     12.355  0.4998E+01  0.7653E+02
     12.462  0.5717E+01  0.7714E+02
     12.569  0.5972E+01  0.7778E+02
     12.676  0.5958E+01  0.7842E+02
     12.783  0.5940E+01  0.7905E+02
     12.890  0.5886E+01  0.7968E+02
     12.997  0.5619E+01  0.8028E+02
     13.104  0.6348E+01  0.8096E+02
     13.211  0.6307E+01  0.8164E+02
     13.318  0.5445E+01  0.8222E+02
     13.425  0.6123E+01  0.8288E+02
     13.532  0.5416E+01  0.8346E+02
     13.639  0.4835E+01  0.8397E+02
     13.746  0.6175E+01  0.8463E+02
     13.853  0.5519E+01  0.8522E+02
     13.960  0.5366E+01  0.8580E+02
     14.067  0.5478E+01  0.8638E+02
     14.174  0.4678E+01  0.8688E+02
     14.281  0.4954E+01  0.8741E+02
     14.388  0.4972E+01  0.8795E+02
     14.495  0.4945E+01  0.8848E+02
     14.602  0.5274E+01  0.8904E+02
     14.709  0.5194E+01  0.8960E+02
     14.816  0.4099E+01  0.9003E+02
     14.923  0.5028E+01  0.9057E+02
     15.030  0.6151E+01  0.9123E+02
     15.137  0.5691E+01  0.9184E+02
     15.244  0.5715E+01  0.9245E+02
     15.351  0.6004E+01  0.9309E+02
     15.458  0.5764E+01  0.9371E+02
     15.565  0.6000E+01  0.9435E+02
     15.672  0.4620E+01  0.9485E+02
     15.779  0.2506E+01  0.9511E+02
     15.886  0.2708E+01  0.9540E+02
     15.993  0.1847E+01  0.9560E+02
     16.100  0.1135E+01  0.9572E+02
     16.207  0.8834E+00  0.9582E+02
     16.314  0.7093E+00  0.9589E+02
     16.421  0.8150E+00  0.9598E+02
     16.528  0.1782E+00  0.9600E+02
     16.635  0.1706E-02  0.9600E+02
     16.742  0.2181E-07  0.9600E+02
     16.849  0.3953E-16  0.9600E+02
     16.956  0.0000E+00  0.9600E+02
     17.063  0.0000E+00  0.9600E+02
     17.170  0.0000E+00  0.9600E+02
     17.277  0.0000E+00  0.9600E+02
     17.384  0.0000E+00  0.9600E+02
     17.491  0.0000E+00  0.9600E+02
     17.598  0.0000E+00  0.9600E+02
     17.705  0.0000E+00  0.9600E+02
     17.812  0.0000E+00  0.9600E+02
     17.919  0.0000E+00  0.9600E+02
