   14   14    1    1
  0.1025336E+02  0.5703267E-09  0.4052353E-09  0.6211025E-09  0.5000000E-15
  1.000000000000000E-004
  CAR 
 Convergence                             
     42    175     48
 
  0.5000000E-01  0.3571429E-01  0.0000000E+00  0.3174603E-02
      1        -12.721075   1.000000
      2        -11.579521   1.000000
      3         -8.662645   1.000000
      4         -8.426378   1.000000
      5         -6.072867   1.000000
      6         -5.139517   1.000000
      7         -4.676212   1.000000
      8         -4.280658   1.000000
      9         -4.041571   1.000000
     10         -3.553706   1.000000
     11         -2.608052   1.000000
     12         -2.339361   1.000000
     13         -1.849172   1.000000
     14         -1.110035   1.000000
     15         -0.082685   1.000000
     16         -0.052306   1.000000
     17          0.139078   1.000000
     18          0.159526   1.000000
     19          0.548536   1.000000
     20          2.000968   0.000060
     21          2.063548   0.000000
     22          2.196183   0.000000
     23          5.432191   0.000000
     24          5.722938   0.000000
     25          5.810247   0.000000
     26          5.933257   0.000000
     27          6.785059   0.000000
     28          7.519154   0.000000
     29          7.846592   0.000000
     30          8.497388   0.000000
     31          8.757690   0.000000
     32          8.910031   0.000000
     33          9.001314   0.000000
     34         10.091103   0.000000
     35         11.154122   0.000000
     36         11.291772   0.000000
     37         11.620084   0.000000
     38         11.740783   0.000000
     39         11.904530   0.000000
     40         12.369450   0.000000
     41         12.822788   0.000000
     42         13.405424   0.000000
     43         13.432790   0.000000
     44         15.323358   0.000000
     45         15.517141   0.000000
     46         16.004280   0.000000
     47         16.282316   0.000000
     48         16.303344   0.000000
 
  0.1500000E+00  0.3571429E-01  0.0000000E+00  0.3174603E-02
      1        -12.677365   1.000000
      2        -11.653340   1.000000
      3         -8.641466   1.000000
      4         -8.414874   1.000000
      5         -6.004862   1.000000
      6         -5.479053   1.000000
      7         -4.797756   1.000000
      8         -4.017433   1.000000
      9         -3.800324   1.000000
     10         -3.217294   1.000000
     11         -2.678007   1.000000
     12         -2.319486   1.000000
     13         -1.927032   1.000000
     14         -1.416614   1.000000
     15         -0.042582   1.000000
     16         -0.034623   1.000000
     17          0.078632   1.000000
     18          0.180772   1.000000
     19          0.453376   1.000000
     20          1.914913   0.078748
     21          1.985775   0.000316
     22          2.075376   0.000000
     23          5.521402   0.000000
     24          5.729252   0.000000
     25          5.840482   0.000000
     26          6.277502   0.000000
     27          6.699970   0.000000
     28          7.158367   0.000000
     29          8.054013   0.000000
     30          8.633813   0.000000
     31          9.010699   0.000000
     32          9.088021   0.000000
     33          9.164782   0.000000
     34         10.199557   0.000000
     35         10.900714   0.000000
     36         11.087868   0.000000
     37         11.226596   0.000000
     38         11.658603   0.000000
     39         12.121487   0.000000
     40         12.457549   0.000000
     41         13.073862   0.000000
     42         13.081707   0.000000
     43         13.961975   0.000000
     44         14.813548   0.000000
     45         15.699036   0.000000
     46         15.781086   0.000000
     47         16.171998   0.000000
     48         16.459631   0.000000
 
  0.2500000E+00  0.3571429E-01  0.0000000E+00  0.3174603E-02
      1        -12.591809   1.000000
      2        -11.786327   1.000000
      3         -8.597806   1.000000
      4         -8.400134   1.000000
      5         -5.983119   1.000000
      6         -5.804940   1.000000
      7         -4.751505   1.000000
      8         -3.890795   1.000000
      9         -3.289816   1.000000
     10         -2.845833   1.000000
     11         -2.726436   1.000000
     12         -2.279485   1.000000
     13         -2.036702   1.000000
     14         -1.920352   1.000000
     15         -0.237719   1.000000
     16         -0.000810   1.000000
     17          0.127317   1.000000
     18          0.143461   1.000000
     19          0.423228   1.000000
     20          1.767220   0.997144
     21          1.846723   0.696776
     22          1.853326   0.628693
     23          5.642561   0.000000
     24          5.685650   0.000000
     25          6.149365   0.000000
     26          6.574575   0.000000
     27          6.734779   0.000000
     28          6.904167   0.000000
     29          8.203387   0.000000
     30          8.782628   0.000000
     31          8.956593   0.000000
     32          9.532432   0.000000
     33          9.609508   0.000000
     34         10.241431   0.000000
     35         10.443915   0.000000
     36         10.582913   0.000000
     37         11.344963   0.000000
     38         11.801815   0.000000
     39         12.356124   0.000000
     40         12.518962   0.000000
     41         12.755277   0.000000
     42         12.870377   0.000000
     43         14.586311   0.000000
     44         14.865372   0.000000
     45         15.181071   0.000000
     46         15.930173   0.000000
     47         15.950865   0.000000
     48         16.234294   0.000000
 
  0.3500000E+00  0.3571429E-01  0.0000000E+00  0.3174603E-02
      1        -12.468392   1.000000
      2        -11.955677   1.000000
      3         -8.536010   1.000000
      4         -8.396833   1.000000
      5         -6.063122   1.000000
      6         -6.037757   1.000000
      7         -4.424602   1.000000
      8         -3.722519   1.000000
      9         -3.039152   1.000000
     10         -2.906365   1.000000
     11         -2.455481   1.000000
     12         -2.265947   1.000000
     13         -2.161941   1.000000
     14         -2.136667   1.000000
     15         -0.536821   1.000000
     16         -0.262889   1.000000
     17          0.158929   1.000000
     18          0.234054   1.000000
     19          0.596024   1.000000
     20          1.511188   1.000000
     21          1.645306   1.000000
     22          1.705425   0.999997
     23          5.670904   0.000000
     24          5.727558   0.000000
     25          6.473991   0.000000
     26          6.646328   0.000000
     27          6.671960   0.000000
     28          7.382242   0.000000
     29          8.326737   0.000000
     30          8.654029   0.000000
     31          8.769320   0.000000
     32          9.498015   0.000000
     33         10.013599   0.000000
     34         10.080438   0.000000
     35         10.356334   0.000000
     36         11.100702   0.000000
     37         11.367984   0.000000
     38         11.899830   0.000000
     39         12.162136   0.000000
     40         12.230919   0.000000
     41         12.483041   0.000000
     42         13.217670   0.000000
     43         14.671085   0.000000
     44         14.929402   0.000000
     45         15.207943   0.000000
     46         15.326117   0.000000
     47         15.521532   0.000000
     48         16.325251   0.000000
 
  0.4500000E+00  0.3571429E-01  0.0000000E+00  0.3174603E-02
      1        -12.313754   1.000000
      2        -12.137997   1.000000
      3         -8.470036   1.000000
      4         -8.419265   1.000000
      5         -6.151540   1.000000
      6         -6.147641   1.000000
      7         -3.910053   1.000000
      8         -3.514099   1.000000
      9         -3.311471   1.000000
     10         -3.277109   1.000000
     11         -2.371973   1.000000
     12         -2.245171   1.000000
     13         -1.977103   1.000000
     14         -1.922127   1.000000
     15         -0.757404   1.000000
     16         -0.621466   1.000000
     17          0.241868   1.000000
     18          0.275258   1.000000
     19          0.856269   1.000000
     20          1.173029   1.000000
     21          1.564844   1.000000
     22          1.592002   1.000000
     23          5.699633   0.000000
     24          5.737959   0.000000
     25          6.453262   0.000000
     26          6.517473   0.000000
     27          7.339132   0.000000
     28          8.041151   0.000000
     29          8.064109   0.000000
     30          8.443499   0.000000
     31          8.580963   0.000000
     32          8.754744   0.000000
     33         10.463457   0.000000
     34         10.477858   0.000000
     35         10.718061   0.000000
     36         11.175364   0.000000
     37         11.359477   0.000000
     38         11.552061   0.000000
     39         11.884595   0.000000
     40         12.439353   0.000000
     41         12.677971   0.000000
     42         13.211892   0.000000
     43         14.549366   0.000000
     44         14.685751   0.000000
     45         14.824686   0.000000
     46         14.884036   0.000000
     47         16.046445   0.000000
     48         16.391775   0.000000
 
  0.5000000E-01  0.1071429E+00  0.0000000E+00  0.3174603E-02
      1        -12.697130   1.000000
      2        -11.557965   1.000000
      3         -8.643959   1.000000
      4         -8.403339   1.000000
      5         -6.046231   1.000000
      6         -5.105831   1.000000
      7         -4.654260   1.000000
      8         -4.579355   1.000000
      9         -4.185181   1.000000
     10         -3.530987   1.000000
     11         -3.300347   1.000000
     12         -1.808463   1.000000
     13         -1.105475   1.000000
     14         -1.051261   1.000000
     15         -0.315815   1.000000
     16         -0.287827   1.000000
     17          0.152593   1.000000
     18          0.229790   1.000000
     19          0.626661   1.000000
     20          1.734033   0.999893
     21          1.813466   0.927279
     22          2.248248   0.000000
     23          5.551881   0.000000
     24          5.681057   0.000000
     25          5.716598   0.000000
     26          5.977398   0.000000
     27          7.069847   0.000000
     28          7.804341   0.000000
     29          8.042061   0.000000
     30          8.155608   0.000000
     31          8.762383   0.000000
     32          9.051887   0.000000
     33          9.106609   0.000000
     34         10.540893   0.000000
     35         11.224052   0.000000
     36         11.367340   0.000000
     37         11.554380   0.000000
     38         11.843278   0.000000
     39         12.015422   0.000000
     40         12.648162   0.000000
     41         12.823799   0.000000
     42         13.144158   0.000000
     43         13.148681   0.000000
     44         15.276961   0.000000
     45         15.324302   0.000000
     46         15.806531   0.000000
     47         15.810257   0.000000
     48         16.165505   0.000000
 
  0.1500000E+00  0.1071429E+00  0.0000000E+00  0.3174603E-02
      1        -12.653513   1.000000
      2        -11.631642   1.000000
      3         -8.622631   1.000000
      4         -8.392213   1.000000
      5         -5.976448   1.000000
      6         -5.449008   1.000000
      7         -4.777819   1.000000
      8         -4.497732   1.000000
      9         -3.761654   1.000000
     10         -3.380612   1.000000
     11         -3.179468   1.000000
     12         -1.786861   1.000000
     13         -1.411213   1.000000
     14         -1.169238   1.000000
     15         -0.277120   1.000000
     16         -0.209047   1.000000
     17          0.119839   1.000000
     18          0.202278   1.000000
     19          0.523862   1.000000
     20          1.653713   1.000000
     21          1.737163   0.999849
     22          2.117795   0.000000
     23          5.627932   0.000000
     24          5.780160   0.000000
     25          5.905880   0.000000
     26          6.085040   0.000000
     27          6.986770   0.000000
     28          7.479670   0.000000
     29          8.187912   0.000000
     30          8.323887   0.000000
     31          9.081536   0.000000
     32          9.118059   0.000000
     33          9.375095   0.000000
     34         10.462807   0.000000
     35         10.832708   0.000000
     36         11.040884   0.000000
     37         11.421516   0.000000
     38         11.831402   0.000000
     39         12.234642   0.000000
     40         12.699800   0.000000
     41         12.823452   0.000000
     42         13.105673   0.000000
     43         13.680812   0.000000
     44         14.898287   0.000000
     45         15.345231   0.000000
     46         15.701390   0.000000
     47         15.741078   0.000000
     48         16.345560   0.000000
 
  0.2500000E+00  0.1071429E+00  0.0000000E+00  0.3174603E-02
      1        -12.568149   1.000000
      2        -11.764370   1.000000
      3         -8.578757   1.000000
      4         -8.378170   1.000000
      5         -5.951953   1.000000
      6         -5.774627   1.000000
      7         -4.734938   1.000000
      8         -4.389726   1.000000
      9         -3.502063   1.000000
     10         -3.236613   1.000000
     11         -2.713985   1.000000
     12         -1.915751   1.000000
     13         -1.742776   1.000000
     14         -1.331255   1.000000
     15         -0.239815   1.000000
     16         -0.230820   1.000000
     17          0.038385   1.000000
     18          0.189400   1.000000
     19          0.447649   1.000000
     20          1.519039   1.000000
     21          1.607360   1.000000
     22          1.870183   0.441021
     23          5.827140   0.000000
     24          5.908133   0.000000
     25          5.986410   0.000000
     26          6.532420   0.000000
     27          6.866634   0.000000
     28          7.252421   0.000000
     29          8.394453   0.000000
     30          8.455780   0.000000
     31          9.055270   0.000000
     32          9.570672   0.000000
     33          9.834434   0.000000
     34         10.086102   0.000000
     35         10.312356   0.000000
     36         10.779166   0.000000
     37         11.485315   0.000000
     38         12.066352   0.000000
     39         12.263346   0.000000
     40         12.517653   0.000000
     41         12.909999   0.000000
     42         12.984105   0.000000
     43         14.256906   0.000000
     44         15.031494   0.000000
     45         15.112231   0.000000
     46         15.593026   0.000000
     47         15.659021   0.000000
     48         16.365999   0.000000
 
  0.3500000E+00  0.1071429E+00  0.0000000E+00  0.3174603E-02
      1        -12.444996   1.000000
      2        -11.933367   1.000000
      3         -8.516714   1.000000
      4         -8.375756   1.000000
      5         -6.030751   1.000000
      6         -6.006591   1.000000
      7         -4.410170   1.000000
      8         -4.243215   1.000000
      9         -3.672825   1.000000
     10         -2.857994   1.000000
     11         -2.374236   1.000000
     12         -2.231575   1.000000
     13         -1.678832   1.000000
     14         -1.493590   1.000000
     15         -0.498728   1.000000
     16         -0.324381   1.000000
     17          0.069753   1.000000
     18          0.100462   1.000000
     19          0.606638   1.000000
     20          1.379593   1.000000
     21          1.462336   1.000000
     22          1.547062   1.000000
     23          5.844795   0.000000
     24          5.981329   0.000000
     25          6.491092   0.000000
     26          6.777836   0.000000
     27          6.851190   0.000000
     28          7.342300   0.000000
     29          8.384685   0.000000
     30          8.562906   0.000000
     31          8.898537   0.000000
     32          9.334368   0.000000
     33         10.031541   0.000000
     34         10.056142   0.000000
     35         10.402347   0.000000
     36         11.177274   0.000000
     37         11.324316   0.000000
     38         11.798587   0.000000
     39         12.243154   0.000000
     40         12.506831   0.000000
     41         12.682254   0.000000
     42         13.418932   0.000000
     43         14.717171   0.000000
     44         14.726064   0.000000
     45         15.102033   0.000000
     46         15.258864   0.000000
     47         15.598273   0.000000
     48         16.338964   0.000000
 
  0.4500000E+00  0.1071429E+00  0.0000000E+00  0.3174603E-02
      1        -12.290690   1.000000
      2        -12.115308   1.000000
      3         -8.450393   1.000000
      4         -8.399031   1.000000
      5         -6.119568   1.000000
      6         -6.115237   1.000000
      7         -4.064908   1.000000
      8         -3.902605   1.000000
      9         -3.861914   1.000000
     10         -3.298725   1.000000
     11         -2.119348   1.000000
     12         -1.926780   1.000000
     13         -1.610713   1.000000
     14         -1.606192   1.000000
     15         -0.719409   1.000000
     16         -0.617470   1.000000
     17          0.103512   1.000000
     18          0.134608   1.000000
     19          0.865626   1.000000
     20          1.179471   1.000000
     21          1.326301   1.000000
     22          1.350275   1.000000
     23          5.896551   0.000000
     24          5.963193   0.000000
     25          6.767602   0.000000
     26          6.818271   0.000000
     27          7.156864   0.000000
     28          7.866941   0.000000
     29          7.910485   0.000000
     30          8.590642   0.000000
     31          8.654735   0.000000
     32          8.766722   0.000000
     33         10.279235   0.000000
     34         10.528247   0.000000
     35         10.766199   0.000000
     36         10.866574   0.000000
     37         11.506780   0.000000
     38         11.610907   0.000000
     39         11.962750   0.000000
     40         12.607011   0.000000
     41         12.985055   0.000000
     42         13.442032   0.000000
     43         14.501583   0.000000
     44         14.686705   0.000000
     45         14.785093   0.000000
     46         15.002850   0.000000
     47         16.071763   0.000000
     48         16.366473   0.000000
 
  0.5000000E-01  0.1785714E+00  0.0000000E+00  0.3174603E-02
      1        -12.652892   1.000000
      2        -11.518218   1.000000
      3         -8.609754   1.000000
      4         -8.360842   1.000000
      5         -5.996996   1.000000
      6         -5.135922   1.000000
      7         -5.015479   1.000000
      8         -4.612658   1.000000
      9         -4.168699   1.000000
     10         -3.921656   1.000000
     11         -3.477925   1.000000
     12         -1.218529   1.000000
     13         -1.096218   1.000000
     14         -0.658442   1.000000
     15         -0.554151   1.000000
     16         -0.193909   1.000000
     17          0.173705   1.000000
     18          0.282278   1.000000
     19          0.704777   1.000000
     20          1.352524   1.000000
     21          1.415610   1.000000
     22          2.286109   0.000000
     23          5.264392   0.000000
     24          5.428745   0.000000
     25          6.094055   0.000000
     26          6.164546   0.000000
     27          7.502952   0.000000
     28          7.591823   0.000000
     29          8.285259   0.000000
     30          8.687245   0.000000
     31          8.844224   0.000000
     32          9.192391   0.000000
     33          9.328866   0.000000
     34         10.842031   0.000000
     35         11.277491   0.000000
     36         11.529611   0.000000
     37         11.665932   0.000000
     38         12.043107   0.000000
     39         12.231373   0.000000
     40         12.703718   0.000000
     41         12.716399   0.000000
     42         12.956923   0.000000
     43         13.185401   0.000000
     44         14.617879   0.000000
     45         15.107580   0.000000
     46         15.285527   0.000000
     47         15.383748   0.000000
     48         15.904790   0.000000
 
  0.1500000E+00  0.1785714E+00  0.0000000E+00  0.3174603E-02
      1        -12.609461   1.000000
      2        -11.591627   1.000000
      3         -8.588122   1.000000
      4         -8.350411   1.000000
      5         -5.923822   1.000000
      6         -5.400631   1.000000
      7         -5.038608   1.000000
      8         -4.740286   1.000000
      9         -3.987430   1.000000
     10         -3.719846   1.000000
     11         -3.140096   1.000000
     12         -1.402928   1.000000
     13         -1.192433   1.000000
     14         -0.766255   1.000000
     15         -0.516247   1.000000
     16         -0.112444   1.000000
     17          0.153116   1.000000
     18          0.227348   1.000000
     19          0.592239   1.000000
     20          1.273593   1.000000
     21          1.346011   1.000000
     22          2.150667   0.000000
     23          5.344801   0.000000
     24          5.773322   0.000000
     25          6.110636   0.000000
     26          6.209123   0.000000
     27          7.422461   0.000000
     28          7.748347   0.000000
     29          8.017602   0.000000
     30          8.779089   0.000000
     31          9.205605   0.000000
     32          9.246506   0.000000
     33          9.612689   0.000000
     34         10.477665   0.000000
     35         10.738523   0.000000
     36         11.234257   0.000000
     37         11.683775   0.000000
     38         12.156348   0.000000
     39         12.388734   0.000000
     40         12.461233   0.000000
     41         13.115934   0.000000
     42         13.232443   0.000000
     43         13.389819   0.000000
     44         14.629762   0.000000
     45         14.770525   0.000000
     46         15.221944   0.000000
     47         15.447783   0.000000
     48         15.935318   0.000000
 
  0.2500000E+00  0.1785714E+00  0.0000000E+00  0.3174603E-02
      1        -12.524439   1.000000
      2        -11.723853   1.000000
      3         -8.543826   1.000000
      4         -8.337693   1.000000
      5         -5.893954   1.000000
      6         -5.719915   1.000000
      7         -4.947065   1.000000
      8         -4.704006   1.000000
      9         -4.110403   1.000000
     10         -3.186842   1.000000
     11         -2.670170   1.000000
     12         -1.899439   1.000000
     13         -1.152005   1.000000
     14         -0.905405   1.000000
     15         -0.463621   1.000000
     16         -0.105662   1.000000
     17         -0.001921   1.000000
     18          0.238791   1.000000
     19          0.477393   1.000000
     20          1.142421   1.000000
     21          1.227926   1.000000
     22          1.894755   0.199504
     23          5.665346   0.000000
     24          6.065699   0.000000
     25          6.247964   0.000000
     26          6.339400   0.000000
     27          7.320643   0.000000
     28          7.829138   0.000000
     29          7.982404   0.000000
     30          8.907931   0.000000
     31          9.202163   0.000000
     32          9.677917   0.000000
     33          9.814181   0.000000
     34         10.094940   0.000000
     35         10.214321   0.000000
     36         11.018438   0.000000
     37         11.548242   0.000000
     38         12.063510   0.000000
     39         12.466390   0.000000
     40         12.762444   0.000000
     41         12.996815   0.000000
     42         13.404042   0.000000
     43         13.911798   0.000000
     44         14.540317   0.000000
     45         14.819751   0.000000
     46         15.245080   0.000000
     47         15.465281   0.000000
     48         16.146083   0.000000
 
  0.3500000E+00  0.1785714E+00  0.0000000E+00  0.3174603E-02
      1        -12.401786   1.000000
      2        -11.892206   1.000000
      3         -8.481321   1.000000
      4         -8.336976   1.000000
      5         -5.970435   1.000000
      6         -5.949113   1.000000
      7         -4.811690   1.000000
      8         -4.383575   1.000000
      9         -4.274157   1.000000
     10         -2.819775   1.000000
     11         -2.333594   1.000000
     12         -2.190494   1.000000
     13         -1.095692   1.000000
     14         -1.042528   1.000000
     15         -0.470266   1.000000
     16         -0.390720   1.000000
     17          0.041731   1.000000
     18          0.044390   1.000000
     19          0.624155   1.000000
     20          1.013094   1.000000
     21          1.095479   1.000000
     22          1.560565   1.000000
     23          6.077509   0.000000
     24          6.198916   0.000000
     25          6.370516   0.000000
     26          6.773238   0.000000
     27          7.265713   0.000000
     28          7.750945   0.000000
     29          8.038971   0.000000
     30          9.007419   0.000000
     31          9.067573   0.000000
     32          9.137367   0.000000
     33          9.846023   0.000000
     34         10.144569   0.000000
     35         10.662657   0.000000
     36         11.036924   0.000000
     37         11.276070   0.000000
     38         11.909336   0.000000
     39         12.305324   0.000000
     40         12.944622   0.000000
     41         12.995630   0.000000
     42         13.746228   0.000000
     43         14.328473   0.000000
     44         14.346483   0.000000
     45         14.979141   0.000000
     46         15.073518   0.000000
     47         15.560117   0.000000
     48         16.324411   0.000000
 
  0.4500000E+00  0.1785714E+00  0.0000000E+00  0.3174603E-02
      1        -12.248106   1.000000
      2        -12.073426   1.000000
      3         -8.414336   1.000000
      4         -8.361850   1.000000
      5         -6.060234   1.000000
      6         -6.054892   1.000000
      7         -4.644546   1.000000
      8         -4.459654   1.000000
      9         -3.871780   1.000000
     10         -3.276274   1.000000
     11         -2.051424   1.000000
     12         -1.886557   1.000000
     13         -1.115245   1.000000
     14         -1.054983   1.000000
     15         -0.646123   1.000000
     16         -0.640901   1.000000
     17         -0.007514   1.000000
     18          0.035994   1.000000
     19          0.881250   1.000000
     20          0.950730   1.000000
     21          0.991207   1.000000
     22          1.207831   1.000000
     23          6.169371   0.000000
     24          6.288296   0.000000
     25          6.849849   0.000000
     26          7.186531   0.000000
     27          7.244366   0.000000
     28          7.592604   0.000000
     29          7.897494   0.000000
     30          8.406796   0.000000
     31          9.062990   0.000000
     32          9.094739   0.000000
     33          9.970494   0.000000
     34         10.442977   0.000000
     35         10.666093   0.000000
     36         10.939802   0.000000
     37         11.686647   0.000000
     38         11.700981   0.000000
     39         12.082276   0.000000
     40         12.861837   0.000000
     41         13.373055   0.000000
     42         13.718647   0.000000
     43         14.178771   0.000000
     44         14.333040   0.000000
     45         14.945938   0.000000
     46         15.084992   0.000000
     47         15.937602   0.000000
     48         16.240488   0.000000
 
  0.5000000E-01  0.2500000E+00  0.0000000E+00  0.3174603E-02
      1        -12.595584   1.000000
      2        -11.466867   1.000000
      3         -8.566060   1.000000
      4         -8.305862   1.000000
      5         -5.933101   1.000000
      6         -5.616273   1.000000
      7         -4.945624   1.000000
      8         -4.556709   1.000000
      9         -4.441201   1.000000
     10         -4.129504   1.000000
     11         -3.416193   1.000000
     12         -1.229942   1.000000
     13         -1.081987   1.000000
     14         -1.011522   1.000000
     15         -0.210606   1.000000
     16          0.201808   1.000000
     17          0.325341   1.000000
     18          0.576103   1.000000
     19          0.768225   1.000000
     20          0.968279   1.000000
     21          0.982302   1.000000
     22          2.320098   0.000000
     23          4.922516   0.000000
     24          5.136345   0.000000
     25          6.324174   0.000000
     26          6.553885   0.000000
     27          7.234722   0.000000
     28          7.930735   0.000000
     29          8.658857   0.000000
     30          9.024035   0.000000
     31          9.416758   0.000000
     32          9.542605   0.000000
     33          9.609992   0.000000
     34         10.703424   0.000000
     35         11.226079   0.000000
     36         11.925681   0.000000
     37         11.980546   0.000000
     38         12.250062   0.000000
     39         12.382246   0.000000
     40         12.408428   0.000000
     41         12.522325   0.000000
     42         12.941878   0.000000
     43         13.736850   0.000000
     44         13.836552   0.000000
     45         14.364524   0.000000
     46         15.055335   0.000000
     47         15.357072   0.000000
     48         15.798480   0.000000
 
  0.1500000E+00  0.2500000E+00  0.0000000E+00  0.3174603E-02
      1        -12.552381   1.000000
      2        -11.539921   1.000000
      3         -8.544018   1.000000
      4         -8.296383   1.000000
      5         -5.855320   1.000000
      6         -5.581509   1.000000
      7         -5.281775   1.000000
      8         -4.690632   1.000000