       N       E                     dE             d eps       ncg     rms          rms(c)
DAV:   1     0.724093474709E+02    0.72409E+02   -0.19649E+04 16128   0.861E+02
DAV:   2    -0.852564290055E+02   -0.15767E+03   -0.14656E+03 22320   0.159E+02
DAV:   3    -0.905241103032E+02   -0.52677E+01   -0.52393E+01 23496   0.257E+01
DAV:   4    -0.905498757223E+02   -0.25765E-01   -0.25764E-01 19632   0.205E+00
DAV:   5    -0.905501037879E+02   -0.22807E-03   -0.22806E-03 23544   0.185E-01
DAV:   6    -0.905501065498E+02   -0.27619E-05   -0.27616E-05 18792   0.204E-02
DAV:   7    -0.905501065873E+02   -0.37559E-07   -0.37701E-07 23064   0.234E-03
   1 F= -.92512403E+02 E0= -.92504427E+02  d E =-.159522E-01
