   1   1   0   0
  0.3375000E+04  0.1500000E-08  0.1250000E-08  0.1800000E-08  0.5000000E-15
  1.000000000000000E-004
  CAR 
 Convergence                             
      2.44544220     -9.97445150  301     -3.60677297      1.00000000
     -9.974  0.0000E+00  0.0000E+00
     -9.933  0.0000E+00  0.0000E+00
     -9.892  0.0000E+00  0.0000E+00
     -9.850  0.0000E+00  0.0000E+00
     -9.809  0.0000E+00  0.0000E+00
     -9.767  0.0000E+00  0.0000E+00
     -9.726  0.0000E+00  0.0000E+00
     -9.685  0.1877E-12  0.7772E-14
     -9.643  0.9932E-09  0.4113E-10
     -9.602  0.1368E-05  0.5667E-07
     -9.560  0.4968E-03  0.2062E-04
     -9.519  0.4833E-01  0.2021E-02
     -9.478  0.1288E+01  0.5535E-01
     -9.436  0.9682E+01  0.4562E+00
     -9.395  0.2110E+02  0.1330E+01
     -9.353  0.1353E+02  0.1890E+01
     -9.312  0.2528E+01  0.1994E+01
     -9.271  0.1344E+00  0.2000E+01
     -9.229  0.1971E-02  0.2000E+01
     -9.188  0.7789E-05  0.2000E+01
     -9.146  0.8145E-08  0.2000E+01
     -9.105  0.2231E-11  0.2000E+01
     -9.064  0.0000E+00  0.2000E+01
     -9.022  0.0000E+00  0.2000E+01
     -8.981  0.0000E+00  0.2000E+01
     -8.939  0.0000E+00  0.2000E+01
     -8.898  0.0000E+00  0.2000E+01
     -8.857  0.0000E+00  0.2000E+01
     -8.815  0.0000E+00  0.2000E+01
     -8.774  0.0000E+00  0.2000E+01
     -8.732  0.0000E+00  0.2000E+01
     -8.691  0.0000E+00  0.2000E+01
     -8.650  0.0000E+00  0.2000E+01
     -8.608  0.0000E+00  0.2000E+01
     -8.567  0.0000E+00  0.2000E+01
     -8.525  0.0000E+00  0.2000E+01
     -8.484  0.0000E+00  0.2000E+01
     -8.443  0.0000E+00  0.2000E+01
     -8.401  0.0000E+00  0.2000E+01
     -8.360  0.0000E+00  0.2000E+01
     -8.318  0.0000E+00  0.2000E+01
     -8.277  0.0000E+00  0.2000E+01
     -8.236  0.0000E+00  0.2000E+01
     -8.194  0.0000E+00  0.2000E+01
     -8.153  0.0000E+00  0.2000E+01
     -8.111  0.0000E+00  0.2000E+01
     -8.070  0.0000E+00  0.2000E+01
     -8.029  0.0000E+00  0.2000E+01
     -7.987  0.0000E+00  0.2000E+01
     -7.946  0.0000E+00  0.2000E+01
     -7.904  0.0000E+00  0.2000E+01
     -7.863  0.0000E+00  0.2000E+01
     -7.822  0.0000E+00  0.2000E+01
     -7.780  0.0000E+00  0.2000E+01
     -7.739  0.0000E+00  0.2000E+01
     -7.697  0.0000E+00  0.2000E+01
     -7.656  0.0000E+00  0.2000E+01
     -7.615  0.0000E+00  0.2000E+01
     -7.573  0.0000E+00  0.2000E+01
     -7.532  0.0000E+00  0.2000E+01
     -7.490  0.0000E+00  0.2000E+01
     -7.449  0.0000E+00  0.2000E+01
     -7.408  0.0000E+00  0.2000E+01
     -7.366  0.0000E+00  0.2000E+01
     -7.325  0.0000E+00  0.2000E+01
     -7.283  0.0000E+00  0.2000E+01
     -7.242  0.0000E+00  0.2000E+01
     -7.201  0.0000E+00  0.2000E+01
     -7.159  0.0000E+00  0.2000E+01
     -7.118  0.0000E+00  0.2000E+01
     -7.076  0.0000E+00  0.2000E+01
     -7.035  0.0000E+00  0.2000E+01
     -6.994  0.0000E+00  0.2000E+01
     -6.952  0.0000E+00  0.2000E+01
     -6.911  0.0000E+00  0.2000E+01
     -6.869  0.0000E+00  0.2000E+01
     -6.828  0.0000E+00  0.2000E+01
     -6.787  0.0000E+00  0.2000E+01
     -6.745  0.0000E+00  0.2000E+01
     -6.704  0.0000E+00  0.2000E+01
     -6.662  0.0000E+00  0.2000E+01
     -6.621  0.0000E+00  0.2000E+01
     -6.580  0.0000E+00  0.2000E+01
     -6.538  0.0000E+00  0.2000E+01
     -6.497  0.0000E+00  0.2000E+01
     -6.455  0.0000E+00  0.2000E+01
     -6.414  0.0000E+00  0.2000E+01
     -6.373  0.0000E+00  0.2000E+01
     -6.331  0.0000E+00  0.2000E+01
     -6.290  0.0000E+00  0.2000E+01
     -6.248  0.0000E+00  0.2000E+01
     -6.207  0.0000E+00  0.2000E+01
     -6.166  0.0000E+00  0.2000E+01
     -6.124  0.0000E+00  0.2000E+01
     -6.083  0.0000E+00  0.2000E+01
     -6.041  0.0000E+00  0.2000E+01
     -6.000  0.0000E+00  0.2000E+01
     -5.959  0.0000E+00  0.2000E+01
     -5.917  0.0000E+00  0.2000E+01
     -5.876  0.0000E+00  0.2000E+01
     -5.834  0.0000E+00  0.2000E+01
     -5.793  0.0000E+00  0.2000E+01
     -5.752  0.0000E+00  0.2000E+01
     -5.710  0.0000E+00  0.2000E+01
     -5.669  0.0000E+00  0.2000E+01
     -5.627  0.0000E+00  0.2000E+01
     -5.586  0.0000E+00  0.2000E+01
     -5.545  0.0000E+00  0.2000E+01
     -5.503  0.0000E+00  0.2000E+01
     -5.462  0.0000E+00  0.2000E+01
     -5.420  0.0000E+00  0.2000E+01
     -5.379  0.0000E+00  0.2000E+01
     -5.338  0.0000E+00  0.2000E+01
     -5.296  0.0000E+00  0.2000E+01
     -5.255  0.0000E+00  0.2000E+01
     -5.213  0.0000E+00  0.2000E+01
     -5.172  0.0000E+00  0.2000E+01
     -5.131  0.0000E+00  0.2000E+01
     -5.089  0.0000E+00  0.2000E+01
     -5.048  0.0000E+00  0.2000E+01
     -5.006  0.0000E+00  0.2000E+01
     -4.965  0.0000E+00  0.2000E+01
     -4.924  0.0000E+00  0.2000E+01
     -4.882  0.0000E+00  0.2000E+01
     -4.841  0.0000E+00  0.2000E+01
     -4.799  0.0000E+00  0.2000E+01
     -4.758  0.0000E+00  0.2000E+01
     -4.717  0.0000E+00  0.2000E+01
     -4.675  0.0000E+00  0.2000E+01
     -4.634  0.0000E+00  0.2000E+01
     -4.592  0.0000E+00  0.2000E+01
     -4.551  0.0000E+00  0.2000E+01
     -4.510  0.0000E+00  0.2000E+01
     -4.468  0.0000E+00  0.2000E+01
     -4.427  0.0000E+00  0.2000E+01
     -4.385  0.0000E+00  0.2000E+01
     -4.344  0.0000E+00  0.2000E+01
     -4.303  0.0000E+00  0.2000E+01
     -4.261  0.0000E+00  0.2000E+01
     -4.220  0.0000E+00  0.2000E+01
     -4.179  0.0000E+00  0.2000E+01
     -4.137  0.0000E+00  0.2000E+01
     -4.096  0.0000E+00  0.2000E+01
     -4.054  0.0000E+00  0.2000E+01
     -4.013  0.0000E+00  0.2000E+01
     -3.972  0.0000E+00  0.2000E+01
     -3.930  0.0000E+00  0.2000E+01
     -3.889  0.0000E+00  0.2000E+01
     -3.847  0.5645E-12  0.2000E+01
     -3.806  0.2985E-08  0.2000E+01
     -3.765  0.4110E-05  0.2000E+01
     -3.723  0.1492E-02  0.2000E+01
     -3.682  0.1451E+00  0.2006E+01
     -3.640  0.3867E+01  0.2166E+01
     -3.599  0.2905E+02  0.3369E+01
     -3.558  0.6330E+02  0.5990E+01
     -3.516  0.4057E+02  0.7669E+01
     -3.475  0.7582E+01  0.7983E+01
     -3.433  0.4028E+00  0.8000E+01
     -3.392  0.5908E-02  0.8000E+01
     -3.351  0.2334E-04  0.8000E+01
     -3.309  0.2440E-07  0.8000E+01
     -3.268  0.6672E-11  0.8000E+01
     -3.226  0.0000E+00  0.8000E+01
     -3.185  0.0000E+00  0.8000E+01
     -3.144  0.0000E+00  0.8000E+01
     -3.102  0.0000E+00  0.8000E+01
     -3.061  0.0000E+00  0.8000E+01
     -3.019  0.0000E+00  0.8000E+01
     -2.978  0.0000E+00  0.8000E+01
     -2.937  0.0000E+00  0.8000E+01
     -2.895  0.0000E+00  0.8000E+01
     -2.854  0.0000E+00  0.8000E+01
     -2.812  0.0000E+00  0.8000E+01
     -2.771  0.0000E+00  0.8000E+01
     -2.730  0.0000E+00  0.8000E+01
     -2.688  0.0000E+00  0.8000E+01
     -2.647  0.0000E+00  0.8000E+01
     -2.605  0.0000E+00  0.8000E+01
     -2.564  0.0000E+00  0.8000E+01
     -2.523  0.0000E+00  0.8000E+01
     -2.481  0.0000E+00  0.8000E+01
     -2.440  0.0000E+00  0.8000E+01
     -2.398  0.0000E+00  0.8000E+01
     -2.357  0.0000E+00  0.8000E+01
     -2.316  0.0000E+00  0.8000E+01
     -2.274  0.0000E+00  0.8000E+01
     -2.233  0.0000E+00  0.8000E+01
     -2.191  0.0000E+00  0.8000E+01
     -2.150  0.0000E+00  0.8000E+01
     -2.109  0.0000E+00  0.8000E+01
     -2.067  0.0000E+00  0.8000E+01
     -2.026  0.0000E+00  0.8000E+01
     -1.984  0.0000E+00  0.8000E+01
     -1.943  0.0000E+00  0.8000E+01
     -1.902  0.0000E+00  0.8000E+01
     -1.860  0.0000E+00  0.8000E+01
     -1.819  0.0000E+00  0.8000E+01
     -1.777  0.0000E+00  0.8000E+01
     -1.736  0.0000E+00  0.8000E+01
     -1.695  0.0000E+00  0.8000E+01
     -1.653  0.0000E+00  0.8000E+01
     -1.612  0.0000E+00  0.8000E+01
     -1.570  0.0000E+00  0.8000E+01
     -1.529  0.0000E+00  0.8000E+01
     -1.488  0.0000E+00  0.8000E+01
     -1.446  0.0000E+00  0.8000E+01
     -1.405  0.0000E+00  0.8000E+01
     -1.363  0.0000E+00  0.8000E+01
     -1.322  0.0000E+00  0.8000E+01
     -1.281  0.0000E+00  0.8000E+01
     -1.239  0.0000E+00  0.8000E+01
     -1.198  0.0000E+00  0.8000E+01
     -1.156  0.0000E+00  0.8000E+01
     -1.115  0.0000E+00  0.8000E+01
     -1.074  0.0000E+00  0.8000E+01
     -1.032  0.0000E+00  0.8000E+01
     -0.991  0.0000E+00  0.8000E+01
     -0.949  0.0000E+00  0.8000E+01
     -0.908  0.0000E+00  0.8000E+01
     -0.867  0.0000E+00  0.8000E+01
     -0.825  0.0000E+00  0.8000E+01
     -0.784  0.0000E+00  0.8000E+01
     -0.742  0.0000E+00  0.8000E+01
     -0.701  0.0000E+00  0.8000E+01
     -0.660  0.0000E+00  0.8000E+01
     -0.618  0.0000E+00  0.8000E+01
     -0.577  0.0000E+00  0.8000E+01
     -0.535  0.6704E-15  0.8000E+01
     -0.494  0.5265E-11  0.8000E+01
     -0.453  0.1157E-07  0.8000E+01
     -0.411  0.6753E-05  0.8000E+01
     -0.370  0.1073E-02  0.8000E+01
     -0.328  0.4853E-01  0.8002E+01
     -0.287  0.6791E+00  0.8030E+01
     -0.246  0.3452E+01  0.8173E+01
     -0.204  0.8116E+01  0.8509E+01
     -0.163  0.1086E+02  0.8959E+01
     -0.121  0.1024E+02  0.9383E+01
     -0.080  0.8274E+01  0.9725E+01
     -0.039  0.4950E+01  0.9930E+01
      0.003  0.1533E+01  0.9994E+01
      0.044  0.5570E+00  0.1002E+02
      0.086  0.2161E+01  0.1011E+02
      0.127  0.5967E+01  0.1035E+02
      0.168  0.1106E+02  0.1081E+02
      0.210  0.1496E+02  0.1143E+02
      0.251  0.1575E+02  0.1208E+02
      0.293  0.1400E+02  0.1266E+02
      0.334  0.1420E+02  0.1325E+02
      0.375  0.1729E+02  0.1397E+02
      0.417  0.1867E+02  0.1474E+02
      0.458  0.1922E+02  0.1553E+02
      0.500  0.1888E+02  0.1632E+02
      0.541  0.1784E+02  0.1705E+02
      0.582  0.1529E+02  0.1769E+02
      0.624  0.1606E+02  0.1835E+02
      0.665  0.2116E+02  0.1923E+02
      0.707  0.2690E+02  0.2034E+02
      0.748  0.2598E+02  0.2142E+02
      0.789  0.2149E+02  0.2231E+02
      0.831  0.1937E+02  0.2311E+02
      0.872  0.2092E+02  0.2397E+02
      0.914  0.2452E+02  0.2499E+02
      0.955  0.2520E+02  0.2603E+02
      0.996  0.2333E+02  0.2700E+02
      1.038  0.2432E+02  0.2801E+02
      1.079  0.2765E+02  0.2915E+02
      1.121  0.2959E+02  0.3038E+02
      1.162  0.2742E+02  0.3151E+02
      1.203  0.2385E+02  0.3250E+02
      1.245  0.2750E+02  0.3364E+02
      1.286  0.3165E+02  0.3495E+02
      1.328  0.3058E+02  0.3621E+02
      1.369  0.2717E+02  0.3734E+02
      1.410  0.2442E+02  0.3835E+02
      1.452  0.2403E+02  0.3934E+02
      1.493  0.2884E+02  0.4054E+02
      1.535  0.3214E+02  0.4187E+02
      1.576  0.3415E+02  0.4328E+02
      1.617  0.3464E+02  0.4472E+02
      1.659  0.3070E+02  0.4599E+02
      1.700  0.2035E+02  0.4683E+02
      1.742  0.1208E+02  0.4733E+02
      1.783  0.8311E+01  0.4767E+02
      1.824  0.3567E+01  0.4782E+02
      1.866  0.1632E+01  0.4789E+02
      1.907  0.1783E+01  0.4796E+02
      1.949  0.8072E+00  0.4800E+02
      1.990  0.1073E+00  0.4800E+02
      2.031  0.4027E-02  0.4800E+02
      2.073  0.4140E-04  0.4800E+02
      2.114  0.1140E-06  0.4800E+02
      2.156  0.8277E-10  0.4800E+02
      2.197  0.1564E-13  0.4800E+02
      2.238  0.0000E+00  0.4800E+02
      2.280  0.0000E+00  0.4800E+02
      2.321  0.0000E+00  0.4800E+02
      2.363  0.0000E+00  0.4800E+02
      2.404  0.0000E+00  0.4800E+02
      2.445  0.0000E+00  0.4800E+02
