   1   1   0   0
  0.3375000E+04  0.1500000E-08  0.1250000E-08  0.1800000E-08  0.5000000E-15
  1.000000000000000E-004
  CAR 
 Convergence                             
      2.47857899     -9.97602263  301     -3.60676677      1.00000000
     -9.976  0.0000E+00  0.0000E+00
     -9.935  0.0000E+00  0.0000E+00
     -9.893  0.0000E+00  0.0000E+00
     -9.851  0.0000E+00  0.0000E+00
     -9.810  0.0000E+00  0.0000E+00
     -9.768  0.0000E+00  0.0000E+00
     -9.727  0.0000E+00  0.0000E+00
     -9.685  0.1578E-12  0.6550E-14
     -9.644  0.8743E-09  0.3631E-10
     -9.602  0.1253E-05  0.5204E-07
     -9.561  0.4697E-03  0.1955E-04
     -9.519  0.4682E-01  0.1963E-02
     -9.478  0.1270E+01  0.5467E-01
     -9.436  0.9641E+01  0.4549E+00
     -9.395  0.2109E+02  0.1331E+01
     -9.353  0.1349E+02  0.1891E+01
     -9.312  0.2501E+01  0.1994E+01
     -9.270  0.1309E+00  0.2000E+01
     -9.229  0.1878E-02  0.2000E+01
     -9.187  0.7202E-05  0.2000E+01
     -9.146  0.7255E-08  0.2000E+01
     -9.104  0.1898E-11  0.2000E+01
     -9.063  0.0000E+00  0.2000E+01
     -9.021  0.0000E+00  0.2000E+01
     -8.980  0.0000E+00  0.2000E+01
     -8.938  0.0000E+00  0.2000E+01
     -8.897  0.0000E+00  0.2000E+01
     -8.855  0.0000E+00  0.2000E+01
     -8.814  0.0000E+00  0.2000E+01
     -8.772  0.0000E+00  0.2000E+01
     -8.731  0.0000E+00  0.2000E+01
     -8.689  0.0000E+00  0.2000E+01
     -8.648  0.0000E+00  0.2000E+01
     -8.606  0.0000E+00  0.2000E+01
     -8.565  0.0000E+00  0.2000E+01
     -8.523  0.0000E+00  0.2000E+01
     -8.481  0.0000E+00  0.2000E+01
     -8.440  0.0000E+00  0.2000E+01
     -8.398  0.0000E+00  0.2000E+01
     -8.357  0.0000E+00  0.2000E+01
     -8.315  0.0000E+00  0.2000E+01
     -8.274  0.0000E+00  0.2000E+01
     -8.232  0.0000E+00  0.2000E+01
     -8.191  0.0000E+00  0.2000E+01
     -8.149  0.0000E+00  0.2000E+01
     -8.108  0.0000E+00  0.2000E+01
     -8.066  0.0000E+00  0.2000E+01
     -8.025  0.0000E+00  0.2000E+01
     -7.983  0.0000E+00  0.2000E+01
     -7.942  0.0000E+00  0.2000E+01
     -7.900  0.0000E+00  0.2000E+01
     -7.859  0.0000E+00  0.2000E+01
     -7.817  0.0000E+00  0.2000E+01
     -7.776  0.0000E+00  0.2000E+01
     -7.734  0.0000E+00  0.2000E+01
     -7.693  0.0000E+00  0.2000E+01
     -7.651  0.0000E+00  0.2000E+01
     -7.610  0.0000E+00  0.2000E+01
     -7.568  0.0000E+00  0.2000E+01
     -7.527  0.0000E+00  0.2000E+01
     -7.485  0.0000E+00  0.2000E+01
     -7.444  0.0000E+00  0.2000E+01
     -7.402  0.0000E+00  0.2000E+01
     -7.361  0.0000E+00  0.2000E+01
     -7.319  0.0000E+00  0.2000E+01
     -7.278  0.0000E+00  0.2000E+01
     -7.236  0.0000E+00  0.2000E+01
     -7.194  0.0000E+00  0.2000E+01
     -7.153  0.0000E+00  0.2000E+01
     -7.111  0.0000E+00  0.2000E+01
     -7.070  0.0000E+00  0.2000E+01
     -7.028  0.0000E+00  0.2000E+01
     -6.987  0.0000E+00  0.2000E+01
     -6.945  0.0000E+00  0.2000E+01
     -6.904  0.0000E+00  0.2000E+01
     -6.862  0.0000E+00  0.2000E+01
     -6.821  0.0000E+00  0.2000E+01
     -6.779  0.0000E+00  0.2000E+01
     -6.738  0.0000E+00  0.2000E+01
     -6.696  0.0000E+00  0.2000E+01
     -6.655  0.0000E+00  0.2000E+01
     -6.613  0.0000E+00  0.2000E+01
     -6.572  0.0000E+00  0.2000E+01
     -6.530  0.0000E+00  0.2000E+01
     -6.489  0.0000E+00  0.2000E+01
     -6.447  0.0000E+00  0.2000E+01
     -6.406  0.0000E+00  0.2000E+01
     -6.364  0.0000E+00  0.2000E+01
     -6.323  0.0000E+00  0.2000E+01
     -6.281  0.0000E+00  0.2000E+01
     -6.240  0.0000E+00  0.2000E+01
     -6.198  0.0000E+00  0.2000E+01
     -6.157  0.0000E+00  0.2000E+01
     -6.115  0.0000E+00  0.2000E+01
     -6.074  0.0000E+00  0.2000E+01
     -6.032  0.0000E+00  0.2000E+01
     -5.991  0.0000E+00  0.2000E+01
     -5.949  0.0000E+00  0.2000E+01
     -5.908  0.0000E+00  0.2000E+01
     -5.866  0.0000E+00  0.2000E+01
     -5.824  0.0000E+00  0.2000E+01
     -5.783  0.0000E+00  0.2000E+01
     -5.741  0.0000E+00  0.2000E+01
     -5.700  0.0000E+00  0.2000E+01
     -5.658  0.0000E+00  0.2000E+01
     -5.617  0.0000E+00  0.2000E+01
     -5.575  0.0000E+00  0.2000E+01
     -5.534  0.0000E+00  0.2000E+01
     -5.492  0.0000E+00  0.2000E+01
     -5.451  0.0000E+00  0.2000E+01
     -5.409  0.0000E+00  0.2000E+01
     -5.368  0.0000E+00  0.2000E+01
     -5.326  0.0000E+00  0.2000E+01
     -5.285  0.0000E+00  0.2000E+01
     -5.243  0.0000E+00  0.2000E+01
     -5.202  0.0000E+00  0.2000E+01
     -5.160  0.0000E+00  0.2000E+01
     -5.119  0.0000E+00  0.2000E+01
     -5.077  0.0000E+00  0.2000E+01
     -5.036  0.0000E+00  0.2000E+01
     -4.994  0.0000E+00  0.2000E+01
     -4.953  0.0000E+00  0.2000E+01
     -4.911  0.0000E+00  0.2000E+01
     -4.870  0.0000E+00  0.2000E+01
     -4.828  0.0000E+00  0.2000E+01
     -4.787  0.0000E+00  0.2000E+01
     -4.745  0.0000E+00  0.2000E+01
     -4.704  0.0000E+00  0.2000E+01
     -4.662  0.0000E+00  0.2000E+01
     -4.621  0.0000E+00  0.2000E+01
     -4.579  0.0000E+00  0.2000E+01
     -4.538  0.0000E+00  0.2000E+01
     -4.496  0.0000E+00  0.2000E+01
     -4.454  0.0000E+00  0.2000E+01
     -4.413  0.0000E+00  0.2000E+01
     -4.371  0.0000E+00  0.2000E+01
     -4.330  0.0000E+00  0.2000E+01
     -4.288  0.0000E+00  0.2000E+01
     -4.247  0.0000E+00  0.2000E+01
     -4.205  0.0000E+00  0.2000E+01
     -4.164  0.0000E+00  0.2000E+01
     -4.122  0.0000E+00  0.2000E+01
     -4.081  0.0000E+00  0.2000E+01
     -4.039  0.0000E+00  0.2000E+01
     -3.998  0.0000E+00  0.2000E+01
     -3.956  0.0000E+00  0.2000E+01
     -3.915  0.0000E+00  0.2000E+01
     -3.873  0.0000E+00  0.2000E+01
     -3.832  0.1651E-10  0.2000E+01
     -3.790  0.5364E-07  0.2000E+01
     -3.749  0.4530E-04  0.2000E+01
     -3.707  0.1007E-01  0.2000E+01
     -3.666  0.5996E+00  0.2025E+01
     -3.624  0.9821E+01  0.2433E+01
     -3.583  0.4559E+02  0.4326E+01
     -3.541  0.6147E+02  0.6877E+01
     -3.500  0.2421E+02  0.7883E+01
     -3.458  0.2740E+01  0.7996E+01
     -3.417  0.8652E-01  0.8000E+01
     -3.375  0.7407E-03  0.8000E+01
     -3.334  0.1682E-05  0.8000E+01
     -3.292  0.9985E-09  0.8000E+01
     -3.251  0.1605E-12  0.8000E+01
     -3.209  0.0000E+00  0.8000E+01
     -3.168  0.0000E+00  0.8000E+01
     -3.126  0.0000E+00  0.8000E+01
     -3.084  0.0000E+00  0.8000E+01
     -3.043  0.0000E+00  0.8000E+01
     -3.001  0.0000E+00  0.8000E+01
     -2.960  0.0000E+00  0.8000E+01
     -2.918  0.0000E+00  0.8000E+01
     -2.877  0.0000E+00  0.8000E+01
     -2.835  0.0000E+00  0.8000E+01
     -2.794  0.0000E+00  0.8000E+01
     -2.752  0.0000E+00  0.8000E+01
     -2.711  0.0000E+00  0.8000E+01
     -2.669  0.0000E+00  0.8000E+01
     -2.628  0.0000E+00  0.8000E+01
     -2.586  0.0000E+00  0.8000E+01
     -2.545  0.0000E+00  0.8000E+01
     -2.503  0.0000E+00  0.8000E+01
     -2.462  0.0000E+00  0.8000E+01
     -2.420  0.0000E+00  0.8000E+01
     -2.379  0.0000E+00  0.8000E+01
     -2.337  0.0000E+00  0.8000E+01
     -2.296  0.0000E+00  0.8000E+01
     -2.254  0.0000E+00  0.8000E+01
     -2.213  0.0000E+00  0.8000E+01
     -2.171  0.0000E+00  0.8000E+01
     -2.130  0.0000E+00  0.8000E+01
     -2.088  0.0000E+00  0.8000E+01
     -2.047  0.0000E+00  0.8000E+01
     -2.005  0.0000E+00  0.8000E+01
     -1.964  0.0000E+00  0.8000E+01
     -1.922  0.0000E+00  0.8000E+01
     -1.881  0.0000E+00  0.8000E+01
     -1.839  0.0000E+00  0.8000E+01
     -1.798  0.0000E+00  0.8000E+01
     -1.756  0.0000E+00  0.8000E+01
     -1.714  0.0000E+00  0.8000E+01
     -1.673  0.0000E+00  0.8000E+01
     -1.631  0.0000E+00  0.8000E+01
     -1.590  0.0000E+00  0.8000E+01
     -1.548  0.0000E+00  0.8000E+01
     -1.507  0.0000E+00  0.8000E+01
     -1.465  0.0000E+00  0.8000E+01
     -1.424  0.0000E+00  0.8000E+01
     -1.382  0.0000E+00  0.8000E+01
     -1.341  0.0000E+00  0.8000E+01
     -1.299  0.0000E+00  0.8000E+01
     -1.258  0.0000E+00  0.8000E+01
     -1.216  0.0000E+00  0.8000E+01
     -1.175  0.0000E+00  0.8000E+01
     -1.133  0.0000E+00  0.8000E+01
     -1.092  0.0000E+00  0.8000E+01
     -1.050  0.0000E+00  0.8000E+01
     -1.009  0.0000E+00  0.8000E+01
     -0.967  0.0000E+00  0.8000E+01
     -0.926  0.0000E+00  0.8000E+01
     -0.884  0.0000E+00  0.8000E+01
     -0.843  0.0000E+00  0.8000E+01
     -0.801  0.0000E+00  0.8000E+01
     -0.760  0.0000E+00  0.8000E+01
     -0.718  0.0000E+00  0.8000E+01
     -0.677  0.0000E+00  0.8000E+01
     -0.635  0.0000E+00  0.8000E+01
     -0.594  0.0000E+00  0.8000E+01
     -0.552  0.3473E-16  0.8000E+01
     -0.511  0.4618E-12  0.8000E+01
     -0.469  0.1280E-08  0.8000E+01
     -0.427  0.9714E-06  0.8000E+01
     -0.386  0.2090E-03  0.8000E+01
     -0.344  0.1340E-01  0.8001E+01
     -0.303  0.2761E+00  0.8012E+01
     -0.261  0.2042E+01  0.8097E+01
     -0.220  0.6354E+01  0.8361E+01
     -0.178  0.1022E+02  0.8785E+01
     -0.137  0.1074E+02  0.9231E+01
     -0.095  0.9184E+01  0.9612E+01
     -0.054  0.6236E+01  0.9871E+01
     -0.012  0.2583E+01  0.9978E+01
      0.029  0.7130E+00  0.1001E+02
      0.071  0.1425E+01  0.1007E+02
      0.112  0.4500E+01  0.1025E+02
      0.154  0.9008E+01  0.1063E+02
      0.195  0.1311E+02  0.1117E+02
      0.237  0.1541E+02  0.1181E+02
      0.278  0.1562E+02  0.1246E+02
      0.320  0.1600E+02  0.1312E+02
      0.361  0.1619E+02  0.1380E+02
      0.403  0.1619E+02  0.1447E+02
      0.444  0.1718E+02  0.1518E+02
      0.486  0.1853E+02  0.1595E+02
      0.527  0.1863E+02  0.1672E+02
      0.569  0.1839E+02  0.1749E+02
      0.610  0.1930E+02  0.1829E+02
      0.652  0.2096E+02  0.1916E+02
      0.693  0.2124E+02  0.2004E+02
      0.735  0.2082E+02  0.2091E+02
      0.776  0.2203E+02  0.2182E+02
      0.818  0.2344E+02  0.2279E+02
      0.859  0.2320E+02  0.2376E+02
      0.901  0.2282E+02  0.2470E+02
      0.943  0.2404E+02  0.2570E+02
      0.984  0.2565E+02  0.2677E+02
      1.026  0.2556E+02  0.2783E+02
      1.067  0.2585E+02  0.2890E+02
      1.109  0.2628E+02  0.2999E+02
      1.150  0.2608E+02  0.3107E+02
      1.192  0.2708E+02  0.3220E+02
      1.233  0.2811E+02  0.3337E+02
      1.275  0.2771E+02  0.3452E+02
      1.316  0.2780E+02  0.3567E+02
      1.358  0.2887E+02  0.3687E+02
      1.399  0.2856E+02  0.3805E+02
      1.441  0.2829E+02  0.3923E+02
      1.482  0.2979E+02  0.4047E+02
      1.524  0.3074E+02  0.4174E+02
      1.565  0.3145E+02  0.4305E+02
      1.607  0.3067E+02  0.4432E+02
      1.648  0.2816E+02  0.4549E+02
      1.690  0.2211E+02  0.4641E+02
      1.731  0.1601E+02  0.4707E+02
      1.773  0.1085E+02  0.4752E+02
      1.814  0.6383E+01  0.4779E+02
      1.856  0.3154E+01  0.4792E+02
      1.897  0.1341E+01  0.4797E+02
      1.939  0.4950E+00  0.4799E+02
      1.980  0.1233E+00  0.4800E+02
      2.022  0.1278E-01  0.4800E+02
      2.063  0.4159E-03  0.4800E+02
      2.105  0.3838E-05  0.4800E+02
      2.146  0.9629E-08  0.4800E+02
      2.188  0.6420E-11  0.4800E+02
      2.229  0.1111E-14  0.4800E+02
      2.271  0.0000E+00  0.4800E+02
      2.313  0.0000E+00  0.4800E+02
      2.354  0.0000E+00  0.4800E+02
      2.396  0.0000E+00  0.4800E+02
      2.437  0.0000E+00  0.4800E+02
      2.479  0.0000E+00  0.4800E+02
