Automatically generated mesh
      96
Reciprocal lattice
    0.06250000000000    0.00000000000000    0.00000000000000             2
    0.18750000000000    0.00000000000000    0.00000000000000             2
    0.31250000000000    0.00000000000000    0.00000000000000             2
    0.43750000000000    0.00000000000000    0.00000000000000             2
    0.06250000000000    0.09090909090909    0.00000000000000             4
    0.18750000000000    0.09090909090909    0.00000000000000             4
    0.31250000000000    0.09090909090909    0.00000000000000             4
    0.43750000000000    0.09090909090909    0.00000000000000             4
    0.06250000000000    0.18181818181818    0.00000000000000             4
    0.18750000000000    0.18181818181818    0.00000000000000             4
    0.31250000000000    0.18181818181818    0.00000000000000             4
    0.43750000000000    0.18181818181818    0.00000000000000             4
    0.06250000000000    0.27272727272727    0.00000000000000             4
    0.18750000000000    0.27272727272727    0.00000000000000             4
    0.31250000000000    0.27272727272727    0.00000000000000             4
    0.43750000000000    0.27272727272727    0.00000000000000             4
    0.06250000000000    0.36363636363637    0.00000000000000             4
    0.18750000000000    0.36363636363637    0.00000000000000             4
    0.31250000000000    0.36363636363637    0.00000000000000             4
    0.43750000000000    0.36363636363637    0.00000000000000             4
    0.06250000000000    0.45454545454545    0.00000000000000             4
    0.18750000000000    0.45454545454545    0.00000000000000             4
    0.31250000000000    0.45454545454545    0.00000000000000             4
    0.43750000000000    0.45454545454545    0.00000000000000             4
    0.06250000000000    0.00000000000000    0.14285714285715             4
    0.18750000000000    0.00000000000000    0.14285714285715             4
    0.31250000000000    0.00000000000000    0.14285714285715             4
    0.43750000000000    0.00000000000000    0.14285714285715             4
    0.06250000000000    0.09090909090909    0.14285714285715             8
    0.18750000000000    0.09090909090909    0.14285714285715             8
    0.31250000000000    0.09090909090909    0.14285714285715             8
    0.43750000000000    0.09090909090909    0.14285714285715             8
    0.06250000000000    0.18181818181818    0.14285714285715             8
    0.18750000000000    0.18181818181818    0.14285714285715             8
    0.31250000000000    0.18181818181818    0.14285714285715             8
    0.43750000000000    0.18181818181818    0.14285714285715             8
    0.06250000000000    0.27272727272727    0.14285714285715             8
    0.18750000000000    0.27272727272727    0.14285714285715             8
    0.31250000000000    0.27272727272727    0.14285714285715             8
    0.43750000000000    0.27272727272727    0.14285714285715             8
    0.06250000000000    0.36363636363637    0.14285714285715             8
    0.18750000000000    0.36363636363637    0.14285714285715             8
    0.31250000000000    0.36363636363637    0.14285714285715             8
    0.43750000000000    0.36363636363637    0.14285714285715             8
    0.06250000000000    0.45454545454545    0.14285714285715             8
    0.18750000000000    0.45454545454545    0.14285714285715             8
    0.31250000000000    0.45454545454545    0.14285714285715             8
    0.43750000000000    0.45454545454545    0.14285714285715             8
    0.06250000000000    0.00000000000000    0.28571428571428             4
    0.18750000000000    0.00000000000000    0.28571428571428             4
    0.31250000000000    0.00000000000000    0.28571428571428             4
    0.43750000000000    0.00000000000000    0.28571428571428             4
    0.06250000000000    0.09090909090909    0.28571428571428             8
    0.18750000000000    0.09090909090909    0.28571428571428             8
    0.31250000000000    0.09090909090909    0.28571428571428             8
    0.43750000000000    0.09090909090909    0.28571428571428             8
    0.06250000000000    0.18181818181818    0.28571428571428             8
    0.18750000000000    0.18181818181818    0.28571428571428             8
    0.31250000000000    0.18181818181818    0.28571428571428             8
    0.43750000000000    0.18181818181818    0.28571428571428             8
    0.06250000000000    0.27272727272727    0.28571428571428             8
    0.18750000000000    0.27272727272727    0.28571428571428             8
    0.31250000000000    0.27272727272727    0.28571428571428             8
    0.43750000000000    0.27272727272727    0.28571428571428             8
    0.06250000000000    0.36363636363637    0.28571428571428             8
    0.18750000000000    0.36363636363637    0.28571428571428             8
    0.31250000000000    0.36363636363637    0.28571428571428             8
    0.43750000000000    0.36363636363637    0.28571428571428             8
    0.06250000000000    0.45454545454545    0.28571428571428             8
    0.18750000000000    0.45454545454545    0.28571428571428             8
    0.31250000000000    0.45454545454545    0.28571428571428             8
    0.43750000000000    0.45454545454545    0.28571428571428             8
    0.06250000000000    0.00000000000000    0.42857142857143             4
    0.18750000000000    0.00000000000000    0.42857142857143             4
    0.31250000000000    0.00000000000000    0.42857142857143             4
    0.43750000000000    0.00000000000000    0.42857142857143             4
    0.06250000000000    0.09090909090909    0.42857142857143             8
    0.18750000000000    0.09090909090909    0.42857142857143             8
    0.31250000000000    0.09090909090909    0.42857142857143             8
    0.43750000000000    0.09090909090909    0.42857142857143             8
    0.06250000000000    0.18181818181818    0.42857142857143             8
    0.18750000000000    0.18181818181818    0.42857142857143             8
    0.31250000000000    0.18181818181818    0.42857142857143             8
    0.43750000000000    0.18181818181818    0.42857142857143             8
    0.06250000000000    0.27272727272727    0.42857142857143             8
    0.18750000000000    0.27272727272727    0.42857142857143             8
    0.31250000000000    0.27272727272727    0.42857142857143             8
    0.43750000000000    0.27272727272727    0.42857142857143             8
    0.06250000000000    0.36363636363637    0.42857142857143             8
    0.18750000000000    0.36363636363637    0.42857142857143             8
    0.31250000000000    0.36363636363637    0.42857142857143             8
    0.43750000000000    0.36363636363637    0.42857142857143             8
    0.06250000000000    0.45454545454545    0.42857142857143             8
    0.18750000000000    0.45454545454545    0.42857142857143             8
    0.31250000000000    0.45454545454545    0.42857142857143             8
    0.43750000000000    0.45454545454545    0.42857142857143             8
