 running   24 mpi-ranks, with    1 threads/rank, on    1 nodes
 distrk:  each k-point on   24 cores,    1 groups
 distr:  one band on    1 cores,   24 groups
 vasp.6.4.3 19Mar24 (build May 31 2024 16:31:43) complex                        
  
 POSCAR found type information on POSCAR B 
 POSCAR found :  1 types and      14 ions
 Reading from existing POTCAR
 scaLAPACK will be used
 Reading from existing POTCAR
 LDA part: xc-table for (Slater+PW92), standard interpolation
 POSCAR, INCAR and KPOINTS ok, starting setup
 FFT: planning ... GRIDC
 FFT: planning ... GRID_SOFT
 FFT: planning ... GRID
 WAVECAR not read
 entering main loop
       N       E                     dE             d eps       ncg     rms          rms(c)
DAV:   1     0.535439414297E+02    0.53544E+02   -0.17635E+04 31104   0.723E+02
DAV:   2    -0.929059975823E+02   -0.14645E+03   -0.13779E+03 43536   0.150E+02
DAV:   3    -0.975832264734E+02   -0.46772E+01   -0.46546E+01 45216   0.240E+01
DAV:   4    -0.976104320956E+02   -0.27206E-01   -0.27204E-01 38640   0.210E+00
DAV:   5    -0.976107449040E+02   -0.31281E-03   -0.31280E-03 44952   0.217E-01    0.123E+01
DAV:   6    -0.921977938916E+02    0.54130E+01   -0.39856E+00 45216   0.659E+00    0.678E+00
DAV:   7    -0.905524618659E+02    0.16453E+01   -0.31630E+00 46536   0.580E+00    0.176E+00
DAV:   8    -0.905587951092E+02   -0.63332E-02   -0.22057E-01 34752   0.160E+00    0.849E-01
DAV:   9    -0.905739381164E+02   -0.15143E-01   -0.20675E-02 43368   0.508E-01    0.219E-01
DAV:  10    -0.905787229945E+02   -0.47849E-02   -0.34645E-03 35136   0.206E-01    0.816E-02
DAV:  11    -0.905801954258E+02   -0.14724E-02   -0.84902E-04 40176   0.101E-01    0.334E-02
DAV:  12    -0.905803073056E+02   -0.11188E-03   -0.77611E-05 41088   0.339E-02    0.783E-03
DAV:  13    -0.905803232255E+02   -0.15920E-04   -0.13476E-05 40848   0.137E-02    0.221E-03
DAV:  14    -0.905803242298E+02   -0.10043E-05   -0.75446E-07 41256   0.367E-03    0.862E-04
DAV:  15    -0.905803244886E+02   -0.25880E-06   -0.16560E-07 35736   0.169E-03
   1 F= -.90580324E+02 E0= -.90578322E+02  d E =-.400443E-02
