  14  14   0   0
  0.3546796E+02  0.5700971E-09  0.6201871E-09  0.1404406E-08  0.5000000E-15
  1.000000000000000E-004
  CAR 
 Convergence                             
      7.75260362    -19.48566499  301     -3.64088544      1.00000000
    -19.486  0.0000E+00  0.0000E+00
    -19.395  0.0000E+00  0.0000E+00
    -19.304  0.0000E+00  0.0000E+00
    -19.213  0.0000E+00  0.0000E+00
    -19.122  0.0000E+00  0.0000E+00
    -19.032  0.0000E+00  0.0000E+00
    -18.941  0.0000E+00  0.0000E+00
    -18.850  0.0000E+00  0.0000E+00
    -18.759  0.0000E+00  0.0000E+00
    -18.669  0.0000E+00  0.0000E+00
    -18.578  0.0000E+00  0.0000E+00
    -18.487  0.3936E-11  0.3574E-12
    -18.396  0.9934E-05  0.9019E-06
    -18.305  0.5678E-01  0.5156E-02
    -18.215  0.2254E+01  0.2098E+00
    -18.124  0.5898E+01  0.7452E+00
    -18.033  0.4588E+01  0.1162E+01
    -17.942  0.3644E+01  0.1493E+01
    -17.851  0.2550E+01  0.1724E+01
    -17.761  0.2950E+01  0.1992E+01
    -17.670  0.2819E+01  0.2248E+01
    -17.579  0.2070E+01  0.2436E+01
    -17.488  0.3483E+01  0.2752E+01
    -17.397  0.2773E+01  0.3004E+01
    -17.307  0.4755E+01  0.3436E+01
    -17.216  0.3938E+01  0.3793E+01
    -17.125  0.2090E+01  0.3983E+01
    -17.034  0.1883E+00  0.4000E+01
    -16.943  0.2063E-03  0.4000E+01
    -16.853  0.6273E-09  0.4000E+01
    -16.762  0.0000E+00  0.4000E+01
    -16.671  0.0000E+00  0.4000E+01
    -16.580  0.0000E+00  0.4000E+01
    -16.489  0.0000E+00  0.4000E+01
    -16.399  0.0000E+00  0.4000E+01
    -16.308  0.0000E+00  0.4000E+01
    -16.217  0.0000E+00  0.4000E+01
    -16.126  0.0000E+00  0.4000E+01
    -16.035  0.0000E+00  0.4000E+01
    -15.945  0.0000E+00  0.4000E+01
    -15.854  0.0000E+00  0.4000E+01
    -15.763  0.0000E+00  0.4000E+01
    -15.672  0.0000E+00  0.4000E+01
    -15.582  0.0000E+00  0.4000E+01
    -15.491  0.0000E+00  0.4000E+01
    -15.400  0.0000E+00  0.4000E+01
    -15.309  0.0000E+00  0.4000E+01
    -15.218  0.0000E+00  0.4000E+01
    -15.128  0.0000E+00  0.4000E+01
    -15.037  0.0000E+00  0.4000E+01
    -14.946  0.0000E+00  0.4000E+01
    -14.855  0.0000E+00  0.4000E+01
    -14.764  0.0000E+00  0.4000E+01
    -14.674  0.0000E+00  0.4000E+01
    -14.583  0.5885E-11  0.4000E+01
    -14.492  0.1265E-04  0.4000E+01
    -14.401  0.6041E-01  0.4005E+01
    -14.310  0.2380E+01  0.4222E+01
    -14.220  0.6459E+01  0.4808E+01
    -14.129  0.1003E+02  0.5719E+01
    -14.038  0.4799E+01  0.6154E+01
    -13.947  0.4156E+01  0.6532E+01
    -13.856  0.6936E+01  0.7161E+01
    -13.766  0.5054E+01  0.7620E+01
    -13.675  0.2661E+01  0.7862E+01
    -13.584  0.1303E+01  0.7980E+01
    -13.493  0.2195E+00  0.8000E+01
    -13.402  0.4255E-03  0.8000E+01
    -13.312  0.1803E-08  0.8000E+01
    -13.221  0.0000E+00  0.8000E+01
    -13.130  0.0000E+00  0.8000E+01
    -13.039  0.0000E+00  0.8000E+01
    -12.948  0.0000E+00  0.8000E+01
    -12.858  0.0000E+00  0.8000E+01
    -12.767  0.0000E+00  0.8000E+01
    -12.676  0.1630E-15  0.8000E+01
    -12.585  0.1203E-07  0.8000E+01
    -12.495  0.1287E-02  0.8000E+01
    -12.404  0.3217E+00  0.8029E+01
    -12.313  0.6430E+00  0.8088E+01
    -12.222  0.4545E+00  0.8129E+01
    -12.131  0.1072E+01  0.8226E+01
    -12.041  0.1092E+01  0.8325E+01
    -11.950  0.8086E+00  0.8399E+01
    -11.859  0.1252E+01  0.8512E+01
    -11.768  0.1402E+01  0.8640E+01
    -11.677  0.3108E+01  0.8922E+01
    -11.587  0.5235E+01  0.9397E+01
    -11.496  0.2135E+01  0.9591E+01
    -11.405  0.3001E+01  0.9864E+01
    -11.314  0.1286E+01  0.9980E+01
    -11.223  0.2454E+01  0.1020E+02
    -11.133  0.3300E+01  0.1050E+02
    -11.042  0.2649E+01  0.1074E+02
    -10.951  0.2954E+01  0.1101E+02
    -10.860  0.2852E+01  0.1127E+02
    -10.769  0.3118E+01  0.1155E+02
    -10.679  0.2596E+01  0.1179E+02
    -10.588  0.2480E+01  0.1201E+02
    -10.497  0.3559E+01  0.1234E+02
    -10.406  0.4689E+01  0.1276E+02
    -10.315  0.6039E+01  0.1331E+02
    -10.225  0.6262E+01  0.1388E+02
    -10.134  0.3492E+01  0.1420E+02
    -10.043  0.4135E+01  0.1457E+02
     -9.952  0.6058E+01  0.1512E+02
     -9.861  0.2499E+01  0.1535E+02
     -9.771  0.4082E+01  0.1572E+02
     -9.680  0.4042E+01  0.1609E+02
     -9.589  0.6253E+01  0.1665E+02
     -9.498  0.4270E+01  0.1704E+02
     -9.408  0.4355E+01  0.1744E+02
     -9.317  0.5760E+01  0.1796E+02
     -9.226  0.2550E+01  0.1819E+02
     -9.135  0.3389E+01  0.1850E+02
     -9.044  0.3067E+01  0.1878E+02
     -8.954  0.1539E+01  0.1892E+02
     -8.863  0.2672E+01  0.1916E+02
     -8.772  0.3537E+01  0.1948E+02
     -8.681  0.9877E+00  0.1957E+02
     -8.590  0.2206E+01  0.1977E+02
     -8.500  0.3874E+01  0.2012E+02
     -8.409  0.2252E+01  0.2033E+02
     -8.318  0.3786E+00  0.2036E+02
     -8.227  0.2083E+01  0.2055E+02
     -8.136  0.3136E+01  0.2084E+02
     -8.046  0.4573E+01  0.2125E+02
     -7.955  0.2519E+01  0.2148E+02
     -7.864  0.5526E+00  0.2153E+02
     -7.773  0.2983E+01  0.2180E+02
     -7.682  0.1846E+01  0.2197E+02
     -7.592  0.8727E+00  0.2205E+02
     -7.501  0.2447E+01  0.2227E+02
     -7.410  0.4041E+01  0.2264E+02
     -7.319  0.2870E+01  0.2290E+02
     -7.228  0.2805E+01  0.2315E+02
     -7.138  0.3766E+01  0.2349E+02
     -7.047  0.2744E+01  0.2374E+02
     -6.956  0.2509E+01  0.2397E+02
     -6.865  0.4879E+01  0.2441E+02
     -6.774  0.5472E+01  0.2491E+02
     -6.684  0.5405E+01  0.2540E+02
     -6.593  0.6011E+01  0.2595E+02
     -6.502  0.7416E+01  0.2662E+02
     -6.411  0.7054E+01  0.2726E+02
     -6.321  0.6245E+01  0.2783E+02
     -6.230  0.9483E+01  0.2869E+02
     -6.139  0.8604E+01  0.2947E+02
     -6.048  0.5150E+01  0.2994E+02
     -5.957  0.5263E+01  0.3042E+02
     -5.867  0.4004E+01  0.3078E+02
     -5.776  0.3976E+01  0.3114E+02
     -5.685  0.3469E+01  0.3146E+02
     -5.594  0.1596E+01  0.3160E+02
     -5.503  0.3514E+01  0.3192E+02
     -5.413  0.1017E+02  0.3284E+02
     -5.322  0.5252E+01  0.3332E+02
     -5.231  0.2566E+01  0.3355E+02
     -5.140  0.6302E+01  0.3413E+02
     -5.049  0.5815E+01  0.3465E+02
     -4.959  0.5164E+01  0.3512E+02
     -4.868  0.4528E+01  0.3553E+02
     -4.777  0.4303E+01  0.3592E+02
     -4.686  0.4709E+01  0.3635E+02
     -4.595  0.3865E+01  0.3670E+02
     -4.505  0.4700E+01  0.3713E+02
     -4.414  0.5920E+01  0.3767E+02
     -4.323  0.3040E+01  0.3794E+02
     -4.232  0.3406E+01  0.3825E+02
     -4.141  0.2907E+01  0.3852E+02
     -4.051  0.2757E+01  0.3877E+02
     -3.960  0.7723E+01  0.3947E+02
     -3.869  0.7053E+01  0.4011E+02
     -3.778  0.6422E+01  0.4069E+02
     -3.687  0.8133E+01  0.4143E+02
     -3.597  0.1205E+02  0.4252E+02
     -3.506  0.4465E+01  0.4293E+02
     -3.415  0.6951E+00  0.4299E+02
     -3.324  0.1839E+01  0.4316E+02
     -3.233  0.1700E+01  0.4331E+02
     -3.143  0.6914E+00  0.4338E+02
     -3.052  0.1423E+00  0.4339E+02
     -2.961  0.7803E+00  0.4346E+02
     -2.870  0.2228E+00  0.4348E+02
     -2.780  0.7709E+00  0.4355E+02
     -2.689  0.6271E-01  0.4356E+02
     -2.598  0.3013E+00  0.4358E+02
     -2.507  0.1062E+01  0.4368E+02
     -2.416  0.1489E+01  0.4381E+02
     -2.326  0.8396E-01  0.4382E+02
     -2.235  0.2020E-04  0.4382E+02
     -2.144  0.5429E-04  0.4382E+02
     -2.053  0.9516E-01  0.4383E+02
     -1.962  0.7840E+00  0.4390E+02
     -1.872  0.1002E+00  0.4391E+02
     -1.781  0.2337E+00  0.4393E+02
     -1.690  0.7140E+00  0.4400E+02
     -1.599  0.4792E-01  0.4400E+02
     -1.508  0.1037E+01  0.4410E+02
     -1.418  0.3167E+01  0.4438E+02
     -1.327  0.4158E+01  0.4476E+02
     -1.236  0.5759E+01  0.4528E+02
     -1.145  0.5142E+01  0.4575E+02
     -1.054  0.3867E+01  0.4610E+02
     -0.964  0.3695E+01  0.4644E+02
     -0.873  0.4746E+01  0.4687E+02
     -0.782  0.4713E+01  0.4730E+02
     -0.691  0.3636E+01  0.4763E+02
     -0.600  0.3176E+01  0.4791E+02
     -0.510  0.1986E+01  0.4809E+02
     -0.419  0.2148E+01  0.4829E+02
     -0.328  0.2397E+01  0.4851E+02
     -0.237  0.3248E+01  0.4880E+02
     -0.146  0.2453E+01  0.4903E+02
     -0.056  0.2929E+01  0.4929E+02
      0.035  0.1757E+01  0.4945E+02
      0.126  0.2730E+01  0.4970E+02
      0.217  0.2900E+01  0.4996E+02
      0.307  0.1583E+01  0.5011E+02
      0.398  0.3838E+01  0.5045E+02
      0.489  0.5270E+01  0.5093E+02
      0.580  0.4382E+01  0.5133E+02
      0.671  0.4530E+01  0.5174E+02
      0.761  0.4554E+01  0.5216E+02
      0.852  0.4355E+01  0.5255E+02
      0.943  0.6073E+01  0.5310E+02
      1.034  0.7282E+01  0.5376E+02
      1.125  0.5289E+01  0.5424E+02
      1.215  0.2846E+01  0.5450E+02
      1.306  0.4346E+01  0.5490E+02
      1.397  0.3328E+01  0.5520E+02
      1.488  0.3267E+01  0.5550E+02
      1.579  0.4562E+01  0.5591E+02
      1.669  0.3232E+01  0.5620E+02
      1.760  0.3293E+01  0.5650E+02
      1.851  0.4340E+01  0.5690E+02
      1.942  0.4442E+01  0.5730E+02
      2.033  0.1013E+02  0.5822E+02
      2.123  0.8128E+01  0.5896E+02
      2.214  0.6210E+01  0.5952E+02
      2.305  0.1011E+02  0.6044E+02
      2.396  0.8033E+01  0.6117E+02
      2.487  0.4251E+01  0.6155E+02
      2.577  0.3874E+01  0.6191E+02
      2.668  0.3918E+01  0.6226E+02
      2.759  0.5301E+01  0.6274E+02
      2.850  0.5807E+01  0.6327E+02
      2.941  0.4831E+01  0.6371E+02
      3.031  0.5606E+01  0.6422E+02
      3.122  0.6325E+01  0.6479E+02
      3.213  0.8336E+01  0.6555E+02
      3.304  0.1191E+02  0.6663E+02
      3.394  0.1326E+02  0.6783E+02
      3.485  0.6653E+01  0.6844E+02
      3.576  0.8605E+01  0.6922E+02
      3.667  0.1359E+02  0.7045E+02
      3.758  0.1457E+02  0.7178E+02
      3.848  0.1102E+02  0.7278E+02
      3.939  0.1013E+02  0.7370E+02
      4.030  0.7455E+01  0.7437E+02
      4.121  0.8727E+01  0.7517E+02
      4.212  0.9774E+01  0.7605E+02
      4.302  0.7068E+01  0.7670E+02
      4.393  0.8672E+01  0.7748E+02
      4.484  0.1141E+02  0.7852E+02
      4.575  0.1002E+02  0.7943E+02
      4.666  0.8175E+01  0.8017E+02
      4.756  0.1041E+02  0.8112E+02
      4.847  0.1061E+02  0.8208E+02
      4.938  0.8335E+01  0.8284E+02
      5.029  0.8006E+01  0.8356E+02
      5.120  0.1196E+02  0.8465E+02
      5.210  0.1010E+02  0.8557E+02
      5.301  0.7779E+01  0.8627E+02
      5.392  0.1091E+02  0.8726E+02
      5.483  0.9389E+01  0.8812E+02
      5.574  0.9671E+01  0.8899E+02
      5.664  0.9059E+01  0.8982E+02
      5.755  0.8759E+01  0.9061E+02
      5.846  0.9812E+01  0.9150E+02
      5.937  0.8518E+01  0.9228E+02
      6.028  0.5871E+01  0.9281E+02
      6.118  0.9613E+01  0.9368E+02
      6.209  0.8028E+01  0.9441E+02
      6.300  0.7356E+01  0.9508E+02
      6.391  0.5441E+01  0.9557E+02
      6.481  0.3695E+01  0.9591E+02
      6.572  0.9714E+00  0.9600E+02
      6.663  0.5017E-01  0.9600E+02
      6.754  0.1294E-04  0.9600E+02
      6.845  0.6290E-11  0.9600E+02
      6.935  0.0000E+00  0.9600E+02
      7.026  0.0000E+00  0.9600E+02
      7.117  0.0000E+00  0.9600E+02
      7.208  0.0000E+00  0.9600E+02
      7.299  0.0000E+00  0.9600E+02
      7.389  0.0000E+00  0.9600E+02
      7.480  0.0000E+00  0.9600E+02
      7.571  0.0000E+00  0.9600E+02
      7.662  0.0000E+00  0.9600E+02
      7.753  0.0000E+00  0.9600E+02
