   14   14    1    1
  0.3546796E+02  0.5700971E-09  0.6201871E-09  0.1404406E-08  0.5000000E-15
  1.000000000000000E-004
  CAR 
 Convergence                             
     42     25     48
 
  0.5000000E-01  0.0000000E+00  0.0000000E+00  0.2222222E-01
      1        -18.247562   1.000000
      2        -17.154426   1.000000
      3        -14.175306   1.000000
      4        -13.917171   1.000000
      5        -11.529358   1.000000
      6        -10.652734   1.000000
      7        -10.632339   1.000000
      8        -10.246586   1.000000
      9         -9.843100   1.000000
     10         -9.051294   1.000000
     11         -8.995567   1.000000
     12         -6.708539   1.000000
     13         -6.562669   1.000000
     14         -6.547071   1.000000
     15         -5.576043   1.000000
     16         -5.515497   1.000000
     17         -4.926444   1.000000
     18         -4.594083   1.000000
     19         -4.514457   1.000000
     20         -4.025130   1.000000
     21         -3.592121   0.083904
     22         -3.300762   0.000000
     23         -1.530230   0.000000
     24         -0.585358   0.000000
     25         -0.566541   0.000000
     26         -0.426569   0.000000
     27          0.591581   0.000000
     28          0.950827   0.000000
     29          1.495130   0.000000
     30          1.978759   0.000000
     31          2.143879   0.000000
     32          3.103416   0.000000
     33          3.159496   0.000000
     34          3.311572   0.000000
     35          3.623453   0.000000
     36          3.817735   0.000000
     37          3.830405   0.000000
     38          4.049518   0.000000
     39          4.898033   0.000000
     40          5.323114   0.000000
     41          5.327999   0.000000
     42          5.359122   0.000000
     43          5.548586   0.000000
     44          5.887673   0.000000
     45          5.953489   0.000000
     46          5.977120   0.000000
     47          6.197441   0.000000
     48          6.310389   0.000000
 
  0.1500000E+00  0.0000000E+00  0.0000000E+00  0.2222222E-01
      1        -18.205274   1.000000
      2        -17.224085   1.000000
      3        -14.154930   1.000000
      4        -13.907509   1.000000
      5        -11.460953   1.000000
      6        -11.003070   1.000000
      7        -10.574504   1.000000
      8        -10.360998   1.000000
      9         -9.376507   1.000000
     10         -9.161915   1.000000
     11         -8.664574   1.000000
     12         -7.004490   1.000000
     13         -6.516867   1.000000
     14         -6.492552   1.000000
     15         -5.717317   1.000000
     16         -5.469694   1.000000
     17         -5.039726   1.000000
     18         -4.682809   1.000000
     19         -4.617585   1.000000
     20         -4.001670   1.000000
     21         -3.601196   0.130805
     22         -3.443044   0.000000
     23         -1.478309   0.000000
     24         -0.631633   0.000000
     25         -0.471664   0.000000
     26         -0.080683   0.000000
     27          0.548697   0.000000
     28          1.065644   0.000000
     29          1.645583   0.000000
     30          1.996982   0.000000
     31          2.163359   0.000000
     32          2.866942   0.000000
     33          3.215191   0.000000
     34          3.497781   0.000000
     35          3.772533   0.000000
     36          3.890730   0.000000
     37          3.967288   0.000000
     38          4.204393   0.000000
     39          4.531114   0.000000
     40          4.919636   0.000000
     41          4.931851   0.000000
     42          5.305007   0.000000
     43          5.324428   0.000000
     44          5.585937   0.000000
     45          5.767770   0.000000
     46          5.939272   0.000000
     47          6.199698   0.000000
     48          6.244148   0.000000
 
  0.2500000E+00  0.0000000E+00  0.0000000E+00  0.2222222E-01
      1        -18.122557   1.000000
      2        -17.350067   1.000000
      3        -14.112204   1.000000
      4        -13.896491   1.000000
      5        -11.447265   1.000000
      6        -11.327085   1.000000
      7        -10.460966   1.000000
      8        -10.307863   1.000000
      9         -9.356162   1.000000
     10         -8.830320   1.000000
     11         -8.190557   1.000000
     12         -7.497945   1.000000
     13         -6.432715   1.000000
     14         -6.399836   1.000000
     15         -5.977018   1.000000
     16         -5.497912   1.000000
     17         -5.150164   1.000000
     18         -4.831251   1.000000
     19         -4.789895   1.000000
     20         -3.955064   1.000000
     21         -3.713930   0.980586
     22         -3.621685   0.293537
     23         -1.382905   0.000000
     24         -0.711083   0.000000
     25         -0.142477   0.000000
     26          0.407934   0.000000
     27          0.528319   0.000000
     28          1.143048   0.000000
     29          1.891948   0.000000
     30          2.024557   0.000000
     31          2.305896   0.000000
     32          2.659147   0.000000
     33          3.271543   0.000000
     34          3.716086   0.000000
     35          3.815991   0.000000
     36          3.863612   0.000000
     37          3.987422   0.000000
     38          4.158157   0.000000
     39          4.344203   0.000000
     40          4.506008   0.000000
     41          4.566182   0.000000
     42          4.862329   0.000000
     43          5.426870   0.000000
     44          5.510961   0.000000
     45          5.655649   0.000000
     46          5.787989   0.000000
     47          6.401813   0.000000
     48          6.419756   0.000000
 
  0.3500000E+00  0.0000000E+00  0.0000000E+00  0.2222222E-01
      1        -18.003407   1.000000
      2        -17.511282   1.000000
      3        -14.050319   1.000000
      4        -13.898549   1.000000
      5        -11.552466   1.000000
      6        -11.542760   1.000000
      7        -10.296348   1.000000
      8         -9.973236   1.000000
      9         -9.596547   1.000000
     10         -8.425563   1.000000
     11         -7.945657   1.000000
     12         -7.695456   1.000000
     13         -6.329358   1.000000
     14         -6.305392   1.000000
     15         -6.298181   1.000000
     16         -5.819316   1.000000
     17         -5.013276   1.000000
     18         -4.991156   1.000000
     19         -4.973426   1.000000
     20         -4.057390   1.000000
     21         -3.889091   1.000000
     22         -3.669528   0.791068
     23         -1.256292   0.000000
     24         -0.825174   0.000000
     25          0.388254   0.000000
     26          0.580630   0.000000
     27          0.993780   0.000000
     28          1.060659   0.000000
     29          2.047166   0.000000
     30          2.138010   0.000000
     31          2.504759   0.000000
     32          2.554147   0.000000
     33          3.101225   0.000000
     34          3.193517   0.000000
     35          3.629934   0.000000
     36          3.782663   0.000000
     37          3.992946   0.000000
     38          4.076119   0.000000
     39          4.119522   0.000000
     40          4.520169   0.000000
     41          4.643295   0.000000
     42          5.098407   0.000000
     43          5.099463   0.000000
     44          5.651225   0.000000
     45          5.849670   0.000000
     46          6.080874   0.000000
     47          6.141003   0.000000
     48          6.223932   0.000000
 
  0.4500000E+00  0.0000000E+00  0.0000000E+00  0.2222222E-01
      1        -17.854440   1.000000
      2        -17.685663   1.000000
      3        -13.982162   1.000000
      4        -13.926828   1.000000
      5        -11.655984   1.000000
      6        -11.640549   1.000000
      7        -10.088406   1.000000
      8         -9.849166   1.000000
      9         -9.457435   1.000000
     10         -8.862479   1.000000
     11         -7.632659   1.000000
     12         -7.391183   1.000000
     13         -6.512933   1.000000
     14         -6.246520   1.000000
     15         -6.245540   1.000000
     16         -6.232059   1.000000
     17         -5.100449   1.000000
     18         -5.096900   1.000000
     19         -4.750674   1.000000
     20         -4.420493   1.000000
     21         -3.812140   0.999999
     22         -3.735263   0.996201
     23         -1.111706   0.000000
     24         -0.963170   0.000000
     25          0.709045   0.000000
     26          0.886092   0.000000
     27          1.050521   0.000000
     28          1.645354   0.000000
     29          1.714317   0.000000
     30          2.273963   0.000000
     31          2.348583   0.000000
     32          2.388518   0.000000
     33          2.882308   0.000000
     34          3.263457   0.000000
     35          3.286677   0.000000
     36          3.650672   0.000000
     37          3.795916   0.000000
     38          3.896178   0.000000
     39          4.328088   0.000000
     40          4.695132   0.000000
     41          4.798403   0.000000
     42          4.799720   0.000000
     43          5.626940   0.000000
     44          5.869043   0.000000
     45          5.969269   0.000000
     46          6.002036   0.000000
     47          6.069431   0.000000
     48          6.163199   0.000000
 
  0.5000000E-01  0.1111111E+00  0.0000000E+00  0.4444444E-01
      1        -18.237158   1.000000
      2        -17.173239   1.000000
      3        -14.173620   1.000000
      4        -13.885019   1.000000
      5        -11.666077   1.000000
      6        -10.790994   1.000000
      7        -10.610518   1.000000
      8        -10.064128   1.000000
      9         -9.699502   1.000000
     10         -9.109051   1.000000
     11         -8.878323   1.000000
     12         -6.762268   1.000000
     13         -6.567285   1.000000
     14         -6.438043   1.000000
     15         -5.737755   1.000000
     16         -5.554110   1.000000
     17         -5.153043   1.000000
     18         -4.715921   1.000000
     19         -4.527511   1.000000
     20         -4.033386   1.000000
     21         -3.580647   0.044210
     22         -3.011250   0.000000
     23         -1.506739   0.000000
     24         -0.600251   0.000000
     25         -0.511526   0.000000
     26         -0.322870   0.000000
     27          0.407350   0.000000
     28          0.948258   0.000000
     29          1.601526   0.000000
     30          2.015353   0.000000
     31          2.343134   0.000000
     32          3.121783   0.000000
     33          3.200597   0.000000
     34          3.282004   0.000000
     35          3.526297   0.000000
     36          3.877422   0.000000
     37          3.973888   0.000000
     38          4.125804   0.000000
     39          4.794787   0.000000
     40          4.821757   0.000000
     41          5.083015   0.000000
     42          5.130543   0.000000
     43          5.576627   0.000000
     44          5.712149   0.000000
     45          5.820995   0.000000
     46          6.210290   0.000000
     47          6.371848   0.000000
     48          6.416365   0.000000
 
  0.1500000E+00  0.1111111E+00  0.0000000E+00  0.4444444E-01
      1        -18.195314   1.000000
      2        -17.239136   1.000000
      3        -14.177706   1.000000
      4        -13.867041   1.000000
      5        -11.637100   1.000000
      6        -10.897163   1.000000
      7        -10.553388   1.000000
      8        -10.310605   1.000000
      9         -9.316187   1.000000
     10         -9.205477   1.000000
     11         -8.538259   1.000000
     12         -7.054584   1.000000
     13         -6.634214   1.000000
     14         -6.295280   1.000000
     15         -5.798542   1.000000
     16         -5.576326   1.000000
     17         -5.227851   1.000000
     18         -4.908799   1.000000
     19         -4.478629   1.000000
     20         -4.006264   1.000000
     21         -3.594925   0.096809
     22         -3.215025   0.000000
     23         -1.463832   0.000000
     24         -0.645239   0.000000
     25         -0.411051   0.000000
     26         -0.037902   0.000000
     27          0.397754   0.000000
     28          1.137127   0.000000
     29          1.771829   0.000000
     30          2.042567   0.000000
     31          2.283510   0.000000
     32          2.840431   0.000000
     33          3.253464   0.000000
     34          3.366807   0.000000
     35          3.680363   0.000000
     36          4.073023   0.000000
     37          4.165724   0.000000
     38          4.253592   0.000000
     39          4.281164   0.000000
     40          4.696107   0.000000
     41          4.809629   0.000000
     42          5.216032   0.000000
     43          5.308933   0.000000
     44          5.378017   0.000000
     45          5.846462   0.000000
     46          5.906983   0.000000
     47          6.115799   0.000000
     48          6.353235   0.000000
 
  0.2500000E+00  0.1111111E+00  0.0000000E+00  0.4444444E-01
      1        -18.113566   1.000000
      2        -17.359345   1.000000
      3        -14.161656   1.000000
      4        -13.860604   1.000000
      5        -11.651818   1.000000
      6        -11.038475   1.000000
      7        -10.441444   1.000000
      8        -10.343863   1.000000
      9         -9.380399   1.000000
     10         -8.833491   1.000000
     11         -8.093999   1.000000
     12         -7.518191   1.000000
     13         -6.629275   1.000000
     14         -6.183276   1.000000
     15         -6.051644   1.000000
     16         -5.465873   1.000000
     17         -5.395168   1.000000
     18         -5.081451   1.000000
     19         -4.537576   1.000000
     20         -3.958538   1.000000
     21         -3.625888   0.335711
     22         -3.573496   0.028321
     23         -1.377622   0.000000
     24         -0.725713   0.000000
     25         -0.094087   0.000000
     26          0.377453   0.000000
     27          0.454279   0.000000
     28          1.303745   0.000000
     29          2.017714   0.000000
     30          2.051058   0.000000
     31          2.343615   0.000000
     32          2.637169   0.000000
     33          3.283028   0.000000
     34          3.541994   0.000000
     35          3.661428   0.000000
     36          3.692141   0.000000
     37          4.144697   0.000000
     38          4.296443   0.000000
     39          4.429833   0.000000
     40          4.445058   0.000000
     41          4.566833   0.000000
     42          4.943543   0.000000
     43          5.197518   0.000000
     44          5.421041   0.000000
     45          5.724988   0.000000
     46          5.769503   0.000000
     47          6.057326   0.000000
     48          6.111007   0.000000
 
  0.3500000E+00  0.1111111E+00  0.0000000E+00  0.4444444E-01
      1        -17.996025   1.000000
      2        -17.514728   1.000000
      3        -14.112407   1.000000
      4        -13.888684   1.000000
      5        -11.674014   1.000000
      6        -11.267114   1.000000
      7        -10.279652   1.000000
      8        -10.024738   1.000000
      9         -9.604054   1.000000
     10         -8.467062   1.000000
     11         -8.055342   1.000000
     12         -7.542634   1.000000
     13         -6.552909   1.000000
     14         -6.357721   1.000000
     15         -6.171247   1.000000
     16         -5.743796   1.000000
     17         -5.197275   1.000000
     18         -5.138801   1.000000
     19         -4.685660   1.000000
     20         -4.039517   1.000000
     21         -3.871057   1.000000
     22         -3.671000   0.802826
     23         -1.256411   0.000000
     24         -0.836512   0.000000
     25          0.417326   0.000000
     26          0.591718   0.000000
     27          0.873275   0.000000
     28          1.244164   0.000000
     29          2.075651   0.000000
     30          2.233964   0.000000
     31          2.390581   0.000000
     32          2.666280   0.000000
     33          2.929855   0.000000
     34          3.209737   0.000000
     35          3.573565   0.000000
     36          3.768081   0.000000
     37          4.009179   0.000000
     38          4.074879   0.000000
     39          4.126626   0.000000
     40          4.366694   0.000000
     41          4.861201   0.000000
     42          5.076732   0.000000
     43          5.155320   0.000000
     44          5.556096   0.000000
     45          5.733179   0.000000
     46          5.836149   0.000000
     47          5.885689   0.000000
     48          6.058550   0.000000
 
  0.4500000E+00  0.1111111E+00  0.0000000E+00  0.4444444E-01
      1        -17.849524   1.000000
      2        -17.684303   1.000000
      3        -14.036234   1.000000
      4        -13.953171   1.000000
      5        -11.624409   1.000000
      6        -11.482208   1.000000
      7        -10.076443   1.000000
      8         -9.844841   1.000000
      9         -9.512581   1.000000
     10         -8.921521   1.000000
     11         -7.711185   1.000000
     12         -7.393557   1.000000
     13         -6.451124   1.000000
     14         -6.422851   1.000000
     15         -6.274323   1.000000
     16         -6.135772   1.000000
     17         -5.049102   1.000000
     18         -4.875437   1.000000
     19         -4.874820   1.000000
     20         -4.477158   1.000000
     21         -3.806710   0.999999
     22         -3.734043   0.995792
     23         -1.115380   0.000000
     24         -0.970468   0.000000
     25          0.793923   0.000000
     26          1.030310   0.000000
     27          1.040969   0.000000
     28          1.335429   0.000000
     29          1.986174   0.000000
     30          2.196063   0.000000
     31          2.257509   0.000000
     32          2.302741   0.000000
     33          2.955016   0.000000
     34          3.303908   0.000000
     35          3.330945   0.000000
     36          3.694016   0.000000
     37          3.839563   0.000000
     38          3.907283   0.000000
     39          4.374759   0.000000
     40          4.454823   0.000000
     41          4.745108   0.000000
     42          4.753672   0.000000
     43          5.539607   0.000000
     44          5.586098   0.000000
     45          5.671277   0.000000
     46          5.775669   0.000000
     47          6.229367   0.000000
     48          6.367601   0.000000
 
  0.5000000E-01  0.2222222E+00  0.0000000E+00  0.4444444E-01
      1        -18.209278   1.000000
      2        -17.222087   1.000000
      3        -14.165932   1.000000
      4        -13.800685   1.000000
      5        -11.946030   1.000000
      6        -11.016623   1.000000
      7        -10.549322   1.000000
      8         -9.710541   1.000000
      9         -9.381628   1.000000
     10         -9.254309   1.000000
     11         -8.554276   1.000000
     12         -6.903833   1.000000
     13         -6.499597   1.000000
     14         -6.279380   1.000000
     15         -6.223878   1.000000
     16         -5.641743   1.000000
     17         -5.471746   1.000000
     18         -4.950863   1.000000
     19         -4.648994   1.000000
     20         -4.018300   1.000000
     21         -3.587614   0.065937
     22         -2.472286   0.000000
     23         -1.438535   0.000000
     24         -0.675682   0.000000
     25         -0.426063   0.000000
     26          0.067636   0.000000
     27          0.086423   0.000000
     28          0.914616   0.000000
     29          1.892114   0.000000
     30          2.114481   0.000000
     31          2.717468   0.000000
     32          2.985576   0.000000
     33          3.320100   0.000000
     34          3.330560   0.000000
     35          3.593904   0.000000
     36          3.937331   0.000000
     37          4.036466   0.000000
     38          4.069450   0.000000
     39          4.325268   0.000000
     40          4.440283   0.000000
     41          4.669268   0.000000
     42          4.843447   0.000000
     43          5.416906   0.000000
     44          5.697587   0.000000
     45          5.774921   0.000000
     46          6.190519   0.000000
     47          6.269366   0.000000
     48          6.514500   0.000000
 
  0.1500000E+00  0.2222222E+00  0.0000000E+00  0.4444444E-01
      1        -18.168676   1.000000
      2        -17.278685   1.000000
      3        -14.210412   1.000000
      4        -13.790823   1.000000
      5        -11.883425   1.000000
      6        -10.939997   1.000000
      7        -10.494279   1.000000
      8        -10.030361   1.000000
      9         -9.319761   1.000000
     10         -9.124792   1.000000
     11         -8.250452   1.000000
     12         -7.178659   1.000000
     13         -6.665414   1.000000
     14         -6.202240   1.000000
     15         -6.064903   1.000000
     16         -5.826183   1.000000
     17         -5.404323   1.000000
     18         -5.159597   1.000000
     19         -4.451384   1.000000
     20         -3.991247   1.000000
     21         -3.604452   0.151386
     22         -2.833623   0.000000
     23         -1.413151   0.000000
     24         -0.706244   0.000000
     25         -0.283485   0.000000
     26          0.170509   0.000000
     27          0.227138   0.000000
     28          1.165635   0.000000
     29          2.103621   0.000000
     30          2.127517   0.000000
     31          2.583440   0.000000
     32          2.742176   0.000000
     33          3.292195   0.000000
     34          3.330460   0.000000
     35          3.631354   0.000000
     36          3.645066   0.000000
     37          4.096509   0.000000
     38          4.317529   0.000000
     39          4.452237   0.000000
     40          4.571861   0.000000
     41          4.671754   0.000000
     42          4.781209   0.000000
     43          5.313542   0.000000
     44          5.445281   0.000000
     45          5.671704   0.000000
     46          5.832933   0.000000
     47          5.941688   0.000000
     48          6.214856   0.000000
 
  0.2500000E+00  0.2222222E+00  0.0000000E+00  0.4444444E-01
      1        -18.089580   1.000000
      2        -17.384245   1.000000
      3        -14.238669   1.000000
      4        -13.825798   1.000000
      5        -11.776019   1.000000
      6        -10.783031   1.000000
      7        -10.387004   1.000000
      8        -10.325545   1.000000
      9         -9.448204   1.000000
     10         -8.761388   1.000000
     11         -8.038239   1.000000
     12         -7.453911   1.000000
     13         -6.760796   1.000000
     14         -6.203836   1.000000
     15         -6.079032   1.000000
     16         -5.918349   1.000000
     17         -5.413502   1.000000
     18         -5.180375   1.000000
     19         -4.362416   1.000000
     20         -3.944482   1.000000
     21         -3.639453   0.483838
     22         -3.391998   0.000000
     23         -1.353218   0.000000
     24         -0.773971   0.000000
     25          0.027827   0.000000
     26          0.386019   0.000000
     27          0.457697   0.000000
     28          1.471073   0.000000
     29          2.031057   0.000000
     30          2.423261   0.000000
     31          2.450828   0.000000
     32          2.634206   0.000000
     33          3.005131   0.000000
     34          3.282029   0.000000
     35          3.503597   0.000000
     36          3.715311   0.000000
     37          4.195547   0.000000
     38          4.254418   0.000000
     39          4.358890   0.000000
     40          4.473108   0.000000
     41          4.678319   0.000000
     42          5.048353   0.000000
     43          5.118538   0.000000
     44          5.186058   0.000000
     45          5.674304   0.000000
     46          5.712903   0.000000
     47          5.782704   0.000000
     48          5.906965   0.000000
 
  0.3500000E+00  0.2222222E+00  0.0000000E+00  0.4444444E-01
      1        -17.976463   1.000000
      2        -17.524397   1.000000
      3        -14.217311   1.000000
      4        -13.916284   1.000000
      5        -11.626074   1.000000
      6        -10.890359   1.000000
      7        -10.233565   1.000000
      8        -10.172606   1.000000
      9         -9.627561   1.000000
     10         -8.583876   1.000000
     11         -8.175287   1.000000
     12         -7.339028   1.000000
     13         -6.756836   1.000000
     14         -6.366378   1.000000
     15         -6.265786   1.000000
     16         -5.787257   1.000000
     17         -5.441510   1.000000
     18         -5.007223   1.000000
     19         -4.407749   1.000000
     20         -4.061289   1.000000
     21         -3.847500   1.000000
     22         -3.672972   0.817941
     23         -1.254058   0.000000
     24         -0.872903   0.000000
     25          0.497624   0.000000
     26          0.699113   0.000000
     27          0.731127   0.000000
     28          1.560444   0.000000
     29          1.933373   0.000000
     30          2.293197   0.000000
     31          2.375118   0.000000
     32          2.764924   0.000000
     33          2.813372   0.000000
     34          3.256305   0.000000
     35          3.373025   0.000000
     36          3.716680   0.000000
     37          3.994670   0.000000
     38          4.195795   0.000000
     39          4.196397   0.000000
     40          4.398226   0.000000
     41          4.678431   0.000000
     42          4.999537   0.000000
     43          5.119624   0.000000
     44          5.418648   0.000000
     45          5.553847   0.000000
     46          5.600882   0.000000
     47          5.605247   0.000000
     48          6.403283   0.000000
 
  0.4500000E+00  0.2222222E+00  0.0000000E+00  0.4444444E-01
      1        -17.836692   1.000000
      2        -17.681112   1.000000
      3        -14.143887   1.000000
      4        -14.034183   1.000000
      5        -11.424205   1.000000
      6        -11.170742   1.000000
      7        -10.044274   1.000000
      8         -9.834937   1.000000
      9         -9.682675   1.000000
     10         -9.104917   1.000000
     11         -7.801463   1.000000
     12         -7.441386   1.000000
     13         -6.657374   1.000000
     14         -6.482430   1.000000
     15         -6.249131   1.000000
     16         -5.955719   1.000000
     17         -5.140816   1.000000
     18         -4.776564   1.000000
     19         -4.638895   1.000000
     20         -4.560961   1.000000
     21         -3.795157   0.999994
     22         -3.730944   0.994571
     23         -1.127894   0.000000
     24         -0.994956   0.000000
     25          0.999961   0.000000
     26          1.028139   0.000000
     27          1.032604   0.000000
     28          1.328397   0.000000
     29          2.024095   0.000000
     30          2.026706   0.000000
     31          2.151936   0.000000
     32          2.255611   0.000000
     33          3.112091   0.000000
     34          3.388267   0.000000
     35          3.439053   0.000000
     36          3.720162   0.000000
     37          3.739429   0.000000
     38          3.862564   0.000000
     39          4.399095   0.000000
     40          4.514713   0.000000
     41          4.577285   0.000000
     42          4.850891   0.000000
     43          5.233548   0.000000
     44          5.271975   0.000000
     45          5.359672   0.000000
     46          5.513761   0.000000
     47          6.091786   0.000000
     48          6.285025   0.000000
 
  0.5000000E-01  0.3333333E+00  0.0000000E+00  0.4444444E-01
      1        -18.174363   1.000000
      2        -17.280350   1.000000
      3        -14.153115   1.000000
      4        -13.693406   1.000000
      5        -12.217172   1.000000
      6        -11.201098   1.000000
      7        -10.464855   1.000000
      8         -9.424757   1.000000
      9         -9.363459   1.000000
     10         -8.970807   1.000000
     11         -8.108300   1.000000
     12         -7.076945   1.000000
     13         -6.915342   1.000000
     14         -6.384794   1.000000
     15         -6.142576   1.000000
     16         -5.959932   1.000000
     17         -5.459100   1.000000
     18         -5.192497   1.000000
     19         -4.866866   1.000000
     20         -3.981096   1.000000
     21         -3.615765   0.238693
     22         -2.007304   0.000000
     23         -1.338515   0.000000
     24         -0.783074   0.000000
     25         -0.337016   0.000000
     26         -0.155410   0.000000
     27          0.672467   0.000000
     28          0.859200   0.000000
     29          2.245302   0.000000
     30          2.296835   0.000000
     31          2.834830   0.000000
     32          3.009485   0.000000
     33          3.142150   0.000000
     34          3.426597   0.000000
     35          3.516351   0.000000
     36          3.700742   0.000000
     37          3.784841   0.000000
     38          3.810662   0.000000
     39          4.197369   0.000000
     40          4.478505   0.000000
     41          4.668872   0.000000
     42          4.899219   0.000000
     43          5.039988   0.000000
     44          5.483626   0.000000
     45          5.902033   0.000000
     46          6.254888   0.000000
     47          6.313108   0.000000
     48          6.332104   0.000000
 
  0.1500000E+00  0.3333333E+00  0.0000000E+00  0.4444444E-01
      1        -18.135379   1.000000
      2        -17.326683   1.000000
      3        -14.225610   1.000000
      4        -13.729654   1.000000
      5        -12.055247   1.000000
      6        -11.091706   1.000000
      7        -10.412919   1.000000
      8         -9.638756   1.000000