<?xml version="1.0" encoding="ISO-8859-1"?>
<modeling>
 <generator>
  <i name="program" type="string">vasp </i>
  <i name="version" type="string">6.4.3  </i>
  <i name="subversion" type="string">19Mar24 (build May 31 2024 16:31:43) complex                          parallel </i>
  <i name="platform" type="string">LinuxIFC </i>
  <i name="date" type="string">2024 11 11 </i>
  <i name="time" type="string">18:22:34 </i>
 </generator>
 <incar>
  <i type="string" name="SYSTEM">Convergence</i>
  <i type="int" name="ISTART">     0</i>
  <i type="string" name="PREC">Accurate</i>
  <i type="string" name="ALGO">Normal</i>
  <i type="int" name="ISPIN">     1</i>
  <i type="int" name="ICHARG">     2</i>
  <i type="int" name="NELM">   100</i>
  <i type="int" name="IBRION">    -1</i>
  <i name="EDIFF">      0.00000100</i>
  <i name="EDIFFG">     -0.00100000</i>
  <i type="int" name="NSW">     0</i>
  <i type="int" name="ISIF">     2</i>
  <i name="ENCUT">    600.00000000</i>
  <i name="POTIM">      0.50000000</i>
  <i type="int" name="ISMEAR">     0</i>
  <i name="SIGMA">      0.05000000</i>
  <i type="logical" name="LWAVE"> F  </i>
  <i type="logical" name="LCHARG"> F  </i>
  <i type="string" name="GGA">PE</i>
 </incar>
 <primitive_cell>
  <structure name="primitive_cell" >
   <crystal>
    <varray name="basis" >
     <v>      14.98800000       0.00000000       0.00000000 </v>
     <v>       0.00000000      12.49000000       0.00000000 </v>
     <v>       0.00000000       0.00000000      17.98560000 </v>
    </varray>
    <i name="volume">   3366.90647827 </i>
    <varray name="rec_basis" >
     <v>       0.06672004       0.00000000       0.00000000 </v>
     <v>       0.00000000       0.08006405       0.00000000 </v>
     <v>       0.00000000       0.00000000       0.05560004 </v>
    </varray>
   </crystal>
   <varray name="positions" >
    <v>       0.52123000       0.54500000       0.63796000 </v>
   </varray>
  </structure>
  <varray name="primitive_index" >
   <v type="int" >        1 </v>
  </varray>
 </primitive_cell>
 <kpoints>
  <generation param="Monkhorst-Pack">
   <v type="int" name="divisions">      10       14        9 </v>
   <v name="usershift">      0.00000000       0.00000000       0.00000000 </v>
   <v name="genvec1">      0.10000000       0.00000000       0.00000000 </v>
   <v name="genvec2">      0.00000000       0.07142857       0.00000000 </v>
   <v name="genvec3">      0.00000000       0.00000000       0.11111111 </v>
   <v name="shift">      0.50000000       0.50000000       0.00000000 </v>
  </generation>
  <varray name="kpointlist" >
   <v>       0.05000000       0.03571429       0.00000000 </v>
   <v>       0.15000000       0.03571429       0.00000000 </v>
   <v>       0.25000000       0.03571429       0.00000000 </v>
   <v>       0.35000000       0.03571429       0.00000000 </v>
   <v>       0.45000000       0.03571429       0.00000000 </v>
   <v>       0.05000000       0.10714286       0.00000000 </v>
   <v>       0.15000000       0.10714286       0.00000000 </v>
   <v>       0.25000000       0.10714286       0.00000000 </v>
   <v>       0.35000000       0.10714286       0.00000000 </v>
   <v>       0.45000000       0.10714286       0.00000000 </v>
   <v>       0.05000000       0.17857143       0.00000000 </v>
   <v>       0.15000000       0.17857143       0.00000000 </v>
   <v>       0.25000000       0.17857143       0.00000000 </v>
   <v>       0.35000000       0.17857143       0.00000000 </v>
   <v>       0.45000000       0.17857143       0.00000000 </v>
   <v>       0.05000000       0.25000000       0.00000000 </v>
   <v>       0.15000000       0.25000000       0.00000000 </v>
   <v>       0.25000000       0.25000000       0.00000000 </v>
   <v>       0.35000000       0.25000000       0.00000000 </v>
   <v>       0.45000000       0.25000000       0.00000000 </v>
   <v>       0.05000000       0.32142857       0.00000000 </v>
   <v>       0.15000000       0.32142857       0.00000000 </v>
   <v>       0.25000000       0.32142857       0.00000000 </v>
   <v>       0.35000000       0.32142857       0.00000000 </v>
   <v>       0.45000000       0.32142857       0.00000000 </v>
   <v>       0.05000000       0.39285714       0.00000000 </v>
   <v>       0.15000000       0.39285714       0.00000000 </v>
   <v>       0.25000000       0.39285714       0.00000000 </v>
   <v>       0.35000000       0.39285714       0.00000000 </v>
   <v>       0.45000000       0.39285714       0.00000000 </v>
   <v>       0.05000000       0.46428571       0.00000000 </v>
   <v>       0.15000000       0.46428571       0.00000000 </v>
   <v>       0.25000000       0.46428571       0.00000000 </v>
   <v>       0.35000000       0.46428571       0.00000000 </v>
   <v>       0.45000000       0.46428571       0.00000000 </v>
   <v>       0.05000000       0.03571429       0.11111111 </v>
   <v>       0.15000000       0.03571429       0.11111111 </v>
   <v>       0.25000000       0.03571429       0.11111111 </v>
   <v>       0.35000000       0.03571429       0.11111111 </v>
   <v>       0.45000000       0.03571429       0.11111111 </v>
   <v>       0.05000000       0.10714286       0.11111111 </v>
   <v>       0.15000000       0.10714286       0.11111111 </v>
   <v>       0.25000000       0.10714286       0.11111111 </v>
   <v>       0.35000000       0.10714286       0.11111111 </v>
   <v>       0.45000000       0.10714286       0.11111111 </v>
   <v>       0.05000000       0.17857143       0.11111111 </v>
   <v>       0.15000000       0.17857143       0.11111111 </v>
   <v>       0.25000000       0.17857143       0.11111111 </v>
   <v>       0.35000000       0.17857143       0.11111111 </v>
   <v>       0.45000000       0.17857143       0.11111111 </v>
   <v>       0.05000000       0.25000000       0.11111111 </v>
   <v>       0.15000000       0.25000000       0.11111111 </v>
   <v>       0.25000000       0.25000000       0.11111111 </v>
   <v>       0.35000000       0.25000000       0.11111111 </v>
   <v>       0.45000000       0.25000000       0.11111111 </v>
   <v>       0.05000000       0.32142857       0.11111111 </v>
   <v>       0.15000000       0.32142857       0.11111111 </v>
   <v>       0.25000000       0.32142857       0.11111111 </v>
   <v>       0.35000000       0.32142857       0.11111111 </v>
   <v>       0.45000000       0.32142857       0.11111111 </v>
   <v>       0.05000000       0.39285714       0.11111111 </v>
   <v>       0.15000000       0.39285714       0.11111111 </v>
   <v>       0.25000000       0.39285714       0.11111111 </v>
   <v>       0.35000000       0.39285714       0.11111111 </v>
   <v>       0.45000000       0.39285714       0.11111111 </v>
   <v>       0.05000000       0.46428571       0.11111111 </v>
   <v>       0.15000000       0.46428571       0.11111111 </v>
   <v>       0.25000000       0.46428571       0.11111111 </v>
   <v>       0.35000000       0.46428571       0.11111111 </v>
   <v>       0.45000000       0.46428571       0.11111111 </v>
   <v>       0.05000000       0.03571429       0.22222222 </v>
   <v>       0.15000000       0.03571429       0.22222222 </v>
   <v>       0.25000000       0.03571429       0.22222222 </v>
   <v>       0.35000000       0.03571429       0.22222222 </v>
   <v>       0.45000000       0.03571429       0.22222222 </v>
   <v>       0.05000000       0.10714286       0.22222222 </v>
   <v>       0.15000000       0.10714286       0.22222222 </v>
   <v>       0.25000000       0.10714286       0.22222222 </v>
   <v>       0.35000000       0.10714286       0.22222222 </v>
   <v>       0.45000000       0.10714286       0.22222222 </v>
   <v>       0.05000000       0.17857143       0.22222222 </v>
   <v>       0.15000000       0.17857143       0.22222222 </v>
   <v>       0.25000000       0.17857143       0.22222222 </v>
   <v>       0.35000000       0.17857143       0.22222222 </v>
   <v>       0.45000000       0.17857143       0.22222222 </v>
   <v>       0.05000000       0.25000000       0.22222222 </v>
   <v>       0.15000000       0.25000000       0.22222222 </v>
   <v>       0.25000000       0.25000000       0.22222222 </v>
   <v>       0.35000000       0.25000000       0.22222222 </v>
   <v>       0.45000000       0.25000000       0.22222222 </v>
   <v>       0.05000000       0.32142857       0.22222222 </v>
   <v>       0.15000000       0.32142857       0.22222222 </v>
   <v>       0.25000000       0.32142857       0.22222222 </v>
   <v>       0.35000000       0.32142857       0.22222222 </v>
   <v>       0.45000000       0.32142857       0.22222222 </v>
   <v>       0.05000000       0.39285714       0.22222222 </v>
   <v>       0.15000000       0.39285714       0.22222222 </v>
   <v>       0.25000000       0.39285714       0.22222222 </v>
   <v>       0.35000000       0.39285714       0.22222222 </v>
   <v>       0.45000000       0.39285714       0.22222222 </v>
   <v>       0.05000000       0.46428571       0.22222222 </v>
   <v>       0.15000000       0.46428571       0.22222222 </v>
   <v>       0.25000000       0.46428571       0.22222222 </v>
   <v>       0.35000000       0.46428571       0.22222222 </v>
   <v>       0.45000000       0.46428571       0.22222222 </v>
   <v>       0.05000000       0.03571429       0.33333333 </v>
   <v>       0.15000000       0.03571429       0.33333333 </v>
   <v>       0.25000000       0.03571429       0.33333333 </v>
   <v>       0.35000000       0.03571429       0.33333333 </v>
   <v>       0.45000000       0.03571429       0.33333333 </v>
   <v>       0.05000000       0.10714286       0.33333333 </v>
   <v>       0.15000000       0.10714286       0.33333333 </v>
   <v>       0.25000000       0.10714286       0.33333333 </v>
   <v>       0.35000000       0.10714286       0.33333333 </v>
   <v>       0.45000000       0.10714286       0.33333333 </v>
   <v>       0.05000000       0.17857143       0.33333333 </v>
   <v>       0.15000000       0.17857143       0.33333333 </v>
   <v>       0.25000000       0.17857143       0.33333333 </v>
   <v>       0.35000000       0.17857143       0.33333333 </v>
   <v>       0.45000000       0.17857143       0.33333333 </v>
   <v>       0.05000000       0.25000000       0.33333333 </v>
   <v>       0.15000000       0.25000000       0.33333333 </v>
   <v>       0.25000000       0.25000000       0.33333333 </v>
   <v>       0.35000000       0.25000000       0.33333333 </v>
   <v>       0.45000000       0.25000000       0.33333333 </v>
   <v>       0.05000000       0.32142857       0.33333333 </v>
   <v>       0.15000000       0.32142857       0.33333333 </v>
   <v>       0.25000000       0.32142857       0.33333333 </v>
   <v>       0.35000000       0.32142857       0.33333333 </v>
   <v>       0.45000000       0.32142857       0.33333333 </v>
   <v>       0.05000000       0.39285714       0.33333333 </v>
   <v>       0.15000000       0.39285714       0.33333333 </v>
   <v>       0.25000000       0.39285714       0.33333333 </v>
   <v>       0.35000000       0.39285714       0.33333333 </v>
   <v>       0.45000000       0.39285714       0.33333333 </v>
   <v>       0.05000000       0.46428571       0.33333333 </v>
   <v>       0.15000000       0.46428571       0.33333333 </v>
   <v>       0.25000000       0.46428571       0.33333333 </v>
   <v>       0.35000000       0.46428571       0.33333333 </v>
   <v>       0.45000000       0.46428571       0.33333333 </v>
   <v>       0.05000000       0.03571429       0.44444444 </v>
   <v>       0.15000000       0.03571429       0.44444444 </v>
   <v>       0.25000000       0.03571429       0.44444444 </v>
   <v>       0.35000000       0.03571429       0.44444444 </v>
   <v>       0.45000000       0.03571429       0.44444444 </v>
   <v>       0.05000000       0.10714286       0.44444444 </v>
   <v>       0.15000000       0.10714286       0.44444444 </v>
   <v>       0.25000000       0.10714286       0.44444444 </v>
   <v>       0.35000000       0.10714286       0.44444444 </v>
   <v>       0.45000000       0.10714286       0.44444444 </v>
   <v>       0.05000000       0.17857143       0.44444444 </v>
   <v>       0.15000000       0.17857143       0.44444444 </v>
   <v>       0.25000000       0.17857143       0.44444444 </v>
   <v>       0.35000000       0.17857143       0.44444444 </v>
   <v>       0.45000000       0.17857143       0.44444444 </v>
   <v>       0.05000000       0.25000000       0.44444444 </v>
   <v>       0.15000000       0.25000000       0.44444444 </v>
   <v>       0.25000000       0.25000000       0.44444444 </v>
   <v>       0.35000000       0.25000000       0.44444444 </v>
   <v>       0.45000000       0.25000000       0.44444444 </v>
   <v>       0.05000000       0.32142857       0.44444444 </v>
   <v>       0.15000000       0.32142857       0.44444444 </v>
   <v>       0.25000000       0.32142857       0.44444444 </v>
   <v>       0.35000000       0.32142857       0.44444444 </v>
   <v>       0.45000000       0.32142857       0.44444444 </v>
   <v>       0.05000000       0.39285714       0.44444444 </v>
   <v>       0.15000000       0.39285714       0.44444444 </v>
   <v>       0.25000000       0.39285714       0.44444444 </v>
   <v>       0.35000000       0.39285714       0.44444444 </v>
   <v>       0.45000000       0.39285714       0.44444444 </v>
   <v>       0.05000000       0.46428571       0.44444444 </v>
   <v>       0.15000000       0.46428571       0.44444444 </v>
   <v>       0.25000000       0.46428571       0.44444444 </v>
   <v>       0.35000000       0.46428571       0.44444444 </v>
   <v>       0.45000000       0.46428571       0.44444444 </v>
  </varray>
  <varray name="weights" >
   <v>       0.00317460 </v>
   <v>       0.00317460 </v>
   <v>       0.00317460 </v>
   <v>       0.00317460 </v>
   <v>       0.00317460 </v>
   <v>       0.00317460 </v>
   <v>       0.00317460 </v>
   <v>       0.00317460 </v>
   <v>       0.00317460 </v>
   <v>       0.00317460 </v>
   <v>       0.00317460 </v>
   <v>       0.00317460 </v>
   <v>       0.00317460 </v>
   <v>       0.00317460 </v>
   <v>       0.00317460 </v>
   <v>       0.00317460 </v>
   <v>       0.00317460 </v>
   <v>       0.00317460 </v>
   <v>       0.00317460 </v>
   <v>       0.00317460 </v>
   <v>       0.00317460 </v>
   <v>       0.00317460 </v>
   <v>       0.00317460 </v>
   <v>       0.00317460 </v>
   <v>       0.00317460 </v>
   <v>       0.00317460 </v>
   <v>       0.00317460 </v>
   <v>       0.00317460 </v>
   <v>       0.00317460 </v>
   <v>       0.00317460 </v>
   <v>       0.00317460 </v>
   <v>       0.00317460 </v>
   <v>       0.00317460 </v>
   <v>       0.00317460 </v>
   <v>       0.00317460 </v>
   <v>       0.00634921 </v>
   <v>       0.00634921 </v>
   <v>       0.00634921 </v>
   <v>       0.00634921 </v>
   <v>       0.00634921 </v>
   <v>       0.00634921 </v>
   <v>       0.00634921 </v>
   <v>       0.00634921 </v>
   <v>       0.00634921 </v>
   <v>       0.00634921 </v>
   <v>       0.00634921 </v>
   <v>       0.00634921 </v>
   <v>       0.00634921 </v>
   <v>       0.00634921 </v>
   <v>       0.00634921 </v>
   <v>       0.00634921 </v>
   <v>       0.00634921 </v>
   <v>       0.00634921 </v>
   <v>       0.00634921 </v>
   <v>       0.00634921 </v>
   <v>       0.00634921 </v>
   <v>       0.00634921 </v>
   <v>       0.00634921 </v>
   <v>       0.00634921 </v>
   <v>       0.00634921 </v>
   <v>       0.00634921 </v>
   <v>       0.00634921 </v>
   <v>       0.00634921 </v>
   <v>       0.00634921 </v>
   <v>       0.00634921 </v>
   <v>       0.00634921 </v>
   <v>       0.00634921 </v>
   <v>       0.00634921 </v>
   <v>       0.00634921 </v>
   <v>       0.00634921 </v>
   <v>       0.00634921 </v>
   <v>       0.00634921 </v>
   <v>       0.00634921 </v>
   <v>       0.00634921 </v>
   <v>       0.00634921 </v>
   <v>       0.00634921 </v>
   <v>       0.00634921 </v>
   <v>       0.00634921 </v>
   <v>       0.00634921 </v>
   <v>       0.00634921 </v>
   <v>       0.00634921 </v>
   <v>       0.00634921 </v>
   <v>       0.00634921 </v>
   <v>       0.00634921 </v>
   <v>       0.00634921 </v>
   <v>       0.00634921 </v>
   <v>       0.00634921 </v>
   <v>       0.00634921 </v>
   <v>       0.00634921 </v>
   <v>       0.00634921 </v>
   <v>       0.00634921 </v>
   <v>       0.00634921 </v>
   <v>       0.00634921 </v>
   <v>       0.00634921 </v>
   <v>       0.00634921 </v>
   <v>       0.00634921 </v>
   <v>       0.00634921 </v>
   <v>       0.00634921 </v>
   <v>       0.00634921 </v>
   <v>       0.00634921 </v>
   <v>       0.00634921 </v>
   <v>       0.00634921 </v>
   <v>       0.00634921 </v>
   <v>       0.00634921 </v>
   <v>       0.00634921 </v>
   <v>       0.00634921 </v>
   <v>       0.00634921 </v>
   <v>       0.00634921 </v>
   <v>       0.00634921 </v>
   <v>       0.00634921 </v>
   <v>       0.00634921 </v>
   <v>       0.00634921 </v>
   <v>       0.00634921 </v>
   <v>       0.00634921 </v>
   <v>       0.00634921 </v>
   <v>       0.00634921 </v>
   <v>       0.00634921 </v>
   <v>       0.00634921 </v>
   <v>       0.00634921 </v>
   <v>       0.00634921 </v>
   <v>       0.00634921 </v>
   <v>       0.00634921 </v>
   <v>       0.00634921 </v>
   <v>       0.00634921 </v>
   <v>       0.00634921 </v>
   <v>       0.00634921 </v>
   <v>       0.00634921 </v>
   <v>       0.00634921 </v>
   <v>       0.00634921 </v>
   <v>       0.00634921 </v>
   <v>       0.00634921 </v>
   <v>       0.00634921 </v>
   <v>       0.00634921 </v>
   <v>       0.00634921 </v>
   <v>       0.00634921 </v>
   <v>       0.00634921 </v>
   <v>       0.00634921 </v>
   <v>       0.00634921 </v>
   <v>       0.00634921 </v>
   <v>       0.00634921 </v>
   <v>       0.00634921 </v>
   <v>       0.00634921 </v>
   <v>       0.00634921 </v>
   <v>       0.00634921 </v>
   <v>       0.00634921 </v>
   <v>       0.00634921 </v>
   <v>       0.00634921 </v>
   <v>       0.00634921 </v>
   <v>       0.00634921 </v>
   <v>       0.00634921 </v>
   <v>       0.00634921 </v>
   <v>       0.00634921 </v>
   <v>       0.00634921 </v>
   <v>       0.00634921 </v>
   <v>       0.00634921 </v>
   <v>       0.00634921 </v>
   <v>       0.00634921 </v>
   <v>       0.00634921 </v>
   <v>       0.00634921 </v>
   <v>       0.00634921 </v>
   <v>       0.00634921 </v>
   <v>       0.00634921 </v>
   <v>       0.00634921 </v>
   <v>       0.00634921 </v>
   <v>       0.00634921 </v>
   <v>       0.00634921 </v>
   <v>       0.00634921 </v>
   <v>       0.00634921 </v>
   <v>       0.00634921 </v>
   <v>       0.00634921 </v>
   <v>       0.00634921 </v>
   <v>       0.00634921 </v>
   <v>       0.00634921 </v>
   <v>       0.00634921 </v>
   <v>       0.00634921 </v>
  </varray>
 </kpoints>
 <parameters>
  <separator name="general" >
   <i type="string" name="SYSTEM">Convergence</i>
   <i type="logical" name="LCOMPAT"> F  </i>
  </separator>
  <separator name="electronic" >
   <i type="string" name="PREC">accura</i>
   <i name="ENMAX">    600.00000000</i>
   <i name="ENAUG">    535.51400000</i>
   <i name="EDIFF">      0.00000100</i>
   <i type="int" name="IALGO">    38</i>
   <i type="int" name="IWAVPR">    10</i>
   <i type="int" name="NBANDS">    24</i>
   <i type="int" name="NBANDSLOW">    -1</i>
   <i type="int" name="NBANDSHIGH">    -1</i>
   <i name="NELECT">      3.00000000</i>
   <i type="int" name="TURBO">     0</i>
   <i type="int" name="IRESTART">     0</i>
   <i type="int" name="NREBOOT">     0</i>
   <i type="int" name="NMIN">     0</i>
   <i name="EREF">      0.00000000</i>
   <separator name="electronic smearing" >
    <i type="int" name="ISMEAR">     0</i>
    <i name="SIGMA">      0.05000000</i>
    <i name="KSPACING">      0.50000000</i>
    <i type="logical" name="KGAMMA"> T  </i>
    <i type="logical" name="KBLOWUP"> T  </i>
   </separator>
   <separator name="electronic projectors" >
    <i type="logical" name="LREAL"> F  </i>
    <v name="ROPT">      0.00000000</v>
    <i type="int" name="LMAXPAW">  -100</i>
    <i type="int" name="LMAXMIX">     2</i>
    <i type="logical" name="NLSPLINE"> F  </i>
   </separator>
   <separator name="electronic startup" >
    <i type="int" name="ISTART">     0</i>
    <i type="int" name="ICHARG">     2</i>
    <i type="int" name="INIWAV">     1</i>
   </separator>
   <separator name="electronic spin" >
    <i type="int" name="ISPIN">     1</i>
    <i type="logical" name="LNONCOLLINEAR"> F  </i>
    <v name="MAGMOM">      1.00000000</v>
    <i name="NUPDOWN">     -1.00000000</i>
    <i type="logical" name="LSORBIT"> F  </i>
    <v name="SAXIS">      0.00000000      0.00000000      1.00000000</v>
    <i type="logical" name="LSPIRAL"> F  </i>
    <v name="QSPIRAL">      0.00000000      0.00000000      0.00000000</v>
    <i type="logical" name="LZEROZ"> F  </i>
   </separator>
   <separator name="electronic exchange-correlation" >
    <i type="logical" name="LASPH"> F  </i>
   </separator>
   <separator name="electronic convergence" >
    <i type="int" name="NELM">   100</i>
    <i type="int" name="NELMDL">    -5</i>
    <i type="int" name="NELMIN">     2</i>
    <i name="ENINI">    600.00000000</i>
    <separator name="electronic convergence detail" >
     <i type="logical" name="LDIAG"> T  </i>
     <i type="logical" name="LSUBROT"> F  </i>
     <i name="WEIMIN">      0.00000000</i>
     <i name="EBREAK">      0.00000001</i>
     <i name="DEPER">      0.30000000</i>
     <i type="int" name="NRMM">     4</i>
     <i name="TIME">      0.40000000</i>
    </separator>
   </separator>
   <separator name="electronic mixer" >
    <i name="AMIX">      0.40000000</i>
    <i name="BMIX">      1.00000000</i>
    <i name="AMIN">      0.10000000</i>
    <i name="AMIX_MAG">      1.60000000</i>
    <i name="BMIX_MAG">      1.00000000</i>
    <separator name="electronic mixer details" >
     <i type="int" name="IMIX">     4</i>
     <i type="logical" name="MIXFIRST"> F  </i>
     <i type="int" name="MAXMIX">   -45</i>
     <i name="WC">    100.00000000</i>
     <i type="int" name="INIMIX">     1</i>
     <i type="int" name="MIXPRE">     1</i>
     <i type="int" name="MREMOVE">     5</i>
    </separator>
   </separator>
   <separator name="electronic dipolcorrection" >
    <i type="logical" name="LDIPOL"> F  </i>
    <i type="logical" name="LMONO"> F  </i>
    <i type="int" name="IDIPOL">     0</i>
    <i name="EPSILON">      1.00000000</i>
    <v name="DIPOL">   -100.00000000   -100.00000000   -100.00000000</v>
    <i name="EFIELD">      0.00000000</i>
    <i type="logical" name="LVACPOTAV"> F  </i>
   </separator>
  </separator>
  <separator name="grids" >
   <i type="int" name="NGX">   120</i>
   <i type="int" name="NGY">   100</i>
   <i type="int" name="NGZ">   144</i>
   <i type="int" name="NGXF">   240</i>
   <i type="int" name="NGYF">   200</i>
   <i type="int" name="NGZF">   288</i>
   <i type="logical" name="ADDGRID"> F  </i>
  </separator>
  <separator name="ionic" >
   <i type="int" name="NSW">     0</i>
   <i type="int" name="IBRION">    -1</i>
   <i type="int" name="MDALGO">     0</i>
   <i type="int" name="ISIF">     2</i>
   <i name="PSTRESS">      0.00000000</i>
   <i name="EDIFFG">     -0.00100000</i>
   <i type="int" name="NFREE">     0</i>
   <i name="POTIM">      0.50000000</i>
   <i name="SMASS">     -3.00000000</i>
   <i name="SCALEE">      1.00000000</i>
  </separator>
  <separator name="ionic md" >
   <i name="TEBEG">      0.00010000</i>
   <i name="TEEND">      0.00010000</i>
   <i type="int" name="NBLOCK">     1</i>
   <i type="int" name="KBLOCK">     1</i>
   <i type="int" name="NPACO">   256</i>
   <i name="APACO">     10.00000000</i>
  </separator>
  <separator name="symmetry" >
   <i type="int" name="ISYM">     2</i>
   <i name="SYMPREC">      0.00001000</i>
  </separator>
  <separator name="dos" >
   <i type="int" name="LORBIT">     0</i>
   <v name="RWIGS">     -1.00000000</v>
   <i type="int" name="NEDOS">   301</i>
   <i name="EMIN">     10.00000000</i>
   <i name="EMAX">    -10.00000000</i>
   <i name="EFERMI">      0.00000000</i>
  </separator>
  <separator name="writing" >
   <i type="int" name="NWRITE">     2</i>
   <i type="logical" name="LWAVE"> F  </i>
   <i type="logical" name="LDOWNSAMPLE"> F  </i>
   <i type="logical" name="LCHARG"> F  </i>
   <i type="logical" name="LPARD"> F  </i>
   <i type="logical" name="LVTOT"> F  </i>
   <i type="logical" name="LVHAR"> F  </i>
   <i type="logical" name="LELF"> F  </i>
   <i type="logical" name="LOPTICS"> F  </i>
   <v name="STM">      0.00000000      0.00000000      0.00000000      0.00000000      0.00000000      0.00000000      0.00000000</v>
  </separator>
  <separator name="performance" >
   <i type="int" name="NPAR">    24</i>
   <i type="int" name="NSIM">     4</i>
   <i type="int" name="NBLK">    -1</i>
   <i type="logical" name="LPLANE"> T  </i>
   <i type="logical" name="LSCALAPACK"> T  </i>
   <i type="logical" name="LSCAAWARE"> F  </i>
   <i type="logical" name="LSCALU"> F  </i>
   <i type="logical" name="LASYNC"> F  </i>
   <i type="logical" name="LORBITALREAL"> F  </i>
  </separator>
  <separator name="miscellaneous" >
   <i type="int" name="IDIOT">     3</i>
   <i type="int" name="PHON_NSTRUCT">    -1</i>
   <i type="logical" name="LMUSIC"> F  </i>
   <v name="POMASS">     10.81100000</v>
   <v name="DARWINR">      0.00000000</v>
   <v name="DARWINV">      1.00000000</v>
   <i type="logical" name="LCORR"> T  </i>
  </separator>
  <i type="logical" name="GGA_COMPAT"> T  </i>
  <i type="logical" name="LBERRY"> F  </i>
  <i type="int" name="ICORELEVEL">     0</i>
  <i type="logical" name="LDAU"> F  </i>
  <i type="int" name="I_CONSTRAINED_M">     0</i>
  <separator name="electronic exchange-correlation" >
   <i type="string" name="GGA    ">PE</i>
   <i type="string" name="XC_C">1</i>
   <i type="int" name="VOSKOWN">     0</i>
   <i type="logical" name="LHFCALC"> F  </i>
   <i type="string" name="PRECFOCK"></i>
   <i type="logical" name="LSYMGRAD"> F  </i>
   <i type="logical" name="LHFONE"> F  </i>
   <i type="logical" name="LRHFCALC"> F  </i>
   <i type="logical" name="LTHOMAS"> F  </i>
   <i type="logical" name="LMODELHF"> F  </i>
   <i type="logical" name="LFOCKACE"> F  </i>
   <i name="ENCUT4O">     -1.00000000</i>
   <i type="int" name="EXXOEP">     0</i>
   <i type="int" name="FOURORBIT">     0</i>
   <i name="AEXX">      0.00000000</i>
   <i name="HFALPHA">      0.00000000</i>
   <i name="MCALPHA">      0.00000000</i>
   <i name="ALDAX">      1.00000000</i>
   <i name="AGGAX">      1.00000000</i>
   <i name="AMGGAX">      1.00000000</i>
   <i name="ALDAC">      1.00000000</i>
   <i name="AGGAC">      1.00000000</i>
   <i name="AMGGAC">      1.00000000</i>
   <i type="int" name="NKREDX">     1</i>
   <i type="int" name="NKREDY">     1</i>
   <i type="int" name="NKREDZ">     1</i>
   <i type="logical" name="SHIFTRED"> F  </i>
   <i type="logical" name="ODDONLY"> F  </i>
   <i type="logical" name="EVENONLY"> F  </i>
   <i type="int" name="LMAXFOCK">     0</i>
   <i type="int" name="NMAXFOCKAE">     0</i>
   <i type="logical" name="LFOCKAEDFT"> F  </i>
   <i name="HFSCREEN">      0.00000000</i>
   <i name="HFSCREENC">      0.00000000</i>
   <i type="int" name="NBANDSGWLOW">     0</i>
  </separator>
  <separator name="vdW DFT" >
   <i type="logical" name="LUSE_VDW"> F  </i>
   <i type="int" name="IVDW_NL">    -1</i>
   <i type="logical" name="LSPIN_VDW"> F  </i>
   <i name="ZAB_VDW">     -0.84910000</i>
   <i name="GAMMA_VDW">      1.39626340</i>
   <i name="ALPHA_VDW">      0.00000000</i>
   <i name="PARAM1">      0.12340000</i>
   <i name="PARAM2">      1.00000000</i>
   <i name="BPARAM">      6.30000000</i>
   <i name="CPARAM">      0.00930000</i>
  </separator>
  <separator name="model GW" >
   <i type="int" name="MODEL_GW">     0</i>
   <i name="MODEL_EPS0">   2020.14388696</i>
   <i name="MODEL_ALPHA">      1.00000000</i>
  </separator>
  <separator name="linear response parameters" >
   <i type="logical" name="LEPSILON"> F  </i>
   <i type="logical" name="LRPA"> F  </i>
   <i type="logical" name="LNABLA"> F  </i>
   <i type="logical" name="LVEL"> F  </i>
   <i name="CSHIFT">      0.10000000</i>
   <i name="OMEGAMAX">     -1.00000000</i>
   <i name="DEG_THRESHOLD">      0.00200000</i>
   <i name="RTIME">     -0.10000000</i>
   <i name="WPLASMAI">      0.00000000</i>
   <v name="DFIELD">      0.00000000      0.00000000      0.00000000</v>
   <v name="WPLASMA">      0.00000000      0.00000000      0.00000000      0.00000000      0.00000000      0.00000000      0.00000000      0.00000000      0.00000000</v>
  </separator>
  <separator name="orbital magnetization" >
   <i type="logical" name="NUCIND"> F  </i>
   <v name="MAGPOS">      0.00000000      0.00000000      0.00000000</v>
   <i type="logical" name="LNICSALL"> T  </i>
   <i type="logical" name="ORBITALMAG"> F  </i>
   <i type="logical" name="LMAGBLOCH"> F  </i>
   <i type="logical" name="LCHIMAG"> F  </i>
   <i type="logical" name="LGAUGE"> T  </i>
   <i type="int" name="MAGATOM">     0</i>
   <v name="MAGDIPOL">      0.00000000      0.00000000      0.00000000</v>
   <v name="AVECCONST">      0.00000000      0.00000000      0.00000000</v>
  </separator>
  <separator name="response functions" >
   <i type="logical" name="LALL_IN_ONE"> F  </i>
   <i type="int" name="IALL_IN_ONE">    -1</i>
   <i type="int" name="NBANDS_WAVE">    -1</i>
   <i type="logical" name="LFINITE_TEMPERATURE"> F  </i>
   <i type="logical" name="LADDER"> F  </i>
   <i type="logical" name="LRPAFORCE"> F  </i>
   <i type="logical" name="LFXC"> F  </i>
   <i type="logical" name="LHARTREE"> T  </i>
   <i type="int" name="IBSE">     0</i>
   <v type="int" name="KPOINT">    -1     0     0     0</v>
   <i type="logical" name="LTCTC"> F  </i>
   <i type="logical" name="LTCTE"> F  </i>
   <i type="logical" name="LTETE"> F  </i>
   <i type="logical" name="LTRIPLET"> F  </i>
   <i type="logical" name="LFXCEPS"> F  </i>
   <i type="logical" name="LFXHEG"> F  </i>
   <i type="int" name="NATURALO">     2</i>
   <i type="logical" name="LHOLEGF"> F  </i>
   <i type="logical" name="L2ORDER"> F  </i>
   <i type="logical" name="LDMP1"> F  </i>
   <i type="logical" name="LMP2LT"> F  </i>
   <i type="logical" name="LSMP2LT"> F  </i>
   <i type="logical" name="LGWLF"> F  </i>
   <i name="ENCUTGW">     -1.60000002</i>
   <i name="ENCUTGWSOFT">     -1.60000002</i>
   <i name="ENCUTLF">     -1.00000000</i>
   <i type="logical" name="ESF_SPLINES"> F  </i>
   <i name="ESF_CONV">      0.01000000</i>
   <i type="int" name="ESF_NINTER">    15</i>
   <i type="int" name="LMAXMP2">    -1</i>
   <i name="SCISSOR">      0.00000000</i>
   <i type="int" name="NOMEGA">     0</i>
   <i type="int" name="NOMEGAR">     0</i>
   <i type="int" name="NBANDSGW">    -1</i>
   <i type="int" name="NBANDSO">    -1</i>
   <i type="int" name="NBANDSV">    -1</i>
   <i type="int" name="NELMGW">     1</i>
   <i type="int" name="NELMHF">     1</i>
   <i type="int" name="DIM">     3</i>
   <i type="int" name="IESPILON">     4</i>
   <i type="int" name="ANTIRES">     0</i>
   <i name="OMEGAMAX">    -30.00000000</i>
   <i name="OMEGAMIN">    -30.00000000</i>
   <i name="OMEGATL">   -200.00000000</i>
   <i type="int" name="OMEGAGRID">     0</i>
   <i name="CSHIFT">     -0.10000000</i>
   <i type="logical" name="LSELFENERGY"> F  </i>
   <i type="logical" name="LSPECTRAL"> F  </i>
   <i type="logical" name="LSPECTRALGW"> F  </i>
   <i type="logical" name="LSINGLES"> F  </i>
   <i type="logical" name="LFERMIGW"> F  </i>
   <i type="logical" name="ODDONLYGW"> F  </i>
   <i type="logical" name="EVENONLYGW"> F  </i>
   <i type="int" name="NKREDLFX">     1</i>
   <i type="int" name="NKREDLFY">     1</i>
   <i type="int" name="NKREDLFZ">     1</i>
   <i type="int" name="MAXMEM">  2800</i>
   <i type="int" name="TELESCOPE">     0</i>
   <i type="int" name="NTAUPAR">    -1</i>
   <i type="int" name="NOMEGAPAR">    -1</i>
   <i name="DAMP_NEWTON">      0.80000001</i>
   <i name="LAMBDA">      1.00000000</i>
  </separator>
  <separator name="External order field" >
   <i name="OFIELD_KAPPA">      0.00000000</i>
   <v name="OFIELD_K">      0.00000000      0.00000000      0.00000000</v>
   <i name="OFIELD_Q6_NEAR">      0.00000000</i>
   <i name="OFIELD_Q6_FAR">      0.00000000</i>
   <i name="OFIELD_A">      0.00000000</i>
  </separator>
  <separator name="optional k-points parameters" >
   <i type="int" name="KPOINTS_OPT_MODE">     1</i>
   <i type="logical" name="LKPOINTS_OPT"> F  </i>
  </separator>
 </parameters>
 <atominfo>
  <atoms>       1 </atoms>
  <types>       1 </types>
  <array name="atoms" >
   <dimension dim="1">ion</dimension>
   <field type="string">element</field>
   <field type="int">atomtype</field>
   <set>
    <rc><c>B </c><c>   1</c></rc>
   </set>
  </array>
  <array name="atomtypes" >
   <dimension dim="1">type</dimension>
   <field type="int">atomspertype</field>
   <field type="string">element</field>
   <field>mass</field>
   <field>valence</field>
   <field type="string">pseudopotential</field>
   <set>
    <rc><c>   1</c><c>B </c><c>     10.81100000</c><c>      3.00000000</c><c>  PAW_PBE B 06Sep2000                   </c></rc>
   </set>
  </array>
 </atominfo>
 <structure name="initialpos" >
  <crystal>
   <varray name="basis" >
    <v>      14.98800000       0.00000000       0.00000000 </v>
    <v>       0.00000000      12.49000000       0.00000000 </v>
    <v>       0.00000000       0.00000000      17.98560000 </v>
   </varray>
   <i name="volume">   3366.90647827 </i>
   <varray name="rec_basis" >
    <v>       0.06672004       0.00000000       0.00000000 </v>
    <v>       0.00000000       0.08006405       0.00000000 </v>
    <v>       0.00000000       0.00000000       0.05560004 </v>
   </varray>
  </crystal>
  <varray name="positions" >
   <v>       0.52123000       0.54500000       0.63796000 </v>
  </varray>
 </structure>
 <calculation>
  <scstep>
   <time name="dav">   64.99   67.91</time>
   <time name="total">   65.47   68.45</time>
   <energy>
    <i name="alphaZ">      0.02043273 </i>
    <i name="ewald">    -11.83848743 </i>
    <i name="hartreedc">    -42.57478536 </i>
    <i name="XCdc">      4.75549675 </i>
    <i name="pawpsdc">     43.49986551 </i>
    <i name="pawaedc">    -42.64454556 </i>
    <i name="eentropy">     -0.01088550 </i>
    <i name="bandstr">    -14.29637436 </i>
    <i name="atom">     71.16960075 </i>
    <i name="e_fr_energy">      8.08031754 </i>
    <i name="e_wo_entrp">      8.09120304 </i>
    <i name="e_0_energy">      8.08576029 </i>
   </energy>
  </scstep>
  <scstep>
   <time name="dav">  103.15  110.29</time>
   <time name="total">  103.15  110.29</time>
   <energy>
    <i name="e_fr_energy">      0.11553091 </i>
    <i name="e_wo_entrp">      0.14382954 </i>
    <i name="e_0_energy">      0.12968022 </i>
   </energy>
  </scstep>
  <scstep>
   <time name="dav">   65.58   69.60</time>
   <time name="total">   65.58   69.60</time>
   <energy>
    <i name="e_fr_energy">     -0.05461454 </i>
    <i name="e_wo_entrp">     -0.00183984 </i>
    <i name="e_0_energy">     -0.02822719 </i>
   </energy>
  </scstep>
  <scstep>
   <time name="dav">   69.78   73.65</time>
   <time name="total">   69.78   73.65</time>
   <energy>
    <i name="e_fr_energy">     -0.05821194 </i>
    <i name="e_wo_entrp">     -0.00521064 </i>
    <i name="e_0_energy">     -0.03171129 </i>
   </energy>
  </scstep>
  <scstep>
   <time name="dav">   92.60   93.59</time>
   <time name="total">   96.74   97.76</time>
   <energy>
    <i name="e_fr_energy">     -0.05825223 </i>
    <i name="e_wo_entrp">     -0.00525089 </i>
    <i name="e_0_energy">     -0.03175156 </i>
   </energy>
  </scstep>
  <scstep>
   <time name="dav">   80.47   81.51</time>
   <time name="total">   80.99   82.03</time>
   <energy>
    <i name="alphaZ">      0.02043273 </i>
    <i name="ewald">    -11.83848743 </i>
    <i name="hartreedc">    -42.57499449 </i>
    <i name="XCdc">      4.75548593 </i>
    <i name="pawpsdc">     43.56774018 </i>
    <i name="pawaedc">    -42.71245303 </i>
    <i name="eentropy">     -0.05300134 </i>
    <i name="bandstr">    -22.39257580 </i>
    <i name="atom">     71.16960075 </i>
    <i name="e_fr_energy">     -0.05825250 </i>
    <i name="e_wo_entrp">     -0.00525116 </i>
    <i name="e_0_energy">     -0.03175183 </i>
   </energy>
  </scstep>
  <structure>
   <crystal>
    <varray name="basis" >
     <v>      14.98800000       0.00000000       0.00000000 </v>
     <v>       0.00000000      12.49000000       0.00000000 </v>
     <v>       0.00000000       0.00000000      17.98560000 </v>
    </varray>
    <i name="volume">   3366.90647827 </i>
    <varray name="rec_basis" >
     <v>       0.06672004       0.00000000       0.00000000 </v>
     <v>       0.00000000       0.08006405       0.00000000 </v>
     <v>       0.00000000       0.00000000       0.05560004 </v>
    </varray>
   </crystal>
   <varray name="positions" >
    <v>       0.52123000       0.54500000       0.63796000 </v>
   </varray>
  </structure>
  <varray name="forces" >
   <v>       0.00000000       0.00000000       0.00000000 </v>
  </varray>
  <varray name="stress" >
   <v>      -0.00047137       0.00000000       0.00000000 </v>
   <v>      -0.00000000      -0.00047831       0.00000000 </v>
   <v>       0.00000000       0.00000000      -0.00045616 </v>
  </varray>
  <energy>
   <i name="e_fr_energy">     -0.05825250 </i>
   <i name="e_wo_entrp">     -0.00525116 </i>
   <i name="e_0_energy">     -0.03175183 </i>
  </energy>
  <time name="totalsc">  545.14  565.61</time>
  <eigenvalues>
   <array>
    <dimension dim="1">band</dimension>
    <dimension dim="2">kpoint</dimension>
    <dimension dim="3">spin</dimension>
    <field>eigene</field>
    <field>occ</field>
    <set>
     <set comment="spin 1">
      <set comment="kpoint 1">
       <r>   -9.4098    1.0000 </r>
       <r>   -3.5729    0.1667 </r>
       <r>   -3.5729    0.1667 </r>
       <r>   -3.5728    0.1659 </r>
       <r>   -0.2621    0.0000 </r>
       <r>    0.2951    0.0000 </r>
       <r>    0.3100    0.0000 </r>
       <r>    0.4398    0.0000 </r>
       <r>    0.5743    0.0000 </r>
       <r>    0.6876    0.0000 </r>
       <r>    0.8298    0.0000 </r>
       <r>    0.9118    0.0000 </r>
       <r>    0.9456    0.0000 </r>
       <r>    1.0372    0.0000 </r>
       <r>    1.0805    0.0000 </r>
       <r>    1.1753    0.0000 </r>
       <r>    1.2107    0.0000 </r>
       <r>    1.2911    0.0000 </r>
       <r>    1.3365    0.0000 </r>
       <r>    1.3545    0.0000 </r>
       <r>    1.4300    0.0000 </r>
       <r>    1.5006    0.0000 </r>
       <r>    1.5784    0.0000 </r>
       <r>    1.7105    0.0000 </r>
      </set>
      <set comment="kpoint 2">
       <r>   -9.4098    1.0000 </r>
       <r>   -3.5729    0.1667 </r>
       <r>   -3.5729    0.1667 </r>
       <r>   -3.5728    0.1659 </r>
       <r>   -0.2522    0.0000 </r>
       <r>    0.2696    0.0000 </r>
       <r>    0.3212    0.0000 </r>
       <r>    0.3741    0.0000 </r>
       <r>    0.6904    0.0000 </r>
       <r>    0.7089    0.0000 </r>
       <r>    0.8018    0.0000 </r>
       <r>    0.8316    0.0000 </r>
       <r>    0.8426    0.0000 </r>
       <r>    1.1534    0.0000 </r>
       <r>    1.1666    0.0000 </r>
       <r>    1.1992    0.0000 </r>
       <r>    1.2216    0.0000 </r>
       <r>    1.2588    0.0000 </r>
       <r>    1.3339    0.0000 </r>
       <r>    1.3532    0.0000 </r>
       <r>    1.3899    0.0000 </r>
       <r>    1.5787    0.0000 </r>
       <r>    1.6400    0.0000 </r>
       <r>    1.6903    0.0000 </r>
      </set>
      <set comment="kpoint 3">
       <r>   -9.4098    1.0000 </r>
       <r>   -3.5729    0.1667 </r>
       <r>   -3.5729    0.1667 </r>
       <r>   -3.5728    0.1659 </r>
       <r>   -0.2340    0.0000 </r>
       <r>    0.1995    0.0000 </r>
       <r>    0.3429    0.0000 </r>
       <r>    0.3762    0.0000 </r>
       <r>    0.7048    0.0000 </r>
       <r>    0.7125    0.0000 </r>
       <r>    0.7170    0.0000 </r>
       <r>    0.8558    0.0000 </r>
       <r>    0.8733    0.0000 </r>
       <r>    1.0910    0.0000 </r>
       <r>    1.1951    0.0000 </r>
       <r>    1.2357    0.0000 </r>
       <r>    1.2751    0.0000 </r>
       <r>    1.2972    0.0000 </r>
       <r>    1.3898    0.0000 </r>
       <r>    1.4006    0.0000 </r>
       <r>    1.4083    0.0000 </r>
       <r>    1.5987    0.0000 </r>
       <r>    1.5991    0.0000 </r>
       <r>    1.6517    0.0000 </r>
      </set>
      <set comment="kpoint 4">
       <r>   -9.4098    1.0000 </r>
       <r>   -3.5729    0.1668 </r>
       <r>   -3.5729    0.1667 </r>
       <r>   -3.5728    0.1659 </r>
       <r>   -0.2117    0.0000 </r>
       <r>    0.1314    0.0000 </r>
       <r>    0.3721    0.0000 </r>
       <r>    0.4075    0.0000 </r>
       <r>    0.6250    0.0000 </r>
       <r>    0.6278    0.0000 </r>
       <r>    0.7405    0.0000 </r>
       <r>    0.8885    0.0000 </r>
       <r>    1.0025    0.0000 </r>
       <r>    1.0418    0.0000 </r>
       <r>    1.1685    0.0000 </r>
       <r>    1.2211    0.0000 </r>
       <r>    1.3093    0.0000 </r>
       <r>    1.3647    0.0000 </r>
       <r>    1.4385    0.0000 </r>
       <r>    1.4871    0.0000 </r>
       <r>    1.5078    0.0000 </r>
       <r>    1.5476    0.0000 </r>
       <r>    1.5616    0.0000 </r>
       <r>    1.6073    0.0000 </r>
      </set>
      <set comment="kpoint 5">
       <r>   -9.4098    1.0000 </r>
       <r>   -3.5729    0.1668 </r>
       <r>   -3.5729    0.1667 </r>
       <r>   -3.5728    0.1659 </r>
       <r>   -0.1946    0.0000 </r>
       <r>    0.0901    0.0000 </r>
       <r>    0.3986    0.0000 </r>
       <r>    0.4459    0.0000 </r>
       <r>    0.5620    0.0000 </r>
       <r>    0.5731    0.0000 </r>
       <r>    0.7609    0.0000 </r>
       <r>    0.9135    0.0000 </r>
       <r>    0.9720    0.0000 </r>
       <r>    1.1026    0.0000 </r>
       <r>    1.2136    0.0000 </r>
       <r>    1.2409    0.0000 </r>
       <r>    1.3439    0.0000 </r>
       <r>    1.4058    0.0000 </r>
       <r>    1.4059    0.0000 </r>
       <r>    1.4505    0.0000 </r>
       <r>    1.4553    0.0000 </r>
       <r>    1.5181    0.0000 </r>
       <r>    1.5831    0.0000 </r>
       <r>    1.5857    0.0000 </r>
      </set>
      <set comment="kpoint 6">
       <r>   -9.4098    1.0000 </r>
       <r>   -3.5729    0.1667 </r>
       <r>   -3.5729    0.1666 </r>
       <r>   -3.5728    0.1660 </r>
       <r>   -0.2530    0.0000 </r>
       <r>    0.3032    0.0000 </r>
       <r>    0.3189    0.0000 </r>
       <r>    0.4486    0.0000 </r>
       <r>    0.5627    0.0000 </r>
       <r>    0.5927    0.0000 </r>
       <r>    0.9193    0.0000 </r>
       <r>    0.9477    0.0000 </r>
       <r>    0.9654    0.0000 </r>
       <r>    1.0263    0.0000 </r>
       <r>    1.0863    0.0000 </r>
       <r>    1.0887    0.0000 </r>
       <r>    1.0976    0.0000 </r>
       <r>    1.1906    0.0000 </r>
       <r>    1.3360    0.0000 </r>
       <r>    1.4579    0.0000 </r>
       <r>    1.4955    0.0000 </r>
       <r>    1.5866    0.0000 </r>
       <r>    1.6402    0.0000 </r>
       <r>    1.6818    0.0000 </r>
      </set>
      <set comment="kpoint 7">
       <r>   -9.4098    1.0000 </r>
       <r>   -3.5729    0.1667 </r>
       <r>   -3.5729    0.1667 </r>
       <r>   -3.5728    0.1660 </r>
       <r>   -0.2431    0.0000 </r>
       <r>    0.2781    0.0000 </r>
       <r>    0.3302    0.0000 </r>
       <r>    0.3831    0.0000 </r>
       <r>    0.5796    0.0000 </r>
       <r>    0.7131    0.0000 </r>
       <r>    0.8105    0.0000 </r>
       <r>    0.8417    0.0000 </r>
       <r>    0.9690    0.0000 </r>
       <r>    1.0605    0.0000 </r>
       <r>    1.0631    0.0000 </r>
       <r>    1.1374    0.0000 </r>
       <r>    1.1945    0.0000 </r>
       <r>    1.2362    0.0000 </r>
       <r>    1.4223    0.0000 </r>
       <r>    1.4679    0.0000 </r>
       <r>    1.4726    0.0000 </r>
       <r>    1.5609    0.0000 </r>
       <r>    1.5769    0.0000 </r>
       <r>    1.6075    0.0000 </r>
      </set>
      <set comment="kpoint 8">
       <r>   -9.4098    1.0000 </r>
       <r>   -3.5729    0.1667 </r>
       <r>   -3.5729    0.1667 </r>
       <r>   -3.5728    0.1660 </r>
       <r>   -0.2249    0.0000 </r>
       <r>    0.2085    0.0000 </r>
       <r>    0.3518    0.0000 </r>
       <r>    0.3848    0.0000 </r>
       <r>    0.6002    0.0000 </r>
       <r>    0.7139    0.0000 </r>
       <r>    0.7223    0.0000 </r>
       <r>    0.8753    0.0000 </r>
       <r>    0.9663    0.0000 </r>
       <r>    1.0044    0.0000 </r>
       <r>    1.0862    0.0000 </r>
       <r>    1.1540    0.0000 </r>
       <r>    1.3267    0.0000 </r>
       <r>    1.3521    0.0000 </r>
       <r>    1.3987    0.0000 </r>
       <r>    1.4707    0.0000 </r>
       <r>    1.5001    0.0000 </r>
       <r>    1.5116    0.0000 </r>
       <r>    1.5342    0.0000 </r>
       <r>    1.6343    0.0000 </r>
      </set>
      <set comment="kpoint 9">
       <r>   -9.4098    1.0000 </r>
       <r>   -3.5729    0.1668 </r>
       <r>   -3.5729    0.1667 </r>
       <r>   -3.5728    0.1660 </r>
       <r>   -0.2027    0.0000 </r>
       <r>    0.1407    0.0000 </r>
       <r>    0.3809    0.0000 </r>
       <r>    0.4160    0.0000 </r>
       <r>    0.6262    0.0000 </r>
       <r>    0.6344    0.0000 </r>
       <r>    0.6370    0.0000 </r>
       <r>    0.8951    0.0000 </r>
       <r>    1.0199    0.0000 </r>
       <r>    1.0408    0.0000 </r>
       <r>    1.1137    0.0000 </r>
       <r>    1.1896    0.0000 </r>
       <r>    1.2936    0.0000 </r>
       <r>    1.3705    0.0000 </r>
       <r>    1.4013    0.0000 </r>
       <r>    1.4872    0.0000 </r>
       <r>    1.5478    0.0000 </r>
       <r>    1.5535    0.0000 </r>
       <r>    1.5733    0.0000 </r>
       <r>    1.6431    0.0000 </r>
      </set>
      <set comment="kpoint 10">
       <r>   -9.4098    1.0000 </r>
       <r>   -3.5729    0.1668 </r>
       <r>   -3.5729    0.1667 </r>
       <r>   -3.5728    0.1660 </r>
       <r>   -0.1856    0.0000 </r>
       <r>    0.0995    0.0000 </r>
       <r>    0.4073    0.0000 </r>
       <r>    0.4543    0.0000 </r>
       <r>    0.5707    0.0000 </r>
       <r>    0.5827    0.0000 </r>
       <r>    0.6492    0.0000 </r>
       <r>    0.8512    0.0000 </r>
       <r>    1.0398    0.0000 </r>
       <r>    1.1369    0.0000 </r>
       <r>    1.1925    0.0000 </r>
       <r>    1.2325    0.0000 </r>
       <r>    1.2608    0.0000 </r>
       <r>    1.3333    0.0000 </r>
       <r>    1.3378    0.0000 </r>
       <r>    1.4219    0.0000 </r>
       <r>    1.5274    0.0000 </r>
       <r>    1.6449    0.0000 </r>
       <r>    1.6503    0.0000 </r>
       <r>    1.7089    0.0000 </r>
      </set>
      <set comment="kpoint 11">
       <r>   -9.4098    1.0000 </r>
       <r>   -3.5729    0.1667 </r>
       <r>   -3.5729    0.1666 </r>
       <r>   -3.5729    0.1663 </r>
       <r>   -0.2350    0.0000 </r>
       <r>    0.3162    0.0000 </r>
       <r>    0.3368    0.0000 </r>
       <r>    0.4617    0.0000 </r>
       <r>    0.4683    0.0000 </r>
       <r>    0.6053    0.0000 </r>
       <r>    0.9192    0.0000 </r>
       <r>    0.9563    0.0000 </r>
       <r>    0.9619    0.0000 </r>
       <r>    0.9760    0.0000 </r>
       <r>    1.0739    0.0000 </r>
       <r>    1.0810    0.0000 </r>
       <r>    1.1048    0.0000 </r>
       <r>    1.1367    0.0000 </r>
       <r>    1.2313    0.0000 </r>
       <r>    1.5485    0.0000 </r>
       <r>    1.5775    0.0000 </r>
       <r>    1.6111    0.0000 </r>
       <r>    1.6463    0.0000 </r>
       <r>    1.6628    0.0000 </r>
      </set>
      <set comment="kpoint 12">
       <r>   -9.4098    1.0000 </r>
       <r>   -3.5729    0.1667 </r>
       <r>   -3.5729    0.1667 </r>
       <r>   -3.5729    0.1663 </r>
       <r>   -0.2252    0.0000 </r>
       <r>    0.2933    0.0000 </r>
       <r>    0.3480    0.0000 </r>
       <r>    0.3996    0.0000 </r>
       <r>    0.4743    0.0000 </r>
       <r>    0.7301    0.0000 </r>
       <r>    0.8270    0.0000 </r>
       <r>    0.8582    0.0000 </r>
       <r>    0.9409    0.0000 </r>
       <r>    0.9592    0.0000 </r>
       <r>    1.0195    0.0000 </r>
       <r>    1.1291    0.0000 </r>
       <r>    1.2098    0.0000 </r>
       <r>    1.2551    0.0000 </r>
       <r>    1.3444    0.0000 </r>
       <r>    1.4538    0.0000 </r>
       <r>    1.4822    0.0000 </r>
       <r>    1.6126    0.0000 </r>
       <r>    1.6161    0.0000 </r>
       <r>    1.6769    0.0000 </r>
      </set>
      <set comment="kpoint 13">
       <r>   -9.4098    1.0000 </r>
       <r>   -3.5729    0.1667 </r>
       <r>   -3.5729    0.1667 </r>
       <r>   -3.5729    0.1663 </r>
       <r>   -0.2070    0.0000 </r>
       <r>    0.2262    0.0000 </r>
       <r>    0.3695    0.0000 </r>
       <r>    0.3990    0.0000 </r>
       <r>    0.4950    0.0000 </r>
       <r>    0.7319    0.0000 </r>
       <r>    0.7369    0.0000 </r>
       <r>    0.8585    0.0000 </r>
       <r>    0.9033    0.0000 </r>
       <r>    0.9793    0.0000 </r>
       <r>    1.0280    0.0000 </r>
       <r>    1.1498    0.0000 </r>
       <r>    1.3203    0.0000 </r>
       <r>    1.3480    0.0000 </r>
       <r>    1.3944    0.0000 </r>
       <r>    1.4099    0.0000 </r>
       <r>    1.5031    0.0000 </r>
       <r>    1.5573    0.0000 </r>
       <r>    1.6325    0.0000 </r>
       <r>    1.6931    0.0000 </r>
      </set>
      <set comment="kpoint 14">
       <r>   -9.4098    1.0000 </r>
       <r>   -3.5729    0.1667 </r>
       <r>   -3.5729    0.1667 </r>
       <r>   -3.5729    0.1663 </r>
       <r>   -0.1849    0.0000 </r>
       <r>    0.1592    0.0000 </r>
       <r>    0.3983    0.0000 </r>
       <r>    0.4290    0.0000 </r>
       <r>    0.5224    0.0000 </r>
       <r>    0.6523    0.0000 </r>
       <r>    0.6530    0.0000 </r>
       <r>    0.7882    0.0000 </r>
       <r>    1.0070    0.0000 </r>
       <r>    1.0520    0.0000 </r>
       <r>    1.0656    0.0000 </r>
       <r>    1.1751    0.0000 </r>
       <r>    1.2687    0.0000 </r>
       <r>    1.2752    0.0000 </r>
       <r>    1.4501    0.0000 </r>
       <r>    1.5181    0.0000 </r>
       <r>    1.5821    0.0000 </r>
       <r>    1.6058    0.0000 </r>
       <r>    1.6611    0.0000 </r>
       <r>    1.6843    0.0000 </r>
      </set>
      <set comment="kpoint 15">
       <r>   -9.4098    1.0000 </r>
       <r>   -3.5729    0.1668 </r>
       <r>   -3.5729    0.1667 </r>
       <r>   -3.5729    0.1663 </r>
       <r>   -0.1680    0.0000 </r>
       <r>    0.1183    0.0000 </r>
       <r>    0.4244    0.0000 </r>
       <r>    0.4656    0.0000 </r>
       <r>    0.5471    0.0000 </r>
       <r>    0.5872    0.0000 </r>
       <r>    0.6018    0.0000 </r>
       <r>    0.7408    0.0000 </r>
       <r>    1.0315    0.0000 </r>
       <r>    1.0955    0.0000 </r>
       <r>    1.1909    0.0000 </r>
       <r>    1.1969    0.0000 </r>
       <r>    1.2209    0.0000 </r>
       <r>    1.2515    0.0000 </r>
       <r>    1.3893    0.0000 </r>
       <r>    1.4614    0.0000 </r>
       <r>    1.6376    0.0000 </r>
       <r>    1.6952    0.0000 </r>
       <r>    1.7429    0.0000 </r>
       <r>    1.7679    0.0000 </r>
      </set>
      <set comment="kpoint 16">
       <r>   -9.4098    1.0000 </r>
       <r>   -3.5729    0.1667 </r>
       <r>   -3.5729    0.1667 </r>
       <r>   -3.5729    0.1666 </r>
       <r>   -0.2090    0.0000 </r>
       <r>    0.3081    0.0000 </r>
       <r>    0.3633    0.0000 </r>
       <r>    0.3999    0.0000 </r>
       <r>    0.4926    0.0000 </r>
       <r>    0.6326    0.0000 </r>
       <r>    0.8394    0.0000 </r>
       <r>    0.8595    0.0000 </r>
       <r>    0.9598    0.0000 </r>
       <r>    0.9715    0.0000 </r>
       <r>    1.0220    0.0000 </r>
       <r>    1.1042    0.0000 </r>
       <r>    1.1100    0.0000 </r>
       <r>    1.1526    0.0000 </r>
       <r>    1.2776    0.0000 </r>
       <r>    1.4634    0.0000 </r>
       <r>    1.4858    0.0000 </r>
       <r>    1.5861    0.0000 </r>
       <r>    1.6241    0.0000 </r>
       <r>    1.6970    0.0000 </r>
      </set>
      <set comment="kpoint 17">
       <r>   -9.4098    1.0000 </r>
       <r>   -3.5729    0.1667 </r>
       <r>   -3.5729    0.1667 </r>
       <r>   -3.5729    0.1666 </r>
       <r>   -0.1992    0.0000 </r>
       <r>    0.3013    0.0000 </r>
       <r>    0.3743    0.0000 </r>
       <r>    0.3848    0.0000 </r>
       <r>    0.4359    0.0000 </r>
       <r>    0.7529    0.0000 </r>
       <r>    0.8314    0.0000 </r>
       <r>    0.8342    0.0000 </r>
       <r>    0.8800    0.0000 </r>
       <r>    0.8941    0.0000 </r>
       <r>    0.9223    0.0000 </r>
       <r>    1.2236    0.0000 </r>
       <r>    1.2318    0.0000 </r>
       <r>    1.2809    0.0000 </r>
       <r>    1.2992    0.0000 </r>
       <r>    1.3578    0.0000 </r>
       <r>    1.3893    0.0000 </r>
       <r>    1.6959    0.0000 </r>
       <r>    1.7015    0.0000 </r>
       <r>    1.7494    0.0000 </r>
      </set>
      <set comment="kpoint 18">
       <r>   -9.4098    1.0000 </r>
       <r>   -3.5729    0.1667 </r>
       <r>   -3.5729    0.1667 </r>
       <r>   -3.5729    0.1666 </r>
       <r>   -0.1812    0.0000 </r>
       <r>    0.2503    0.0000 </r>
       <r>    0.3749    0.0000 </r>
       <r>    0.3956    0.0000 </r>
       <r>    0.4501    0.0000 </r>
       <r>    0.7288    0.0000 </r>
       <r>    0.7577    0.0000 </r>
       <r>    0.7970    0.0000 </r>
       <r>    0.8817    0.0000 </r>
       <r>    0.9238    0.0000 </r>
       <r>    0.9280    0.0000 </r>
       <r>    1.2424    0.0000 </r>
       <r>    1.2479    0.0000 </r>
       <r>    1.2930    0.0000 </r>
       <r>    1.3965    0.0000 </r>
       <r>    1.4210    0.0000 </r>
       <r>    1.4469    0.0000 </r>
       <r>    1.6776    0.0000 </r>
       <r>    1.7431    0.0000 </r>
       <r>    1.7437    0.0000 </r>
      </set>
      <set comment="kpoint 19">
       <r>   -9.4098    1.0000 </r>
       <r>   -3.5729    0.1667 </r>
       <r>   -3.5729    0.1667 </r>
       <r>   -3.5729    0.1667 </r>
       <r>   -0.1594    0.0000 </r>
       <r>    0.1863    0.0000 </r>
       <r>    0.3976    0.0000 </r>
       <r>    0.4241    0.0000 </r>
       <r>    0.4827    0.0000 </r>
       <r>    0.6513    0.0000 </r>
       <r>    0.6806    0.0000 </r>
       <r>    0.7149    0.0000 </r>
       <r>    0.9087    0.0000 </r>
       <r>    0.9589    0.0000 </r>
       <r>    1.0820    0.0000 </r>
       <r>    1.1669    0.0000 </r>
       <r>    1.1714    0.0000 </r>
       <r>    1.3221    0.0000 </r>
       <r>    1.5425    0.0000 </r>
       <r>    1.5458    0.0000 </r>
       <r>    1.5853    0.0000 </r>
       <r>    1.6515    0.0000 </r>
       <r>    1.6709    0.0000 </r>
       <r>    1.7706    0.0000 </r>
      </set>
      <set comment="kpoint 20">
       <r>   -9.4098    1.0000 </r>
       <r>   -3.5729    0.1667 </r>
       <r>   -3.5729    0.1667 </r>
       <r>   -3.5729    0.1667 </r>
       <r>   -0.1427    0.0000 </r>
       <r>    0.1463    0.0000 </r>
       <r>    0.4223    0.0000 </r>
       <r>    0.4496    0.0000 </r>
       <r>    0.5195    0.0000 </r>
       <r>    0.5941    0.0000 </r>
       <r>    0.6302    0.0000 </r>
       <r>    0.6582    0.0000 </r>
       <r>    0.9341    0.0000 </r>
       <r>    0.9994    0.0000 </r>
       <r>    1.0981    0.0000 </r>
       <r>    1.1162    0.0000 </r>
       <r>    1.2580    0.0000 </r>
       <r>    1.3438    0.0000 </r>
       <r>    1.4476    0.0000 </r>
       <r>    1.5820    0.0000 </r>
       <r>    1.6895    0.0000 </r>
       <r>    1.7245    0.0000 </r>
       <r>    1.7752    0.0000 </r>
       <r>    1.8045    0.0000 </r>
      </set>
      <set comment="kpoint 21">
       <r>   -9.4098    1.0000 </r>
       <r>   -3.5730    0.1670 </r>
       <r>   -3.5729    0.1666 </r>
       <r>   -3.5729    0.1666 </r>
       <r>   -0.1767    0.0000 </r>
       <r>    0.2435    0.0000 </r>
       <r>    0.3975    0.0000 </r>
       <r>    0.4144    0.0000 </r>
       <r>    0.5262    0.0000 </r>
       <r>    0.6684    0.0000 </r>
       <r>    0.7522    0.0000 </r>
       <r>    0.7635    0.0000 </r>
       <r>    0.8831    0.0000 </r>
       <r>    1.0038    0.0000 </r>
       <r>    1.0247    0.0000 </r>
       <r>    1.0515    0.0000 </r>
       <r>    1.1376    0.0000 </r>
       <r>    1.1826    0.0000 </r>
       <r>    1.3742    0.0000 </r>
       <r>    1.3774    0.0000 </r>
       <r>    1.4388    0.0000 </r>
       <r>    1.4995    0.0000 </r>
       <r>    1.5428    0.0000 </r>
       <r>    1.7339    0.0000 </r>
      </set>
      <set comment="kpoint 22">
       <r>   -9.4098    1.0000 </r>
       <r>   -3.5730    0.1670 </r>
       <r>   -3.5729    0.1666 </r>
       <r>   -3.5729    0.1666 </r>
       <r>   -0.1671    0.0000 </r>
       <r>    0.2523    0.0000 </r>
       <r>    0.3848    0.0000 </r>
       <r>    0.4084    0.0000 </r>
       <r>    0.4694    0.0000 </r>
       <r>    0.7290    0.0000 </r>
       <r>    0.7624    0.0000 </r>
       <r>    0.7968    0.0000 </r>
       <r>    0.8250    0.0000 </r>
       <r>    0.8975    0.0000 </r>
       <r>    0.9360    0.0000 </r>
       <r>    1.1496    0.0000 </r>
       <r>    1.2337    0.0000 </r>
       <r>    1.2762    0.0000 </r>
       <r>    1.2981    0.0000 </r>
       <r>    1.3235    0.0000 </r>
       <r>    1.4530    0.0000 </r>
       <r>    1.6362    0.0000 </r>
       <r>    1.6704    0.0000 </r>
       <r>    1.7412    0.0000 </r>
      </set>
      <set comment="kpoint 23">
       <r>   -9.4098    1.0000 </r>
       <r>   -3.5730    0.1670 </r>
       <r>   -3.5729    0.1666 </r>
       <r>   -3.5729    0.1666 </r>
       <r>   -0.1494    0.0000 </r>
       <r>    0.2589    0.0000 </r>
       <r>    0.3217    0.0000 </r>
       <r>    0.4294    0.0000 </r>
       <r>    0.4802    0.0000 </r>
       <r>    0.6525    0.0000 </r>
       <r>    0.7719    0.0000 </r>
       <r>    0.8141    0.0000 </r>
       <r>    0.8179    0.0000 </r>
       <r>    0.8305    0.0000 </r>
       <r>    0.9608    0.0000 </r>
       <r>    1.1536    0.0000 </r>
       <r>    1.1591    0.0000 </r>
       <r>    1.3116    0.0000 </r>
       <r>    1.4262    0.0000 </r>
       <r>    1.4522    0.0000 </r>
       <r>    1.4995    0.0000 </r>
       <r>    1.7353    0.0000 </r>
       <r>    1.7743    0.0000 </r>
       <r>    1.8229    0.0000 </r>
      </set>
      <set comment="kpoint 24">
       <r>   -9.4098    1.0000 </r>
       <r>   -3.5730    0.1670 </r>
       <r>   -3.5729    0.1667 </r>
       <r>   -3.5729    0.1666 </r>
       <r>   -0.1280    0.0000 </r>
       <r>    0.2200    0.0000 </r>
       <r>    0.3197    0.0000 </r>
       <r>    0.4572    0.0000 </r>
       <r>    0.5130    0.0000 </r>
       <r>    0.5778    0.0000 </r>
       <r>    0.7158    0.0000 </r>
       <r>    0.7335    0.0000 </r>
       <r>    0.8217    0.0000 </r>
       <r>    0.8635    0.0000 </r>
       <r>    1.0653    0.0000 </r>
       <r>    1.0738    0.0000 </r>
       <r>    1.1293    0.0000 </r>
       <r>    1.4407    0.0000 </r>
       <r>    1.5088    0.0000 </r>
       <r>    1.5787    0.0000 </r>
       <r>    1.6394    0.0000 </r>
       <r>    1.6723    0.0000 </r>
       <r>    1.8041    0.0000 </r>
       <r>    1.8357    0.0000 </r>
      </set>
      <set comment="kpoint 25">
       <r>   -9.4098    1.0000 </r>
       <r>   -3.5730    0.1670 </r>
       <r>   -3.5729    0.1667 </r>
       <r>   -3.5729    0.1666 </r>
       <r>   -0.1118    0.0000 </r>
       <r>    0.1829    0.0000 </r>
       <r>    0.3409    0.0000 </r>
       <r>    0.4818    0.0000 </r>
       <r>    0.5262    0.0000 </r>
       <r>    0.5537    0.0000 </r>
       <r>    0.6676    0.0000 </r>
       <r>    0.6685    0.0000 </r>
       <r>    0.8472    0.0000 </r>
       <r>    0.9044    0.0000 </r>
       <r>    1.0043    0.0000 </r>
       <r>    1.0212    0.0000 </r>
       <r>    1.2936    0.0000 </r>
       <r>    1.4569    0.0000 </r>
       <r>    1.5141    0.0000 </r>
       <r>    1.6459    0.0000 </r>
       <r>    1.7238    0.0000 </r>
       <r>    1.7406    0.0000 </r>
       <r>    1.8170    0.0000 </r>
       <r>    1.8369    0.0000 </r>
      </set>
      <set comment="kpoint 26">
       <r>   -9.4098    1.0000 </r>
       <r>   -3.5730    0.1673 </r>
       <r>   -3.5729    0.1666 </r>
       <r>   -3.5729    0.1666 </r>
       <r>   -0.1426    0.0000 </r>
       <r>    0.1761    0.0000 </r>
       <r>    0.4371    0.0000 </r>
       <r>    0.4568    0.0000 </r>
       <r>    0.5645    0.0000 </r>
       <r>    0.6762    0.0000 </r>
       <r>    0.6770    0.0000 </r>
       <r>    0.7112    0.0000 </r>
       <r>    0.8101    0.0000 </r>
       <r>    0.9471    0.0000 </r>
       <r>    1.0419    0.0000 </r>
       <r>    1.0953    0.0000 </r>
       <r>    1.1769    0.0000 </r>
       <r>    1.2293    0.0000 </r>
       <r>    1.2978    0.0000 </r>
       <r>    1.3022    0.0000 </r>
       <r>    1.4236    0.0000 </r>
       <r>    1.4326    0.0000 </r>
       <r>    1.6100    0.0000 </r>
       <r>    1.7791    0.0000 </r>
      </set>
      <set comment="kpoint 27">
       <r>   -9.4098    1.0000 </r>
       <r>   -3.5730    0.1673 </r>
       <r>   -3.5729    0.1666 </r>
       <r>   -3.5729    0.1666 </r>
       <r>   -0.1332    0.0000 </r>
       <r>    0.1872    0.0000 </r>
       <r>    0.4224    0.0000 </r>
       <r>    0.4478    0.0000 </r>
       <r>    0.5125    0.0000 </r>
       <r>    0.6520    0.0000 </r>
       <r>    0.6877    0.0000 </r>
       <r>    0.7387    0.0000 </r>
       <r>    0.8373    0.0000 </r>
       <r>    0.9366    0.0000 </r>
       <r>    0.9831    0.0000 </r>
       <r>    1.0749    0.0000 </r>
       <r>    1.1719    0.0000 </r>
       <r>    1.1926    0.0000 </r>
       <r>    1.3199    0.0000 </r>
       <r>    1.3708    0.0000 </r>
       <r>    1.5565    0.0000 </r>
       <r>    1.5627    0.0000 </r>
       <r>    1.6343    0.0000 </r>
       <r>    1.7845    0.0000 </r>
      </set>
      <set comment="kpoint 28">
       <r>   -9.4098    1.0000 </r>
       <r>   -3.5730    0.1673 </r>
       <r>   -3.5729    0.1666 </r>
       <r>   -3.5729    0.1666 </r>
       <r>   -0.1160    0.0000 </r>
       <r>    0.2081    0.0000 </r>
       <r>    0.3451    0.0000 </r>
       <r>    0.4681    0.0000 </r>
       <r>    0.5241    0.0000 </r>
       <r>    0.5756    0.0000 </r>
       <r>    0.7097    0.0000 </r>
       <r>    0.7452    0.0000 </r>
       <r>    0.8426    0.0000 </r>
       <r>    0.8609    0.0000 </r>
       <r>    0.9999    0.0000 </r>
       <r>    1.0746    0.0000 </r>
       <r>    1.0797    0.0000 </r>
       <r>    1.2388    0.0000 </r>
       <r>    1.4627    0.0000 </r>
       <r>    1.5201    0.0000 </r>
       <r>    1.6183    0.0000 </r>
       <r>    1.7116    0.0000 </r>
       <r>    1.7391    0.0000 </r>
       <r>    1.7843    0.0000 </r>
      </set>
      <set comment="kpoint 29">
       <r>   -9.4098    1.0000 </r>
       <r>   -3.5730    0.1673 </r>
       <r>   -3.5729    0.1667 </r>
       <r>   -3.5729    0.1666 </r>
       <r>   -0.0954    0.0000 </r>
       <r>    0.2322    0.0000 </r>
       <r>    0.2815    0.0000 </r>
       <r>    0.4949    0.0000 </r>
       <r>    0.4978    0.0000 </r>
       <r>    0.5599    0.0000 </r>
       <r>    0.7351    0.0000 </r>
       <r>    0.7714    0.0000 </r>
       <r>    0.7761    0.0000 </r>
       <r>    0.7794    0.0000 </r>
       <r>    0.9862    0.0000 </r>
       <r>    0.9923    0.0000 </r>
       <r>    1.1640    0.0000 </r>
       <r>    1.3969    0.0000 </r>
       <r>    1.6145    0.0000 </r>
       <r>    1.6161    0.0000 </r>
       <r>    1.6856    0.0000 </r>
       <r>    1.7125    0.0000 </r>
       <r>    1.8519    0.0000 </r>
       <r>    1.8859    0.0000 </r>
      </set>
      <set comment="kpoint 30">
       <r>   -9.4098    1.0000 </r>
       <r>   -3.5730    0.1673 </r>
       <r>   -3.5729    0.1667 </r>
       <r>   -3.5729    0.1666 </r>
       <r>   -0.0800    0.0000 </r>
       <r>    0.2263    0.0000 </r>
       <r>    0.2734    0.0000 </r>
       <r>    0.4479    0.0000 </r>
       <r>    0.5179    0.0000 </r>
       <r>    0.5988    0.0000 </r>
       <r>    0.7115    0.0000 </r>
       <r>    0.7124    0.0000 </r>
       <r>    0.7748    0.0000 </r>
       <r>    0.8191    0.0000 </r>
       <r>    0.9200    0.0000 </r>
       <r>    0.9376    0.0000 </r>
       <r>    1.3315    0.0000 </r>
       <r>    1.5031    0.0000 </r>
       <r>    1.5830    0.0000 </r>
       <r>    1.6413    0.0000 </r>
       <r>    1.7539    0.0000 </r>
       <r>    1.7563    0.0000 </r>
       <r>    1.8783    0.0000 </r>
       <r>    1.8832    0.0000 </r>
      </set>
      <set comment="kpoint 31">
       <r>   -9.4098    1.0000 </r>
       <r>   -3.5730    0.1675 </r>
       <r>   -3.5729    0.1666 </r>
       <r>   -3.5729    0.1665 </r>
       <r>   -0.1172    0.0000 </r>
       <r>    0.1331    0.0000 </r>
       <r>    0.4722    0.0000 </r>
       <r>    0.5048    0.0000 </r>
       <r>    0.5970    0.0000 </r>
       <r>    0.6091    0.0000 </r>
       <r>    0.6227    0.0000 </r>
       <r>    0.7476    0.0000 </r>
       <r>    0.7618    0.0000 </r>
       <r>    0.8892    0.0000 </r>
       <r>    1.0742    0.0000 </r>
       <r>    1.1474    0.0000 </r>
       <r>    1.2135    0.0000 </r>
       <r>    1.2301    0.0000 </r>
       <r>    1.2437    0.0000 </r>
       <r>    1.2846    0.0000 </r>
       <r>    1.3635    0.0000 </r>
       <r>    1.3711    0.0000 </r>
       <r>    1.7151    0.0000 </r>
       <r>    1.8567    0.0000 </r>
      </set>
      <set comment="kpoint 32">
       <r>   -9.4098    1.0000 </r>
       <r>   -3.5730    0.1675 </r>
       <r>   -3.5729    0.1666 </r>
       <r>   -3.5729    0.1666 </r>
       <r>   -0.1081    0.0000 </r>
       <r>    0.1448    0.0000 </r>
       <r>    0.4624    0.0000 </r>
       <r>    0.4825    0.0000 </r>
       <r>    0.5559    0.0000 </r>
       <r>    0.5907    0.0000 </r>
       <r>    0.6349    0.0000 </r>
       <r>    0.6781    0.0000 </r>
       <r>    0.8713    0.0000 </r>
       <r>    0.9728    0.0000 </r>
       <r>    1.0214    0.0000 </r>
       <r>    1.0379    0.0000 </r>
       <r>    1.1186    0.0000 </r>
       <r>    1.1191    0.0000 </r>
       <r>    1.3508    0.0000 </r>
       <r>    1.4238    0.0000 </r>
       <r>    1.5036    0.0000 </r>
       <r>    1.5115    0.0000 </r>
       <r>    1.7230    0.0000 </r>
       <r>    1.8569    0.0000 </r>
      </set>
      <set comment="kpoint 33">
       <r>   -9.4098    1.0000 </r>
       <r>   -3.5730    0.1675 </r>
       <r>   -3.5729    0.1666 </r>
       <r>   -3.5729    0.1666 </r>
       <r>   -0.0915    0.0000 </r>
       <r>    0.1676    0.0000 </r>
       <r>    0.3820    0.0000 </r>
       <r>    0.5018    0.0000 </r>
       <r>    0.5156    0.0000 </r>
       <r>    0.5741    0.0000 </r>
       <r>    0.6587    0.0000 </r>
       <r>    0.6778    0.0000 </r>
       <r>    0.8804    0.0000 </r>
       <r>    0.9071    0.0000 </r>
       <r>    1.0008    0.0000 </r>
       <r>    1.0169    0.0000 </r>
       <r>    1.0519    0.0000 </r>
       <r>    1.1827    0.0000 </r>
       <r>    1.4938    0.0000 </r>
       <r>    1.5735    0.0000 </r>
       <r>    1.6525    0.0000 </r>
       <r>    1.6639    0.0000 </r>
       <r>    1.7409    0.0000 </r>
       <r>    1.8313    0.0000 </r>
      </set>
      <set comment="kpoint 34">
       <r>   -9.4098    1.0000 </r>
       <r>   -3.5730    0.1675 </r>
       <r>   -3.5729    0.1666 </r>
       <r>   -3.5729    0.1666 </r>
       <r>   -0.0719    0.0000 </r>
       <r>    0.1989    0.0000 </r>
       <r>    0.3139    0.0000 </r>
       <r>    0.4389    0.0000 </r>
       <r>    0.5268    0.0000 </r>
       <r>    0.6082    0.0000 </r>
       <r>    0.6917    0.0000 </r>
       <r>    0.7096    0.0000 </r>
       <r>    0.8059    0.0000 </r>
       <r>    0.8269    0.0000 </r>
       <r>    0.9176    0.0000 </r>
       <r>    0.9316    0.0000 </r>
       <r>    1.1985    0.0000 </r>
       <r>    1.3467    0.0000 </r>
       <r>    1.6434    0.0000 </r>
       <r>    1.6989    0.0000 </r>
       <r>    1.7124    0.0000 </r>
       <r>    1.7749    0.0000 </r>
       <r>    1.8193    0.0000 </r>
       <r>    1.8297    0.0000 </r>
      </set>
      <set comment="kpoint 35">
       <r>   -9.4098    1.0000 </r>
       <r>   -3.5730    0.1675 </r>
       <r>   -3.5729    0.1667 </r>
       <r>   -3.5729    0.1666 </r>
       <r>   -0.0574    0.0000 </r>
       <r>    0.2295    0.0000 </r>
       <r>    0.2733    0.0000 </r>
       <r>    0.3854    0.0000 </r>
       <r>    0.5477    0.0000 </r>
       <r>    0.6479    0.0000 </r>
       <r>    0.7249    0.0000 </r>
       <r>    0.7501    0.0000 </r>
       <r>    0.7594    0.0000 </r>
       <r>    0.7616    0.0000 </r>
       <r>    0.8502    0.0000 </r>
       <r>    0.8730    0.0000 </r>
       <r>    1.3630    0.0000 </r>
       <r>    1.5157    0.0000 </r>
       <r>    1.5554    0.0000 </r>
       <r>    1.7196    0.0000 </r>
       <r>    1.7337    0.0000 </r>
       <r>    1.7797    0.0000 </r>
       <r>    1.9231    0.0000 </r>
       <r>    1.9301    0.0000 </r>
      </set>
      <set comment="kpoint 36">
       <r>   -9.4098    1.0000 </r>
       <r>   -3.5729    0.1667 </r>
       <r>   -3.5729    0.1667 </r>
       <r>   -3.5728    0.1659 </r>
       <r>   -0.2591    0.0000 </r>
       <r>    0.2177    0.0000 </r>
       <r>    0.3887    0.0000 </r>
       <r>    0.4530    0.0000 </r>
       <r>    0.5811    0.0000 </r>
       <r>    0.6911    0.0000 </r>
       <r>    0.8324    0.0000 </r>
       <r>    0.8385    0.0000 </r>
       <r>    0.9664    0.0000 </r>
       <r>    1.0309    0.0000 </r>
       <r>    1.1057    0.0000 </r>
       <r>    1.1651    0.0000 </r>
       <r>    1.2554    0.0000 </r>
       <r>    1.2718    0.0000 </r>
       <r>    1.3139    0.0000 </r>
       <r>    1.4162    0.0000 </r>
       <r>    1.4407    0.0000 </r>
       <r>    1.4994    0.0000 </r>
       <r>    1.5215    0.0000 </r>
       <r>    1.6289    0.0000 </r>
      </set>
      <set comment="kpoint 37">
       <r>   -9.4098    1.0000 </r>
       <r>   -3.5729    0.1667 </r>
       <r>   -3.5729    0.1667 </r>
       <r>   -3.5728    0.1659 </r>
       <r>   -0.2492    0.0000 </r>
       <r>    0.2232    0.0000 </r>
       <r>    0.3193    0.0000 </r>
       <r>    0.4390    0.0000 </r>
       <r>    0.6931    0.0000 </r>
       <r>    0.7068    0.0000 </r>
       <r>    0.7339    0.0000 </r>
       <r>    0.8449    0.0000 </r>
       <r>    0.9206    0.0000 </r>
       <r>    1.0944    0.0000 </r>
       <r>    1.1221    0.0000 </r>
       <r>    1.1938    0.0000 </r>
       <r>    1.2498    0.0000 </r>
       <r>    1.3006    0.0000 </r>
       <r>    1.3376    0.0000 </r>
       <r>    1.3496    0.0000 </r>
       <r>    1.4639    0.0000 </r>
       <r>    1.5022    0.0000 </r>
       <r>    1.5891    0.0000 </r>
       <r>    1.6344    0.0000 </r>
      </set>
      <set comment="kpoint 38">
       <r>   -9.4098    1.0000 </r>
       <r>   -3.5729    0.1667 </r>
       <r>   -3.5729    0.1667 </r>
       <r>   -3.5728    0.1659 </r>
       <r>   -0.2311    0.0000 </r>
       <r>    0.1974    0.0000 </r>
       <r>    0.2789    0.0000 </r>
       <r>    0.4589    0.0000 </r>
       <r>    0.6206    0.0000 </r>
       <r>    0.7189    0.0000 </r>
       <r>    0.8044    0.0000 </r>
       <r>    0.8634    0.0000 </r>
       <r>    0.8800    0.0000 </r>
       <r>    1.0915    0.0000 </r>
       <r>    1.1463    0.0000 </r>
       <r>    1.2352    0.0000 </r>
       <r>    1.2460    0.0000 </r>
       <r>    1.3050    0.0000 </r>
       <r>    1.3486    0.0000 </r>
       <r>    1.4573    0.0000 </r>
       <r>    1.4945    0.0000 </r>
       <r>    1.5175    0.0000 </r>
       <r>    1.5272    0.0000 </r>
       <r>    1.6434    0.0000 </r>
      </set>
      <set comment="kpoint 39">
       <r>   -9.4098    1.0000 </r>
       <r>   -3.5729    0.1668 </r>
       <r>   -3.5729    0.1667 </r>
       <r>   -3.5728    0.1659 </r>
       <r>   -0.2090    0.0000 </r>
       <r>    0.1354    0.0000 </r>
       <r>    0.3014    0.0000 </r>
       <r>    0.4879    0.0000 </r>
       <r>    0.5394    0.0000 </r>
       <r>    0.7291    0.0000 </r>
       <r>    0.7437    0.0000 </r>
       <r>    0.8922    0.0000 </r>
       <r>    1.0066    0.0000 </r>
       <r>    1.0459    0.0000 </r>
       <r>    1.1696    0.0000 </r>
       <r>    1.1759    0.0000 </r>
       <r>    1.3038    0.0000 </r>
       <r>    1.3669    0.0000 </r>
       <r>    1.4075    0.0000 </r>
       <r>    1.4665    0.0000 </r>
       <r>    1.5013    0.0000 </r>
       <r>    1.5387    0.0000 </r>
       <r>    1.5724    0.0000 </r>
       <r>    1.6096    0.0000 </r>
      </set>
      <set comment="kpoint 40">
       <r>   -9.4098    1.0000 </r>
       <r>   -3.5729    0.1668 </r>
       <r>   -3.5729    0.1667 </r>
       <r>   -3.5728    0.1659 </r>
       <r>   -0.1921    0.0000 </r>
       <r>    0.0950    0.0000 </r>
       <r>    0.3320    0.0000 </r>
       <r>    0.4725    0.0000 </r>
       <r>    0.5284    0.0000 </r>
       <r>    0.6719    0.0000 </r>
       <r>    0.7638    0.0000 </r>
       <r>    0.9169    0.0000 </r>
       <r>    0.9767    0.0000 </r>
       <r>    1.1072    0.0000 </r>
       <r>    1.1954    0.0000 </r>
       <r>    1.2206    0.0000 </r>
       <r>    1.3292    0.0000 </r>
       <r>    1.3694    0.0000 </r>
       <r>    1.4055    0.0000 </r>
       <r>    1.4290    0.0000 </r>
       <r>    1.4823    0.0000 </r>
       <r>    1.5427    0.0000 </r>
       <r>    1.5681    0.0000 </r>
       <r>    1.6137    0.0000 </r>
      </set>
      <set comment="kpoint 41">
       <r>   -9.4098    1.0000 </r>
       <r>   -3.5729    0.1667 </r>
       <r>   -3.5729    0.1666 </r>
       <r>   -3.5728    0.1660 </r>
       <r>   -0.2499    0.0000 </r>
       <r>    0.2268    0.0000 </r>
       <r>    0.3962    0.0000 </r>
       <r>    0.4618    0.0000 </r>
       <r>    0.5688    0.0000 </r>
       <r>    0.5978    0.0000 </r>
       <r>    0.8456    0.0000 </r>
       <r>    0.9512    0.0000 </r>
       <r>    0.9750    0.0000 </r>
       <r>    1.0016    0.0000 </r>
       <r>    1.0431    0.0000 </r>
       <r>    1.1645    0.0000 </r>
       <r>    1.1696    0.0000 </r>
       <r>    1.2104    0.0000 </r>
       <r>    1.3360    0.0000 </r>
       <r>    1.3977    0.0000 </r>
       <r>    1.4944    0.0000 </r>
       <r>    1.5719    0.0000 </r>
       <r>    1.5907    0.0000 </r>
       <r>    1.6307    0.0000 </r>
      </set>
      <set comment="kpoint 42">
       <r>   -9.4098    1.0000 </r>
       <r>   -3.5729    0.1667 </r>
       <r>   -3.5729    0.1667 </r>
       <r>   -3.5728    0.1660 </r>
       <r>   -0.2401    0.0000 </r>
       <r>    0.2322    0.0000 </r>
       <r>    0.3282    0.0000 </r>
       <r>    0.4470    0.0000 </r>
       <r>    0.5840    0.0000 </r>
       <r>    0.7101    0.0000 </r>
       <r>    0.7432    0.0000 </r>
       <r>    0.9273    0.0000 </r>
       <r>    0.9658    0.0000 </r>
       <r>    1.0063    0.0000 </r>
       <r>    1.0748    0.0000 </r>
       <r>    1.1268    0.0000 </r>
       <r>    1.2004    0.0000 </r>
       <r>    1.3106    0.0000 </r>
       <r>    1.4046    0.0000 </r>
       <r>    1.4142    0.0000 </r>
       <r>    1.4981    0.0000 </r>
       <r>    1.5157    0.0000 </r>
       <r>    1.5358    0.0000 </r>
       <r>    1.6092    0.0000 </r>
      </set>
      <set comment="kpoint 43">
       <r>   -9.4098    1.0000 </r>
       <r>   -3.5729    0.1667 </r>
       <r>   -3.5729    0.1667 </r>
       <r>   -3.5728    0.1660 </r>
       <r>   -0.2220    0.0000 </r>
       <r>    0.2065    0.0000 </r>
       <r>    0.2880    0.0000 </r>
       <r>    0.4667    0.0000 </r>
       <r>    0.6041    0.0000 </r>
       <r>    0.6301    0.0000 </r>
       <r>    0.8125    0.0000 </r>
       <r>    0.8857    0.0000 </r>
       <r>    0.9657    0.0000 </r>
       <r>    1.0081    0.0000 </r>
       <r>    1.0339    0.0000 </r>
       <r>    1.2192    0.0000 </r>
       <r>    1.2660    0.0000 </r>
       <r>    1.3492    0.0000 </r>
       <r>    1.4142    0.0000 </r>
       <r>    1.4186    0.0000 </r>
       <r>    1.4836    0.0000 </r>
       <r>    1.5367    0.0000 </r>
       <r>    1.5815    0.0000 </r>
       <r>    1.6026    0.0000 </r>
      </set>
      <set comment="kpoint 44">
       <r>   -9.4098    1.0000 </r>
       <r>   -3.5729    0.1668 </r>
       <r>   -3.5729    0.1667 </r>
       <r>   -3.5728    0.1660 </r>
       <r>   -0.1999    0.0000 </r>
       <r>    0.1447    0.0000 </r>
       <r>    0.3105    0.0000 </r>
       <r>    0.4957    0.0000 </r>
       <r>    0.5484    0.0000 </r>
       <r>    0.6308    0.0000 </r>
       <r>    0.7374    0.0000 </r>
       <r>    0.8999    0.0000 </r>
       <r>    1.0205    0.0000 </r>
       <r>    1.0443    0.0000 </r>
       <r>    1.0632    0.0000 </r>
       <r>    1.2439    0.0000 </r>
       <r>    1.2860    0.0000 </r>
       <r>    1.3218    0.0000 </r>
       <r>    1.4182    0.0000 </r>
       <r>    1.4762    0.0000 </r>
       <r>    1.4937    0.0000 </r>
       <r>    1.5567    0.0000 </r>
       <r>    1.6051    0.0000 </r>
       <r>    1.6545    0.0000 </r>
      </set>
      <set comment="kpoint 45">
       <r>   -9.4098    1.0000 </r>
       <r>   -3.5729    0.1668 </r>
       <r>   -3.5729    0.1667 </r>
       <r>   -3.5728    0.1660 </r>
       <r>   -0.1831    0.0000 </r>
       <r>    0.1044    0.0000 </r>
       <r>    0.3409    0.0000 </r>
       <r>    0.4818    0.0000 </r>
       <r>    0.5360    0.0000 </r>
       <r>    0.6529    0.0000 </r>
       <r>    0.6803    0.0000 </r>
       <r>    0.8566    0.0000 </r>
       <r>    1.0403    0.0000 </r>
       <r>    1.0907    0.0000 </r>
       <r>    1.2016    0.0000 </r>
       <r>    1.2247    0.0000 </r>
       <r>    1.2641    0.0000 </r>
       <r>    1.3129    0.0000 </r>
       <r>    1.4169    0.0000 </r>
       <r>    1.4324    0.0000 </r>
       <r>    1.4883    0.0000 </r>
       <r>    1.5848    0.0000 </r>
       <r>    1.6032    0.0000 </r>
       <r>    1.6619    0.0000 </r>
      </set>
      <set comment="kpoint 46">
       <r>   -9.4098    1.0000 </r>
       <r>   -3.5729    0.1667 </r>
       <r>   -3.5729    0.1666 </r>
       <r>   -3.5729    0.1663 </r>
       <r>   -0.2320    0.0000 </r>
       <r>    0.2442    0.0000 </r>
       <r>    0.4030    0.0000 </r>
       <r>    0.4717    0.0000 </r>
       <r>    0.4831    0.0000 </r>
       <r>    0.6116    0.0000 </r>
       <r>    0.8511    0.0000 </r>
       <r>    0.8821    0.0000 </r>
       <r>    0.9957    0.0000 </r>
       <r>    1.0265    0.0000 </r>
       <r>    1.0662    0.0000 </r>
       <r>    1.0966    0.0000 </r>
       <r>    1.1290    0.0000 </r>
       <r>    1.2026    0.0000 </r>
       <r>    1.2370    0.0000 </r>
       <r>    1.4788    0.0000 </r>
       <r>    1.5079    0.0000 </r>
       <r>    1.5536    0.0000 </r>
       <r>    1.6244    0.0000 </r>
       <r>    1.6670    0.0000 </r>
      </set>
      <set comment="kpoint 47">
       <r>   -9.4098    1.0000 </r>
       <r>   -3.5729    0.1667 </r>
       <r>   -3.5729    0.1667 </r>
       <r>   -3.5729    0.1663 </r>
       <r>   -0.2222    0.0000 </r>
       <r>    0.2494    0.0000 </r>
       <r>    0.3452    0.0000 </r>
       <r>    0.4500    0.0000 </r>
[...]
       <r>    1.0346    0.0000 </r>
       <r>    1.0723    0.0000 </r>
       <r>    1.1382    0.0000 </r>
       <r>    1.1606    0.0000 </r>
       <r>    1.2838    0.0000 </r>
       <r>    1.5688    0.0000 </r>
       <r>    1.6856    0.0000 </r>
       <r>    1.7188    0.0000 </r>
       <r>    1.7659    0.0000 </r>
      </set>
      <set comment="kpoint 172">
       <r>   -9.4098    1.0000 </r>
       <r>   -3.5730    0.1675 </r>
       <r>   -3.5729    0.1666 </r>
       <r>   -3.5729    0.1666 </r>
       <r>   -0.0846    0.0000 </r>
       <r>    0.1973    0.0000 </r>
       <r>    0.2655    0.0000 </r>
       <r>    0.3642    0.0000 </r>
       <r>    0.5251    0.0000 </r>
       <r>    0.6867    0.0000 </r>
       <r>    0.7328    0.0000 </r>
       <r>    0.8318    0.0000 </r>
       <r>    0.9170    0.0000 </r>
       <r>    0.9873    0.0000 </r>
       <r>    1.0568    0.0000 </r>
       <r>    1.1104    0.0000 </r>
       <r>    1.1328    0.0000 </r>
       <r>    1.1909    0.0000 </r>
       <r>    1.2338    0.0000 </r>
       <r>    1.3067    0.0000 </r>
       <r>    1.4750    0.0000 </r>
       <r>    1.6046    0.0000 </r>
       <r>    1.6317    0.0000 </r>
       <r>    1.7513    0.0000 </r>
      </set>
      <set comment="kpoint 173">
       <r>   -9.4098    1.0000 </r>
       <r>   -3.5730    0.1675 </r>
       <r>   -3.5729    0.1666 </r>
       <r>   -3.5729    0.1666 </r>
       <r>   -0.0690    0.0000 </r>
       <r>    0.2185    0.0000 </r>
       <r>    0.2894    0.0000 </r>
       <r>    0.3898    0.0000 </r>
       <r>    0.4354    0.0000 </r>
       <r>    0.5900    0.0000 </r>
       <r>    0.6339    0.0000 </r>
       <r>    0.7283    0.0000 </r>
       <r>    1.0138    0.0000 </r>
       <r>    1.0610    0.0000 </r>
       <r>    1.1378    0.0000 </r>
       <r>    1.1592    0.0000 </r>
       <r>    1.2239    0.0000 </r>
       <r>    1.2979    0.0000 </r>
       <r>    1.3118    0.0000 </r>
       <r>    1.3877    0.0000 </r>
       <r>    1.4190    0.0000 </r>
       <r>    1.5066    0.0000 </r>
       <r>    1.5457    0.0000 </r>
       <r>    1.6569    0.0000 </r>
      </set>
      <set comment="kpoint 174">
       <r>   -9.4098    1.0000 </r>
       <r>   -3.5730    0.1675 </r>
       <r>   -3.5729    0.1666 </r>
       <r>   -3.5729    0.1666 </r>
       <r>   -0.0508    0.0000 </r>
       <r>    0.2468    0.0000 </r>
       <r>    0.3230    0.0000 </r>
       <r>    0.3667    0.0000 </r>
       <r>    0.4270    0.0000 </r>
       <r>    0.5116    0.0000 </r>
       <r>    0.5494    0.0000 </r>
       <r>    0.6382    0.0000 </r>
       <r>    1.0450    0.0000 </r>
       <r>    1.1747    0.0000 </r>
       <r>    1.1832    0.0000 </r>
       <r>    1.2191    0.0000 </r>
       <r>    1.2991    0.0000 </r>
       <r>    1.3198    0.0000 </r>
       <r>    1.3985    0.0000 </r>
       <r>    1.4248    0.0000 </r>
       <r>    1.4539    0.0000 </r>
       <r>    1.5072    0.0000 </r>
       <r>    1.5703    0.0000 </r>
       <r>    1.5872    0.0000 </r>
      </set>
      <set comment="kpoint 175">
       <r>   -9.4098    1.0000 </r>
       <r>   -3.5730    0.1675 </r>
       <r>   -3.5729    0.1667 </r>
       <r>   -3.5729    0.1666 </r>
       <r>   -0.0377    0.0000 </r>
       <r>    0.2722    0.0000 </r>
       <r>    0.3259    0.0000 </r>
       <r>    0.3595    0.0000 </r>
       <r>    0.4557    0.0000 </r>
       <r>    0.4755    0.0000 </r>
       <r>    0.4905    0.0000 </r>
       <r>    0.5674    0.0000 </r>
       <r>    1.0725    0.0000 </r>
       <r>    1.2085    0.0000 </r>
       <r>    1.2162    0.0000 </r>
       <r>    1.2321    0.0000 </r>
       <r>    1.3429    0.0000 </r>
       <r>    1.3647    0.0000 </r>
       <r>    1.3773    0.0000 </r>
       <r>    1.4438    0.0000 </r>
       <r>    1.4972    0.0000 </r>
       <r>    1.5801    0.0000 </r>
       <r>    1.6087    0.0000 </r>
       <r>    1.6691    0.0000 </r>
      </set>
     </set>
    </set>
   </array>
  </eigenvalues>
  <separator name="orbital magnetization" >
   <v name="MAGDIPOLOUT">      0.00000000      0.00000000      0.00000000</v>
  </separator>
  <dos>
   <i name="efermi">     -3.60712232 </i>
   <total>
    <array>
     <dimension dim="1">gridpoints</dimension>
     <dimension dim="2">spin</dimension>
     <field>energy</field>
     <field>total</field>
     <field>integrated</field>
     <set>
      <set comment="spin 1">
       <r>    -9.9768     0.0000     0.0000 </r>
       <r>    -9.9352     0.0000     0.0000 </r>
       <r>    -9.8937     0.0000     0.0000 </r>
       <r>    -9.8521     0.0000     0.0000 </r>
       <r>    -9.8105     0.0000     0.0000 </r>
       <r>    -9.7689     0.0000     0.0000 </r>
       <r>    -9.7273     0.0000     0.0000 </r>
       <r>    -9.6858     0.0000     0.0000 </r>
       <r>    -9.6442     0.0000     0.0000 </r>
       <r>    -9.6026     0.0000     0.0000 </r>
       <r>    -9.5610     0.0005     0.0000 </r>
       <r>    -9.5194     0.0460     0.0019 </r>
       <r>    -9.4779     1.2594     0.0543 </r>
       <r>    -9.4363     9.6180     0.4542 </r>
       <r>    -9.3947    21.0890     1.3311 </r>
       <r>    -9.3531    13.4712     1.8912 </r>
       <r>    -9.3115     2.4854     1.9946 </r>
       <r>    -9.2700     0.1290     1.9999 </r>
       <r>    -9.2284     0.0018     2.0000 </r>
       <r>    -9.1868     0.0000     2.0000 </r>
       <r>    -9.1452     0.0000     2.0000 </r>
       <r>    -9.1037     0.0000     2.0000 </r>
       <r>    -9.0621     0.0000     2.0000 </r>
       <r>    -9.0205     0.0000     2.0000 </r>
       <r>    -8.9789     0.0000     2.0000 </r>
       <r>    -8.9373     0.0000     2.0000 </r>
       <r>    -8.8958     0.0000     2.0000 </r>
       <r>    -8.8542     0.0000     2.0000 </r>
       <r>    -8.8126     0.0000     2.0000 </r>
       <r>    -8.7710     0.0000     2.0000 </r>
       <r>    -8.7294     0.0000     2.0000 </r>
       <r>    -8.6879     0.0000     2.0000 </r>
       <r>    -8.6463     0.0000     2.0000 </r>
       <r>    -8.6047     0.0000     2.0000 </r>
       <r>    -8.5631     0.0000     2.0000 </r>
       <r>    -8.5215     0.0000     2.0000 </r>
       <r>    -8.4800     0.0000     2.0000 </r>
       <r>    -8.4384     0.0000     2.0000 </r>
       <r>    -8.3968     0.0000     2.0000 </r>
       <r>    -8.3552     0.0000     2.0000 </r>
       <r>    -8.3136     0.0000     2.0000 </r>
       <r>    -8.2721     0.0000     2.0000 </r>
       <r>    -8.2305     0.0000     2.0000 </r>
       <r>    -8.1889     0.0000     2.0000 </r>
       <r>    -8.1473     0.0000     2.0000 </r>
       <r>    -8.1057     0.0000     2.0000 </r>
       <r>    -8.0642     0.0000     2.0000 </r>
       <r>    -8.0226     0.0000     2.0000 </r>
       <r>    -7.9810     0.0000     2.0000 </r>
       <r>    -7.9394     0.0000     2.0000 </r>
       <r>    -7.8978     0.0000     2.0000 </r>
       <r>    -7.8563     0.0000     2.0000 </r>
       <r>    -7.8147     0.0000     2.0000 </r>
       <r>    -7.7731     0.0000     2.0000 </r>
       <r>    -7.7315     0.0000     2.0000 </r>
       <r>    -7.6899     0.0000     2.0000 </r>
       <r>    -7.6484     0.0000     2.0000 </r>
       <r>    -7.6068     0.0000     2.0000 </r>
       <r>    -7.5652     0.0000     2.0000 </r>
       <r>    -7.5236     0.0000     2.0000 </r>
       <r>    -7.4820     0.0000     2.0000 </r>
       <r>    -7.4405     0.0000     2.0000 </r>
       <r>    -7.3989     0.0000     2.0000 </r>
       <r>    -7.3573     0.0000     2.0000 </r>
       <r>    -7.3157     0.0000     2.0000 </r>
       <r>    -7.2741     0.0000     2.0000 </r>
       <r>    -7.2326     0.0000     2.0000 </r>
       <r>    -7.1910     0.0000     2.0000 </r>
       <r>    -7.1494     0.0000     2.0000 </r>
       <r>    -7.1078     0.0000     2.0000 </r>
       <r>    -7.0662     0.0000     2.0000 </r>
       <r>    -7.0247     0.0000     2.0000 </r>
       <r>    -6.9831     0.0000     2.0000 </r>
       <r>    -6.9415     0.0000     2.0000 </r>
       <r>    -6.8999     0.0000     2.0000 </r>
       <r>    -6.8583     0.0000     2.0000 </r>
       <r>    -6.8168     0.0000     2.0000 </r>
       <r>    -6.7752     0.0000     2.0000 </r>
       <r>    -6.7336     0.0000     2.0000 </r>
       <r>    -6.6920     0.0000     2.0000 </r>
       <r>    -6.6504     0.0000     2.0000 </r>
       <r>    -6.6089     0.0000     2.0000 </r>
       <r>    -6.5673     0.0000     2.0000 </r>
       <r>    -6.5257     0.0000     2.0000 </r>
       <r>    -6.4841     0.0000     2.0000 </r>
       <r>    -6.4425     0.0000     2.0000 </r>
       <r>    -6.4010     0.0000     2.0000 </r>
       <r>    -6.3594     0.0000     2.0000 </r>
       <r>    -6.3178     0.0000     2.0000 </r>
       <r>    -6.2762     0.0000     2.0000 </r>
       <r>    -6.2346     0.0000     2.0000 </r>
       <r>    -6.1931     0.0000     2.0000 </r>
       <r>    -6.1515     0.0000     2.0000 </r>
       <r>    -6.1099     0.0000     2.0000 </r>
       <r>    -6.0683     0.0000     2.0000 </r>
       <r>    -6.0268     0.0000     2.0000 </r>
       <r>    -5.9852     0.0000     2.0000 </r>
       <r>    -5.9436     0.0000     2.0000 </r>
       <r>    -5.9020     0.0000     2.0000 </r>
       <r>    -5.8604     0.0000     2.0000 </r>
       <r>    -5.8189     0.0000     2.0000 </r>
       <r>    -5.7773     0.0000     2.0000 </r>
       <r>    -5.7357     0.0000     2.0000 </r>
       <r>    -5.6941     0.0000     2.0000 </r>
       <r>    -5.6525     0.0000     2.0000 </r>
       <r>    -5.6110     0.0000     2.0000 </r>
       <r>    -5.5694     0.0000     2.0000 </r>
       <r>    -5.5278     0.0000     2.0000 </r>
       <r>    -5.4862     0.0000     2.0000 </r>
       <r>    -5.4446     0.0000     2.0000 </r>
       <r>    -5.4031     0.0000     2.0000 </r>
       <r>    -5.3615     0.0000     2.0000 </r>
       <r>    -5.3199     0.0000     2.0000 </r>
       <r>    -5.2783     0.0000     2.0000 </r>
       <r>    -5.2367     0.0000     2.0000 </r>
       <r>    -5.1952     0.0000     2.0000 </r>
       <r>    -5.1536     0.0000     2.0000 </r>
       <r>    -5.1120     0.0000     2.0000 </r>
       <r>    -5.0704     0.0000     2.0000 </r>
       <r>    -5.0288     0.0000     2.0000 </r>
       <r>    -4.9873     0.0000     2.0000 </r>
       <r>    -4.9457     0.0000     2.0000 </r>
       <r>    -4.9041     0.0000     2.0000 </r>
       <r>    -4.8625     0.0000     2.0000 </r>
       <r>    -4.8209     0.0000     2.0000 </r>
       <r>    -4.7794     0.0000     2.0000 </r>
       <r>    -4.7378     0.0000     2.0000 </r>
       <r>    -4.6962     0.0000     2.0000 </r>
       <r>    -4.6546     0.0000     2.0000 </r>
       <r>    -4.6130     0.0000     2.0000 </r>
       <r>    -4.5715     0.0000     2.0000 </r>
       <r>    -4.5299     0.0000     2.0000 </r>
       <r>    -4.4883     0.0000     2.0000 </r>
       <r>    -4.4467     0.0000     2.0000 </r>
       <r>    -4.4051     0.0000     2.0000 </r>
       <r>    -4.3636     0.0000     2.0000 </r>
       <r>    -4.3220     0.0000     2.0000 </r>
       <r>    -4.2804     0.0000     2.0000 </r>
       <r>    -4.2388     0.0000     2.0000 </r>
       <r>    -4.1972     0.0000     2.0000 </r>
       <r>    -4.1557     0.0000     2.0000 </r>
       <r>    -4.1141     0.0000     2.0000 </r>
       <r>    -4.0725     0.0000     2.0000 </r>
       <r>    -4.0309     0.0000     2.0000 </r>
       <r>    -3.9893     0.0000     2.0000 </r>
       <r>    -3.9478     0.0000     2.0000 </r>
       <r>    -3.9062     0.0000     2.0000 </r>
       <r>    -3.8646     0.0000     2.0000 </r>
       <r>    -3.8230     0.0000     2.0000 </r>
       <r>    -3.7814     0.0000     2.0000 </r>
       <r>    -3.7399     0.0002     2.0000 </r>
       <r>    -3.6983     0.0281     2.0012 </r>
       <r>    -3.6567     1.2557     2.0534 </r>
       <r>    -3.6151    15.4948     2.6977 </r>
       <r>    -3.5735    54.3494     4.9575 </r>
       <r>    -3.5320    55.3701     7.2598 </r>
       <r>    -3.4904    16.3903     7.9413 </r>
       <r>    -3.4488     1.3803     7.9987 </r>
       <r>    -3.4072     0.0321     8.0000 </r>
       <r>    -3.3656     0.0002     8.0000 </r>
       <r>    -3.3241     0.0000     8.0000 </r>
       <r>    -3.2825     0.0000     8.0000 </r>
       <r>    -3.2409     0.0000     8.0000 </r>
       <r>    -3.1993     0.0000     8.0000 </r>
       <r>    -3.1577     0.0000     8.0000 </r>
       <r>    -3.1162     0.0000     8.0000 </r>
       <r>    -3.0746     0.0000     8.0000 </r>
       <r>    -3.0330     0.0000     8.0000 </r>
       <r>    -2.9914     0.0000     8.0000 </r>
       <r>    -2.9499     0.0000     8.0000 </r>
       <r>    -2.9083     0.0000     8.0000 </r>
       <r>    -2.8667     0.0000     8.0000 </r>
       <r>    -2.8251     0.0000     8.0000 </r>
       <r>    -2.7835     0.0000     8.0000 </r>
       <r>    -2.7420     0.0000     8.0000 </r>
       <r>    -2.7004     0.0000     8.0000 </r>
       <r>    -2.6588     0.0000     8.0000 </r>
       <r>    -2.6172     0.0000     8.0000 </r>
       <r>    -2.5756     0.0000     8.0000 </r>
       <r>    -2.5341     0.0000     8.0000 </r>
       <r>    -2.4925     0.0000     8.0000 </r>
       <r>    -2.4509     0.0000     8.0000 </r>
       <r>    -2.4093     0.0000     8.0000 </r>
       <r>    -2.3677     0.0000     8.0000 </r>
       <r>    -2.3262     0.0000     8.0000 </r>
       <r>    -2.2846     0.0000     8.0000 </r>
       <r>    -2.2430     0.0000     8.0000 </r>
       <r>    -2.2014     0.0000     8.0000 </r>
       <r>    -2.1598     0.0000     8.0000 </r>
       <r>    -2.1183     0.0000     8.0000 </r>
       <r>    -2.0767     0.0000     8.0000 </r>
       <r>    -2.0351     0.0000     8.0000 </r>
       <r>    -1.9935     0.0000     8.0000 </r>
       <r>    -1.9519     0.0000     8.0000 </r>
       <r>    -1.9104     0.0000     8.0000 </r>
       <r>    -1.8688     0.0000     8.0000 </r>
       <r>    -1.8272     0.0000     8.0000 </r>
       <r>    -1.7856     0.0000     8.0000 </r>
       <r>    -1.7440     0.0000     8.0000 </r>
       <r>    -1.7025     0.0000     8.0000 </r>
       <r>    -1.6609     0.0000     8.0000 </r>
       <r>    -1.6193     0.0000     8.0000 </r>
       <r>    -1.5777     0.0000     8.0000 </r>
       <r>    -1.5361     0.0000     8.0000 </r>
       <r>    -1.4946     0.0000     8.0000 </r>
       <r>    -1.4530     0.0000     8.0000 </r>
       <r>    -1.4114     0.0000     8.0000 </r>
       <r>    -1.3698     0.0000     8.0000 </r>
       <r>    -1.3282     0.0000     8.0000 </r>
       <r>    -1.2867     0.0000     8.0000 </r>
       <r>    -1.2451     0.0000     8.0000 </r>
       <r>    -1.2035     0.0000     8.0000 </r>
       <r>    -1.1619     0.0000     8.0000 </r>
       <r>    -1.1203     0.0000     8.0000 </r>
       <r>    -1.0788     0.0000     8.0000 </r>
       <r>    -1.0372     0.0000     8.0000 </r>
       <r>    -0.9956     0.0000     8.0000 </r>
       <r>    -0.9540     0.0000     8.0000 </r>
       <r>    -0.9124     0.0000     8.0000 </r>
       <r>    -0.8709     0.0000     8.0000 </r>
       <r>    -0.8293     0.0000     8.0000 </r>
       <r>    -0.7877     0.0000     8.0000 </r>
       <r>    -0.7461     0.0000     8.0000 </r>
       <r>    -0.7045     0.0000     8.0000 </r>
       <r>    -0.6630     0.0000     8.0000 </r>
       <r>    -0.6214     0.0000     8.0000 </r>
       <r>    -0.5798     0.0000     8.0000 </r>
       <r>    -0.5382     0.0000     8.0000 </r>
       <r>    -0.4966     0.0000     8.0000 </r>
       <r>    -0.4551     0.0000     8.0000 </r>
       <r>    -0.4135     0.0000     8.0000 </r>
       <r>    -0.3719     0.0010     8.0000 </r>
       <r>    -0.3303     0.0430     8.0018 </r>
       <r>    -0.2887     0.6144     8.0274 </r>
       <r>    -0.2472     3.3010     8.1646 </r>
       <r>    -0.2056     7.9697     8.4960 </r>
       <r>    -0.1640    10.7524     8.9431 </r>
       <r>    -0.1224    10.3097     9.3718 </r>
       <r>    -0.0808     8.3280     9.7180 </r>
       <r>    -0.0393     4.9272     9.9229 </r>
       <r>     0.0023     1.6505     9.9915 </r>
       <r>     0.0439     0.6809    10.0199 </r>
       <r>     0.0855     2.2507    10.1134 </r>
       <r>     0.1270     5.9976    10.3628 </r>
       <r>     0.1686    10.5989    10.8035 </r>
       <r>     0.2102    14.1145    11.3904 </r>
       <r>     0.2518    15.6294    12.0403 </r>
       <r>     0.2934    15.7620    12.6956 </r>
       <r>     0.3349    15.9113    13.3572 </r>
       <r>     0.3765    16.1928    14.0305 </r>
       <r>     0.4181    16.5169    14.7173 </r>
       <r>     0.4597    17.6123    15.4496 </r>
       <r>     0.5013    18.4702    16.2176 </r>
       <r>     0.5428    18.4558    16.9850 </r>
       <r>     0.5844    18.9943    17.7748 </r>
       <r>     0.6260    19.8974    18.6021 </r>
       <r>     0.6676    20.3503    19.4482 </r>
       <r>     0.7092    21.0223    20.3223 </r>
       <r>     0.7507    22.4266    21.2548 </r>
       <r>     0.7923    22.3454    22.1839 </r>
       <r>     0.8339    21.8621    23.0930 </r>
       <r>     0.8755    23.3706    24.0647 </r>
       <r>     0.9171    24.5079    25.0837 </r>
       <r>     0.9586    24.1851    26.0894 </r>
       <r>     1.0002    24.8671    27.1233 </r>
       <r>     1.0418    25.8832    28.1995 </r>
       <r>     1.0834    25.9678    29.2793 </r>
       <r>     1.1250    26.0432    30.3621 </r>
       <r>     1.1665    26.8203    31.4773 </r>
       <r>     1.2081    27.6865    32.6285 </r>
       <r>     1.2497    27.2682    33.7623 </r>
       <r>     1.2913    27.4673    34.9044 </r>
       <r>     1.3329    28.5294    36.0907 </r>
       <r>     1.3744    28.5565    37.2780 </r>
       <r>     1.4160    28.2765    38.4538 </r>
       <r>     1.4576    29.3259    39.6731 </r>
       <r>     1.4992    30.8582    40.9562 </r>
       <r>     1.5408    29.9650    42.2021 </r>
       <r>     1.5823    29.5380    43.4303 </r>
       <r>     1.6239    30.0430    44.6795 </r>
       <r>     1.6655    27.6223    45.8280 </r>
       <r>     1.7071    21.1267    46.7065 </r>
       <r>     1.7487    13.9845    47.2879 </r>
       <r>     1.7902     8.2804    47.6322 </r>
       <r>     1.8318     4.7748    47.8308 </r>
       <r>     1.8734     2.5615    47.9373 </r>
       <r>     1.9150     1.0847    47.9824 </r>
       <r>     1.9566     0.3441    47.9967 </r>
       <r>     1.9981     0.0726    47.9997 </r>
       <r>     2.0397     0.0070    48.0000 </r>
       <r>     2.0813     0.0002    48.0000 </r>
       <r>     2.1229     0.0000    48.0000 </r>
       <r>     2.1645     0.0000    48.0000 </r>
       <r>     2.2060     0.0000    48.0000 </r>
       <r>     2.2476     0.0000    48.0000 </r>
       <r>     2.2892     0.0000    48.0000 </r>
       <r>     2.3308     0.0000    48.0000 </r>
       <r>     2.3724     0.0000    48.0000 </r>
       <r>     2.4139     0.0000    48.0000 </r>
       <r>     2.4555     0.0000    48.0000 </r>
       <r>     2.4971     0.0000    48.0000 </r>
      </set>
     </set>
    </array>
   </total>
  </dos>
 </calculation>
 <structure name="finalpos" >
  <crystal>
   <varray name="basis" >
    <v>      14.98800000       0.00000000       0.00000000 </v>
    <v>       0.00000000      12.49000000       0.00000000 </v>
    <v>       0.00000000       0.00000000      17.98560000 </v>
   </varray>
   <i name="volume">   3366.90647827 </i>
   <varray name="rec_basis" >
    <v>       0.06672004       0.00000000       0.00000000 </v>
    <v>       0.00000000       0.08006405       0.00000000 </v>
    <v>       0.00000000       0.00000000       0.05560004 </v>
   </varray>
  </crystal>
  <varray name="positions" >
   <v>       0.52123000       0.54500000       0.63796000 </v>
  </varray>
 </structure>
</modeling>
