   14   14    1    1
  0.1021960E+02  0.5697000E-09  0.4047900E-09  0.6204200E-09  0.5000000E-15
  1.000000000000000E-004
  CAR 
 Kpoints                                 
     42   1260     48
 
  0.0000000E+00  0.0000000E+00  0.0000000E+00  0.1146657E-03
      1        -12.733197   1.000000
      2        -11.576203   1.000000
      3         -8.662174   1.000000
      4         -8.424896   1.000000
      5         -6.077534   1.000000
      6         -5.059530   1.000000
      7         -4.638432   1.000000
      8         -4.349698   1.000000
      9         -3.973621   1.000000
     10         -3.598801   1.000000
     11         -2.422063   1.000000
     12         -2.242677   1.000000
     13         -2.183435   1.000000
     14         -1.053067   1.000000
     15         -0.037565   1.000000
     16         -0.003712   1.000000
     17          0.149252   1.000000
     18          0.172800   1.000000
     19          0.564439   1.000000
     20          2.079369   0.000000
     21          2.125574   0.000000
     22          2.214415   0.000000
     23          5.411215   0.000000
     24          5.801324   0.000000
     25          5.816926   0.000000
     26          5.910262   0.000000
     27          6.785463   0.000000
     28          7.672383   0.000000
     29          7.700865   0.000000
     30          8.633851   0.000000
     31          8.752367   0.000000
     32          8.852750   0.000000
     33          9.040448   0.000000
     34         10.029228   0.000000
     35         11.144146   0.000000
     36         11.399077   0.000000
     37         11.768970   0.000000
     38         11.801664   0.000000
     39         11.898789   0.000000
     40         12.354194   0.000000
     41         12.804279   0.000000
     42         13.394209   0.000000
     43         13.573170   0.000000
     44         15.554040   0.000000
     45         15.567191   0.000000
     46         15.941501   0.000000
     47         16.357924   0.000000
     48         16.598233   0.000000
 
  0.5263158E-01  0.0000000E+00  0.0000000E+00  0.2293315E-03
      1        -12.727099   1.000000
      2        -11.586841   1.000000
      3         -8.659354   1.000000
      4         -8.423084   1.000000
      5         -6.064695   1.000000
      6         -5.141515   1.000000
      7         -4.670266   1.000000
      8         -4.252940   1.000000
      9         -3.965077   1.000000
     10         -3.539629   1.000000
     11         -2.419442   1.000000
     12         -2.244387   1.000000
     13         -2.203409   1.000000
     14         -1.099181   1.000000
     15         -0.031461   1.000000
     16          0.006478   1.000000
     17          0.154046   1.000000
     18          0.156399   1.000000
     19          0.550396   1.000000
     20          2.066409   0.000000
     21          2.114118   0.000000
     22          2.197936   0.000000
     23          5.425103   0.000000
     24          5.793375   0.000000
     25          5.796806   0.000000
     26          5.991549   0.000000
     27          6.772197   0.000000
     28          7.496787   0.000000
     29          7.846436   0.000000
     30          8.654151   0.000000
     31          8.808057   0.000000
     32          8.889633   0.000000
     33          9.043351   0.000000
     34         10.047546   0.000000
     35         11.154443   0.000000
     36         11.339280   0.000000
     37         11.664344   0.000000
     38         11.766097   0.000000
     39         11.931557   0.000000
     40         12.366368   0.000000
     41         12.873899   0.000000
     42         13.503091   0.000000
     43         13.515860   0.000000
     44         15.362449   0.000000
     45         15.601852   0.000000
     46         16.079666   0.000000
     47         16.344696   0.000000
     48         16.373815   0.000000
 
  0.1052632E+00  0.0000000E+00  0.0000000E+00  0.2293315E-03
      1        -12.708851   1.000000
      2        -11.618108   1.000000
      3         -8.650714   1.000000
      4         -8.417965   1.000000
      5         -6.031322   1.000000
      6         -5.313827   1.000000
      7         -4.739139   1.000000
      8         -4.036658   1.000000
      9         -3.939499   1.000000
     10         -3.384858   1.000000
     11         -2.411477   1.000000
     12         -2.261257   1.000000
     13         -2.249465   1.000000
     14         -1.231835   1.000000
     15         -0.013369   1.000000
     16          0.035475   1.000000
     17          0.098641   1.000000
     18          0.175784   1.000000
     19          0.508881   1.000000
     20          2.028765   0.000010
     21          2.080773   0.000000
     22          2.148410   0.000000
     23          5.463947   0.000000
     24          5.771555   0.000000
     25          5.814073   0.000000
     26          6.155854   0.000000
     27          6.734576   0.000000
     28          7.299536   0.000000
     29          7.968748   0.000000
     30          8.712032   0.000000
     31          8.957260   0.000000
     32          8.994891   0.000000
     33          9.050446   0.000000
     34         10.103783   0.000000
     35         11.168417   0.000000
     36         11.185768   0.000000
     37         11.409833   0.000000
     38         11.703253   0.000000
     39         12.026699   0.000000
     40         12.402490   0.000000
     41         13.024020   0.000000
     42         13.356709   0.000000
     43         13.770900   0.000000
     44         15.058702   0.000000
     45         15.695323   0.000000
     46         16.063141   0.000000
     47         16.245766   0.000000
     48         16.419935   0.000000
 
  0.1578947E+00  0.0000000E+00  0.0000000E+00  0.2293315E-03
      1        -12.678671   1.000000
      2        -11.668186   1.000000
      3         -8.635916   1.000000
      4         -8.410504   1.000000
      5         -5.992894   1.000000
      6         -5.502568   1.000000
      7         -4.795089   1.000000
      8         -3.897108   1.000000
      9         -3.776256   1.000000
     10         -3.172795   1.000000
     11         -2.397864   1.000000
     12         -2.351510   1.000000
     13         -2.257766   1.000000
     14         -1.436343   1.000000
     15          0.009037   1.000000
     16          0.015990   1.000000
     17          0.079140   1.000000
     18          0.196106   1.000000
     19          0.448596   1.000000
     20          1.970117   0.004497
     21          2.028363   0.000010
     22          2.065917   0.000000
     23          5.520250   0.000000
     24          5.741427   0.000000
     25          5.896767   0.000000
     26          6.369372   0.000000
     27          6.678442   0.000000
     28          7.113537   0.000000
     29          8.065704   0.000000
     30          8.797171   0.000000
     31          9.030817   0.000000
     32          9.162059   0.000000
     33          9.179906   0.000000
     34         10.203902   0.000000
     35         10.908419   0.000000
     36         11.092364   0.000000
     37         11.237907   0.000000
     38         11.677973   0.000000
     39         12.167350   0.000000
     40         12.468854   0.000000
     41         13.122784   0.000000
     42         13.133396   0.000000
     43         14.114042   0.000000
     44         14.819417   0.000000
     45         15.757512   0.000000
     46         15.826566   0.000000
     47         16.320621   0.000000
     48         16.492188   0.000000
 
  0.2105263E+00  0.0000000E+00  0.0000000E+00  0.2293315E-03
      1        -12.636917   1.000000
      2        -11.734336   1.000000
      3         -8.614787   1.000000
      4         -8.402306   1.000000
      5         -5.971626   1.000000
      6         -5.680916   1.000000
      7         -4.795170   1.000000
      8         -3.838274   1.000000
      9         -3.502105   1.000000
     10         -2.930413   1.000000
     11         -2.466909   1.000000
     12         -2.378102   1.000000
     13         -2.268918   1.000000
     14         -1.693433   1.000000
     15         -0.110814   1.000000
     16          0.055276   1.000000
     17          0.131840   1.000000
     18          0.172396   1.000000
     19          0.413827   1.000000
     20          1.896459   0.298412
     21          1.951900   0.017994
     22          1.961196   0.009138
     23          5.584035   0.000000
     24          5.710576   0.000000
     25          6.046028   0.000000
     26          6.612041   0.000000
     27          6.621814   0.000000
     28          6.949703   0.000000
     29          8.148923   0.000000
     30          8.886895   0.000000
     31          8.995647   0.000000
     32          9.391824   0.000000
     33          9.407176   0.000000
     34         10.360575   0.000000
     35         10.583561   0.000000
     36         10.773289   0.000000
     37         11.305046   0.000000
     38         11.722564   0.000000
     39         12.302850   0.000000
     40         12.600811   0.000000
     41         12.839526   0.000000
     42         13.079308   0.000000
     43         14.487165   0.000000
     44         14.746844   0.000000
     45         15.441433   0.000000
     46         15.977844   0.000000
     47         16.216044   0.000000
     48         16.490244   0.000000
 
  0.2631579E+00  0.0000000E+00  0.0000000E+00  0.2293315E-03
      1        -12.584121   1.000000
      2        -11.813241   1.000000
      3         -8.587679   1.000000
      4         -8.395483   1.000000
      5         -5.983255   1.000000
      6         -5.837805   1.000000
      7         -4.714727   1.000000
      8         -3.763525   1.000000
      9         -3.233856   1.000000
     10         -2.675904   1.000000
     11         -2.599928   1.000000
     12         -2.353291   1.000000
     13         -2.281613   1.000000
     14         -1.978666   1.000000
     15         -0.255188   1.000000
     16          0.058175   1.000000
     17          0.102435   1.000000
     18          0.187387   1.000000
     19          0.454051   1.000000
     20          1.810202   0.971983
     21          1.815784   0.960189
     22          1.884798   0.421079
     23          5.645131   0.000000
     24          5.686355   0.000000
     25          6.257678   0.000000
     26          6.544907   0.000000
     27          6.811373   0.000000
     28          6.905940   0.000000
     29          8.223475   0.000000
     30          8.929680   0.000000
     31          8.935116   0.000000
     32          9.633053   0.000000
     33          9.667774   0.000000
     34         10.213019   0.000000
     35         10.517049   0.000000
     36         10.588987   0.000000
     37         11.369685   0.000000
     38         11.840997   0.000000
     39         12.390068   0.000000
     40         12.525668   0.000000
     41         12.823677   0.000000
     42         12.841385   0.000000
     43         14.831911   0.000000
     44         14.868028   0.000000
     45         15.128749   0.000000
     46         15.966626   0.000000
     47         16.094716   0.000000
     48         16.136353   0.000000
 
  0.3157895E+00  0.0000000E+00  0.0000000E+00  0.2293315E-03
      1        -12.520978   1.000000
      2        -11.901337   1.000000
      3         -8.555694   1.000000
      4         -8.392449   1.000000
      5         -6.023993   1.000000
      6         -5.966974   1.000000
      7         -4.554400   1.000000
      8         -3.673609   1.000000
      9         -3.002907   1.000000
     10         -2.743697   1.000000
     11         -2.434638   1.000000
     12         -2.372127   1.000000
     13         -2.284800   1.000000
     14         -2.207555   1.000000
     15         -0.415257   1.000000
     16         -0.112477   1.000000
     17          0.154464   1.000000
     18          0.239262   1.000000
     19          0.541887   1.000000
     20          1.647237   1.000000
     21          1.737454   0.999964
     22          1.805593   0.979381
     23          5.673872   0.000000
     24          5.694484   0.000000
     25          6.486970   0.000000
     26          6.524750   0.000000
     27          6.697518   0.000000
     28          7.215989   0.000000
     29          8.291113   0.000000
     30          8.841585   0.000000
     31          8.869790   0.000000
     32          9.818767   0.000000
     33          9.883737   0.000000
     34          9.936345   0.000000
     35         10.397577   0.000000
     36         10.897106   0.000000
     37         11.403737   0.000000
     38         12.021880   0.000000
     39         12.194506   0.000000
     40         12.455668   0.000000
     41         12.502450   0.000000
     42         13.082206   0.000000
     43         14.840262   0.000000
     44         14.954263   0.000000
     45         15.243186   0.000000
     46         15.601895   0.000000
     47         15.658755   0.000000
     48         16.288517   0.000000
 
  0.3684211E+00  0.0000000E+00  0.0000000E+00  0.2293315E-03
      1        -12.448403   1.000000
      2        -11.995116   1.000000
      3         -8.520764   1.000000
      4         -8.395551   1.000000
      5         -6.076765   1.000000
      6         -6.064342   1.000000
      7         -4.330647   1.000000
      8         -3.569485   1.000000
      9         -2.920314   1.000000
     10         -2.892346   1.000000
     11         -2.525777   1.000000
     12         -2.349225   1.000000
     13         -2.177419   1.000000
     14         -2.154479   1.000000
     15         -0.575193   1.000000
     16         -0.308269   1.000000
     17          0.207129   1.000000
     18          0.280750   1.000000
     19          0.656859   1.000000
     20          1.471215   1.000000
     21          1.671478   1.000000
     22          1.730811   0.999984
     23          5.674843   0.000000
     24          5.725208   0.000000
     25          6.447505   0.000000
     26          6.605477   0.000000
     27          6.838646   0.000000
     28          7.547363   0.000000
     29          8.354253   0.000000
     30          8.652755   0.000000
     31          8.744197   0.000000
     32          9.419027   0.000000
     33         10.142820   0.000000
     34         10.191913   0.000000
     35         10.450727   0.000000
     36         11.275479   0.000000
     37         11.386406   0.000000
     38         11.856278   0.000000
     39         12.129600   0.000000
     40         12.253119   0.000000
     41         12.509748   0.000000
     42         13.288428   0.000000
     43         14.617740   0.000000
     44         15.012970   0.000000
     45         15.136141   0.000000
     46         15.333752   0.000000
     47         15.601638   0.000000
     48         16.412109   0.000000
 
  0.4210526E+00  0.0000000E+00  0.0000000E+00  0.2293315E-03
      1        -12.367555   1.000000
      2        -12.091334   1.000000
      3         -8.485526   1.000000
      4         -8.406514   1.000000
      5         -6.127620   1.000000
      6         -6.124290   1.000000
      7         -4.061433   1.000000
      8         -3.452387   1.000000
      9         -3.134016   1.000000
     10         -3.041060   1.000000
     11         -2.503846   1.000000
     12         -2.367789   1.000000
     13         -2.058431   1.000000
     14         -1.975274   1.000000
     15         -0.703550   1.000000
     16         -0.505504   1.000000
     17          0.254820   1.000000
     18          0.305481   1.000000
     19          0.792677   1.000000
     20          1.290741   1.000000
     21          1.627253   1.000000
     22          1.668369   1.000000
     23          5.687501   0.000000
     24          5.734527   0.000000
     25          6.432831   0.000000
     26          6.532806   0.000000
     27          7.189518   0.000000
     28          7.896386   0.000000
     29          8.327277   0.000000
     30          8.417090   0.000000
     31          8.648541   0.000000
     32          9.023506   0.000000
     33         10.395128   0.000000
     34         10.416303   0.000000
     35         10.634589   0.000000
     36         11.331420   0.000000
     37         11.520026   0.000000
     38         11.682416   0.000000
     39         11.783234   0.000000
     40         12.509459   0.000000
     41         12.513627   0.000000
     42         13.311197   0.000000
     43         14.539870   0.000000
     44         14.815518   0.000000
     45         14.971904   0.000000
     46         15.027084   0.000000
     47         15.930781   0.000000
     48         16.467418   0.000000
 
  0.4736842E+00  0.0000000E+00  0.0000000E+00  0.2293315E-03
      1        -12.279867   1.000000
      2        -12.187089   1.000000
      3         -8.452955   1.000000
      4         -8.425923   1.000000
      5         -6.156636   1.000000
      6         -6.153776   1.000000
      7         -3.761636   1.000000
      8         -3.445108   1.000000
      9         -3.323875   1.000000
     10         -3.185932   1.000000
     11         -2.444149   1.000000
     12         -2.399920   1.000000
     13         -1.935173   1.000000
     14         -1.890729   1.000000
     15         -0.746911   1.000000
     16         -0.669577   1.000000
     17          0.290904   1.000000
     18          0.309051   1.000000
     19          0.946055   1.000000
     20          1.113614   1.000000
     21          1.611550   1.000000
     22          1.626343   1.000000
     23          5.706997   0.000000
     24          5.725749   0.000000
     25          6.444161   0.000000
     26          6.478597   0.000000
     27          7.565743   0.000000
     28          7.952419   0.000000
     29          8.260200   0.000000
     30          8.484723   0.000000
     31          8.561330   0.000000
     32          8.636534   0.000000
     33         10.573588   0.000000
     34         10.576453   0.000000
     35         10.893874   0.000000
     36         11.195228   0.000000
     37         11.316649   0.000000
     38         11.469501   0.000000
     39         12.092729   0.000000
     40         12.381588   0.000000
     41         12.802432   0.000000
     42         13.101347   0.000000
     43         14.621235   0.000000
     44         14.736902   0.000000
     45         14.779291   0.000000
     46         14.851446   0.000000
     47         16.210445   0.000000
     48         16.403393   0.000000
 
  0.0000000E+00  0.3703704E-01  0.0000000E+00  0.2293315E-03
      1        -12.729889   1.000000
      2        -11.573224   1.000000
      3         -8.659571   1.000000
      4         -8.421693   1.000000
      5         -6.073865   1.000000
      6         -5.054400   1.000000
      7         -4.635388   1.000000
      8         -4.359194   1.000000
      9         -4.049585   1.000000
     10         -3.595365   1.000000
     11         -2.601112   1.000000
     12         -2.324112   1.000000
     13         -1.810000   1.000000
     14         -1.052431   1.000000
     15         -0.077848   1.000000
     16         -0.051234   1.000000
     17          0.151687   1.000000
     18          0.195397   1.000000
     19          0.580569   1.000000
     20          2.026861   0.000012
     21          2.088307   0.000000
     22          2.235177   0.000000
     23          5.447121   0.000000
     24          5.759198   0.000000
     25          5.860531   0.000000
     26          5.877237   0.000000
     27          6.828187   0.000000
     28          7.727942   0.000000
     29          7.728968   0.000000
     30          8.508771   0.000000
     31          8.752124   0.000000
     32          8.920572   0.000000
     33          9.048645   0.000000
     34         10.115058   0.000000
     35         11.177800   0.000000
     36         11.387444   0.000000
     37         11.757787   0.000000
     38         11.817015   0.000000
     39         11.912906   0.000000
     40         12.394101   0.000000
     41         12.805809   0.000000
     42         13.348441   0.000000
     43         13.525859   0.000000
     44         15.538283   0.000000
     45         15.548816   0.000000
     46         15.952946   0.000000
     47         16.331426   0.000000
     48         16.483102   0.000000
 
  0.5263158E-01  0.3703704E-01  0.0000000E+00  0.4586630E-03
      1        -12.723786   1.000000
      2        -11.583858   1.000000
      3         -8.656745   1.000000
      4         -8.419881   1.000000
      5         -6.060989   1.000000
      6         -5.136787   1.000000
      7         -4.667244   1.000000
      8         -4.266798   1.000000
      9         -4.036403   1.000000
     10         -3.536247   1.000000
     11         -2.610617   1.000000
     12         -2.321356   1.000000
     13         -1.822640   1.000000
     14         -1.098536   1.000000
     15         -0.071899   1.000000
     16         -0.042481   1.000000
     17          0.159043   1.000000
     18          0.178542   1.000000
     19          0.566488   1.000000
     20          2.014235   0.000057
     21          2.076882   0.000000
     22          2.218294   0.000000
     23          5.461276   0.000000
     24          5.746662   0.000000
     25          5.839028   0.000000
     26          5.964258   0.000000
     27          6.814976   0.000000
     28          7.540434   0.000000
     29          7.886389   0.000000
     30          8.530137   0.000000
     31          8.808521   0.000000
     32          8.956900   0.000000
     33          9.052845   0.000000
     34         10.129619   0.000000
     35         11.187732   0.000000
     36         11.327727   0.000000
     37         11.654133   0.000000
     38         11.780132   0.000000
     39         11.945794   0.000000
     40         12.406118   0.000000
     41         12.875679   0.000000
     42         13.458008   0.000000
     43         13.468839   0.000000
     44         15.367872   0.000000
     45         15.571629   0.000000
     46         16.067403   0.000000
     47         16.315958   0.000000
     48         16.355883   0.000000
 
  0.1052632E+00  0.3703704E-01  0.0000000E+00  0.4586630E-03
      1        -12.705540   1.000000
      2        -11.615115   1.000000
      3         -8.648096   1.000000
      4         -8.414781   1.000000
      5         -6.027516   1.000000
      6         -5.309483   1.000000
      7         -4.736225   1.000000
      8         -4.093422   1.000000
      9         -3.967955   1.000000
     10         -3.381704   1.000000
     11         -2.639434   1.000000
     12         -2.313025   1.000000
     13         -1.857916   1.000000
     14         -1.231159   1.000000
     15         -0.054607   1.000000
     16         -0.021798   1.000000
     17          0.132649   1.000000
     18          0.179339   1.000000
     19          0.524811   1.000000
     20          1.977385   0.002417
     21          2.043574   0.000001
     22          2.167680   0.000000
     23          5.500807   0.000000
     24          5.753807   0.000000
     25          5.828639   0.000000
     26          6.126332   0.000000
     27          6.777464   0.000000
     28          7.345009   0.000000
     29          8.007218   0.000000
     30          8.590682   0.000000
     31          8.959278   0.000000
     32          9.057521   0.000000
     33          9.067390   0.000000
     34         10.174244   0.000000
     35         11.157034   0.000000
     36         11.217971   0.000000
     37         11.398170   0.000000
     38         11.720446   0.000000
     39         12.041139   0.000000
     40         12.441763   0.000000
     41         13.026649   0.000000
     42         13.310403   0.000000
     43         13.724374   0.000000
     44         15.073238   0.000000
     45         15.660311   0.000000
     46         16.055856   0.000000
     47         16.184941   0.000000
     48         16.430921   0.000000
 
  0.1578947E+00  0.3703704E-01  0.0000000E+00  0.4586630E-03
      1        -12.675366   1.000000
      2        -11.665180   1.000000
      3         -8.633285   1.000000
      4         -8.407360   1.000000
      5         -5.988917   1.000000
      6         -5.498354   1.000000
      7         -4.792373   1.000000
      8         -4.007298   1.000000
      9         -3.751744   1.000000
     10         -3.170480   1.000000
     11         -2.687864   1.000000
     12         -2.298932   1.000000
     13         -1.909058   1.000000
     14         -1.435567   1.000000
     15         -0.027788   1.000000
     16         -0.026500   1.000000
     17          0.092937   1.000000
     18          0.203212   1.000000
     19          0.463372   1.000000
     20          1.919490   0.118923
     21          1.991218   0.000666
     22          2.083967   0.000000
     23          5.558001   0.000000
     24          5.755880   0.000000
     25          5.879926   0.000000
     26          6.336899   0.000000
     27          6.721490   0.000000
     28          7.162754   0.000000
     29          8.102572   0.000000
     30          8.678834   0.000000
     31          9.058774   0.000000
     32          9.165462   0.000000
     33          9.237654   0.000000
     34         10.254093   0.000000
     35         10.897560   0.000000
     36         11.080419   0.000000
     37         11.268261   0.000000
     38         11.701864   0.000000
     39         12.182509   0.000000
     40         12.506798   0.000000
     41         13.077710   0.000000
     42         13.137393   0.000000
     43         14.058171   0.000000
     44         14.846828   0.000000
     45         15.735668   0.000000
     46         15.813640   0.000000
     47         16.219556   0.000000
     48         16.526897   0.000000
 
  0.2105263E+00  0.3703704E-01  0.0000000E+00  0.4586630E-03
      1        -12.633627   1.000000
      2        -11.731313   1.000000
      3         -8.612140   1.000000
      4         -8.399214   1.000000
      5         -5.967441   1.000000
      6         -5.676718   1.000000
      7         -4.792703   1.000000
      8         -3.943665   1.000000
      9         -3.482831   1.000000
     10         -2.933971   1.000000
     11         -2.751556   1.000000
     12         -2.278884   1.000000
     13         -1.967919   1.000000
     14         -1.692478   1.000000
     15         -0.117616   1.000000
     16          0.002908   1.000000
     17          0.118388   1.000000
     18          0.193788   1.000000
     19          0.422791   1.000000
     20          1.845512   0.819127
     21          1.924147   0.094743
     22          1.969712   0.004649
     23          5.622580   0.000000
     24          5.732686   0.000000
     25          6.022175   0.000000
     26          6.581859   0.000000
     27          6.655314   0.000000
     28          7.007862   0.000000
     29          8.184519   0.000000
     30          8.770284   0.000000
     31          9.035932   0.000000
     32          9.396108   0.000000
     33          9.462617   0.000000
     34         10.372408   0.000000
     35         10.580553   0.000000
     36         10.768268   0.000000
     37         11.332480   0.000000
     38         11.754676   0.000000
     39         12.321917   0.000000
     40         12.632279   0.000000
     41         12.798314   0.000000
     42         13.084279   0.000000
     43         14.401196   0.000000
     44         14.807403   0.000000
     45         15.453084   0.000000
     46         15.924158   0.000000
     47         16.144100   0.000000
     48         16.501146   0.000000
 
  0.2631579E+00  0.3703704E-01  0.0000000E+00  0.4586630E-03
      1        -12.580844   1.000000
      2        -11.810193   1.000000
      3         -8.585015   1.000000
      4         -8.392442   1.000000
      5         -5.978897   1.000000
      6         -5.833572   1.000000
      7         -4.712484   1.000000
      8         -3.870071   1.000000
      9         -3.213257   1.000000
     10         -2.862594   1.000000
     11         -2.655972   1.000000
     12         -2.255165   1.000000
     13         -2.027744   1.000000
     14         -1.976864   1.000000
     15         -0.254968   1.000000
     16          0.001522   1.000000
     17          0.133460   1.000000
     18          0.168142   1.000000
     19          0.457657   1.000000
     20          1.759227   0.999600
     21          1.833051   0.896971
     22          1.847879   0.800966
     23          5.684070   0.000000
     24          5.711185   0.000000
     25          6.231936   0.000000
     26          6.588523   0.000000
     27          6.790061   0.000000
     28          6.947029   0.000000
     29          8.257941   0.000000
     30          8.819474   0.000000
     31          8.987052   0.000000
     32          9.637905   0.000000
     33          9.715789   0.000000
     34         10.187281   0.000000
     35         10.461147   0.000000
     36         10.653062   0.000000
     37         11.392369   0.000000
     38         11.880791   0.000000
     39         12.413176   0.000000
     40         12.483635   0.000000
     41         12.846925   0.000000
     42         12.855078   0.000000
     43         14.695740   0.000000
     44         14.982149   0.000000
     45         15.150055   0.000000
     46         15.937434   0.000000
     47         15.949426   0.000000
     48         16.250538   0.000000
 
  0.3157895E+00  0.3703704E-01  0.0000000E+00  0.4586630E-03
      1        -12.517721   1.000000
      2        -11.898262   1.000000
      3         -8.553014   1.000000
      4         -8.389474   1.000000
      5         -6.019537   1.000000
      6         -5.962687   1.000000
      7         -4.552313   1.000000
      8         -3.783840   1.000000