       N       E                     dE             d eps       ncg     rms          rms(c)
DAV:   1     0.908762680366E+02    0.90876E+02   -0.21094E+04120960   0.929E+02
