       N       E                     dE             d eps       ncg     rms          rms(c)
DAV:   1     0.908762680366E+02    0.90876E+02   -0.21094E+04120960   0.929E+02
DAV:   2    -0.912449343216E+02   -0.18212E+03   -0.17033E+03165576   0.175E+02
DAV:   3    -0.976042827117E+02   -0.63593E+01   -0.63179E+01178704   0.290E+01
DAV:   4    -0.976420090910E+02   -0.37726E-01   -0.37724E-01142488   0.259E+00
DAV:   5    -0.976424215548E+02   -0.41246E-03   -0.41245E-03178872   0.258E-01    0.123E+01
DAV:   6    -0.922283926442E+02    0.54140E+01   -0.39466E+00175248   0.658E+00    0.680E+00
DAV:   7    -0.905774562390E+02    0.16509E+01   -0.32091E+00180456   0.586E+00    0.172E+00
DAV:   8    -0.905885283131E+02   -0.11072E-01   -0.22956E-01132816   0.165E+00    0.751E-01
DAV:   9    -0.906031966930E+02   -0.14668E-01   -0.17567E-02170496   0.458E-01    0.206E-01
DAV:  10    -0.906075718782E+02   -0.43752E-02   -0.26223E-03133800   0.181E-01    0.665E-02
