Automatically generated mesh
     175
Reciprocal lattice
    0.05000000000000    0.03571428571428    0.00000000000000             4
    0.15000000000000    0.03571428571428    0.00000000000000             4
    0.25000000000000    0.03571428571428    0.00000000000000             4
    0.35000000000000    0.03571428571428    0.00000000000000             4
    0.45000000000000    0.03571428571428    0.00000000000000             4
    0.05000000000000    0.10714285714285    0.00000000000000             4
    0.15000000000000    0.10714285714285    0.00000000000000             4
    0.25000000000000    0.10714285714285    0.00000000000000             4
    0.35000000000000    0.10714285714285    0.00000000000000             4
    0.45000000000000    0.10714285714285    0.00000000000000             4
    0.05000000000000    0.17857142857143    0.00000000000000             4
    0.15000000000000    0.17857142857143    0.00000000000000             4
    0.25000000000000    0.17857142857143    0.00000000000000             4
    0.35000000000000    0.17857142857143    0.00000000000000             4
    0.45000000000000    0.17857142857143    0.00000000000000             4
    0.05000000000000    0.25000000000000    0.00000000000000             4
    0.15000000000000    0.25000000000000    0.00000000000000             4
    0.25000000000000    0.25000000000000    0.00000000000000             4
    0.35000000000000    0.25000000000000    0.00000000000000             4
    0.45000000000000    0.25000000000000    0.00000000000000             4
    0.05000000000000    0.32142857142857    0.00000000000000             4
    0.15000000000000    0.32142857142857    0.00000000000000             4
    0.25000000000000    0.32142857142857    0.00000000000000             4
    0.35000000000000    0.32142857142857    0.00000000000000             4
    0.45000000000000    0.32142857142857    0.00000000000000             4
    0.05000000000000    0.39285714285715    0.00000000000000             4
    0.15000000000000    0.39285714285715    0.00000000000000             4
    0.25000000000000    0.39285714285715    0.00000000000000             4
    0.35000000000000    0.39285714285715    0.00000000000000             4
    0.45000000000000    0.39285714285715    0.00000000000000             4
    0.05000000000000    0.46428571428572    0.00000000000000             4
    0.15000000000000    0.46428571428572    0.00000000000000             4
    0.25000000000000    0.46428571428572    0.00000000000000             4
    0.35000000000000    0.46428571428572    0.00000000000000             4
    0.45000000000000    0.46428571428572    0.00000000000000             4
    0.05000000000000    0.03571428571428    0.11111111111111             8
    0.15000000000000    0.03571428571428    0.11111111111111             8
    0.25000000000000    0.03571428571428    0.11111111111111             8
    0.35000000000000    0.03571428571428    0.11111111111111             8
    0.45000000000000    0.03571428571428    0.11111111111111             8
    0.05000000000000    0.10714285714285    0.11111111111111             8
    0.15000000000000    0.10714285714285    0.11111111111111             8
    0.25000000000000    0.10714285714285    0.11111111111111             8
    0.35000000000000    0.10714285714285    0.11111111111111             8
    0.45000000000000    0.10714285714285    0.11111111111111             8
    0.05000000000000    0.17857142857143    0.11111111111111             8
    0.15000000000000    0.17857142857143    0.11111111111111             8
    0.25000000000000    0.17857142857143    0.11111111111111             8
    0.35000000000000    0.17857142857143    0.11111111111111             8
    0.45000000000000    0.17857142857143    0.11111111111111             8
    0.05000000000000    0.25000000000000    0.11111111111111             8
    0.15000000000000    0.25000000000000    0.11111111111111             8
    0.25000000000000    0.25000000000000    0.11111111111111             8
    0.35000000000000    0.25000000000000    0.11111111111111             8
    0.45000000000000    0.25000000000000    0.11111111111111             8
    0.05000000000000    0.32142857142857    0.11111111111111             8
    0.15000000000000    0.32142857142857    0.11111111111111             8
    0.25000000000000    0.32142857142857    0.11111111111111             8
    0.35000000000000    0.32142857142857    0.11111111111111             8
    0.45000000000000    0.32142857142857    0.11111111111111             8
    0.05000000000000    0.39285714285715    0.11111111111111             8
    0.15000000000000    0.39285714285715    0.11111111111111             8
    0.25000000000000    0.39285714285715    0.11111111111111             8
    0.35000000000000    0.39285714285715    0.11111111111111             8
    0.45000000000000    0.39285714285715    0.11111111111111             8
    0.05000000000000    0.46428571428572    0.11111111111111             8
    0.15000000000000    0.46428571428572    0.11111111111111             8
    0.25000000000000    0.46428571428572    0.11111111111111             8
    0.35000000000000    0.46428571428572    0.11111111111111             8
    0.45000000000000    0.46428571428572    0.11111111111111             8
    0.05000000000000    0.03571428571428    0.22222222222222             8
    0.15000000000000    0.03571428571428    0.22222222222222             8
    0.25000000000000    0.03571428571428    0.22222222222222             8
    0.35000000000000    0.03571428571428    0.22222222222222             8
    0.45000000000000    0.03571428571428    0.22222222222222             8
    0.05000000000000    0.10714285714285    0.22222222222222             8
    0.15000000000000    0.10714285714285    0.22222222222222             8
    0.25000000000000    0.10714285714285    0.22222222222222             8
    0.35000000000000    0.10714285714285    0.22222222222222             8
    0.45000000000000    0.10714285714285    0.22222222222222             8
    0.05000000000000    0.17857142857143    0.22222222222222             8
    0.15000000000000    0.17857142857143    0.22222222222222             8
    0.25000000000000    0.17857142857143    0.22222222222222             8
    0.35000000000000    0.17857142857143    0.22222222222222             8
    0.45000000000000    0.17857142857143    0.22222222222222             8
    0.05000000000000    0.25000000000000    0.22222222222222             8
    0.15000000000000    0.25000000000000    0.22222222222222             8
    0.25000000000000    0.25000000000000    0.22222222222222             8
    0.35000000000000    0.25000000000000    0.22222222222222             8
    0.45000000000000    0.25000000000000    0.22222222222222             8
    0.05000000000000    0.32142857142857    0.22222222222222             8
    0.15000000000000    0.32142857142857    0.22222222222222             8
    0.25000000000000    0.32142857142857    0.22222222222222             8
    0.35000000000000    0.32142857142857    0.22222222222222             8
    0.45000000000000    0.32142857142857    0.22222222222222             8
    0.05000000000000    0.39285714285715    0.22222222222222             8
    0.15000000000000    0.39285714285715    0.22222222222222             8
    0.25000000000000    0.39285714285715    0.22222222222222             8
    0.35000000000000    0.39285714285715    0.22222222222222             8
    0.45000000000000    0.39285714285715    0.22222222222222             8
    0.05000000000000    0.46428571428572    0.22222222222222             8
    0.15000000000000    0.46428571428572    0.22222222222222             8
    0.25000000000000    0.46428571428572    0.22222222222222             8
    0.35000000000000    0.46428571428572    0.22222222222222             8
    0.45000000000000    0.46428571428572    0.22222222222222             8
    0.05000000000000    0.03571428571428    0.33333333333334             8
    0.15000000000000    0.03571428571428    0.33333333333334             8
    0.25000000000000    0.03571428571428    0.33333333333334             8
    0.35000000000000    0.03571428571428    0.33333333333334             8
    0.45000000000000    0.03571428571428    0.33333333333334             8
    0.05000000000000    0.10714285714285    0.33333333333334             8
    0.15000000000000    0.10714285714285    0.33333333333334             8
    0.25000000000000    0.10714285714285    0.33333333333334             8
    0.35000000000000    0.10714285714285    0.33333333333334             8
    0.45000000000000    0.10714285714285    0.33333333333334             8
    0.05000000000000    0.17857142857143    0.33333333333334             8
    0.15000000000000    0.17857142857143    0.33333333333334             8
    0.25000000000000    0.17857142857143    0.33333333333334             8
    0.35000000000000    0.17857142857143    0.33333333333334             8
    0.45000000000000    0.17857142857143    0.33333333333334             8
    0.05000000000000    0.25000000000000    0.33333333333334             8
    0.15000000000000    0.25000000000000    0.33333333333334             8
    0.25000000000000    0.25000000000000    0.33333333333334             8
    0.35000000000000    0.25000000000000    0.33333333333334             8
    0.45000000000000    0.25000000000000    0.33333333333334             8
    0.05000000000000    0.32142857142857    0.33333333333334             8
    0.15000000000000    0.32142857142857    0.33333333333334             8
    0.25000000000000    0.32142857142857    0.33333333333334             8
    0.35000000000000    0.32142857142857    0.33333333333334             8
    0.45000000000000    0.32142857142857    0.33333333333334             8
    0.05000000000000    0.39285714285715    0.33333333333334             8
    0.15000000000000    0.39285714285715    0.33333333333334             8
    0.25000000000000    0.39285714285715    0.33333333333334             8
    0.35000000000000    0.39285714285715    0.33333333333334             8
    0.45000000000000    0.39285714285715    0.33333333333334             8
    0.05000000000000    0.46428571428572    0.33333333333334             8
    0.15000000000000    0.46428571428572    0.33333333333334             8
    0.25000000000000    0.46428571428572    0.33333333333334             8
    0.35000000000000    0.46428571428572    0.33333333333334             8
    0.45000000000000    0.46428571428572    0.33333333333334             8
    0.05000000000000    0.03571428571428    0.44444444444444             8
    0.15000000000000    0.03571428571428    0.44444444444444             8
    0.25000000000000    0.03571428571428    0.44444444444444             8
    0.35000000000000    0.03571428571428    0.44444444444444             8
    0.45000000000000    0.03571428571428    0.44444444444444             8
    0.05000000000000    0.10714285714285    0.44444444444444             8
    0.15000000000000    0.10714285714285    0.44444444444444             8
    0.25000000000000    0.10714285714285    0.44444444444444             8
    0.35000000000000    0.10714285714285    0.44444444444444             8
    0.45000000000000    0.10714285714285    0.44444444444444             8
    0.05000000000000    0.17857142857143    0.44444444444444             8
    0.15000000000000    0.17857142857143    0.44444444444444             8
    0.25000000000000    0.17857142857143    0.44444444444444             8
    0.35000000000000    0.17857142857143    0.44444444444444             8
    0.45000000000000    0.17857142857143    0.44444444444444             8
    0.05000000000000    0.25000000000000    0.44444444444444             8
    0.15000000000000    0.25000000000000    0.44444444444444             8
    0.25000000000000    0.25000000000000    0.44444444444444             8
    0.35000000000000    0.25000000000000    0.44444444444444             8
    0.45000000000000    0.25000000000000    0.44444444444444             8
    0.05000000000000    0.32142857142857    0.44444444444444             8
    0.15000000000000    0.32142857142857    0.44444444444444             8
    0.25000000000000    0.32142857142857    0.44444444444444             8
    0.35000000000000    0.32142857142857    0.44444444444444             8
    0.45000000000000    0.32142857142857    0.44444444444444             8
    0.05000000000000    0.39285714285715    0.44444444444444             8
    0.15000000000000    0.39285714285715    0.44444444444444             8
    0.25000000000000    0.39285714285715    0.44444444444444             8
    0.35000000000000    0.39285714285715    0.44444444444444             8
    0.45000000000000    0.39285714285715    0.44444444444444             8
    0.05000000000000    0.46428571428572    0.44444444444444             8
    0.15000000000000    0.46428571428572    0.44444444444444             8
    0.25000000000000    0.46428571428572    0.44444444444444             8
    0.35000000000000    0.46428571428572    0.44444444444444             8
    0.45000000000000    0.46428571428572    0.44444444444444             8
