  14  14   0   0
  0.1026258E+02  0.5704976E-09  0.4053567E-09  0.6212886E-09  0.5000000E-15
  1.000000000000000E-004
  CAR 
 Convergence                             
     17.90334074    -14.17829504  301      1.85972603      1.00000000
    -14.178  0.0000E+00  0.0000E+00
    -14.071  0.0000E+00  0.0000E+00
    -13.964  0.0000E+00  0.0000E+00
    -13.857  0.0000E+00  0.0000E+00
    -13.751  0.0000E+00  0.0000E+00
    -13.644  0.0000E+00  0.0000E+00
    -13.537  0.0000E+00  0.0000E+00
    -13.430  0.0000E+00  0.0000E+00
    -13.323  0.0000E+00  0.0000E+00
    -13.216  0.0000E+00  0.0000E+00
    -13.109  0.0000E+00  0.0000E+00
    -13.002  0.5273E-16  0.5639E-17
    -12.895  0.3176E-07  0.3396E-08
    -12.788  0.3883E-02  0.4152E-03
    -12.681  0.5102E+00  0.5497E-01
    -12.574  0.2395E+01  0.3111E+00
    -12.467  0.3574E+01  0.6933E+00
    -12.360  0.4379E+01  0.1162E+01
    -12.253  0.3539E+01  0.1540E+01
    -12.146  0.2737E+01  0.1833E+01
    -12.040  0.2755E+01  0.2127E+01
    -11.933  0.2499E+01  0.2395E+01
    -11.826  0.2772E+01  0.2691E+01
    -11.719  0.3411E+01  0.3056E+01
    -11.612  0.3537E+01  0.3434E+01
    -11.505  0.3139E+01  0.3770E+01
    -11.398  0.1699E+01  0.3952E+01
    -11.291  0.4447E+00  0.3999E+01
    -11.184  0.8697E-02  0.4000E+01
    -11.077  0.2679E-06  0.4000E+01
    -10.970  0.1951E-14  0.4000E+01
    -10.863  0.0000E+00  0.4000E+01
    -10.756  0.0000E+00  0.4000E+01
    -10.649  0.0000E+00  0.4000E+01
    -10.542  0.0000E+00  0.4000E+01
    -10.435  0.0000E+00  0.4000E+01
    -10.328  0.0000E+00  0.4000E+01
    -10.222  0.0000E+00  0.4000E+01
    -10.115  0.0000E+00  0.4000E+01
    -10.008  0.0000E+00  0.4000E+01
     -9.901  0.0000E+00  0.4000E+01
     -9.794  0.0000E+00  0.4000E+01
     -9.687  0.0000E+00  0.4000E+01
     -9.580  0.0000E+00  0.4000E+01
     -9.473  0.0000E+00  0.4000E+01
     -9.366  0.0000E+00  0.4000E+01
     -9.259  0.0000E+00  0.4000E+01
     -9.152  0.0000E+00  0.4000E+01
     -9.045  0.1099E-08  0.4000E+01
     -8.938  0.6633E-03  0.4000E+01
     -8.831  0.2821E+00  0.4030E+01
     -8.724  0.2113E+01  0.4256E+01
     -8.617  0.5380E+01  0.4831E+01
     -8.511  0.7016E+01  0.5582E+01
     -8.404  0.6282E+01  0.6254E+01
     -8.297  0.5330E+01  0.6824E+01
     -8.190  0.4848E+01  0.7342E+01
     -8.083  0.3862E+01  0.7755E+01
     -7.976  0.1662E+01  0.7933E+01
     -7.869  0.5766E+00  0.7994E+01
     -7.762  0.5218E-01  0.8000E+01
     -7.655  0.2485E-04  0.8000E+01
     -7.548  0.3001E-11  0.8000E+01
     -7.441  0.0000E+00  0.8000E+01
     -7.334  0.0000E+00  0.8000E+01
     -7.227  0.0000E+00  0.8000E+01
     -7.120  0.4155E-09  0.8000E+01
     -7.013  0.3586E-03  0.8000E+01
     -6.906  0.1097E+00  0.8012E+01
     -6.800  0.2597E+00  0.8040E+01
     -6.693  0.4242E+00  0.8085E+01
     -6.586  0.7664E+00  0.8167E+01
     -6.479  0.8448E+00  0.8257E+01
     -6.372  0.1432E+01  0.8410E+01
     -6.265  0.1934E+01  0.8617E+01
     -6.158  0.3051E+01  0.8943E+01
     -6.051  0.3801E+01  0.9350E+01
     -5.944  0.4124E+01  0.9791E+01
     -5.837  0.4054E+01  0.1022E+02
     -5.730  0.3888E+01  0.1064E+02
     -5.623  0.4077E+01  0.1108E+02
     -5.516  0.4216E+01  0.1153E+02
     -5.409  0.4569E+01  0.1202E+02
     -5.302  0.4627E+01  0.1251E+02
     -5.195  0.4499E+01  0.1299E+02
     -5.088  0.3886E+01  0.1341E+02
     -4.982  0.3222E+01  0.1375E+02
     -4.875  0.2977E+01  0.1407E+02
     -4.768  0.2305E+01  0.1432E+02
     -4.661  0.2898E+01  0.1463E+02
     -4.554  0.3373E+01  0.1499E+02
     -4.447  0.3444E+01  0.1536E+02
     -4.340  0.3366E+01  0.1572E+02
     -4.233  0.2965E+01  0.1603E+02
     -4.126  0.2912E+01  0.1634E+02
     -4.019  0.2929E+01  0.1666E+02
     -3.912  0.2887E+01  0.1697E+02
     -3.805  0.3105E+01  0.1730E+02
     -3.698  0.2901E+01  0.1761E+02
     -3.591  0.2709E+01  0.1790E+02
     -3.484  0.3079E+01  0.1823E+02
     -3.377  0.2663E+01  0.1851E+02
     -3.271  0.2827E+01  0.1881E+02
     -3.164  0.2800E+01  0.1911E+02
     -3.057  0.2707E+01  0.1940E+02
     -2.950  0.3088E+01  0.1973E+02
     -2.843  0.2987E+01  0.2005E+02
     -2.736  0.2449E+01  0.2031E+02
     -2.629  0.2634E+01  0.2060E+02
     -2.522  0.3010E+01  0.2092E+02
     -2.415  0.3008E+01  0.2124E+02
     -2.308  0.3180E+01  0.2158E+02
     -2.201  0.4000E+01  0.2201E+02
     -2.094  0.3656E+01  0.2240E+02
     -1.987  0.3200E+01  0.2274E+02
     -1.880  0.4976E+01  0.2327E+02
     -1.773  0.5527E+01  0.2386E+02
     -1.666  0.5655E+01  0.2447E+02
     -1.560  0.6168E+01  0.2513E+02
     -1.453  0.6154E+01  0.2579E+02
     -1.346  0.5620E+01  0.2639E+02
     -1.239  0.4690E+01  0.2689E+02
     -1.132  0.6484E+01  0.2758E+02
     -1.025  0.4200E+01  0.2803E+02
     -0.918  0.2290E+01  0.2828E+02
     -0.811  0.2707E+01  0.2857E+02
     -0.704  0.2885E+01  0.2887E+02
     -0.597  0.4418E+01  0.2935E+02
     -0.490  0.6808E+01  0.3007E+02
     -0.383  0.5685E+01  0.3068E+02
     -0.276  0.6626E+01  0.3139E+02
     -0.169  0.6388E+01  0.3207E+02
     -0.062  0.6733E+01  0.3279E+02
      0.045  0.6845E+01  0.3353E+02
      0.152  0.6231E+01  0.3419E+02
      0.258  0.8841E+01  0.3514E+02
      0.365  0.8115E+01  0.3601E+02
      0.472  0.8676E+01  0.3693E+02
      0.579  0.5417E+01  0.3751E+02
      0.686  0.3026E+01  0.3784E+02
      0.793  0.3221E+01  0.3818E+02
      0.900  0.3592E+01  0.3857E+02
      1.007  0.3586E+01  0.3895E+02
      1.114  0.2811E+01  0.3925E+02
      1.221  0.3359E+01  0.3961E+02
      1.328  0.4469E+01  0.4009E+02
      1.435  0.3829E+01  0.4050E+02
      1.542  0.3696E+01  0.4089E+02
      1.649  0.4592E+01  0.4138E+02
      1.756  0.3371E+01  0.4174E+02
      1.863  0.2474E+01  0.4201E+02
      1.969  0.2682E+01  0.4229E+02
      2.076  0.2099E+01  0.4252E+02
      2.183  0.2647E+01  0.4280E+02
      2.290  0.2616E+01  0.4308E+02
      2.397  0.1985E+01  0.4329E+02
      2.504  0.9133E+00  0.4339E+02
      2.611  0.3803E+00  0.4343E+02
      2.718  0.5759E+00  0.4349E+02
      2.825  0.4212E+00  0.4354E+02
      2.932  0.3059E+00  0.4357E+02
      3.039  0.7297E+00  0.4365E+02
      3.146  0.1026E+01  0.4376E+02
      3.253  0.5746E+00  0.4382E+02
      3.360  0.1733E-01  0.4382E+02
      3.467  0.1183E+00  0.4383E+02
      3.574  0.3917E+00  0.4388E+02
      3.680  0.3415E+00  0.4391E+02
      3.787  0.3630E+00  0.4395E+02
      3.894  0.4149E+00  0.4400E+02
      4.001  0.3262E-01  0.4400E+02
      4.108  0.9442E-05  0.4400E+02
      4.215  0.1767E-01  0.4400E+02
      4.322  0.1630E+00  0.4402E+02
      4.429  0.3810E+00  0.4406E+02
      4.536  0.4471E+00  0.4411E+02
      4.643  0.6191E+00  0.4417E+02
      4.750  0.8679E+00  0.4427E+02
      4.857  0.8385E+00  0.4436E+02
      4.964  0.8677E+00  0.4445E+02
      5.071  0.1248E+01  0.4458E+02
      5.178  0.1184E+01  0.4471E+02
      5.285  0.1588E+01  0.4488E+02
      5.392  0.2135E+01  0.4511E+02
      5.498  0.2505E+01  0.4538E+02
      5.605  0.2797E+01  0.4567E+02
      5.712  0.3290E+01  0.4603E+02
      5.819  0.3271E+01  0.4638E+02
      5.926  0.4228E+01  0.4683E+02
      6.033  0.4814E+01  0.4734E+02
      6.140  0.4094E+01  0.4778E+02
      6.247  0.4600E+01  0.4827E+02
      6.354  0.4287E+01  0.4873E+02
      6.461  0.3958E+01  0.4915E+02
      6.568  0.4526E+01  0.4964E+02
      6.675  0.3262E+01  0.4999E+02
      6.782  0.3958E+01  0.5041E+02
      6.889  0.4604E+01  0.5090E+02
      6.996  0.4593E+01  0.5139E+02
      7.103  0.4340E+01  0.5186E+02
      7.209  0.5574E+01  0.5245E+02
      7.316  0.5002E+01  0.5299E+02
      7.423  0.4485E+01  0.5347E+02
      7.530  0.4235E+01  0.5392E+02
      7.637  0.3597E+01  0.5431E+02
      7.744  0.3105E+01  0.5464E+02
      7.851  0.3032E+01  0.5496E+02
      7.958  0.2969E+01  0.5528E+02
      8.065  0.4156E+01  0.5572E+02
      8.172  0.3929E+01  0.5614E+02
      8.279  0.3748E+01  0.5655E+02
      8.386  0.4015E+01  0.5697E+02
      8.493  0.4254E+01  0.5743E+02
      8.600  0.4497E+01  0.5791E+02
      8.707  0.4295E+01  0.5837E+02
      8.814  0.5352E+01  0.5894E+02
      8.920  0.4801E+01  0.5946E+02
      9.027  0.5280E+01  0.6002E+02
      9.134  0.5228E+01  0.6058E+02
      9.241  0.5016E+01  0.6112E+02
      9.348  0.4664E+01  0.6161E+02
      9.455  0.4408E+01  0.6209E+02
      9.562  0.5089E+01  0.6263E+02
      9.669  0.5040E+01  0.6317E+02
      9.776  0.5283E+01  0.6373E+02
      9.883  0.4497E+01  0.6422E+02
      9.990  0.3691E+01  0.6461E+02
     10.097  0.5191E+01  0.6517E+02
     10.204  0.4724E+01  0.6567E+02
     10.311  0.4164E+01  0.6612E+02
     10.418  0.5333E+01  0.6669E+02
     10.525  0.5834E+01  0.6731E+02
     10.632  0.4085E+01  0.6775E+02
     10.738  0.3916E+01  0.6817E+02
     10.845  0.3281E+01  0.6852E+02
     10.952  0.4694E+01  0.6902E+02
     11.059  0.5406E+01  0.6960E+02
     11.166  0.6295E+01  0.7027E+02
     11.273  0.6008E+01  0.7091E+02
     11.380  0.5188E+01  0.7147E+02
     11.487  0.4422E+01  0.7194E+02
     11.594  0.4477E+01  0.7242E+02
     11.701  0.4985E+01  0.7295E+02
     11.808  0.4828E+01  0.7347E+02
     11.915  0.5991E+01  0.7411E+02
     12.022  0.6018E+01  0.7475E+02
     12.129  0.6062E+01  0.7540E+02
     12.236  0.5547E+01  0.7599E+02
     12.343  0.4999E+01  0.7653E+02
     12.449  0.5723E+01  0.7714E+02
     12.556  0.5968E+01  0.7778E+02
     12.663  0.5940E+01  0.7841E+02
     12.770  0.5953E+01  0.7905E+02
     12.877  0.5892E+01  0.7968E+02
     12.984  0.5625E+01  0.8028E+02
     13.091  0.6348E+01  0.8096E+02
     13.198  0.6319E+01  0.8164E+02
     13.305  0.5461E+01  0.8222E+02
     13.412  0.6121E+01  0.8287E+02
     13.519  0.5435E+01  0.8346E+02
     13.626  0.4843E+01  0.8397E+02
     13.733  0.6187E+01  0.8464E+02
     13.840  0.5518E+01  0.8523E+02
     13.947  0.5372E+01  0.8580E+02
     14.054  0.5478E+01  0.8639E+02
     14.160  0.4676E+01  0.8689E+02
     14.267  0.4966E+01  0.8742E+02
     14.374  0.4960E+01  0.8795E+02
     14.481  0.4941E+01  0.8848E+02
     14.588  0.5274E+01  0.8904E+02
     14.695  0.5202E+01  0.8960E+02
     14.802  0.4102E+01  0.9003E+02
     14.909  0.5013E+01  0.9057E+02
     15.016  0.6141E+01  0.9123E+02
     15.123  0.5705E+01  0.9184E+02
     15.230  0.5725E+01  0.9245E+02
     15.337  0.5997E+01  0.9309E+02
     15.444  0.5773E+01  0.9371E+02
     15.551  0.6014E+01  0.9435E+02
     15.658  0.4627E+01  0.9485E+02
     15.765  0.2516E+01  0.9512E+02
     15.872  0.2708E+01  0.9540E+02
     15.978  0.1843E+01  0.9560E+02
     16.085  0.1132E+01  0.9572E+02
     16.192  0.9006E+00  0.9582E+02
     16.299  0.6930E+00  0.9589E+02
     16.406  0.8161E+00  0.9598E+02
     16.513  0.1780E+00  0.9600E+02
     16.620  0.1711E-02  0.9600E+02
     16.727  0.2212E-07  0.9600E+02
     16.834  0.4614E-16  0.9600E+02
     16.941  0.0000E+00  0.9600E+02
     17.048  0.0000E+00  0.9600E+02
     17.155  0.0000E+00  0.9600E+02
     17.262  0.0000E+00  0.9600E+02
     17.369  0.0000E+00  0.9600E+02
     17.476  0.0000E+00  0.9600E+02
     17.583  0.0000E+00  0.9600E+02
     17.689  0.0000E+00  0.9600E+02
     17.796  0.0000E+00  0.9600E+02
     17.903  0.0000E+00  0.9600E+02
