<?xml version="1.0" encoding="ISO-8859-1"?>
<modeling>
 <generator>
  <i name="program" type="string">vasp </i>
  <i name="version" type="string">6.4.3  </i>
  <i name="subversion" type="string">19Mar24 (build May 31 2024 16:31:43) complex                          parallel </i>
  <i name="platform" type="string">LinuxIFC </i>
  <i name="date" type="string">2024 11 11 </i>
  <i name="time" type="string">15:58:31 </i>
 </generator>
 <incar>
  <i type="string" name="SYSTEM">Convergence</i>
  <i type="int" name="ISTART">     0</i>
  <i type="string" name="PREC">Accurate</i>
  <i type="string" name="ALGO">Normal</i>
  <i type="int" name="ISPIN">     1</i>
  <i type="int" name="ICHARG">     2</i>
  <i type="int" name="NELM">   100</i>
  <i type="int" name="IBRION">    -1</i>
  <i name="EDIFF">      0.00000100</i>
  <i name="EDIFFG">     -0.00100000</i>
  <i type="int" name="NSW">     0</i>
  <i type="int" name="ISIF">     2</i>
  <i name="ENCUT">    600.00000000</i>
  <i name="POTIM">      0.50000000</i>
  <i type="int" name="ISMEAR">     0</i>
  <i name="SIGMA">      0.05000000</i>
  <i type="logical" name="LWAVE"> F  </i>
  <i type="logical" name="LCHARG"> F  </i>
  <i type="string" name="GGA">PE</i>
 </incar>
 <primitive_cell>
  <structure name="primitive_cell" >
   <crystal>
    <varray name="basis" >
     <v>       5.70497580       0.00000000       0.00000000 </v>
     <v>       0.00000000       4.05356706       0.00000000 </v>
     <v>       0.00000000       0.00000000       6.21288588 </v>
    </varray>
    <i name="volume">    143.67610473 </i>
    <varray name="rec_basis" >
     <v>       0.17528558       0.00000000       0.00000000 </v>
     <v>       0.00000000       0.24669630       0.00000000 </v>
     <v>       0.00000000       0.00000000       0.16095580 </v>
    </varray>
   </crystal>
   <varray name="positions" >
    <v>       0.52123000       0.50000000       0.63796000 </v>
    <v>       0.47877000       0.50000000       0.36204000 </v>
    <v>       0.97877000       0.50000000       0.63796000 </v>
    <v>       0.02123000       0.50000000       0.36204000 </v>
    <v>       0.60090000       0.50000000       0.89991000 </v>
    <v>       0.39910000       0.50000000       0.10009000 </v>
    <v>       0.89910000       0.50000000       0.89991000 </v>
    <v>       0.10090000       0.50000000       0.10009000 </v>
    <v>       0.75000000       0.79171000       0.72973000 </v>
    <v>       0.25000000       0.20829000       0.27027000 </v>
    <v>       0.75000000       0.20829000       0.72973000 </v>
    <v>       0.25000000       0.79171000       0.27027000 </v>
    <v>       0.25000000       0.50000000       0.52367000 </v>
    <v>       0.75000000       0.50000000       0.47633000 </v>
   </varray>
  </structure>
  <varray name="primitive_index" >
   <v type="int" >        1 </v>
   <v type="int" >        2 </v>
   <v type="int" >        3 </v>
   <v type="int" >        4 </v>
   <v type="int" >        5 </v>
   <v type="int" >        6 </v>
   <v type="int" >        7 </v>
   <v type="int" >        8 </v>
   <v type="int" >        9 </v>
   <v type="int" >       10 </v>
   <v type="int" >       11 </v>
   <v type="int" >       12 </v>
   <v type="int" >       13 </v>
   <v type="int" >       14 </v>
  </varray>
 </primitive_cell>
 <kpoints>
  <generation param="Monkhorst-Pack">
   <v type="int" name="divisions">      10       14        9 </v>
   <v name="usershift">      0.00000000       0.00000000       0.00000000 </v>
   <v name="genvec1">      0.10000000       0.00000000       0.00000000 </v>
   <v name="genvec2">      0.00000000       0.07142857       0.00000000 </v>
   <v name="genvec3">      0.00000000       0.00000000       0.11111111 </v>
   <v name="shift">      0.50000000       0.50000000       0.00000000 </v>
  </generation>
  <varray name="kpointlist" >
   <v>       0.05000000       0.03571429       0.00000000 </v>
   <v>       0.15000000       0.03571429       0.00000000 </v>
   <v>       0.25000000       0.03571429       0.00000000 </v>
   <v>       0.35000000       0.03571429       0.00000000 </v>
   <v>       0.45000000       0.03571429       0.00000000 </v>
   <v>       0.05000000       0.10714286       0.00000000 </v>
   <v>       0.15000000       0.10714286       0.00000000 </v>
   <v>       0.25000000       0.10714286       0.00000000 </v>
   <v>       0.35000000       0.10714286       0.00000000 </v>
   <v>       0.45000000       0.10714286       0.00000000 </v>
   <v>       0.05000000       0.17857143       0.00000000 </v>
   <v>       0.15000000       0.17857143       0.00000000 </v>
   <v>       0.25000000       0.17857143       0.00000000 </v>
   <v>       0.35000000       0.17857143       0.00000000 </v>
   <v>       0.45000000       0.17857143       0.00000000 </v>
   <v>       0.05000000       0.25000000       0.00000000 </v>
   <v>       0.15000000       0.25000000       0.00000000 </v>
   <v>       0.25000000       0.25000000       0.00000000 </v>
   <v>       0.35000000       0.25000000       0.00000000 </v>
   <v>       0.45000000       0.25000000       0.00000000 </v>
   <v>       0.05000000       0.32142857       0.00000000 </v>
   <v>       0.15000000       0.32142857       0.00000000 </v>
   <v>       0.25000000       0.32142857       0.00000000 </v>
   <v>       0.35000000       0.32142857       0.00000000 </v>
   <v>       0.45000000       0.32142857       0.00000000 </v>
   <v>       0.05000000       0.39285714       0.00000000 </v>
   <v>       0.15000000       0.39285714       0.00000000 </v>
   <v>       0.25000000       0.39285714       0.00000000 </v>
   <v>       0.35000000       0.39285714       0.00000000 </v>
   <v>       0.45000000       0.39285714       0.00000000 </v>
   <v>       0.05000000       0.46428571       0.00000000 </v>
   <v>       0.15000000       0.46428571       0.00000000 </v>
   <v>       0.25000000       0.46428571       0.00000000 </v>
   <v>       0.35000000       0.46428571       0.00000000 </v>
   <v>       0.45000000       0.46428571       0.00000000 </v>
   <v>       0.05000000       0.03571429       0.11111111 </v>
   <v>       0.15000000       0.03571429       0.11111111 </v>
   <v>       0.25000000       0.03571429       0.11111111 </v>
   <v>       0.35000000       0.03571429       0.11111111 </v>
   <v>       0.45000000       0.03571429       0.11111111 </v>
   <v>       0.05000000       0.10714286       0.11111111 </v>
   <v>       0.15000000       0.10714286       0.11111111 </v>
   <v>       0.25000000       0.10714286       0.11111111 </v>
   <v>       0.35000000       0.10714286       0.11111111 </v>
   <v>       0.45000000       0.10714286       0.11111111 </v>
   <v>       0.05000000       0.17857143       0.11111111 </v>
   <v>       0.15000000       0.17857143       0.11111111 </v>
   <v>       0.25000000       0.17857143       0.11111111 </v>
   <v>       0.35000000       0.17857143       0.11111111 </v>
   <v>       0.45000000       0.17857143       0.11111111 </v>
   <v>       0.05000000       0.25000000       0.11111111 </v>
   <v>       0.15000000       0.25000000       0.11111111 </v>
   <v>       0.25000000       0.25000000       0.11111111 </v>
   <v>       0.35000000       0.25000000       0.11111111 </v>
   <v>       0.45000000       0.25000000       0.11111111 </v>
   <v>       0.05000000       0.32142857       0.11111111 </v>
   <v>       0.15000000       0.32142857       0.11111111 </v>
   <v>       0.25000000       0.32142857       0.11111111 </v>
   <v>       0.35000000       0.32142857       0.11111111 </v>
   <v>       0.45000000       0.32142857       0.11111111 </v>
   <v>       0.05000000       0.39285714       0.11111111 </v>
   <v>       0.15000000       0.39285714       0.11111111 </v>
   <v>       0.25000000       0.39285714       0.11111111 </v>
   <v>       0.35000000       0.39285714       0.11111111 </v>
   <v>       0.45000000       0.39285714       0.11111111 </v>
   <v>       0.05000000       0.46428571       0.11111111 </v>
   <v>       0.15000000       0.46428571       0.11111111 </v>
   <v>       0.25000000       0.46428571       0.11111111 </v>
   <v>       0.35000000       0.46428571       0.11111111 </v>
   <v>       0.45000000       0.46428571       0.11111111 </v>
   <v>       0.05000000       0.03571429       0.22222222 </v>
   <v>       0.15000000       0.03571429       0.22222222 </v>
   <v>       0.25000000       0.03571429       0.22222222 </v>
   <v>       0.35000000       0.03571429       0.22222222 </v>
   <v>       0.45000000       0.03571429       0.22222222 </v>
   <v>       0.05000000       0.10714286       0.22222222 </v>
   <v>       0.15000000       0.10714286       0.22222222 </v>
   <v>       0.25000000       0.10714286       0.22222222 </v>
   <v>       0.35000000       0.10714286       0.22222222 </v>
   <v>       0.45000000       0.10714286       0.22222222 </v>
   <v>       0.05000000       0.17857143       0.22222222 </v>
   <v>       0.15000000       0.17857143       0.22222222 </v>
   <v>       0.25000000       0.17857143       0.22222222 </v>
   <v>       0.35000000       0.17857143       0.22222222 </v>
   <v>       0.45000000       0.17857143       0.22222222 </v>
   <v>       0.05000000       0.25000000       0.22222222 </v>
   <v>       0.15000000       0.25000000       0.22222222 </v>
   <v>       0.25000000       0.25000000       0.22222222 </v>
   <v>       0.35000000       0.25000000       0.22222222 </v>
   <v>       0.45000000       0.25000000       0.22222222 </v>
   <v>       0.05000000       0.32142857       0.22222222 </v>
   <v>       0.15000000       0.32142857       0.22222222 </v>
   <v>       0.25000000       0.32142857       0.22222222 </v>
   <v>       0.35000000       0.32142857       0.22222222 </v>
   <v>       0.45000000       0.32142857       0.22222222 </v>
   <v>       0.05000000       0.39285714       0.22222222 </v>
   <v>       0.15000000       0.39285714       0.22222222 </v>
   <v>       0.25000000       0.39285714       0.22222222 </v>
   <v>       0.35000000       0.39285714       0.22222222 </v>
   <v>       0.45000000       0.39285714       0.22222222 </v>
   <v>       0.05000000       0.46428571       0.22222222 </v>
   <v>       0.15000000       0.46428571       0.22222222 </v>
   <v>       0.25000000       0.46428571       0.22222222 </v>
   <v>       0.35000000       0.46428571       0.22222222 </v>
   <v>       0.45000000       0.46428571       0.22222222 </v>
   <v>       0.05000000       0.03571429       0.33333333 </v>
   <v>       0.15000000       0.03571429       0.33333333 </v>
   <v>       0.25000000       0.03571429       0.33333333 </v>
   <v>       0.35000000       0.03571429       0.33333333 </v>
   <v>       0.45000000       0.03571429       0.33333333 </v>
   <v>       0.05000000       0.10714286       0.33333333 </v>
   <v>       0.15000000       0.10714286       0.33333333 </v>
   <v>       0.25000000       0.10714286       0.33333333 </v>
   <v>       0.35000000       0.10714286       0.33333333 </v>
   <v>       0.45000000       0.10714286       0.33333333 </v>
   <v>       0.05000000       0.17857143       0.33333333 </v>
   <v>       0.15000000       0.17857143       0.33333333 </v>
   <v>       0.25000000       0.17857143       0.33333333 </v>
   <v>       0.35000000       0.17857143       0.33333333 </v>
   <v>       0.45000000       0.17857143       0.33333333 </v>
   <v>       0.05000000       0.25000000       0.33333333 </v>
   <v>       0.15000000       0.25000000       0.33333333 </v>
   <v>       0.25000000       0.25000000       0.33333333 </v>
   <v>       0.35000000       0.25000000       0.33333333 </v>
   <v>       0.45000000       0.25000000       0.33333333 </v>
   <v>       0.05000000       0.32142857       0.33333333 </v>
   <v>       0.15000000       0.32142857       0.33333333 </v>
   <v>       0.25000000       0.32142857       0.33333333 </v>
   <v>       0.35000000       0.32142857       0.33333333 </v>
   <v>       0.45000000       0.32142857       0.33333333 </v>
   <v>       0.05000000       0.39285714       0.33333333 </v>
   <v>       0.15000000       0.39285714       0.33333333 </v>
   <v>       0.25000000       0.39285714       0.33333333 </v>
   <v>       0.35000000       0.39285714       0.33333333 </v>
   <v>       0.45000000       0.39285714       0.33333333 </v>
   <v>       0.05000000       0.46428571       0.33333333 </v>
   <v>       0.15000000       0.46428571       0.33333333 </v>
   <v>       0.25000000       0.46428571       0.33333333 </v>
   <v>       0.35000000       0.46428571       0.33333333 </v>
   <v>       0.45000000       0.46428571       0.33333333 </v>
   <v>       0.05000000       0.03571429       0.44444444 </v>
   <v>       0.15000000       0.03571429       0.44444444 </v>
   <v>       0.25000000       0.03571429       0.44444444 </v>
   <v>       0.35000000       0.03571429       0.44444444 </v>
   <v>       0.45000000       0.03571429       0.44444444 </v>
   <v>       0.05000000       0.10714286       0.44444444 </v>
   <v>       0.15000000       0.10714286       0.44444444 </v>
   <v>       0.25000000       0.10714286       0.44444444 </v>
   <v>       0.35000000       0.10714286       0.44444444 </v>
   <v>       0.45000000       0.10714286       0.44444444 </v>
   <v>       0.05000000       0.17857143       0.44444444 </v>
   <v>       0.15000000       0.17857143       0.44444444 </v>
   <v>       0.25000000       0.17857143       0.44444444 </v>
   <v>       0.35000000       0.17857143       0.44444444 </v>
   <v>       0.45000000       0.17857143       0.44444444 </v>
   <v>       0.05000000       0.25000000       0.44444444 </v>
   <v>       0.15000000       0.25000000       0.44444444 </v>
   <v>       0.25000000       0.25000000       0.44444444 </v>
   <v>       0.35000000       0.25000000       0.44444444 </v>
   <v>       0.45000000       0.25000000       0.44444444 </v>
   <v>       0.05000000       0.32142857       0.44444444 </v>
   <v>       0.15000000       0.32142857       0.44444444 </v>
   <v>       0.25000000       0.32142857       0.44444444 </v>
   <v>       0.35000000       0.32142857       0.44444444 </v>
   <v>       0.45000000       0.32142857       0.44444444 </v>
   <v>       0.05000000       0.39285714       0.44444444 </v>
   <v>       0.15000000       0.39285714       0.44444444 </v>
   <v>       0.25000000       0.39285714       0.44444444 </v>
   <v>       0.35000000       0.39285714       0.44444444 </v>
   <v>       0.45000000       0.39285714       0.44444444 </v>
   <v>       0.05000000       0.46428571       0.44444444 </v>
   <v>       0.15000000       0.46428571       0.44444444 </v>
   <v>       0.25000000       0.46428571       0.44444444 </v>
   <v>       0.35000000       0.46428571       0.44444444 </v>
   <v>       0.45000000       0.46428571       0.44444444 </v>
  </varray>
  <varray name="weights" >
   <v>       0.00317460 </v>
   <v>       0.00317460 </v>
   <v>       0.00317460 </v>
   <v>       0.00317460 </v>
   <v>       0.00317460 </v>
   <v>       0.00317460 </v>
   <v>       0.00317460 </v>
   <v>       0.00317460 </v>
   <v>       0.00317460 </v>
   <v>       0.00317460 </v>
   <v>       0.00317460 </v>
   <v>       0.00317460 </v>
   <v>       0.00317460 </v>
   <v>       0.00317460 </v>
   <v>       0.00317460 </v>
   <v>       0.00317460 </v>
   <v>       0.00317460 </v>
   <v>       0.00317460 </v>
   <v>       0.00317460 </v>
   <v>       0.00317460 </v>
   <v>       0.00317460 </v>
   <v>       0.00317460 </v>
   <v>       0.00317460 </v>
   <v>       0.00317460 </v>
   <v>       0.00317460 </v>
   <v>       0.00317460 </v>
   <v>       0.00317460 </v>
   <v>       0.00317460 </v>
   <v>       0.00317460 </v>
   <v>       0.00317460 </v>
   <v>       0.00317460 </v>
   <v>       0.00317460 </v>
   <v>       0.00317460 </v>
   <v>       0.00317460 </v>
   <v>       0.00317460 </v>
   <v>       0.00634921 </v>
   <v>       0.00634921 </v>
   <v>       0.00634921 </v>
   <v>       0.00634921 </v>
   <v>       0.00634921 </v>
   <v>       0.00634921 </v>
   <v>       0.00634921 </v>
   <v>       0.00634921 </v>
   <v>       0.00634921 </v>
   <v>       0.00634921 </v>
   <v>       0.00634921 </v>
   <v>       0.00634921 </v>
   <v>       0.00634921 </v>
   <v>       0.00634921 </v>
   <v>       0.00634921 </v>
   <v>       0.00634921 </v>
   <v>       0.00634921 </v>
   <v>       0.00634921 </v>
   <v>       0.00634921 </v>
   <v>       0.00634921 </v>
   <v>       0.00634921 </v>
   <v>       0.00634921 </v>
   <v>       0.00634921 </v>
   <v>       0.00634921 </v>
   <v>       0.00634921 </v>
   <v>       0.00634921 </v>
   <v>       0.00634921 </v>
   <v>       0.00634921 </v>
   <v>       0.00634921 </v>
   <v>       0.00634921 </v>
   <v>       0.00634921 </v>
   <v>       0.00634921 </v>
   <v>       0.00634921 </v>
   <v>       0.00634921 </v>
   <v>       0.00634921 </v>
   <v>       0.00634921 </v>
   <v>       0.00634921 </v>
   <v>       0.00634921 </v>
   <v>       0.00634921 </v>
   <v>       0.00634921 </v>
   <v>       0.00634921 </v>
   <v>       0.00634921 </v>
   <v>       0.00634921 </v>
   <v>       0.00634921 </v>
   <v>       0.00634921 </v>
   <v>       0.00634921 </v>
   <v>       0.00634921 </v>
   <v>       0.00634921 </v>
   <v>       0.00634921 </v>
   <v>       0.00634921 </v>
   <v>       0.00634921 </v>
   <v>       0.00634921 </v>
   <v>       0.00634921 </v>
   <v>       0.00634921 </v>
   <v>       0.00634921 </v>
   <v>       0.00634921 </v>
   <v>       0.00634921 </v>
   <v>       0.00634921 </v>
   <v>       0.00634921 </v>
   <v>       0.00634921 </v>
   <v>       0.00634921 </v>
   <v>       0.00634921 </v>
   <v>       0.00634921 </v>
   <v>       0.00634921 </v>
   <v>       0.00634921 </v>
   <v>       0.00634921 </v>
   <v>       0.00634921 </v>
   <v>       0.00634921 </v>
   <v>       0.00634921 </v>
   <v>       0.00634921 </v>
   <v>       0.00634921 </v>
   <v>       0.00634921 </v>
   <v>       0.00634921 </v>
   <v>       0.00634921 </v>
   <v>       0.00634921 </v>
   <v>       0.00634921 </v>
   <v>       0.00634921 </v>
   <v>       0.00634921 </v>
   <v>       0.00634921 </v>
   <v>       0.00634921 </v>
   <v>       0.00634921 </v>
   <v>       0.00634921 </v>
   <v>       0.00634921 </v>
   <v>       0.00634921 </v>
   <v>       0.00634921 </v>
   <v>       0.00634921 </v>
   <v>       0.00634921 </v>
   <v>       0.00634921 </v>
   <v>       0.00634921 </v>
   <v>       0.00634921 </v>
   <v>       0.00634921 </v>
   <v>       0.00634921 </v>
   <v>       0.00634921 </v>
   <v>       0.00634921 </v>
   <v>       0.00634921 </v>
   <v>       0.00634921 </v>
   <v>       0.00634921 </v>
   <v>       0.00634921 </v>
   <v>       0.00634921 </v>
   <v>       0.00634921 </v>
   <v>       0.00634921 </v>
   <v>       0.00634921 </v>
   <v>       0.00634921 </v>
   <v>       0.00634921 </v>
   <v>       0.00634921 </v>
   <v>       0.00634921 </v>
   <v>       0.00634921 </v>
   <v>       0.00634921 </v>
   <v>       0.00634921 </v>
   <v>       0.00634921 </v>
   <v>       0.00634921 </v>
   <v>       0.00634921 </v>
   <v>       0.00634921 </v>
   <v>       0.00634921 </v>
   <v>       0.00634921 </v>
   <v>       0.00634921 </v>
   <v>       0.00634921 </v>
   <v>       0.00634921 </v>
   <v>       0.00634921 </v>
   <v>       0.00634921 </v>
   <v>       0.00634921 </v>
   <v>       0.00634921 </v>
   <v>       0.00634921 </v>
   <v>       0.00634921 </v>
   <v>       0.00634921 </v>
   <v>       0.00634921 </v>
   <v>       0.00634921 </v>
   <v>       0.00634921 </v>
   <v>       0.00634921 </v>
   <v>       0.00634921 </v>
   <v>       0.00634921 </v>
   <v>       0.00634921 </v>
   <v>       0.00634921 </v>
   <v>       0.00634921 </v>
   <v>       0.00634921 </v>
   <v>       0.00634921 </v>
   <v>       0.00634921 </v>
   <v>       0.00634921 </v>
   <v>       0.00634921 </v>
   <v>       0.00634921 </v>
  </varray>
 </kpoints>
 <parameters>
  <separator name="general" >
   <i type="string" name="SYSTEM">Convergence</i>
   <i type="logical" name="LCOMPAT"> F  </i>
  </separator>
  <separator name="electronic" >
   <i type="string" name="PREC">accura</i>
   <i name="ENMAX">    600.00000000</i>
   <i name="ENAUG">    535.51400000</i>
   <i name="EDIFF">      0.00000100</i>
   <i type="int" name="IALGO">    38</i>
   <i type="int" name="IWAVPR">    10</i>
   <i type="int" name="NBANDS">    48</i>
   <i type="int" name="NBANDSLOW">    -1</i>
   <i type="int" name="NBANDSHIGH">    -1</i>
   <i name="NELECT">     42.00000000</i>
   <i type="int" name="TURBO">     0</i>
   <i type="int" name="IRESTART">     0</i>
   <i type="int" name="NREBOOT">     0</i>
   <i type="int" name="NMIN">     0</i>
   <i name="EREF">      0.00000000</i>
   <separator name="electronic smearing" >
    <i type="int" name="ISMEAR">     0</i>
    <i name="SIGMA">      0.05000000</i>
    <i name="KSPACING">      0.50000000</i>
    <i type="logical" name="KGAMMA"> T  </i>
    <i type="logical" name="KBLOWUP"> T  </i>
   </separator>
   <separator name="electronic projectors" >
    <i type="logical" name="LREAL"> F  </i>
    <v name="ROPT">      0.00000000</v>
    <i type="int" name="LMAXPAW">  -100</i>
    <i type="int" name="LMAXMIX">     2</i>
    <i type="logical" name="NLSPLINE"> F  </i>
   </separator>
   <separator name="electronic startup" >
    <i type="int" name="ISTART">     0</i>
    <i type="int" name="ICHARG">     2</i>
    <i type="int" name="INIWAV">     1</i>
   </separator>
   <separator name="electronic spin" >
    <i type="int" name="ISPIN">     1</i>
    <i type="logical" name="LNONCOLLINEAR"> F  </i>
    <v name="MAGMOM">      1.00000000      1.00000000      1.00000000      1.00000000      1.00000000      1.00000000      1.00000000      1.00000000      1.00000000      1.00000000      1.00000000      1.00000000      1.00000000      1.00000000</v>
    <i name="NUPDOWN">     -1.00000000</i>
    <i type="logical" name="LSORBIT"> F  </i>
    <v name="SAXIS">      0.00000000      0.00000000      1.00000000</v>
    <i type="logical" name="LSPIRAL"> F  </i>
    <v name="QSPIRAL">      0.00000000      0.00000000      0.00000000</v>
    <i type="logical" name="LZEROZ"> F  </i>
   </separator>
   <separator name="electronic exchange-correlation" >
    <i type="logical" name="LASPH"> F  </i>
   </separator>
   <separator name="electronic convergence" >
    <i type="int" name="NELM">   100</i>
    <i type="int" name="NELMDL">    -5</i>
    <i type="int" name="NELMIN">     2</i>
    <i name="ENINI">    600.00000000</i>
    <separator name="electronic convergence detail" >
     <i type="logical" name="LDIAG"> T  </i>
     <i type="logical" name="LSUBROT"> F  </i>
     <i name="WEIMIN">      0.00000000</i>
     <i name="EBREAK">      0.00000001</i>
     <i name="DEPER">      0.30000000</i>
     <i type="int" name="NRMM">     4</i>
     <i name="TIME">      0.40000000</i>
    </separator>
   </separator>
   <separator name="electronic mixer" >
    <i name="AMIX">      0.40000000</i>
    <i name="BMIX">      1.00000000</i>
    <i name="AMIN">      0.10000000</i>
    <i name="AMIX_MAG">      1.60000000</i>
    <i name="BMIX_MAG">      1.00000000</i>
    <separator name="electronic mixer details" >
     <i type="int" name="IMIX">     4</i>
     <i type="logical" name="MIXFIRST"> F  </i>
     <i type="int" name="MAXMIX">   -45</i>
     <i name="WC">    100.00000000</i>
     <i type="int" name="INIMIX">     1</i>
     <i type="int" name="MIXPRE">     1</i>
     <i type="int" name="MREMOVE">     5</i>
    </separator>
   </separator>
   <separator name="electronic dipolcorrection" >
    <i type="logical" name="LDIPOL"> F  </i>
    <i type="logical" name="LMONO"> F  </i>
    <i type="int" name="IDIPOL">     0</i>
    <i name="EPSILON">      1.00000000</i>
    <v name="DIPOL">   -100.00000000   -100.00000000   -100.00000000</v>
    <i name="EFIELD">      0.00000000</i>
    <i type="logical" name="LVACPOTAV"> F  </i>
   </separator>
  </separator>
  <separator name="grids" >
   <i type="int" name="NGX">    48</i>
   <i type="int" name="NGY">    32</i>
   <i type="int" name="NGZ">    50</i>
   <i type="int" name="NGXF">    96</i>
   <i type="int" name="NGYF">    64</i>
   <i type="int" name="NGZF">   100</i>
   <i type="logical" name="ADDGRID"> F  </i>
  </separator>
  <separator name="ionic" >
   <i type="int" name="NSW">     0</i>
   <i type="int" name="IBRION">    -1</i>
   <i type="int" name="MDALGO">     0</i>
   <i type="int" name="ISIF">     2</i>
   <i name="PSTRESS">      0.00000000</i>
   <i name="EDIFFG">     -0.00100000</i>
   <i type="int" name="NFREE">     0</i>
   <i name="POTIM">      0.50000000</i>
   <i name="SMASS">     -3.00000000</i>
   <i name="SCALEE">      1.00000000</i>
  </separator>
  <separator name="ionic md" >
   <i name="TEBEG">      0.00010000</i>
   <i name="TEEND">      0.00010000</i>
   <i type="int" name="NBLOCK">     1</i>
   <i type="int" name="KBLOCK">     1</i>
   <i type="int" name="NPACO">   256</i>
   <i name="APACO">     10.00000000</i>
  </separator>
  <separator name="symmetry" >
   <i type="int" name="ISYM">     2</i>
   <i name="SYMPREC">      0.00001000</i>
  </separator>
  <separator name="dos" >
   <i type="int" name="LORBIT">     0</i>
   <v name="RWIGS">     -1.00000000</v>
   <i type="int" name="NEDOS">   301</i>
   <i name="EMIN">     10.00000000</i>
   <i name="EMAX">    -10.00000000</i>
   <i name="EFERMI">      0.00000000</i>
  </separator>
  <separator name="writing" >
   <i type="int" name="NWRITE">     2</i>
   <i type="logical" name="LWAVE"> F  </i>
   <i type="logical" name="LDOWNSAMPLE"> F  </i>
   <i type="logical" name="LCHARG"> F  </i>
   <i type="logical" name="LPARD"> F  </i>
   <i type="logical" name="LVTOT"> F  </i>
   <i type="logical" name="LVHAR"> F  </i>
   <i type="logical" name="LELF"> F  </i>
   <i type="logical" name="LOPTICS"> F  </i>
   <v name="STM">      0.00000000      0.00000000      0.00000000      0.00000000      0.00000000      0.00000000      0.00000000</v>
  </separator>
  <separator name="performance" >
   <i type="int" name="NPAR">    24</i>
   <i type="int" name="NSIM">     4</i>
   <i type="int" name="NBLK">    -1</i>
   <i type="logical" name="LPLANE"> T  </i>
   <i type="logical" name="LSCALAPACK"> T  </i>
   <i type="logical" name="LSCAAWARE"> F  </i>
   <i type="logical" name="LSCALU"> F  </i>
   <i type="logical" name="LASYNC"> F  </i>
   <i type="logical" name="LORBITALREAL"> F  </i>
  </separator>
  <separator name="miscellaneous" >
   <i type="int" name="IDIOT">     3</i>
   <i type="int" name="PHON_NSTRUCT">    -1</i>
   <i type="logical" name="LMUSIC"> F  </i>
   <v name="POMASS">     10.81100000</v>
   <v name="DARWINR">      0.00000000</v>
   <v name="DARWINV">      1.00000000</v>
   <i type="logical" name="LCORR"> T  </i>
  </separator>
  <i type="logical" name="GGA_COMPAT"> T  </i>
  <i type="logical" name="LBERRY"> F  </i>
  <i type="int" name="ICORELEVEL">     0</i>
  <i type="logical" name="LDAU"> F  </i>
  <i type="int" name="I_CONSTRAINED_M">     0</i>
  <separator name="electronic exchange-correlation" >
   <i type="string" name="GGA    ">PE</i>
   <i type="string" name="XC_C">1</i>
   <i type="int" name="VOSKOWN">     0</i>
   <i type="logical" name="LHFCALC"> F  </i>
   <i type="string" name="PRECFOCK"></i>
   <i type="logical" name="LSYMGRAD"> F  </i>
   <i type="logical" name="LHFONE"> F  </i>
   <i type="logical" name="LRHFCALC"> F  </i>
   <i type="logical" name="LTHOMAS"> F  </i>
   <i type="logical" name="LMODELHF"> F  </i>
   <i type="logical" name="LFOCKACE"> F  </i>
   <i name="ENCUT4O">     -1.00000000</i>
   <i type="int" name="EXXOEP">     0</i>
   <i type="int" name="FOURORBIT">     0</i>
   <i name="AEXX">      0.00000000</i>
   <i name="HFALPHA">      0.00000000</i>
   <i name="MCALPHA">      0.00000000</i>
   <i name="ALDAX">      1.00000000</i>
   <i name="AGGAX">      1.00000000</i>
   <i name="AMGGAX">      1.00000000</i>
   <i name="ALDAC">      1.00000000</i>
   <i name="AGGAC">      1.00000000</i>
   <i name="AMGGAC">      1.00000000</i>
   <i type="int" name="NKREDX">     1</i>
   <i type="int" name="NKREDY">     1</i>
   <i type="int" name="NKREDZ">     1</i>
   <i type="logical" name="SHIFTRED"> F  </i>
   <i type="logical" name="ODDONLY"> F  </i>
   <i type="logical" name="EVENONLY"> F  </i>
   <i type="int" name="LMAXFOCK">     0</i>
   <i type="int" name="NMAXFOCKAE">     0</i>
   <i type="logical" name="LFOCKAEDFT"> F  </i>
   <i name="HFSCREEN">      0.00000000</i>
   <i name="HFSCREENC">      0.00000000</i>
   <i type="int" name="NBANDSGWLOW">     0</i>
  </separator>
  <separator name="vdW DFT" >
   <i type="logical" name="LUSE_VDW"> F  </i>
   <i type="int" name="IVDW_NL">    -1</i>
   <i type="logical" name="LSPIN_VDW"> F  </i>
   <i name="ZAB_VDW">     -0.84910000</i>
   <i name="GAMMA_VDW">      1.39626340</i>
   <i name="ALPHA_VDW">      0.00000000</i>
   <i name="PARAM1">      0.12340000</i>
   <i name="PARAM2">      1.00000000</i>
   <i name="BPARAM">      6.30000000</i>
   <i name="CPARAM">      0.00930000</i>
  </separator>
  <separator name="model GW" >
   <i type="int" name="MODEL_GW">     0</i>
   <i name="MODEL_EPS0">      6.15754735</i>
   <i name="MODEL_ALPHA">      1.00000000</i>
  </separator>
  <separator name="linear response parameters" >
   <i type="logical" name="LEPSILON"> F  </i>
   <i type="logical" name="LRPA"> F  </i>
   <i type="logical" name="LNABLA"> F  </i>
   <i type="logical" name="LVEL"> F  </i>
   <i name="CSHIFT">      0.10000000</i>
   <i name="OMEGAMAX">     -1.00000000</i>
   <i name="DEG_THRESHOLD">      0.00200000</i>
   <i name="RTIME">     -0.10000000</i>
   <i name="WPLASMAI">      0.00000000</i>
   <v name="DFIELD">      0.00000000      0.00000000      0.00000000</v>
   <v name="WPLASMA">      0.00000000      0.00000000      0.00000000      0.00000000      0.00000000      0.00000000      0.00000000      0.00000000      0.00000000</v>
  </separator>
  <separator name="orbital magnetization" >
   <i type="logical" name="NUCIND"> F  </i>
   <v name="MAGPOS">      0.00000000      0.00000000      0.00000000</v>
   <i type="logical" name="LNICSALL"> T  </i>
   <i type="logical" name="ORBITALMAG"> F  </i>
   <i type="logical" name="LMAGBLOCH"> F  </i>
   <i type="logical" name="LCHIMAG"> F  </i>
   <i type="logical" name="LGAUGE"> T  </i>
   <i type="int" name="MAGATOM">     0</i>
   <v name="MAGDIPOL">      0.00000000      0.00000000      0.00000000</v>
   <v name="AVECCONST">      0.00000000      0.00000000      0.00000000</v>
  </separator>
  <separator name="response functions" >
   <i type="logical" name="LALL_IN_ONE"> F  </i>
   <i type="int" name="IALL_IN_ONE">    -1</i>
   <i type="int" name="NBANDS_WAVE">    -1</i>
   <i type="logical" name="LFINITE_TEMPERATURE"> F  </i>
   <i type="logical" name="LADDER"> F  </i>
   <i type="logical" name="LRPAFORCE"> F  </i>
   <i type="logical" name="LFXC"> F  </i>
   <i type="logical" name="LHARTREE"> T  </i>
   <i type="int" name="IBSE">     0</i>
   <v type="int" name="KPOINT">    -1     0     0     0</v>
   <i type="logical" name="LTCTC"> F  </i>
   <i type="logical" name="LTCTE"> F  </i>
   <i type="logical" name="LTETE"> F  </i>
   <i type="logical" name="LTRIPLET"> F  </i>
   <i type="logical" name="LFXCEPS"> F  </i>
   <i type="logical" name="LFXHEG"> F  </i>
   <i type="int" name="NATURALO">     2</i>
   <i type="logical" name="LHOLEGF"> F  </i>
   <i type="logical" name="L2ORDER"> F  </i>
   <i type="logical" name="LDMP1"> F  </i>
   <i type="logical" name="LMP2LT"> F  </i>
   <i type="logical" name="LSMP2LT"> F  </i>
   <i type="logical" name="LGWLF"> F  </i>
   <i name="ENCUTGW">     -1.60000002</i>
   <i name="ENCUTGWSOFT">     -1.60000002</i>
   <i name="ENCUTLF">     -1.00000000</i>
   <i type="logical" name="ESF_SPLINES"> F  </i>
   <i name="ESF_CONV">      0.01000000</i>
   <i type="int" name="ESF_NINTER">    15</i>
   <i type="int" name="LMAXMP2">    -1</i>
   <i name="SCISSOR">      0.00000000</i>
   <i type="int" name="NOMEGA">     0</i>
   <i type="int" name="NOMEGAR">     0</i>
   <i type="int" name="NBANDSGW">    -1</i>
   <i type="int" name="NBANDSO">    -1</i>
   <i type="int" name="NBANDSV">    -1</i>
   <i type="int" name="NELMGW">     1</i>
   <i type="int" name="NELMHF">     1</i>
   <i type="int" name="DIM">     3</i>
   <i type="int" name="IESPILON">     4</i>
   <i type="int" name="ANTIRES">     0</i>
   <i name="OMEGAMAX">    -30.00000000</i>
   <i name="OMEGAMIN">    -30.00000000</i>
   <i name="OMEGATL">   -200.00000000</i>
   <i type="int" name="OMEGAGRID">     0</i>
   <i name="CSHIFT">     -0.10000000</i>
   <i type="logical" name="LSELFENERGY"> F  </i>
   <i type="logical" name="LSPECTRAL"> F  </i>
   <i type="logical" name="LSPECTRALGW"> F  </i>
   <i type="logical" name="LSINGLES"> F  </i>
   <i type="logical" name="LFERMIGW"> F  </i>
   <i type="logical" name="ODDONLYGW"> F  </i>
   <i type="logical" name="EVENONLYGW"> F  </i>
   <i type="int" name="NKREDLFX">     1</i>
   <i type="int" name="NKREDLFY">     1</i>
   <i type="int" name="NKREDLFZ">     1</i>
   <i type="int" name="MAXMEM">  2800</i>
   <i type="int" name="TELESCOPE">     0</i>
   <i type="int" name="NTAUPAR">    -1</i>
   <i type="int" name="NOMEGAPAR">    -1</i>
   <i name="DAMP_NEWTON">      0.80000001</i>
   <i name="LAMBDA">      1.00000000</i>
  </separator>
  <separator name="External order field" >
   <i name="OFIELD_KAPPA">      0.00000000</i>
   <v name="OFIELD_K">      0.00000000      0.00000000      0.00000000</v>
   <i name="OFIELD_Q6_NEAR">      0.00000000</i>
   <i name="OFIELD_Q6_FAR">      0.00000000</i>
   <i name="OFIELD_A">      0.00000000</i>
  </separator>
  <separator name="optional k-points parameters" >
   <i type="int" name="KPOINTS_OPT_MODE">     1</i>
   <i type="logical" name="LKPOINTS_OPT"> F  </i>
  </separator>
 </parameters>
 <atominfo>
  <atoms>      14 </atoms>
  <types>       1 </types>
  <array name="atoms" >
   <dimension dim="1">ion</dimension>
   <field type="string">element</field>
   <field type="int">atomtype</field>
   <set>
    <rc><c>B </c><c>   1</c></rc>
    <rc><c>B </c><c>   1</c></rc>
    <rc><c>B </c><c>   1</c></rc>
    <rc><c>B </c><c>   1</c></rc>
    <rc><c>B </c><c>   1</c></rc>
    <rc><c>B </c><c>   1</c></rc>
    <rc><c>B </c><c>   1</c></rc>
    <rc><c>B </c><c>   1</c></rc>
    <rc><c>B </c><c>   1</c></rc>
    <rc><c>B </c><c>   1</c></rc>
    <rc><c>B </c><c>   1</c></rc>
    <rc><c>B </c><c>   1</c></rc>
    <rc><c>B </c><c>   1</c></rc>
    <rc><c>B </c><c>   1</c></rc>
   </set>
  </array>
  <array name="atomtypes" >
   <dimension dim="1">type</dimension>
   <field type="int">atomspertype</field>
   <field type="string">element</field>
   <field>mass</field>
   <field>valence</field>
   <field type="string">pseudopotential</field>
   <set>
    <rc><c>  14</c><c>B </c><c>     10.81100000</c><c>      3.00000000</c><c>  PAW_PBE B 06Sep2000                   </c></rc>
   </set>
  </array>
 </atominfo>
 <structure name="initialpos" >
  <crystal>
   <varray name="basis" >
    <v>       5.70497580       0.00000000       0.00000000 </v>
    <v>       0.00000000       4.05356706       0.00000000 </v>
    <v>       0.00000000       0.00000000       6.21288588 </v>
   </varray>
   <i name="volume">    143.67610473 </i>
   <varray name="rec_basis" >
    <v>       0.17528558       0.00000000       0.00000000 </v>
    <v>       0.00000000       0.24669630       0.00000000 </v>
    <v>       0.00000000       0.00000000       0.16095580 </v>
   </varray>
  </crystal>
  <varray name="positions" >
   <v>       0.52123000       0.50000000       0.63796000 </v>
   <v>       0.47877000       0.50000000       0.36204000 </v>
   <v>       0.97877000       0.50000000       0.63796000 </v>
   <v>       0.02123000       0.50000000       0.36204000 </v>
   <v>       0.60090000       0.50000000       0.89991000 </v>
   <v>       0.39910000       0.50000000       0.10009000 </v>
   <v>       0.89910000       0.50000000       0.89991000 </v>
   <v>       0.10090000       0.50000000       0.10009000 </v>
   <v>       0.75000000       0.79171000       0.72973000 </v>
   <v>       0.25000000       0.20829000       0.27027000 </v>
   <v>       0.75000000       0.20829000       0.72973000 </v>
   <v>       0.25000000       0.79171000       0.27027000 </v>
   <v>       0.25000000       0.50000000       0.52367000 </v>
   <v>       0.75000000       0.50000000       0.47633000 </v>
  </varray>
 </structure>
 <calculation>
  <scstep>
   <time name="dav">    5.55    5.61</time>
   <time name="total">    5.57    5.62</time>
   <energy>
    <i name="alphaZ">     93.84886260 </i>
    <i name="ewald">   -794.65406522 </i>
    <i name="hartreedc">   -271.75389453 </i>
    <i name="XCdc">     97.39501539 </i>
    <i name="pawpsdc">    608.99811708 </i>
    <i name="pawaedc">   -597.02363782 </i>
    <i name="eentropy">     -0.00223056 </i>
    <i name="bandstr">    -54.77253534 </i>
    <i name="atom">    996.37441054 </i>
    <i name="e_fr_energy">     78.41004214 </i>
    <i name="e_wo_entrp">     78.41227270 </i>
    <i name="e_0_energy">     78.41115742 </i>
   </energy>
  </scstep>
  <scstep>
   <time name="dav">    7.18    7.23</time>
   <time name="total">    7.18    7.23</time>
   <energy>
    <i name="e_fr_energy">    -91.73105775 </i>
    <i name="e_wo_entrp">    -91.72785296 </i>
    <i name="e_0_energy">    -91.72945535 </i>
   </energy>
  </scstep>
  <scstep>
   <time name="dav">    7.86    7.92</time>
   <time name="total">    7.86    7.92</time>
   <energy>
    <i name="e_fr_energy">    -97.53030442 </i>
    <i name="e_wo_entrp">    -97.52664482 </i>
    <i name="e_0_energy">    -97.52847462 </i>
   </energy>
  </scstep>
  <scstep>
   <time name="dav">    6.34    6.39</time>
   <time name="total">    6.34    6.39</time>
   <energy>
    <i name="e_fr_energy">    -97.56451663 </i>
    <i name="e_wo_entrp">    -97.56085446 </i>
    <i name="e_0_energy">    -97.56268554 </i>
   </energy>
  </scstep>
  <scstep>
   <time name="dav">    7.84    7.90</time>
   <time name="total">    7.94    8.00</time>
   <energy>
    <i name="e_fr_energy">    -97.56489561 </i>
    <i name="e_wo_entrp">    -97.56123340 </i>
    <i name="e_0_energy">    -97.56306450 </i>
   </energy>
  </scstep>
  <scstep>
   <time name="dav">    7.65    7.72</time>
   <time name="total">    7.75    7.83</time>
   <energy>
    <i name="e_fr_energy">    -92.21108828 </i>
    <i name="e_wo_entrp">    -92.20763912 </i>
    <i name="e_0_energy">    -92.20936370 </i>
   </energy>
  </scstep>
  <scstep>
   <time name="dav">    7.99    8.06</time>
   <time name="total">    8.10    8.16</time>
   <energy>
    <i name="e_fr_energy">    -90.57579068 </i>
    <i name="e_wo_entrp">    -90.57264380 </i>
    <i name="e_0_energy">    -90.57421724 </i>
   </energy>
  </scstep>
  <scstep>
   <time name="dav">    6.00    6.04</time>
   <time name="total">    6.10    6.14</time>
   <energy>
    <i name="e_fr_energy">    -90.58834746 </i>
    <i name="e_wo_entrp">    -90.58516606 </i>
    <i name="e_0_energy">    -90.58675676 </i>
   </energy>
  </scstep>
  <scstep>
   <time name="dav">    7.47    7.52</time>
   <time name="total">    7.57    7.62</time>
   <energy>
    <i name="e_fr_energy">    -90.60253203 </i>
    <i name="e_wo_entrp">    -90.59926648 </i>
    <i name="e_0_energy">    -90.60089925 </i>
   </energy>
  </scstep>
  <scstep>
   <time name="dav">    6.18    6.23</time>
   <time name="total">    6.28    6.33</time>
   <energy>
    <i name="e_fr_energy">    -90.60656437 </i>
    <i name="e_wo_entrp">    -90.60334432 </i>
    <i name="e_0_energy">    -90.60495435 </i>
   </energy>
  </scstep>
  <scstep>
   <time name="dav">    6.93    6.98</time>
   <time name="total">    7.03    7.08</time>
   <energy>
    <i name="e_fr_energy">    -90.60763297 </i>
    <i name="e_wo_entrp">    -90.60442338 </i>
    <i name="e_0_energy">    -90.60602817 </i>
   </energy>
  </scstep>
  <scstep>
   <time name="dav">    6.65    6.69</time>
   <time name="total">    6.75    6.80</time>
   <energy>
    <i name="e_fr_energy">    -90.60774742 </i>
    <i name="e_wo_entrp">    -90.60453174 </i>
    <i name="e_0_energy">    -90.60613958 </i>
   </energy>
  </scstep>
  <scstep>
   <time name="dav">    7.45    7.51</time>
   <time name="total">    7.55    7.61</time>
   <energy>
    <i name="e_fr_energy">    -90.60775230 </i>
    <i name="e_wo_entrp">    -90.60453642 </i>
    <i name="e_0_energy">    -90.60614436 </i>
   </energy>
  </scstep>
  <scstep>
   <time name="dav">    6.64    6.70</time>
   <time name="total">    6.65    6.71</time>
   <energy>
    <i name="alphaZ">     93.84886260 </i>
    <i name="ewald">   -794.65406522 </i>
    <i name="hartreedc">   -349.14111336 </i>
    <i name="XCdc">    101.47180554 </i>
    <i name="pawpsdc">   3709.75955171 </i>
    <i name="pawaedc">  -3698.93484798 </i>
    <i name="eentropy">     -0.00321601 </i>
    <i name="bandstr">   -149.32914080 </i>
    <i name="atom">    996.37441054 </i>
    <i name="e_fr_energy">    -90.60775297 </i>
    <i name="e_wo_entrp">    -90.60453696 </i>
    <i name="e_0_energy">    -90.60614497 </i>
   </energy>
  </scstep>
  <structure>
   <crystal>
    <varray name="basis" >
     <v>       5.70497580       0.00000000       0.00000000 </v>
     <v>       0.00000000       4.05356706       0.00000000 </v>
     <v>       0.00000000       0.00000000       6.21288588 </v>
    </varray>
    <i name="volume">    143.67610473 </i>
    <varray name="rec_basis" >
     <v>       0.17528558       0.00000000       0.00000000 </v>
     <v>       0.00000000       0.24669630       0.00000000 </v>
     <v>       0.00000000       0.00000000       0.16095580 </v>
    </varray>
   </crystal>
   <varray name="positions" >
    <v>       0.52123000       0.50000000       0.63796000 </v>
    <v>       0.47877000       0.50000000       0.36204000 </v>
    <v>       0.97877000       0.50000000       0.63796000 </v>
    <v>       0.02123000       0.50000000       0.36204000 </v>
    <v>       0.60090000       0.50000000       0.89991000 </v>
    <v>       0.39910000       0.50000000       0.10009000 </v>
    <v>       0.89910000       0.50000000       0.89991000 </v>
    <v>       0.10090000       0.50000000       0.10009000 </v>
    <v>       0.75000000       0.79171000       0.72973000 </v>
    <v>       0.25000000       0.20829000       0.27027000 </v>
    <v>       0.75000000       0.20829000       0.72973000 </v>
    <v>       0.25000000       0.79171000       0.27027000 </v>
    <v>       0.25000000       0.50000000       0.52367000 </v>
    <v>       0.75000000       0.50000000       0.47633000 </v>
   </varray>
  </structure>
  <varray name="forces" >
   <v>       0.01879226       0.00000000       0.04238058 </v>
   <v>      -0.01879226       0.00000000      -0.04238058 </v>
   <v>      -0.01879226      -0.00000000       0.04238058 </v>
   <v>       0.01879226      -0.00000000      -0.04238058 </v>
   <v>      -0.81509617       0.00000000       0.25328411 </v>
   <v>       0.81509617      -0.00000000      -0.25328411 </v>
   <v>       0.81509617      -0.00000000       0.25328411 </v>
   <v>      -0.81509617       0.00000000      -0.25328411 </v>
   <v>       0.00000000       0.06006235      -0.07353288 </v>
   <v>       0.00000000      -0.06006235       0.07353288 </v>
   <v>       0.00000000      -0.06006235      -0.07353288 </v>
   <v>       0.00000000       0.06006235       0.07353288 </v>
   <v>      -0.00000000      -0.00000000       0.04639003 </v>
   <v>      -0.00000000       0.00000000      -0.04639003 </v>
  </varray>
  <varray name="stress" >
   <v>       5.81283837       0.00000000      -0.00000000 </v>
   <v>       0.00000000      -3.76318933       0.00000000 </v>
   <v>      -0.00000000       0.00000000     -14.31559700 </v>
  </varray>
  <energy>
   <i name="e_fr_energy">    -90.60775297 </i>
   <i name="e_wo_entrp">    -90.60453696 </i>
   <i name="e_0_energy">    -90.60614497 </i>
  </energy>
  <time name="totalsc">  103.43  104.22</time>
  <eigenvalues>
   <array>
    <dimension dim="1">band</dimension>
    <dimension dim="2">kpoint</dimension>
    <dimension dim="3">spin</dimension>
    <field>eigene</field>
    <field>occ</field>
    <set>
     <set comment="spin 1">
      <set comment="kpoint 1">
       <r>  -12.7200    1.0000 </r>
       <r>  -11.5786    1.0000 </r>
       <r>   -8.6639    1.0000 </r>
       <r>   -8.4278    1.0000 </r>
       <r>   -6.0754    1.0000 </r>
       <r>   -5.1421    1.0000 </r>
       <r>   -4.6791    1.0000 </r>
       <r>   -4.2823    1.0000 </r>
       <r>   -4.0439    1.0000 </r>
       <r>   -3.5564    1.0000 </r>
       <r>   -2.6120    1.0000 </r>
       <r>   -2.3434    1.0000 </r>
       <r>   -1.8535    1.0000 </r>
       <r>   -1.1139    1.0000 </r>
       <r>   -0.0862    1.0000 </r>
       <r>   -0.0558    1.0000 </r>
       <r>    0.1344    1.0000 </r>
       <r>    0.1545    1.0000 </r>
       <r>    0.5438    1.0000 </r>
       <r>    1.9961    0.0001 </r>
       <r>    2.0585    0.0000 </r>
       <r>    2.1905    0.0000 </r>
       <r>    5.4252    0.0000 </r>
       <r>    5.7158    0.0000 </r>
       <r>    5.8026    0.0000 </r>
       <r>    5.9262    0.0000 </r>
       <r>    6.7771    0.0000 </r>
       <r>    7.5112    0.0000 </r>
       <r>    7.8381    0.0000 </r>
       <r>    8.4870    0.0000 </r>
       <r>    8.7456    0.0000 </r>
       <r>    8.8992    0.0000 </r>
       <r>    8.9875    0.0000 </r>
       <r>   10.0824    0.0000 </r>
       <r>   11.1460    0.0000 </r>
       <r>   11.2802    0.0000 </r>
       <r>   11.6080    0.0000 </r>
       <r>   11.7297    0.0000 </r>
       <r>   11.8947    0.0000 </r>
       <r>   12.3603    0.0000 </r>
       <r>   12.8104    0.0000 </r>
       <r>   13.3927    0.0000 </r>
       <r>   13.4201    0.0000 </r>
       <r>   15.3077    0.0000 </r>
       <r>   15.5026    0.0000 </r>
       <r>   15.9888    0.0000 </r>
       <r>   16.2686    0.0000 </r>
       <r>   16.2891    0.0000 </r>
      </set>
      <set comment="kpoint 2">
       <r>  -12.6763    1.0000 </r>
       <r>  -11.6524    1.0000 </r>
       <r>   -8.6427    1.0000 </r>
       <r>   -8.4163    1.0000 </r>
       <r>   -6.0074    1.0000 </r>
       <r>   -5.4813    1.0000 </r>
       <r>   -4.8004    1.0000 </r>
       <r>   -4.0196    1.0000 </r>
       <r>   -3.8026    1.0000 </r>
       <r>   -3.2203    1.0000 </r>
       <r>   -2.6819    1.0000 </r>
       <r>   -2.3236    1.0000 </r>
       <r>   -1.9311    1.0000 </r>
       <r>   -1.4204    1.0000 </r>
       <r>   -0.0462    1.0000 </r>
       <r>   -0.0391    1.0000 </r>
       <r>    0.0745    1.0000 </r>
       <r>    0.1760    1.0000 </r>
       <r>    0.4486    1.0000 </r>
       <r>    1.9101    0.0772 </r>
       <r>    1.9808    0.0003 </r>
       <r>    2.0698    0.0000 </r>
       <r>    5.5145    0.0000 </r>
       <r>    5.7215    0.0000 </r>
       <r>    5.8335    0.0000 </r>
       <r>    6.2701    0.0000 </r>
       <r>    6.6921    0.0000 </r>
       <r>    7.1507    0.0000 </r>
       <r>    8.0448    0.0000 </r>
       <r>    8.6235    0.0000 </r>
       <r>    8.9975    0.0000 </r>
       <r>    9.0762    0.0000 </r>
       <r>    9.1541    0.0000 </r>
       <r>   10.1897    0.0000 </r>
       <r>   10.8895    0.0000 </r>
       <r>   11.0763    0.0000 </r>
       <r>   11.2183    0.0000 </r>
       <r>   11.6477    0.0000 </r>
       <r>   12.1115    0.0000 </r>
       <r>   12.4480    0.0000 </r>
       <r>   13.0611    0.0000 </r>
       <r>   13.0692    0.0000 </r>
       <r>   13.9487    0.0000 </r>
       <r>   14.7984    0.0000 </r>
       <r>   15.6851    0.0000 </r>
       <r>   15.7681    0.0000 </r>
       <r>   16.1572    0.0000 </r>
       <r>   16.4451    0.0000 </r>
      </set>
      <set comment="kpoint 3">
       <r>  -12.5908    1.0000 </r>
       <r>  -11.7854    1.0000 </r>
       <r>   -8.5990    1.0000 </r>
       <r>   -8.4015    1.0000 </r>
       <r>   -5.9856    1.0000 </r>
       <r>   -5.8069    1.0000 </r>
       <r>   -4.7540    1.0000 </r>
       <r>   -3.8932    1.0000 </r>
       <r>   -3.2923    1.0000 </r>
       <r>   -2.8495    1.0000 </r>
       <r>   -2.7299    1.0000 </r>
       <r>   -2.2837    1.0000 </r>
       <r>   -2.0405    1.0000 </r>
       <r>   -1.9240    1.0000 </r>
       <r>   -0.2428    1.0000 </r>
       <r>   -0.0049    1.0000 </r>
       <r>    0.1228    1.0000 </r>
       <r>    0.1397    1.0000 </r>
       <r>    0.4185    1.0000 </r>
       <r>    1.7624    0.9971 </r>
       <r>    1.8414    0.6980 </r>
       <r>    1.8484    0.6253 </r>
       <r>    5.6358    0.0000 </r>
       <r>    5.6779    0.0000 </r>
       <r>    6.1424    0.0000 </r>
       <r>    6.5669    0.0000 </r>
       <r>    6.7270    0.0000 </r>
       <r>    6.8966    0.0000 </r>
       <r>    8.1938    0.0000 </r>
       <r>    8.7724    0.0000 </r>
       <r>    8.9447    0.0000 </r>
       <r>    9.5207    0.0000 </r>
       <r>    9.5990    0.0000 </r>
       <r>   10.2308    0.0000 </r>
       <r>   10.4325    0.0000 </r>
       <r>   10.5713    0.0000 </r>
       <r>   11.3362    0.0000 </r>
       <r>   11.7912    0.0000 </r>
       <r>   12.3461    0.0000 </r>
       <r>   12.5062    0.0000 </r>
       <r>   12.7450    0.0000 </r>
       <r>   12.8573    0.0000 </r>
       <r>   14.5727    0.0000 </r>
       <r>   14.8511    0.0000 </r>
       <r>   15.1689    0.0000 </r>
       <r>   15.9158    0.0000 </r>
       <r>   15.9369    0.0000 </r>
       <r>   16.2189    0.0000 </r>
      </set>
      <set comment="kpoint 4">
       <r>  -12.4674    1.0000 </r>
       <r>  -11.9548    1.0000 </r>
       <r>   -8.5373    1.0000 </r>
       <r>   -8.3982    1.0000 </r>
       <r>   -6.0654    1.0000 </r>
       <r>   -6.0397    1.0000 </r>
       <r>   -4.4273    1.0000 </r>
       <r>   -3.7251    1.0000 </r>
       <r>   -3.0426    1.0000 </r>
       <r>   -2.9091    1.0000 </r>
       <r>   -2.4587    1.0000 </r>
       <r>   -2.2696    1.0000 </r>
       <r>   -2.1664    1.0000 </r>
       <r>   -2.1402    1.0000 </r>
       <r>   -0.5419    1.0000 </r>
       <r>   -0.2678    1.0000 </r>
       <r>    0.1551    1.0000 </r>
       <r>    0.2301    1.0000 </r>
       <r>    0.5912    1.0000 </r>
       <r>    1.5059    1.0000 </r>
       <r>    1.6407    1.0000 </r>
       <r>    1.7006    1.0000 </r>
       <r>    5.6633    0.0000 </r>
       <r>    5.7207    0.0000 </r>
       <r>    6.4665    0.0000 </r>
       <r>    6.6390    0.0000 </r>
       <r>    6.6646    0.0000 </r>
       <r>    7.3738    0.0000 </r>
       <r>    8.3168    0.0000 </r>
       <r>    8.6445    0.0000 </r>
       <r>    8.7584    0.0000 </r>
       <r>    9.4879    0.0000 </r>
       <r>   10.0020    0.0000 </r>
       <r>   10.0701    0.0000 </r>
       <r>   10.3448    0.0000 </r>
       <r>   11.0875    0.0000 </r>
       <r>   11.3580    0.0000 </r>
       <r>   11.8873    0.0000 </r>
       <r>   12.1505    0.0000 </r>
       <r>   12.2189    0.0000 </r>
       <r>   12.4726    0.0000 </r>
       <r>   13.2069    0.0000 </r>
       <r>   14.6596    0.0000 </r>
       <r>   14.9165    0.0000 </r>
       <r>   15.1928    0.0000 </r>
       <r>   15.3129    0.0000 </r>
       <r>   15.5075    0.0000 </r>
       <r>   16.3111    0.0000 </r>
      </set>
      <set comment="kpoint 5">
       <r>  -12.3128    1.0000 </r>
       <r>  -12.1371    1.0000 </r>
       <r>   -8.4713    1.0000 </r>
       <r>   -8.4206    1.0000 </r>
       <r>   -6.1535    1.0000 </r>
       <r>   -6.1498    1.0000 </r>
       <r>   -3.9129    1.0000 </r>
       <r>   -3.5169    1.0000 </r>
       <r>   -3.3146    1.0000 </r>
       <r>   -3.2802    1.0000 </r>
       <r>   -2.3748    1.0000 </r>
       <r>   -2.2485    1.0000 </r>
       <r>   -1.9814    1.0000 </r>
       <r>   -1.9259    1.0000 </r>
       <r>   -0.7625    1.0000 </r>
       <r>   -0.6264    1.0000 </r>
       <r>    0.2380    1.0000 </r>
       <r>    0.2713    1.0000 </r>
       <r>    0.8513    1.0000 </r>
       <r>    1.1679    1.0000 </r>
       <r>    1.5602    1.0000 </r>
       <r>    1.5873    1.0000 </r>
       <r>    5.6922    0.0000 </r>
       <r>    5.7308    0.0000 </r>
       <r>    6.4460    0.0000 </r>
       <r>    6.5102    0.0000 </r>
       <r>    7.3312    0.0000 </r>
       <r>    8.0322    0.0000 </r>
       <r>    8.0555    0.0000 </r>
       <r>    8.4333    0.0000 </r>
       <r>    8.5705    0.0000 </r>
       <r>    8.7452    0.0000 </r>
       <r>   10.4531    0.0000 </r>
       <r>   10.4669    0.0000 </r>
       <r>   10.7063    0.0000 </r>
       <r>   11.1634    0.0000 </r>
       <r>   11.3474    0.0000 </r>
       <r>   11.5390    0.0000 </r>
       <r>   11.8712    0.0000 </r>
       <r>   12.4275    0.0000 </r>
       <r>   12.6674    0.0000 </r>
       <r>   13.2008    0.0000 </r>
       <r>   14.5381    0.0000 </r>
       <r>   14.6723    0.0000 </r>
       <r>   14.8125    0.0000 </r>
       <r>   14.8720    0.0000 </r>
       <r>   16.0313    0.0000 </r>
       <r>   16.3768    0.0000 </r>
      </set>
      <set comment="kpoint 6">
       <r>  -12.6961    1.0000 </r>
       <r>  -11.5570    1.0000 </r>
       <r>   -8.6453    1.0000 </r>
       <r>   -8.4048    1.0000 </r>
       <r>   -6.0488    1.0000 </r>
       <r>   -5.1085    1.0000 </r>
       <r>   -4.6572    1.0000 </r>
       <r>   -4.5811    1.0000 </r>
       <r>   -4.1875    1.0000 </r>
       <r>   -3.5338    1.0000 </r>
       <r>   -3.3040    1.0000 </r>
       <r>   -1.8125    1.0000 </r>
       <r>   -1.1094    1.0000 </r>
       <r>   -1.0558    1.0000 </r>
       <r>   -0.3192    1.0000 </r>
       <r>   -0.2912    1.0000 </r>
       <r>    0.1479    1.0000 </r>
       <r>    0.2248    1.0000 </r>
       <r>    0.6219    1.0000 </r>
       <r>    1.7294    0.9999 </r>
       <r>    1.8087    0.9257 </r>
       <r>    2.2425    0.0000 </r>
       <r>    5.5452    0.0000 </r>
       <r>    5.6737    0.0000 </r>
       <r>    5.7098    0.0000 </r>
       <r>    5.9693    0.0000 </r>
       <r>    7.0615    0.0000 </r>
       <r>    7.7962    0.0000 </r>
       <r>    8.0325    0.0000 </r>
       <r>    8.1468    0.0000 </r>
       <r>    8.7504    0.0000 </r>
       <r>    9.0389    0.0000 </r>
       <r>    9.0949    0.0000 </r>
       <r>   10.5315    0.0000 </r>
       <r>   11.2127    0.0000 </r>
       <r>   11.3587    0.0000 </r>
       <r>   11.5424    0.0000 </r>
       <r>   11.8321    0.0000 </r>
       <r>   12.0056    0.0000 </r>
       <r>   12.6386    0.0000 </r>
       <r>   12.8117    0.0000 </r>
       <r>   13.1320    0.0000 </r>
       <r>   13.1361    0.0000 </r>
       <r>   15.2623    0.0000 </r>
       <r>   15.3090    0.0000 </r>
       <r>   15.7926    0.0000 </r>
       <r>   15.7944    0.0000 </r>
       <r>   16.1507    0.0000 </r>
      </set>
      <set comment="kpoint 7">
       <r>  -12.6525    1.0000 </r>
       <r>  -11.6307    1.0000 </r>
       <r>   -8.6239    1.0000 </r>
       <r>   -8.3937    1.0000 </r>
       <r>   -5.9791    1.0000 </r>
       <r>   -5.4512    1.0000 </r>
       <r>   -4.7805    1.0000 </r>
       <r>   -4.4998    1.0000 </r>
       <r>   -3.7641    1.0000 </r>
       <r>   -3.3842    1.0000 </r>
       <r>   -3.1826    1.0000 </r>
       <r>   -1.7909    1.0000 </r>
       <r>   -1.4150    1.0000 </r>
       <r>   -1.1735    1.0000 </r>
       <r>   -0.2806    1.0000 </r>
       <r>   -0.2130    1.0000 </r>
       <r>    0.1150    1.0000 </r>
       <r>    0.1975    1.0000 </r>
       <r>    0.5191    1.0000 </r>
       <r>    1.6491    1.0000 </r>
       <r>    1.7324    0.9998 </r>
       <r>    2.1121    0.0000 </r>
       <r>    5.6213    0.0000 </r>
       <r>    5.7730    0.0000 </r>
       <r>    5.8979    0.0000 </r>
       <r>    6.0778    0.0000 </r>
       <r>    6.9785    0.0000 </r>
       <r>    7.4717    0.0000 </r>
       <r>    8.1784    0.0000 </r>
       <r>    8.3144    0.0000 </r>
       <r>    9.0683    0.0000 </r>
       <r>    9.1065    0.0000 </r>
       <r>    9.3639    0.0000 </r>
       <r>   10.4526    0.0000 </r>
       <r>   10.8217    0.0000 </r>
       <r>   11.0294    0.0000 </r>
       <r>   11.4128    0.0000 </r>
       <r>   11.8205    0.0000 </r>
       <r>   12.2247    0.0000 </r>
       <r>   12.6892    0.0000 </r>
       <r>   12.8117    0.0000 </r>
       <r>   13.0932    0.0000 </r>
       <r>   13.6679    0.0000 </r>
       <r>   14.8830    0.0000 </r>
       <r>   15.3308    0.0000 </r>
       <r>   15.6882    0.0000 </r>
       <r>   15.7262    0.0000 </r>
       <r>   16.3307    0.0000 </r>
      </set>
      <set comment="kpoint 8">
       <r>  -12.5672    1.0000 </r>
       <r>  -11.7635    1.0000 </r>
       <r>   -8.5800    1.0000 </r>
       <r>   -8.3796    1.0000 </r>
       <r>   -5.9545    1.0000 </r>
       <r>   -5.7767    1.0000 </r>
       <r>   -4.7375    1.0000 </r>
       <r>   -4.3920    1.0000 </r>
       <r>   -3.5055    1.0000 </r>
       <r>   -3.2393    1.0000 </r>
       <r>   -2.7174    1.0000 </r>
       <r>   -1.9194    1.0000 </r>
       <r>   -1.7469    1.0000 </r>
       <r>   -1.3352    1.0000 </r>
       <r>   -0.2448    1.0000 </r>
       <r>   -0.2345    1.0000 </r>
       <r>    0.0345    1.0000 </r>
       <r>    0.1846    1.0000 </r>
       <r>    0.4429    1.0000 </r>
       <r>    1.5145    1.0000 </r>
       <r>    1.6027    1.0000 </r>
       <r>    1.8647    0.4441 </r>
       <r>    5.8193    0.0000 </r>
       <r>    5.9010    0.0000 </r>
       <r>    5.9795    0.0000 </r>
       <r>    6.5248    0.0000 </r>
       <r>    6.8585    0.0000 </r>
       <r>    7.2446    0.0000 </r>
       <r>    8.3850    0.0000 </r>
       <r>    8.4460    0.0000 </r>
       <r>    9.0429    0.0000 </r>
       <r>    9.5591    0.0000 </r>
       <r>    9.8237    0.0000 </r>
       <r>   10.0756    0.0000 </r>
       <r>   10.3013    0.0000 </r>
       <r>   10.7672    0.0000 </r>
       <r>   11.4761    0.0000 </r>
       <r>   12.0555    0.0000 </r>
       <r>   12.2512    0.0000 </r>
       <r>   12.5075    0.0000 </r>
       <r>   12.8970    0.0000 </r>
       <r>   12.9735    0.0000 </r>
       <r>   14.2438    0.0000 </r>
       <r>   15.0167    0.0000 </r>
       <r>   15.0987    0.0000 </r>
       <r>   15.5788    0.0000 </r>
       <r>   15.6455    0.0000 </r>
       <r>   16.3512    0.0000 </r>
      </set>
      <set comment="kpoint 9">
       <r>  -12.4440    1.0000 </r>
       <r>  -11.9325    1.0000 </r>
       <r>   -8.5180    1.0000 </r>
       <r>   -8.3772    1.0000 </r>
       <r>   -6.0331    1.0000 </r>
       <r>   -6.0086    1.0000 </r>
       <r>   -4.4129    1.0000 </r>
       <r>   -4.2456    1.0000 </r>
       <r>   -3.6760    1.0000 </r>
       <r>   -2.8610    1.0000 </r>
       <r>   -2.3775    1.0000 </r>
       <r>   -2.2352    1.0000 </r>
       <r>   -1.6831    1.0000 </r>
       <r>   -1.4972    1.0000 </r>
       <r>   -0.5039    1.0000 </r>
       <r>   -0.3289    1.0000 </r>
       <r>    0.0657    1.0000 </r>
       <r>    0.0966    1.0000 </r>
       <r>    0.6018    1.0000 </r>
       <r>    1.3751    1.0000 </r>
       <r>    1.4578    1.0000 </r>
       <r>    1.5418    1.0000 </r>
       <r>    5.8369    0.0000 </r>
       <r>    5.9741    0.0000 </r>
       <r>    6.4840    0.0000 </r>
       <r>    6.7700    0.0000 </r>
       <r>    6.8434    0.0000 </r>
       <r>    7.3342    0.0000 </r>
       <r>    8.3757    0.0000 </r>
       <r>    8.5529    0.0000 </r>
       <r>    8.8874    0.0000 </r>
       <r>    9.3245    0.0000 </r>
       <r>   10.0205    0.0000 </r>
       <r>   10.0446    0.0000 </r>
       <r>   10.3917    0.0000 </r>
       <r>   11.1639    0.0000 </r>
       <r>   11.3135    0.0000 </r>
       <r>   11.7869    0.0000 </r>
       <r>   12.2296    0.0000 </r>
       <r>   12.4963    0.0000 </r>
       <r>   12.6716    0.0000 </r>
       <r>   13.4078    0.0000 </r>
       <r>   14.7040    0.0000 </r>
       <r>   14.7132    0.0000 </r>
       <r>   15.0879    0.0000 </r>
       <r>   15.2456    0.0000 </r>
       <r>   15.5837    0.0000 </r>
       <r>   16.3250    0.0000 </r>
      </set>
      <set comment="kpoint 10">
       <r>  -12.2898    1.0000 </r>
       <r>  -12.1144    1.0000 </r>
       <r>   -8.4517    1.0000 </r>
       <r>   -8.4004    1.0000 </r>
       <r>   -6.1216    1.0000 </r>
       <r>   -6.1174    1.0000 </r>
       <r>   -4.0675    1.0000 </r>
       <r>   -3.9055    1.0000 </r>
       <r>   -3.8649    1.0000 </r>
       <r>   -3.3019    1.0000 </r>
       <r>   -2.1224    1.0000 </r>
       <r>   -1.9302    1.0000 </r>
       <r>   -1.6150    1.0000 </r>
       <r>   -1.6100    1.0000 </r>
       <r>   -0.7246    1.0000 </r>
       <r>   -0.6224    1.0000 </r>
       <r>    0.0996    1.0000 </r>
       <r>    0.1307    1.0000 </r>
       <r>    0.8607    1.0000 </r>
       <r>    1.1744    1.0000 </r>
       <r>    1.3219    1.0000 </r>
       <r>    1.3458    1.0000 </r>
       <r>    5.8888    0.0000 </r>
       <r>    5.9557    0.0000 </r>
       <r>    6.7600    0.0000 </r>
       <r>    6.8107    0.0000 </r>
       <r>    7.1493    0.0000 </r>
       <r>    7.8587    0.0000 </r>
       <r>    7.9018    0.0000 </r>
       <r>    8.5813    0.0000 </r>
       <r>    8.6445    0.0000 </r>
       <r>    8.7563    0.0000 </r>
       <r>   10.2681    0.0000 </r>
       <r>   10.5173    0.0000 </r>
       <r>   10.7556    0.0000 </r>
       <r>   10.8548    0.0000 </r>
       <r>   11.4947    0.0000 </r>
       <r>   11.5977    0.0000 </r>
       <r>   11.9491    0.0000 </r>
       <r>   12.5948    0.0000 </r>
       <r>   12.9741    0.0000 </r>
       <r>   13.4306    0.0000 </r>
       <r>   14.4887    0.0000 </r>
       <r>   14.6740    0.0000 </r>
       <r>   14.7728    0.0000 </r>
       <r>   14.9906    0.0000 </r>
       <r>   16.0569    0.0000 </r>
       <r>   16.3517    0.0000 </r>
      </set>
      <set comment="kpoint 11">
       <r>  -12.6519    1.0000 </r>
       <r>  -11.5173    1.0000 </r>
       <r>   -8.6111    1.0000 </r>
       <r>   -8.3623    1.0000 </r>
       <r>   -5.9996    1.0000 </r>
       <r>   -5.1376    1.0000 </r>
       <r>   -5.0183    1.0000 </r>
       <r>   -4.6156    1.0000 </r>
       <r>   -4.1709    1.0000 </r>
       <r>   -3.9251    1.0000 </r>
       <r>   -3.4807    1.0000 </r>
       <r>   -1.2224    1.0000 </r>
       <r>   -1.1001    1.0000 </r>
       <r>   -0.6614    1.0000 </r>
       <r>   -0.5576    1.0000 </r>
       <r>   -0.1988    1.0000 </r>
       <r>    0.1690    1.0000 </r>
       <r>    0.2771    1.0000 </r>
       <r>    0.6999    1.0000 </r>
       <r>    1.3482    1.0000 </r>
       <r>    1.4112    1.0000 </r>
       <r>    2.2803    0.0000 </r>
       <r>    5.2583    0.0000 </r>
       <r>    5.4223    0.0000 </r>
       <r>    6.0862    0.0000 </r>
       <r>    6.1561    0.0000 </r>
       <r>    7.4939    0.0000 </r>
       <r>    7.5828    0.0000 </r>
       <r>    8.2767    0.0000 </r>
       <r>    8.6766    0.0000 </r>
       <r>    8.8339    0.0000 </r>
       <r>    9.1791    0.0000 </r>
       <r>    9.3175    0.0000 </r>
       <r>   10.8315    0.0000 </r>
       <r>   11.2666    0.0000 </r>
       <r>   11.5182    0.0000 </r>
       <r>   11.6566    0.0000 </r>
       <r>   12.0317    0.0000 </r>
       <r>   12.2215    0.0000 </r>
       <r>   12.6924    0.0000 </r>
       <r>   12.7049    0.0000 </r>
       <r>   12.9437    0.0000 </r>
       <r>   13.1750    0.0000 </r>
       <r>   14.6024    0.0000 </r>
       <r>   15.0933    0.0000 </r>
       <r>   15.2702    0.0000 </r>
       <r>   15.3713    0.0000 </r>
       <r>   15.8896    0.0000 </r>
      </set>
      <set comment="kpoint 12">
       <r>  -12.6085    1.0000 </r>
       <r>  -11.5907    1.0000 </r>
       <r>   -8.5895    1.0000 </r>
       <r>   -8.3519    1.0000 </r>
       <r>   -5.9265    1.0000 </r>
       <r>   -5.4028    1.0000 </r>
       <r>   -5.0406    1.0000 </r>
       <r>   -4.7430    1.0000 </r>
       <r>   -3.9908    1.0000 </r>
       <r>   -3.7224    1.0000 </r>
       <r>   -3.1432    1.0000 </r>
       <r>   -1.4067    1.0000 </r>
       <r>   -1.1964    1.0000 </r>
       <r>   -0.7694    1.0000 </r>
       <r>   -0.5197    1.0000 </r>
       <r>   -0.1172    1.0000 </r>
       <r>    0.1481    1.0000 </r>
       <r>    0.2226    1.0000 </r>
       <r>    0.5873    1.0000 </r>
       <r>    1.2693    1.0000 </r>
       <r>    1.3416    1.0000 </r>
       <r>    2.1449    0.0000 </r>
       <r>    5.3387    0.0000 </r>
       <r>    5.7664    0.0000 </r>
       <r>    6.1022    0.0000 </r>
       <r>    6.2014    0.0000 </r>
       <r>    7.4135    0.0000 </r>
       <r>    7.7394    0.0000 </r>
       <r>    8.0091    0.0000 </r>
       <r>    8.7687    0.0000 </r>
       <r>    9.1928    0.0000 </r>
       <r>    9.2358    0.0000 </r>
       <r>    9.6010    0.0000 </r>
       <r>   10.4672    0.0000 </r>
       <r>   10.7276    0.0000 </r>
       <r>   11.2231    0.0000 </r>
       <r>   11.6744    0.0000 </r>
       <r>   12.1452    0.0000 </r>
       <r>   12.3774    0.0000 </r>
       <r>   12.4507    0.0000 </r>
       <r>   13.1035    0.0000 </r>
       <r>   13.2217    0.0000 </r>
       <r>   13.3771    0.0000 </r>
       <r>   14.6147    0.0000 </r>
       <r>   14.7566    0.0000 </r>
       <r>   15.2054    0.0000 </r>
       <r>   15.4354    0.0000 </r>
       <r>   15.9213    0.0000 </r>
      </set>
      <set comment="kpoint 13">
       <r>  -12.5235    1.0000 </r>
       <r>  -11.7230    1.0000 </r>
       <r>   -8.5451    1.0000 </r>
       <r>   -8.3392    1.0000 </r>
       <r>   -5.8966    1.0000 </r>
       <r>   -5.7220    1.0000 </r>
       <r>   -4.9491    1.0000 </r>
       <r>   -4.7066    1.0000 </r>
       <r>   -4.1136    1.0000 </r>
       <r>   -3.1897    1.0000 </r>
       <r>   -2.6736    1.0000 </r>
       <r>   -1.9031    1.0000 </r>
       <r>   -1.1560    1.0000 </r>
       <r>   -0.9087    1.0000 </r>
       <r>   -0.4672    1.0000 </r>
       <r>   -0.1111    1.0000 </r>
       <r>   -0.0062    1.0000 </r>
       <r>    0.2339    1.0000 </r>
       <r>    0.4726    1.0000 </r>
       <r>    1.1383    1.0000 </r>
       <r>    1.2236    1.0000 </r>
       <r>    1.8892    0.2021 </r>
       <r>    5.6591    0.0000 </r>
       <r>    6.0573    0.0000 </r>
       <r>    6.2406    0.0000 </r>
       <r>    6.3318    0.0000 </r>
       <r>    7.3119    0.0000 </r>
       <r>    7.8208    0.0000 </r>
       <r>    7.9735    0.0000 </r>
       <r>    8.8977    0.0000 </r>
       <r>    9.1901    0.0000 </r>
       <r>    9.6667    0.0000 </r>
       <r>    9.8041    0.0000 </r>
       <r>   10.0833    0.0000 </r>
       <r>   10.2037    0.0000 </r>
       <r>   11.0066    0.0000 </r>
       <r>   11.5379    0.0000 </r>
       <r>   12.0524    0.0000 </r>
       <r>   12.4549    0.0000 </r>
       <r>   12.7520    0.0000 </r>
       <r>   12.9840    0.0000 </r>
       <r>   13.3927    0.0000 </r>
       <r>   13.8990    0.0000 </r>
       <r>   14.5258    0.0000 </r>
       <r>   14.8057    0.0000 </r>
       <r>   15.2293    0.0000 </r>
       <r>   15.4524    0.0000 </r>
       <r>   16.1321    0.0000 </r>
      </set>
      <set comment="kpoint 14">
       <r>  -12.4009    1.0000 </r>
       <r>  -11.8913    1.0000 </r>
       <r>   -8.4826    1.0000 </r>
       <r>   -8.3384    1.0000 </r>
       <r>   -5.9729    1.0000 </r>
       <r>   -5.9511    1.0000 </r>
       <r>   -4.8139    1.0000 </r>
       <r>   -4.3863    1.0000 </r>
       <r>   -4.2771    1.0000 </r>
       <r>   -2.8229    1.0000 </r>
       <r>   -2.3370    1.0000 </r>
       <r>   -2.1941    1.0000 </r>
       <r>   -1.0997    1.0000 </r>
       <r>   -1.0459    1.0000 </r>
       <r>   -0.4742    1.0000 </r>
       <r>   -0.3959    1.0000 </r>
       <r>    0.0374    1.0000 </r>
       <r>    0.0398    1.0000 </r>
       <r>    0.6193    1.0000 </r>
       <r>    1.0090    1.0000 </r>
       <r>    1.0912    1.0000 </r>
       <r>    1.5552    1.0000 </r>
       <r>    6.0693    0.0000 </r>
       <r>    6.1922    0.0000 </r>
       <r>    6.3628    0.0000 </r>
       <r>    6.7654    0.0000 </r>
       <r>    7.2572    0.0000 </r>
       <r>    7.7428    0.0000 </r>
       <r>    8.0304    0.0000 </r>
       <r>    8.9971    0.0000 </r>
       <r>    9.0578    0.0000 </r>
       <r>    9.1269    0.0000 </r>
       <r>    9.8347    0.0000 </r>
       <r>   10.1331    0.0000 </r>
       <r>   10.6522    0.0000 </r>
       <r>   11.0259    0.0000 </r>
       <r>   11.2627    0.0000 </r>
       <r>   11.8981    0.0000 </r>
       <r>   12.2917    0.0000 </r>
       <r>   12.9336    0.0000 </r>
       <r>   12.9846    0.0000 </r>
       <r>   13.7343    0.0000 </r>
       <r>   14.3144    0.0000 </r>
       <r>   14.3330    0.0000 </r>
       <r>   14.9653    0.0000 </r>
       <r>   15.0600    0.0000 </r>
       <r>   15.5455    0.0000 </r>
       <r>   16.3107    0.0000 </r>
      </set>
      <set comment="kpoint 15">
       <r>  -12.2472    1.0000 </r>
       <r>  -12.0725    1.0000 </r>
       <r>   -8.4157    1.0000 </r>
       <r>   -8.3633    1.0000 </r>
       <r>   -6.0623    1.0000 </r>
       <r>   -6.0571    1.0000 </r>
       <r>   -4.6470    1.0000 </r>
       <r>   -4.4623    1.0000 </r>
       <r>   -3.8747    1.0000 </r>
       <r>   -3.2794    1.0000 </r>
       <r>   -2.0548    1.0000 </r>
       <r>   -1.8901    1.0000 </r>
       <r>   -1.1189    1.0000 </r>
       <r>   -1.0590    1.0000 </r>
       <r>   -0.6507    1.0000 </r>
       <r>   -0.6459    1.0000 </r>
       <r>   -0.0117    1.0000 </r>
       <r>    0.0318    1.0000 </r>
       <r>    0.8763    1.0000 </r>
       <r>    0.9466    1.0000 </r>
       <r>    0.9870    1.0000 </r>
       <r>    1.2027    1.0000 </r>
       <r>    6.1612    0.0000 </r>
       <r>    6.2803    0.0000 </r>
       <r>    6.8425    0.0000 </r>
       <r>    7.1784    0.0000 </r>
       <r>    7.2361    0.0000 </r>
       <r>    7.5848    0.0000 </r>
       <r>    7.8892    0.0000 </r>
       <r>    8.3979    0.0000 </r>
       <r>    9.0526    0.0000 </r>
       <r>    9.0842    0.0000 </r>
       <r>    9.9594    0.0000 </r>
       <r>   10.4320    0.0000 </r>
       <r>   10.6548    0.0000 </r>
       <r>   10.9294    0.0000 </r>
       <r>   11.6745    0.0000 </r>
       <r>   11.6878    0.0000 </r>
       <r>   12.0683    0.0000 </r>
       <r>   12.8489    0.0000 </r>
       <r>   13.3616    0.0000 </r>
       <r>   13.7067    0.0000 </r>
       <r>   14.1655    0.0000 </r>
       <r>   14.3196    0.0000 </r>
       <r>   14.9332    0.0000 </r>
       <r>   15.0720    0.0000 </r>
       <r>   15.9233    0.0000 </r>
       <r>   16.2259    0.0000 </r>
      </set>
      <set comment="kpoint 16">
       <r>  -12.5947    1.0000 </r>
       <r>  -11.4659    1.0000 </r>
       <r>   -8.5675    1.0000 </r>
       <r>   -8.3074    1.0000 </r>
       <r>   -5.9358    1.0000 </r>
       <r>   -5.6177    1.0000 </r>
       <r>   -4.9485    1.0000 </r>
       <r>   -4.5598    1.0000 </r>
       <r>   -4.4445    1.0000 </r>
       <r>   -4.1317    1.0000 </r>
       <r>   -3.4191    1.0000 </r>
       <r>   -1.2326    1.0000 </r>
       <r>   -1.0859    1.0000 </r>
       <r>   -1.0141    1.0000 </r>
       <r>   -0.2150    1.0000 </r>
       <r>    0.1970    1.0000 </r>
       <r>    0.3201    1.0000 </r>
       <r>    0.5710    1.0000 </r>
       <r>    0.7633    1.0000 </r>
       <r>    0.9642    1.0000 </r>
       <r>    0.9782    1.0000 </r>
       <r>    2.3142    0.0000 </r>
       <r>    4.9169    0.0000 </r>
       <r>    5.1302    0.0000 </r>
       <r>    6.3156    0.0000 </r>
       <r>    6.5453    0.0000 </r>
       <r>    7.2261    0.0000 </r>
       <r>    7.9208    0.0000 </r>
       <r>    8.6475    0.0000 </r>
       <r>    9.0148    0.0000 </r>
       <r>    9.4039    0.0000 </r>
       <r>    9.5328    0.0000 </r>
       <r>    9.5985    0.0000 </r>
       <r>   10.6929    0.0000 </r>
       <r>   11.2147    0.0000 </r>
       <r>   11.9150    0.0000 </r>
       <r>   11.9707    0.0000 </r>
       <r>   12.2381    0.0000 </r>
       <r>   12.3713    0.0000 </r>
       <r>   12.3980    0.0000 </r>
       <r>   12.5110    0.0000 </r>
       <r>   12.9286    0.0000 </r>
       <r>   13.7217    0.0000 </r>
       <r>   13.8250    0.0000 </r>
       <r>   14.3503    0.0000 </r>
       <r>   15.0428    0.0000 </r>
       <r>   15.3448    0.0000 </r>
       <r>   15.7820    0.0000 </r>
      </set>
      <set comment="kpoint 17">
       <r>  -12.5515    1.0000 </r>
       <r>  -11.5390    1.0000 </r>
       <r>   -8.5454    1.0000 </r>
       <r>   -8.2979    1.0000 </r>
       <r>   -5.8581    1.0000 </r>
       <r>   -5.5830    1.0000 </r>
       <r>   -5.2844    1.0000 </r>
       <r>   -4.6934    1.0000 </r>
       <r>   -4.5095    1.0000 </r>
       <r>   -3.6690    1.0000 </r>
       <r>   -3.0819    1.0000 </r>
       <r>   -1.4003    1.0000 </r>
       <r>   -1.1761    1.0000 </r>
       <r>   -1.0291    1.0000 </r>
       <r>   -0.2161    1.0000 </r>
       <r>    0.1805    1.0000 </r>
       <r>    0.2540    1.0000 </r>
       <r>    0.5508    1.0000 </r>
       <r>    0.6419    1.0000 </r>
       <r>    0.8987    1.0000 </r>
       <r>    0.9366    1.0000 </r>
       <r>    2.1769    0.0000 </r>
       <r>    5.0129    0.0000 </r>
       <r>    5.4603    0.0000 </r>
       <r>    6.2615    0.0000 </r>
       <r>    6.6781    0.0000 </r>
       <r>    7.3613    0.0000 </r>
       <r>    7.8788    0.0000 </r>
       <r>    8.5866    0.0000 </r>
       <r>    9.1256    0.0000 </r>
       <r>    9.3717    0.0000 </r>
       <r>    9.7417    0.0000 </r>
       <r>    9.8394    0.0000 </r>
       <r>   10.2861    0.0000 </r>
       <r>   10.6554    0.0000 </r>
       <r>   11.6516    0.0000 </r>
       <r>   11.8365    0.0000 </r>
       <r>   12.1939    0.0000 </r>
       <r>   12.4220    0.0000 </r>
       <r>   12.5916    0.0000 </r>
       <r>   12.9028    0.0000 </r>
       <r>   13.3311    0.0000 </r>
       <r>   13.7243    0.0000 </r>
       <r>   13.8634    0.0000 </r>
       <r>   14.1909    0.0000 </r>
       <r>   15.0048    0.0000 </r>
       <r>   15.3740    0.0000 </r>
       <r>   15.6619    0.0000 </r>
      </set>
      <set comment="kpoint 18">
       <r>  -12.4669    1.0000 </r>
       <r>  -11.6706    1.0000 </r>
       <r>   -8.5005    1.0000 </r>
       <r>   -8.2870    1.0000 </r>
       <r>   -5.8207    1.0000 </r>
       <r>   -5.6692    1.0000 </r>
       <r>   -5.4303    1.0000 </r>
       <r>   -4.6670    1.0000 </r>
       <r>   -4.6309    1.0000 </r>
       <r>   -3.1309    1.0000 </r>
       <r>   -2.6135    1.0000 </r>
       <r>   -1.8842    1.0000 </r>
       <r>   -1.1156    1.0000 </r>
       <r>   -1.0484    1.0000 </r>
       <r>   -0.2341    1.0000 </r>
       <r>   -0.0732    1.0000 </r>
       <r>    0.2918    1.0000 </r>
       <r>    0.4843    1.0000 </r>
       <r>    0.4998    1.0000 </r>
       <r>    0.8095    1.0000 </r>
       <r>    0.8693    1.0000 </r>
       <r>    1.9176    0.0509 </r>
       <r>    5.3377    0.0000 </r>
       <r>    5.9329    0.0000 </r>
       <r>    6.2341    0.0000 </r>
       <r>    6.7919    0.0000 </r>
       <r>    7.5280    0.0000 </r>
       <r>    7.9011    0.0000 </r>
       <r>    8.5157    0.0000 </r>
       <r>    9.3119    0.0000 </r>
       <r>    9.3431    0.0000 </r>
       <r>    9.5455    0.0000 </r>
       <r>    9.9927    0.0000 </r>
       <r>   10.0552    0.0000 </r>
       <r>   10.5051    0.0000 </r>
       <r>   11.3323    0.0000 </r>
       <r>   11.3464    0.0000 </r>
       <r>   12.1882    0.0000 </r>
       <r>   12.6798    0.0000 </r>
       <r>   12.9041    0.0000 </r>
       <r>   13.1227    0.0000 </r>
       <r>   13.4596    0.0000 </r>
       <r>   13.6971    0.0000 </r>
       <r>   13.9551    0.0000 </r>
       <r>   14.3264    0.0000 </r>
       <r>   15.0965    0.0000 </r>
       <r>   15.2975    0.0000 </r>
       <r>   15.9255    0.0000 </r>
      </set>
      <set comment="kpoint 19">
       <r>  -12.3450    1.0000 </r>
       <r>  -11.8381    1.0000 </r>
       <r>   -8.4374    1.0000 </r>
       <r>   -8.2885    1.0000 </r>
       <r>   -5.8938    1.0000 </r>
       <r>   -5.8787    1.0000 </r>
       <r>   -5.3169    1.0000 </r>
       <r>   -4.7942    1.0000 </r>
       <r>   -4.3508    1.0000 </r>
       <r>   -2.7786    1.0000 </r>
       <r>   -2.2948    1.0000 </r>
       <r>   -2.1385    1.0000 </r>
       <r>   -1.0576    1.0000 </r>
       <r>   -1.0318    1.0000 </r>
       <r>   -0.3963    1.0000 </r>
       <r>   -0.3496    1.0000 </r>
       <r>    0.1299    1.0000 </r>
       <r>    0.3555    1.0000 </r>
       <r>    0.6391    1.0000 </r>
       <r>    0.7526    1.0000 </r>
       <r>    0.8026    1.0000 </r>
       <r>    1.5797    1.0000 </r>
       <r>    5.8633    0.0000 </r>
       <r>    6.2670    0.0000 </r>
       <r>    6.5087    0.0000 </r>
       <r>    6.7433    0.0000 </r>
       <r>    7.5286    0.0000 </r>
       <r>    7.9623    0.0000 </r>
       <r>    8.4712    0.0000 </r>
       <r>    8.8712    0.0000 </r>
       <r>    9.2244    0.0000 </r>
       <r>    9.5312    0.0000 </r>
       <r>    9.8475    0.0000 </r>
       <r>   10.2919    0.0000 </r>
       <r>   10.7436    0.0000 </r>
       <r>   11.0425    0.0000 </r>
       <r>   11.3803    0.0000 </r>
       <r>   12.1140    0.0000 </r>
       <r>   12.3571    0.0000 </r>
       <r>   13.1020    0.0000 </r>
       <r>   13.2259    0.0000 </r>
       <r>   13.5912    0.0000 </r>
       <r>   13.8353    0.0000 </r>
       <r>   14.0893    0.0000 </r>
       <r>   14.6953    0.0000 </r>
       <r>   14.9284    0.0000 </r>
       <r>   15.3659    0.0000 </r>
       <r>   16.2562    0.0000 </r>
      </set>
      <set comment="kpoint 20">
       <r>  -12.1921    1.0000 </r>
       <r>  -12.0184    1.0000 </r>
       <r>   -8.3695    1.0000 </r>
       <r>   -8.3155    1.0000 </r>
       <r>   -5.9853    1.0000 </r>
       <r>   -5.9782    1.0000 </r>
       <r>   -5.1564    1.0000 </r>
       <r>   -4.9759    1.0000 </r>
       <r>   -3.8428    1.0000 </r>
       <r>   -3.2495    1.0000 </r>
       <r>   -1.9982    1.0000 </r>
       <r>   -1.8440    1.0000 </r>
       <r>   -0.9966    1.0000 </r>
       <r>   -0.9369    1.0000 </r>
       <r>   -0.6927    1.0000 </r>
       <r>   -0.6497    1.0000 </r>
       <r>    0.1074    1.0000 </r>
       <r>    0.2084    1.0000 </r>
       <r>    0.7369    1.0000 </r>
       <r>    0.7532    1.0000 </r>
       <r>    0.9019    1.0000 </r>
       <r>    1.2242    1.0000 </r>
       <r>    6.4002    0.0000 </r>
       <r>    6.5214    0.0000 </r>
       <r>    6.5797    0.0000 </r>
       <r>    7.0968    0.0000 </r>
       <r>    7.1690    0.0000 </r>
       <r>    7.6523    0.0000 </r>
       <r>    8.4607    0.0000 </r>
       <r>    8.5246    0.0000 </r>
       <r>    9.4185    0.0000 </r>
       <r>    9.5876    0.0000 </r>
       <r>    9.7889    0.0000 </r>
       <r>   10.0898    0.0000 </r>
       <r>   10.8061    0.0000 </r>
       <r>   11.1840    0.0000 </r>
       <r>   11.8071    0.0000 </r>
       <r>   11.8864    0.0000 </r>
       <r>   12.1885    0.0000 </r>
       <r>   13.0812    0.0000 </r>
       <r>   13.3761    0.0000 </r>
       <r>   13.5578    0.0000 </r>
       <r>   13.7807    0.0000 </r>
       <r>   13.8850    0.0000 </r>
       <r>   15.0386    0.0000 </r>
       <r>   15.0555    0.0000 </r>
       <r>   15.6010    0.0000 </r>
       <r>   15.9021    0.0000 </r>
      </set>
      <set comment="kpoint 21">
       <r>  -12.5348    1.0000 </r>
[...]
       <r>   -2.3381    1.0000 </r>
       <r>   -2.1538    1.0000 </r>
       <r>   -1.9916    1.0000 </r>
       <r>   -1.5124    1.0000 </r>
       <r>   -0.7550    1.0000 </r>
       <r>   -0.2233    1.0000 </r>
       <r>    0.1495    1.0000 </r>
       <r>    0.3683    1.0000 </r>
       <r>    0.4878    1.0000 </r>
       <r>    1.5644    1.0000 </r>
       <r>    1.5907    1.0000 </r>
       <r>    1.8456    0.6555 </r>
       <r>    5.4818    0.0000 </r>
       <r>    6.1126    0.0000 </r>
       <r>    6.6325    0.0000 </r>
       <r>    7.1703    0.0000 </r>
       <r>    7.7311    0.0000 </r>
       <r>    8.1861    0.0000 </r>
       <r>    8.9475    0.0000 </r>
       <r>    9.1015    0.0000 </r>
       <r>    9.6735    0.0000 </r>
       <r>    9.9072    0.0000 </r>
       <r>   10.5344    0.0000 </r>
       <r>   10.9883    0.0000 </r>
       <r>   11.1428    0.0000 </r>
       <r>   11.4102    0.0000 </r>
       <r>   11.5108    0.0000 </r>
       <r>   11.8983    0.0000 </r>
       <r>   12.7793    0.0000 </r>
       <r>   13.0692    0.0000 </r>
       <r>   13.3084    0.0000 </r>
       <r>   13.6845    0.0000 </r>
       <r>   13.7994    0.0000 </r>
       <r>   14.0928    0.0000 </r>
       <r>   14.4071    0.0000 </r>
       <r>   14.9088    0.0000 </r>
       <r>   15.0270    0.0000 </r>
       <r>   15.3266    0.0000 </r>
      </set>
      <set comment="kpoint 175">
       <r>  -12.0171    1.0000 </r>
       <r>  -11.8780    1.0000 </r>
       <r>   -8.5540    1.0000 </r>
       <r>   -8.4417    1.0000 </r>
       <r>   -5.9354    1.0000 </r>
       <r>   -5.8301    1.0000 </r>
       <r>   -4.9058    1.0000 </r>
       <r>   -4.5839    1.0000 </r>
       <r>   -4.4261    1.0000 </r>
       <r>   -3.9898    1.0000 </r>
       <r>   -2.2062    1.0000 </r>
       <r>   -2.1450    1.0000 </r>
       <r>   -2.0803    1.0000 </r>
       <r>   -1.7960    1.0000 </r>
       <r>   -0.2393    1.0000 </r>
       <r>   -0.0279    1.0000 </r>
       <r>    0.3712    1.0000 </r>
       <r>    0.4589    1.0000 </r>
       <r>    0.5249    1.0000 </r>
       <r>    0.8522    1.0000 </r>
       <r>    1.6047    1.0000 </r>
       <r>    1.7042    1.0000 </r>
       <r>    5.8262    0.0000 </r>
       <r>    6.0105    0.0000 </r>
       <r>    6.8354    0.0000 </r>
       <r>    7.3571    0.0000 </r>
       <r>    7.4366    0.0000 </r>
       <r>    7.5261    0.0000 </r>
       <r>    9.3521    0.0000 </r>
       <r>    9.5329    0.0000 </r>
       <r>    9.7405    0.0000 </r>
       <r>    9.9180    0.0000 </r>
       <r>   10.4086    0.0000 </r>
       <r>   10.7546    0.0000 </r>
       <r>   11.1936    0.0000 </r>
       <r>   11.4513    0.0000 </r>
       <r>   11.4557    0.0000 </r>
       <r>   11.5592    0.0000 </r>
       <r>   13.0214    0.0000 </r>
       <r>   13.1257    0.0000 </r>
       <r>   13.6435    0.0000 </r>
       <r>   13.9877    0.0000 </r>
       <r>   14.1195    0.0000 </r>
       <r>   14.2177    0.0000 </r>
       <r>   14.5267    0.0000 </r>
       <r>   14.6775    0.0000 </r>
       <r>   14.8282    0.0000 </r>
       <r>   14.9728    0.0000 </r>
      </set>
     </set>
    </set>
   </array>
  </eigenvalues>
  <separator name="orbital magnetization" >
   <v name="MAGDIPOLOUT">      0.00000000      0.00000000      0.00000000</v>
  </separator>
  <dos>
   <i name="efermi">      1.85972603 </i>
   <total>
    <array>
     <dimension dim="1">gridpoints</dimension>
     <dimension dim="2">spin</dimension>
     <field>energy</field>
     <field>total</field>
     <field>integrated</field>
     <set>
      <set comment="spin 1">
       <r>   -14.1783     0.0000     0.0000 </r>
       <r>   -14.0714     0.0000     0.0000 </r>
       <r>   -13.9644     0.0000     0.0000 </r>
       <r>   -13.8575     0.0000     0.0000 </r>
       <r>   -13.7505     0.0000     0.0000 </r>
       <r>   -13.6436     0.0000     0.0000 </r>
       <r>   -13.5367     0.0000     0.0000 </r>
       <r>   -13.4297     0.0000     0.0000 </r>
       <r>   -13.3228     0.0000     0.0000 </r>
       <r>   -13.2158     0.0000     0.0000 </r>
       <r>   -13.1089     0.0000     0.0000 </r>
       <r>   -13.0020     0.0000     0.0000 </r>
       <r>   -12.8950     0.0000     0.0000 </r>
       <r>   -12.7881     0.0039     0.0004 </r>
       <r>   -12.6812     0.5102     0.0550 </r>
       <r>   -12.5742     2.3951     0.3111 </r>
       <r>   -12.4673     3.5740     0.6933 </r>
       <r>   -12.3603     4.3789     1.1616 </r>
       <r>   -12.2534     3.5391     1.5400 </r>
       <r>   -12.1465     2.7374     1.8328 </r>
       <r>   -12.0395     2.7555     2.1274 </r>
       <r>   -11.9326     2.4987     2.3947 </r>
       <r>   -11.8256     2.7720     2.6911 </r>
       <r>   -11.7187     3.4110     3.0559 </r>
       <r>   -11.6118     3.5372     3.4341 </r>
       <r>   -11.5048     3.1391     3.7698 </r>
       <r>   -11.3979     1.6990     3.9515 </r>
       <r>   -11.2909     0.4447     3.9991 </r>
       <r>   -11.1840     0.0087     4.0000 </r>
       <r>   -11.0771     0.0000     4.0000 </r>
       <r>   -10.9701     0.0000     4.0000 </r>
       <r>   -10.8632     0.0000     4.0000 </r>
       <r>   -10.7563     0.0000     4.0000 </r>
       <r>   -10.6493     0.0000     4.0000 </r>
       <r>   -10.5424     0.0000     4.0000 </r>
       <r>   -10.4354     0.0000     4.0000 </r>
       <r>   -10.3285     0.0000     4.0000 </r>
       <r>   -10.2216     0.0000     4.0000 </r>
       <r>   -10.1146     0.0000     4.0000 </r>
       <r>   -10.0077     0.0000     4.0000 </r>
       <r>    -9.9007     0.0000     4.0000 </r>
       <r>    -9.7938     0.0000     4.0000 </r>
       <r>    -9.6869     0.0000     4.0000 </r>
       <r>    -9.5799     0.0000     4.0000 </r>
       <r>    -9.4730     0.0000     4.0000 </r>
       <r>    -9.3660     0.0000     4.0000 </r>
       <r>    -9.2591     0.0000     4.0000 </r>
       <r>    -9.1522     0.0000     4.0000 </r>
       <r>    -9.0452     0.0000     4.0000 </r>
       <r>    -8.9383     0.0007     4.0001 </r>
       <r>    -8.8314     0.2821     4.0302 </r>
       <r>    -8.7244     2.1126     4.2562 </r>
       <r>    -8.6175     5.3798     4.8315 </r>
       <r>    -8.5105     7.0164     5.5818 </r>
       <r>    -8.4036     6.2823     6.2536 </r>
       <r>    -8.2967     5.3298     6.8236 </r>
       <r>    -8.1897     4.8479     7.3420 </r>
       <r>    -8.0828     3.8624     7.7550 </r>
       <r>    -7.9758     1.6617     7.9328 </r>
       <r>    -7.8689     0.5766     7.9944 </r>
       <r>    -7.7620     0.0522     8.0000 </r>
       <r>    -7.6550     0.0000     8.0000 </r>
       <r>    -7.5481     0.0000     8.0000 </r>
       <r>    -7.4412     0.0000     8.0000 </r>
       <r>    -7.3342     0.0000     8.0000 </r>
       <r>    -7.2273     0.0000     8.0000 </r>
       <r>    -7.1203     0.0000     8.0000 </r>
       <r>    -7.0134     0.0004     8.0000 </r>
       <r>    -6.9065     0.1097     8.0118 </r>
       <r>    -6.7995     0.2597     8.0395 </r>
       <r>    -6.6926     0.4242     8.0849 </r>
       <r>    -6.5856     0.7664     8.1669 </r>
       <r>    -6.4787     0.8448     8.2572 </r>
       <r>    -6.3718     1.4318     8.4103 </r>
       <r>    -6.2648     1.9338     8.6171 </r>
       <r>    -6.1579     3.0507     8.9434 </r>
       <r>    -6.0509     3.8012     9.3499 </r>
       <r>    -5.9440     4.1241     9.7909 </r>
       <r>    -5.8371     4.0538    10.2244 </r>
       <r>    -5.7301     3.8883    10.6402 </r>
       <r>    -5.6232     4.0766    11.0762 </r>
       <r>    -5.5163     4.2164    11.5271 </r>
       <r>    -5.4093     4.5695    12.0157 </r>
       <r>    -5.3024     4.6266    12.5105 </r>
       <r>    -5.1954     4.4991    12.9916 </r>
       <r>    -5.0885     3.8855    13.4071 </r>
       <r>    -4.9816     3.2216    13.7516 </r>
       <r>    -4.8746     2.9772    14.0700 </r>
       <r>    -4.7677     2.3046    14.3165 </r>
       <r>    -4.6607     2.8981    14.6264 </r>
       <r>    -4.5538     3.3729    14.9871 </r>
       <r>    -4.4469     3.4438    15.3554 </r>
       <r>    -4.3399     3.3663    15.7153 </r>
       <r>    -4.2330     2.9647    16.0324 </r>
       <r>    -4.1260     2.9121    16.3438 </r>
       <r>    -4.0191     2.9292    16.6571 </r>
       <r>    -3.9122     2.8866    16.9657 </r>
       <r>    -3.8052     3.1046    17.2977 </r>
       <r>    -3.6983     2.9005    17.6079 </r>
       <r>    -3.5914     2.7087    17.8976 </r>
       <r>    -3.4844     3.0794    18.2269 </r>
       <r>    -3.3775     2.6630    18.5117 </r>
       <r>    -3.2705     2.8267    18.8140 </r>
       <r>    -3.1636     2.7995    19.1133 </r>
       <r>    -3.0567     2.7071    19.4028 </r>
       <r>    -2.9497     3.0877    19.7330 </r>
       <r>    -2.8428     2.9874    20.0525 </r>
       <r>    -2.7358     2.4487    20.3144 </r>
       <r>    -2.6289     2.6338    20.5960 </r>
       <r>    -2.5220     3.0095    20.9178 </r>
       <r>    -2.4150     3.0076    21.2395 </r>
       <r>    -2.3081     3.1799    21.5795 </r>
       <r>    -2.2012     4.0004    22.0073 </r>
       <r>    -2.0942     3.6562    22.3983 </r>
       <r>    -1.9873     3.2001    22.7405 </r>
       <r>    -1.8803     4.9760    23.2727 </r>
       <r>    -1.7734     5.5268    23.8637 </r>
       <r>    -1.6665     5.6554    24.4685 </r>
       <r>    -1.5595     6.1680    25.1281 </r>
       <r>    -1.4526     6.1544    25.7862 </r>
       <r>    -1.3456     5.6198    26.3872 </r>
       <r>    -1.2387     4.6900    26.8887 </r>
       <r>    -1.1318     6.4837    27.5821 </r>
       <r>    -1.0248     4.2000    28.0312 </r>
       <r>    -0.9179     2.2905    28.2762 </r>
       <r>    -0.8109     2.7073    28.5657 </r>
       <r>    -0.7040     2.8849    28.8742 </r>
       <r>    -0.5971     4.4181    29.3467 </r>
       <r>    -0.4901     6.8082    30.0747 </r>
       <r>    -0.3832     5.6854    30.6827 </r>
       <r>    -0.2763     6.6261    31.3913 </r>
       <r>    -0.1693     6.3881    32.0744 </r>
       <r>    -0.0624     6.7334    32.7945 </r>
       <r>     0.0446     6.8447    33.5265 </r>
       <r>     0.1515     6.2312    34.1928 </r>
       <r>     0.2584     8.8409    35.1382 </r>
       <r>     0.3654     8.1152    36.0061 </r>
       <r>     0.4723     8.6758    36.9338 </r>
       <r>     0.5793     5.4165    37.5131 </r>
       <r>     0.6862     3.0258    37.8367 </r>
       <r>     0.7931     3.2206    38.1811 </r>
       <r>     0.9001     3.5924    38.5652 </r>
       <r>     1.0070     3.5859    38.9487 </r>
       <r>     1.1140     2.8112    39.2493 </r>
       <r>     1.2209     3.3591    39.6086 </r>
       <r>     1.3278     4.4690    40.0865 </r>
       <r>     1.4348     3.8288    40.4959 </r>
       <r>     1.5417     3.6956    40.8911 </r>
       <r>     1.6486     4.5917    41.3821 </r>
       <r>     1.7556     3.3707    41.7426 </r>
       <r>     1.8625     2.4743    42.0072 </r>
       <r>     1.9695     2.6820    42.2940 </r>
       <r>     2.0764     2.0986    42.5184 </r>
       <r>     2.1833     2.6465    42.8014 </r>
       <r>     2.2903     2.6165    43.0812 </r>
       <r>     2.3972     1.9849    43.2935 </r>
       <r>     2.5042     0.9133    43.3912 </r>
       <r>     2.6111     0.3803    43.4318 </r>
       <r>     2.7180     0.5759    43.4934 </r>
       <r>     2.8250     0.4212    43.5385 </r>
       <r>     2.9319     0.3059    43.5712 </r>
       <r>     3.0388     0.7297    43.6492 </r>
       <r>     3.1458     1.0262    43.7590 </r>
       <r>     3.2527     0.5746    43.8204 </r>
       <r>     3.3597     0.0173    43.8223 </r>
       <r>     3.4666     0.1183    43.8349 </r>
       <r>     3.5735     0.3917    43.8768 </r>
       <r>     3.6805     0.3415    43.9133 </r>
       <r>     3.7874     0.3630    43.9521 </r>
       <r>     3.8944     0.4149    43.9965 </r>
       <r>     4.0013     0.0326    44.0000 </r>
       <r>     4.1082     0.0000    44.0000 </r>
       <r>     4.2152     0.0177    44.0019 </r>
       <r>     4.3221     0.1630    44.0193 </r>
       <r>     4.4291     0.3810    44.0601 </r>
       <r>     4.5360     0.4471    44.1079 </r>
       <r>     4.6429     0.6191    44.1741 </r>
       <r>     4.7499     0.8679    44.2669 </r>
       <r>     4.8568     0.8385    44.3566 </r>
       <r>     4.9637     0.8677    44.4493 </r>
       <r>     5.0707     1.2482    44.5828 </r>
       <r>     5.1776     1.1836    44.7094 </r>
       <r>     5.2846     1.5877    44.8792 </r>
       <r>     5.3915     2.1346    45.1075 </r>
       <r>     5.4984     2.5046    45.3753 </r>
       <r>     5.6054     2.7973    45.6744 </r>
       <r>     5.7123     3.2903    46.0263 </r>
       <r>     5.8193     3.2714    46.3762 </r>
       <r>     5.9262     4.2283    46.8283 </r>
       <r>     6.0331     4.8139    47.3431 </r>
       <r>     6.1401     4.0939    47.7809 </r>
       <r>     6.2470     4.5999    48.2728 </r>
       <r>     6.3540     4.2874    48.7313 </r>
       <r>     6.4609     3.9580    49.1546 </r>
       <r>     6.5678     4.5263    49.6386 </r>
       <r>     6.6748     3.2619    49.9874 </r>
       <r>     6.7817     3.9578    50.4107 </r>
       <r>     6.8886     4.6040    50.9030 </r>
       <r>     6.9956     4.5927    51.3941 </r>
       <r>     7.1025     4.3400    51.8583 </r>
       <r>     7.2095     5.5738    52.4543 </r>
       <r>     7.3164     5.0025    52.9893 </r>
       <r>     7.4233     4.4854    53.4689 </r>
       <r>     7.5303     4.2348    53.9218 </r>
       <r>     7.6372     3.5966    54.3064 </r>
       <r>     7.7442     3.1047    54.6384 </r>
       <r>     7.8511     3.0323    54.9627 </r>
       <r>     7.9580     2.9692    55.2802 </r>
       <r>     8.0650     4.1560    55.7247 </r>
       <r>     8.1719     3.9294    56.1449 </r>
       <r>     8.2789     3.7479    56.5457 </r>
       <r>     8.3858     4.0147    56.9750 </r>
       <r>     8.4927     4.2537    57.4299 </r>
       <r>     8.5997     4.4970    57.9108 </r>
       <r>     8.7066     4.2951    58.3701 </r>
       <r>     8.8135     5.3518    58.9424 </r>
       <r>     8.9205     4.8006    59.4558 </r>
       <r>     9.0274     5.2798    60.0204 </r>
       <r>     9.1344     5.2279    60.5795 </r>
       <r>     9.2413     5.0163    61.1159 </r>
       <r>     9.3482     4.6641    61.6147 </r>
       <r>     9.4552     4.4079    62.0860 </r>
       <r>     9.5621     5.0894    62.6303 </r>
       <r>     9.6691     5.0400    63.1693 </r>
       <r>     9.7760     5.2826    63.7342 </r>
       <r>     9.8829     4.4973    64.2151 </r>
       <r>     9.9899     3.6914    64.6099 </r>
       <r>    10.0968     5.1913    65.1650 </r>
       <r>    10.2037     4.7240    65.6702 </r>
       <r>    10.3107     4.1642    66.1155 </r>
       <r>    10.4176     5.3325    66.6858 </r>
       <r>    10.5246     5.8338    67.3096 </r>
       <r>    10.6315     4.0852    67.7465 </r>
       <r>    10.7384     3.9155    68.1652 </r>
       <r>    10.8454     3.2809    68.5161 </r>
       <r>    10.9523     4.6936    69.0180 </r>
       <r>    11.0593     5.4064    69.5962 </r>
       <r>    11.1662     6.2947    70.2693 </r>
       <r>    11.2731     6.0079    70.9118 </r>
       <r>    11.3801     5.1881    71.4666 </r>
       <r>    11.4870     4.4225    71.9395 </r>
       <r>    11.5940     4.4770    72.4183 </r>
       <r>    11.7009     4.9847    72.9513 </r>
       <r>    11.8078     4.8280    73.4676 </r>
       <r>    11.9148     5.9912    74.1083 </r>
       <r>    12.0217     6.0178    74.7519 </r>
       <r>    12.1286     6.0619    75.4001 </r>
       <r>    12.2356     5.5470    75.9933 </r>
       <r>    12.3425     4.9992    76.5279 </r>
       <r>    12.4495     5.7226    77.1399 </r>
       <r>    12.5564     5.9684    77.7782 </r>
       <r>    12.6633     5.9401    78.4134 </r>
       <r>    12.7703     5.9535    79.0500 </r>
       <r>    12.8772     5.8917    79.6801 </r>
       <r>    12.9842     5.6248    80.2816 </r>
       <r>    13.0911     6.3479    80.9604 </r>
       <r>    13.1980     6.3194    81.6362 </r>
       <r>    13.3050     5.4614    82.2203 </r>
       <r>    13.4119     6.1206    82.8748 </r>
       <r>    13.5189     5.4348    83.4560 </r>
       <r>    13.6258     4.8427    83.9739 </r>
       <r>    13.7327     6.1865    84.6354 </r>
       <r>    13.8397     5.5175    85.2255 </r>
       <r>    13.9466     5.3716    85.7999 </r>
       <r>    14.0535     5.4780    86.3857 </r>
       <r>    14.1605     4.6764    86.8858 </r>
       <r>    14.2674     4.9656    87.4168 </r>
       <r>    14.3744     4.9602    87.9473 </r>
       <r>    14.4813     4.9412    88.4757 </r>
       <r>    14.5882     5.2740    89.0397 </r>
       <r>    14.6952     5.2019    89.5959 </r>
       <r>    14.8021     4.1016    90.0346 </r>
       <r>    14.9091     5.0128    90.5706 </r>
       <r>    15.0160     6.1410    91.2273 </r>
       <r>    15.1229     5.7054    91.8375 </r>
       <r>    15.2299     5.7250    92.4497 </r>
       <r>    15.3368     5.9970    93.0910 </r>
       <r>    15.4437     5.7725    93.7083 </r>
       <r>    15.5507     6.0139    94.3514 </r>
       <r>    15.6576     4.6272    94.8463 </r>
       <r>    15.7646     2.5162    95.1153 </r>
       <r>    15.8715     2.7082    95.4049 </r>
       <r>    15.9784     1.8428    95.6020 </r>
       <r>    16.0854     1.1322    95.7231 </r>
       <r>    16.1923     0.9006    95.8194 </r>
       <r>    16.2993     0.6930    95.8935 </r>
       <r>    16.4062     0.8161    95.9808 </r>
       <r>    16.5131     0.1780    95.9998 </r>
       <r>    16.6201     0.0017    96.0000 </r>
       <r>    16.7270     0.0000    96.0000 </r>
       <r>    16.8340     0.0000    96.0000 </r>
       <r>    16.9409     0.0000    96.0000 </r>
       <r>    17.0478     0.0000    96.0000 </r>
       <r>    17.1548     0.0000    96.0000 </r>
       <r>    17.2617     0.0000    96.0000 </r>
       <r>    17.3686     0.0000    96.0000 </r>
       <r>    17.4756     0.0000    96.0000 </r>
       <r>    17.5825     0.0000    96.0000 </r>
       <r>    17.6895     0.0000    96.0000 </r>
       <r>    17.7964     0.0000    96.0000 </r>
       <r>    17.9033     0.0000    96.0000 </r>
      </set>
     </set>
    </array>
   </total>
  </dos>
 </calculation>
 <structure name="finalpos" >
  <crystal>
   <varray name="basis" >
    <v>       5.70497580       0.00000000       0.00000000 </v>
    <v>       0.00000000       4.05356706       0.00000000 </v>
    <v>       0.00000000       0.00000000       6.21288588 </v>
   </varray>
   <i name="volume">    143.67610473 </i>
   <varray name="rec_basis" >
    <v>       0.17528558       0.00000000       0.00000000 </v>
    <v>       0.00000000       0.24669630       0.00000000 </v>
    <v>       0.00000000       0.00000000       0.16095580 </v>
   </varray>
  </crystal>
  <varray name="positions" >
   <v>       0.52123000       0.50000000       0.63796000 </v>
   <v>       0.47877000       0.50000000       0.36204000 </v>
   <v>       0.97877000       0.50000000       0.63796000 </v>
   <v>       0.02123000       0.50000000       0.36204000 </v>
   <v>       0.60090000       0.50000000       0.89991000 </v>
   <v>       0.39910000       0.50000000       0.10009000 </v>
   <v>       0.89910000       0.50000000       0.89991000 </v>
   <v>       0.10090000       0.50000000       0.10009000 </v>
   <v>       0.75000000       0.79171000       0.72973000 </v>
   <v>       0.25000000       0.20829000       0.27027000 </v>
   <v>       0.75000000       0.20829000       0.72973000 </v>
   <v>       0.25000000       0.79171000       0.27027000 </v>
   <v>       0.25000000       0.50000000       0.52367000 </v>
   <v>       0.75000000       0.50000000       0.47633000 </v>
  </varray>
 </structure>
</modeling>
