  14  14   0   0
  0.1021960E+02  0.5697000E-09  0.4047900E-09  0.6204200E-09  0.5000000E-15
  1.000000000000000E-004
  CAR 
 Kpoints                                 
     18.02236539    -14.19902749  301      1.91679798      1.00000000
    -14.199  0.0000E+00  0.0000E+00
    -14.092  0.0000E+00  0.0000E+00
    -13.984  0.0000E+00  0.0000E+00
    -13.877  0.0000E+00  0.0000E+00
    -13.769  0.0000E+00  0.0000E+00
    -13.662  0.0000E+00  0.0000E+00
    -13.555  0.0000E+00  0.0000E+00
    -13.447  0.0000E+00  0.0000E+00
    -13.340  0.0000E+00  0.0000E+00
    -13.232  0.0000E+00  0.0000E+00
    -13.125  0.0000E+00  0.0000E+00
    -13.018  0.3938E-16  0.4229E-17
    -12.910  0.2776E-07  0.2982E-08
    -12.803  0.3713E-02  0.3987E-03
    -12.695  0.5017E+00  0.5428E-01
    -12.588  0.2364E+01  0.3082E+00
    -12.481  0.3525E+01  0.6867E+00
    -12.373  0.4345E+01  0.1153E+01
    -12.266  0.3522E+01  0.1532E+01
    -12.158  0.2725E+01  0.1824E+01
    -12.051  0.2736E+01  0.2118E+01
    -11.944  0.2465E+01  0.2383E+01
    -11.836  0.2762E+01  0.2680E+01
    -11.729  0.3342E+01  0.3039E+01
    -11.621  0.3517E+01  0.3416E+01
    -11.514  0.3172E+01  0.3757E+01
    -11.407  0.1750E+01  0.3945E+01
    -11.299  0.4992E+00  0.3999E+01
    -11.192  0.1332E-01  0.4000E+01
    -11.084  0.6943E-06  0.4000E+01
    -10.977  0.8532E-14  0.4000E+01
    -10.869  0.0000E+00  0.4000E+01
    -10.762  0.0000E+00  0.4000E+01
    -10.655  0.0000E+00  0.4000E+01
    -10.547  0.0000E+00  0.4000E+01
    -10.440  0.0000E+00  0.4000E+01
    -10.332  0.0000E+00  0.4000E+01
    -10.225  0.0000E+00  0.4000E+01
    -10.118  0.0000E+00  0.4000E+01
    -10.010  0.0000E+00  0.4000E+01
     -9.903  0.0000E+00  0.4000E+01
     -9.795  0.0000E+00  0.4000E+01
     -9.688  0.0000E+00  0.4000E+01
     -9.581  0.0000E+00  0.4000E+01
     -9.473  0.0000E+00  0.4000E+01
     -9.366  0.0000E+00  0.4000E+01
     -9.258  0.0000E+00  0.4000E+01
     -9.151  0.0000E+00  0.4000E+01
     -9.044  0.9349E-09  0.4000E+01
     -8.936  0.6359E-03  0.4000E+01
     -8.829  0.2812E+00  0.4030E+01
     -8.721  0.2094E+01  0.4255E+01
     -8.614  0.5329E+01  0.4828E+01
     -8.507  0.7008E+01  0.5580E+01
     -8.399  0.6260E+01  0.6253E+01
     -8.292  0.5285E+01  0.6820E+01
     -8.184  0.4820E+01  0.7338E+01
     -8.077  0.3863E+01  0.7753E+01
     -7.970  0.1666E+01  0.7932E+01
     -7.862  0.5821E+00  0.7994E+01
     -7.755  0.5323E-01  0.8000E+01
     -7.647  0.2557E-04  0.8000E+01
     -7.540  0.2911E-11  0.8000E+01
     -7.433  0.0000E+00  0.8000E+01
     -7.325  0.0000E+00  0.8000E+01
     -7.218  0.0000E+00  0.8000E+01
     -7.110  0.4127E-09  0.8000E+01
     -7.003  0.3704E-03  0.8000E+01
     -6.896  0.1109E+00  0.8012E+01
     -6.788  0.2589E+00  0.8040E+01
     -6.681  0.4271E+00  0.8086E+01
     -6.573  0.7649E+00  0.8168E+01
     -6.466  0.8589E+00  0.8260E+01
     -6.358  0.1459E+01  0.8417E+01
     -6.251  0.1966E+01  0.8628E+01
     -6.144  0.3065E+01  0.8957E+01
     -6.036  0.3784E+01  0.9363E+01
     -5.929  0.4124E+01  0.9806E+01
     -5.821  0.4074E+01  0.1024E+02
     -5.714  0.3834E+01  0.1066E+02
     -5.607  0.4091E+01  0.1110E+02
     -5.499  0.4255E+01  0.1155E+02
     -5.392  0.4546E+01  0.1204E+02
     -5.284  0.4561E+01  0.1253E+02
     -5.177  0.4468E+01  0.1301E+02
     -5.070  0.3826E+01  0.1342E+02
     -4.962  0.3219E+01  0.1377E+02
     -4.855  0.2936E+01  0.1408E+02
     -4.747  0.2309E+01  0.1433E+02
     -4.640  0.2885E+01  0.1464E+02
     -4.533  0.3351E+01  0.1500E+02
     -4.425  0.3460E+01  0.1537E+02
     -4.318  0.3326E+01  0.1573E+02
     -4.210  0.2946E+01  0.1605E+02
     -4.103  0.2888E+01  0.1636E+02
     -3.996  0.2928E+01  0.1667E+02
     -3.888  0.2856E+01  0.1698E+02
     -3.781  0.3067E+01  0.1731E+02
     -3.673  0.2923E+01  0.1762E+02
     -3.566  0.2677E+01  0.1791E+02
     -3.459  0.3066E+01  0.1824E+02
     -3.351  0.2633E+01  0.1852E+02
     -3.244  0.2849E+01  0.1883E+02
     -3.136  0.2718E+01  0.1912E+02
     -3.029  0.2748E+01  0.1941E+02
     -2.922  0.3057E+01  0.1974E+02
     -2.814  0.2966E+01  0.2006E+02
     -2.707  0.2427E+01  0.2032E+02
     -2.599  0.2604E+01  0.2060E+02
     -2.492  0.2977E+01  0.2092E+02
     -2.385  0.3002E+01  0.2124E+02
     -2.277  0.3330E+01  0.2160E+02
     -2.170  0.3913E+01  0.2202E+02
     -2.062  0.3606E+01  0.2241E+02
     -1.955  0.3146E+01  0.2275E+02
     -1.847  0.4924E+01  0.2327E+02
     -1.740  0.5617E+01  0.2388E+02
     -1.633  0.5604E+01  0.2448E+02
     -1.525  0.6109E+01  0.2514E+02
     -1.418  0.6085E+01  0.2579E+02
     -1.310  0.5625E+01  0.2639E+02
     -1.203  0.4710E+01  0.2690E+02
     -1.096  0.6430E+01  0.2759E+02
     -0.988  0.4122E+01  0.2803E+02
     -0.881  0.2290E+01  0.2828E+02
     -0.773  0.2713E+01  0.2857E+02
     -0.666  0.2870E+01  0.2888E+02
     -0.559  0.4428E+01  0.2935E+02
     -0.451  0.6809E+01  0.3008E+02
     -0.344  0.5609E+01  0.3069E+02
     -0.236  0.6586E+01  0.3139E+02
     -0.129  0.6339E+01  0.3208E+02
     -0.022  0.6703E+01  0.3280E+02
      0.086  0.6780E+01  0.3352E+02
      0.193  0.6145E+01  0.3418E+02
      0.301  0.8814E+01  0.3513E+02
      0.408  0.8103E+01  0.3600E+02
      0.515  0.8613E+01  0.3693E+02
      0.623  0.5380E+01  0.3750E+02
      0.730  0.3048E+01  0.3783E+02
      0.838  0.3167E+01  0.3817E+02
      0.945  0.3582E+01  0.3856E+02
      1.052  0.3528E+01  0.3893E+02
      1.160  0.2810E+01  0.3924E+02
      1.267  0.3252E+01  0.3959E+02
      1.375  0.4331E+01  0.4005E+02
      1.482  0.3907E+01  0.4047E+02
      1.589  0.3689E+01  0.4087E+02
      1.697  0.4541E+01  0.4135E+02
      1.804  0.3424E+01  0.4172E+02
      1.912  0.2460E+01  0.4199E+02
      2.019  0.2690E+01  0.4228E+02
      2.126  0.2123E+01  0.4250E+02
      2.234  0.2631E+01  0.4279E+02
      2.341  0.2642E+01  0.4307E+02
      2.449  0.2030E+01  0.4329E+02
      2.556  0.9454E+00  0.4339E+02
      2.664  0.3839E+00  0.4343E+02
      2.771  0.5699E+00  0.4349E+02
      2.878  0.4223E+00  0.4354E+02
      2.986  0.2974E+00  0.4357E+02
      3.093  0.7097E+00  0.4365E+02
      3.201  0.1028E+01  0.4376E+02
      3.308  0.5994E+00  0.4382E+02
      3.415  0.1916E-01  0.4382E+02
      3.523  0.9970E-01  0.4383E+02
      3.630  0.3901E+00  0.4387E+02
      3.738  0.3507E+00  0.4391E+02
      3.845  0.3461E+00  0.4395E+02
      3.952  0.4321E+00  0.4400E+02
      4.060  0.3637E-01  0.4400E+02
      4.167  0.3804E-04  0.4400E+02
      4.275  0.3433E-01  0.4400E+02
      4.382  0.1781E+00  0.4402E+02
      4.489  0.4038E+00  0.4407E+02
      4.597  0.4732E+00  0.4412E+02
      4.704  0.6324E+00  0.4418E+02
      4.812  0.8909E+00  0.4428E+02
      4.919  0.8355E+00  0.4437E+02
      5.026  0.8470E+00  0.4446E+02
      5.134  0.1254E+01  0.4460E+02
      5.241  0.1143E+01  0.4472E+02
      5.349  0.1613E+01  0.4489E+02
      5.456  0.2190E+01  0.4513E+02
      5.563  0.2493E+01  0.4539E+02
      5.671  0.2734E+01  0.4569E+02
      5.778  0.3353E+01  0.4605E+02
      5.886  0.3256E+01  0.4640E+02
      5.993  0.4279E+01  0.4686E+02
      6.100  0.4780E+01  0.4737E+02
      6.208  0.4014E+01  0.4780E+02
      6.315  0.4616E+01  0.4830E+02
      6.423  0.4164E+01  0.4875E+02
      6.530  0.4046E+01  0.4918E+02
      6.637  0.4483E+01  0.4966E+02
      6.745  0.3195E+01  0.5000E+02
      6.852  0.4022E+01  0.5044E+02
      6.960  0.4643E+01  0.5094E+02
      7.067  0.4607E+01  0.5143E+02
      7.174  0.4370E+01  0.5190E+02
      7.282  0.5659E+01  0.5251E+02
      7.389  0.4897E+01  0.5303E+02
      7.497  0.4448E+01  0.5351E+02
      7.604  0.4152E+01  0.5396E+02
      7.712  0.3563E+01  0.5434E+02
      7.819  0.3129E+01  0.5468E+02
      7.926  0.2946E+01  0.5499E+02
      8.034  0.3062E+01  0.5532E+02
      8.141  0.4214E+01  0.5577E+02
      8.249  0.3944E+01  0.5620E+02
      8.356  0.3640E+01  0.5659E+02
      8.463  0.4157E+01  0.5703E+02
      8.571  0.4072E+01  0.5747E+02
      8.678  0.4602E+01  0.5797E+02
      8.786  0.4420E+01  0.5844E+02
      8.893  0.5423E+01  0.5902E+02
      9.000  0.4638E+01  0.5952E+02
      9.108  0.5358E+01  0.6010E+02
      9.215  0.5176E+01  0.6065E+02
      9.323  0.4891E+01  0.6118E+02
      9.430  0.4715E+01  0.6168E+02
      9.537  0.4325E+01  0.6215E+02
      9.645  0.5156E+01  0.6270E+02
      9.752  0.4894E+01  0.6323E+02
      9.860  0.5301E+01  0.6380E+02
      9.967  0.4274E+01  0.6426E+02
     10.074  0.3786E+01  0.6466E+02
     10.182  0.5414E+01  0.6525E+02
     10.289  0.4485E+01  0.6573E+02
     10.397  0.4184E+01  0.6618E+02
     10.504  0.5768E+01  0.6680E+02
     10.611  0.5320E+01  0.6737E+02
     10.719  0.4182E+01  0.6782E+02
     10.826  0.3711E+01  0.6822E+02
     10.934  0.3355E+01  0.6858E+02
     11.041  0.5004E+01  0.6911E+02
     11.148  0.5351E+01  0.6969E+02
     11.256  0.6541E+01  0.7039E+02
     11.363  0.5665E+01  0.7100E+02
     11.471  0.5239E+01  0.7156E+02
     11.578  0.4330E+01  0.7203E+02
     11.685  0.4495E+01  0.7251E+02
     11.793  0.5009E+01  0.7305E+02
     11.900  0.4939E+01  0.7358E+02
     12.008  0.5880E+01  0.7421E+02
     12.115  0.6218E+01  0.7488E+02
     12.223  0.5686E+01  0.7549E+02
     12.330  0.5674E+01  0.7610E+02
     12.437  0.4901E+01  0.7662E+02
     12.545  0.5601E+01  0.7723E+02
     12.652  0.6095E+01  0.7788E+02
     12.760  0.5939E+01  0.7852E+02
     12.867  0.5717E+01  0.7913E+02
     12.974  0.5921E+01  0.7977E+02
     13.082  0.5619E+01  0.8037E+02
     13.189  0.6406E+01  0.8106E+02
     13.297  0.5970E+01  0.8170E+02
     13.404  0.5638E+01  0.8231E+02
     13.511  0.6045E+01  0.8296E+02
     13.619  0.5238E+01  0.8352E+02
     13.726  0.4768E+01  0.8403E+02
     13.834  0.6432E+01  0.8472E+02
     13.941  0.5238E+01  0.8528E+02
     14.048  0.5436E+01  0.8587E+02
     14.156  0.5361E+01  0.8644E+02
     14.263  0.4423E+01  0.8692E+02
     14.371  0.4990E+01  0.8745E+02
     14.478  0.5071E+01  0.8800E+02
     14.585  0.5011E+01  0.8854E+02
     14.693  0.5192E+01  0.8909E+02
     14.800  0.5154E+01  0.8965E+02
     14.908  0.4048E+01  0.9008E+02
     15.015  0.5223E+01  0.9064E+02
     15.122  0.6274E+01  0.9132E+02
     15.230  0.5428E+01  0.9190E+02
     15.337  0.5986E+01  0.9254E+02
     15.445  0.5897E+01  0.9318E+02
     15.552  0.5627E+01  0.9378E+02
     15.659  0.5825E+01  0.9441E+02
     15.767  0.4391E+01  0.9488E+02
     15.874  0.2377E+01  0.9513E+02
     15.982  0.2708E+01  0.9542E+02
     16.089  0.1705E+01  0.9561E+02
     16.196  0.1105E+01  0.9573E+02
     16.304  0.9130E+00  0.9582E+02
     16.411  0.6601E+00  0.9590E+02
     16.519  0.7906E+00  0.9598E+02
     16.626  0.1839E+00  0.9600E+02
     16.734  0.1718E-02  0.9600E+02
     16.841  0.1974E-07  0.9600E+02
     16.948  0.3282E-16  0.9600E+02
     17.056  0.0000E+00  0.9600E+02
     17.163  0.0000E+00  0.9600E+02
     17.271  0.0000E+00  0.9600E+02
     17.378  0.0000E+00  0.9600E+02
     17.485  0.0000E+00  0.9600E+02
     17.593  0.0000E+00  0.9600E+02
     17.700  0.0000E+00  0.9600E+02
     17.808  0.0000E+00  0.9600E+02
     17.915  0.0000E+00  0.9600E+02
     18.022  0.0000E+00  0.9600E+02
