       N       E                     dE             d eps       ncg     rms          rms(c)
DAV:   1     0.419545350018E+02    0.41955E+02   -0.16474E+04 16800   0.658E+02
DAV:   2    -0.933855406148E+02   -0.13534E+03   -0.12750E+03 23448   0.141E+02
DAV:   3    -0.975967769474E+02   -0.42112E+01   -0.41893E+01 24360   0.224E+01
DAV:   4    -0.976211031899E+02   -0.24326E-01   -0.24325E-01 21024   0.193E+00
DAV:   5    -0.976213847257E+02   -0.28154E-03   -0.28153E-03 24192   0.202E-01    0.123E+01
DAV:   6    -0.922063565686E+02    0.54150E+01   -0.39490E+00 24216   0.657E+00    0.677E+00
DAV:   7    -0.905554449476E+02    0.16509E+01   -0.32100E+00 25176   0.584E+00    0.170E+00
DAV:   8    -0.905677257064E+02   -0.12281E-01   -0.23266E-01 18456   0.164E+00    0.706E-01
DAV:   9    -0.905819145308E+02   -0.14189E-01   -0.16873E-02 23520   0.434E-01    0.198E-01
DAV:  10    -0.905859350419E+02   -0.40205E-02   -0.20717E-03 19152   0.159E-01    0.610E-02
DAV:  11    -0.905870103775E+02   -0.10753E-02   -0.63165E-04 21624   0.853E-02    0.321E-02
DAV:  12    -0.905871249574E+02   -0.11458E-03   -0.90123E-05 21000   0.351E-02    0.429E-03
DAV:  13    -0.905871296908E+02   -0.47335E-05   -0.39273E-06 23448   0.807E-03    0.183E-03
DAV:  14    -0.905871303415E+02   -0.65070E-06   -0.26223E-07 20592   0.205E-03
   1 F= -.90587130E+02 E0= -.90585524E+02  d E =-.321268E-02
