       N       E                     dE             d eps       ncg     rms          rms(c)
DAV:   1     0.551104238282E+02    0.55110E+02   -0.17665E+04  3456   0.724E+02
DAV:   2    -0.929195469265E+02   -0.14803E+03   -0.13966E+03  4824   0.151E+02
DAV:   3    -0.976125891357E+02   -0.46930E+01   -0.46699E+01  5064   0.241E+01
DAV:   4    -0.976396745665E+02   -0.27085E-01   -0.27084E-01  4296   0.209E+00
DAV:   5    -0.976399842443E+02   -0.30968E-03   -0.30967E-03  4992   0.216E-01    0.124E+01
DAV:   6    -0.922128709781E+02    0.54271E+01   -0.39362E+00  4992   0.658E+00    0.674E+00
DAV:   7    -0.905881345611E+02    0.16247E+01   -0.31407E+00  5136   0.579E+00    0.176E+00
DAV:   8    -0.905969740621E+02   -0.88395E-02   -0.22973E-01  3792   0.164E+00    0.738E-01
DAV:   9    -0.906113563480E+02   -0.14382E-01   -0.16726E-02  4824   0.444E-01    0.201E-01
DAV:  10    -0.906156056171E+02   -0.42493E-02   -0.23998E-03  3888   0.172E-01    0.641E-02
DAV:  11    -0.906167544696E+02   -0.11489E-02   -0.71213E-04  4368   0.914E-02    0.321E-02
DAV:  12    -0.906168429952E+02   -0.88526E-04   -0.77049E-05  4440   0.335E-02    0.388E-03
DAV:  13    -0.906168468954E+02   -0.39002E-05   -0.32287E-06  4560   0.735E-03    0.168E-03
DAV:  14    -0.906168476146E+02   -0.71922E-06   -0.34688E-07  4392   0.247E-03
   1 F= -.90616848E+02 E0= -.90615404E+02  d E =-.288742E-02
