   1   1   0   0
  0.3375000E+04  0.1500000E-08  0.1250000E-08  0.1800000E-08  0.5000000E-15
  1.000000000000000E-004
  CAR 
 Kpoints                                 
      1.10527526     -9.91038655  301     -3.60681128      1.00000000
     -9.910  0.0000E+00  0.0000E+00
     -9.874  0.0000E+00  0.0000E+00
     -9.837  0.0000E+00  0.0000E+00
     -9.800  0.0000E+00  0.0000E+00
     -9.764  0.0000E+00  0.0000E+00
     -9.727  0.0000E+00  0.0000E+00
     -9.690  0.6047E-13  0.2220E-14
     -9.653  0.1494E-09  0.5487E-11
     -9.617  0.1307E-06  0.4805E-08
     -9.580  0.3991E-04  0.1470E-05
     -9.543  0.4289E-02  0.1589E-03
     -9.506  0.1640E+00  0.6180E-02
     -9.470  0.2262E+01  0.8922E-01
     -9.433  0.1142E+02  0.5086E+00
     -9.396  0.2140E+02  0.1294E+01
     -9.360  0.1495E+02  0.1843E+01
     -9.323  0.3884E+01  0.1986E+01
     -9.286  0.3710E+00  0.2000E+01
     -9.249  0.1283E-01  0.2000E+01
     -9.213  0.1585E-03  0.2000E+01
     -9.176  0.6910E-06  0.2000E+01
     -9.139  0.1053E-08  0.2000E+01
     -9.103  0.5563E-12  0.2000E+01
     -9.066  0.0000E+00  0.2000E+01
     -9.029  0.0000E+00  0.2000E+01
     -8.992  0.0000E+00  0.2000E+01
     -8.956  0.0000E+00  0.2000E+01
     -8.919  0.0000E+00  0.2000E+01
     -8.882  0.0000E+00  0.2000E+01
     -8.846  0.0000E+00  0.2000E+01
     -8.809  0.0000E+00  0.2000E+01
     -8.772  0.0000E+00  0.2000E+01
     -8.735  0.0000E+00  0.2000E+01
     -8.699  0.0000E+00  0.2000E+01
     -8.662  0.0000E+00  0.2000E+01
     -8.625  0.0000E+00  0.2000E+01
     -8.589  0.0000E+00  0.2000E+01
     -8.552  0.0000E+00  0.2000E+01
     -8.515  0.0000E+00  0.2000E+01
     -8.478  0.0000E+00  0.2000E+01
     -8.442  0.0000E+00  0.2000E+01
     -8.405  0.0000E+00  0.2000E+01
     -8.368  0.0000E+00  0.2000E+01
     -8.331  0.0000E+00  0.2000E+01
     -8.295  0.0000E+00  0.2000E+01
     -8.258  0.0000E+00  0.2000E+01
     -8.221  0.0000E+00  0.2000E+01
     -8.185  0.0000E+00  0.2000E+01
     -8.148  0.0000E+00  0.2000E+01
     -8.111  0.0000E+00  0.2000E+01
     -8.074  0.0000E+00  0.2000E+01
     -8.038  0.0000E+00  0.2000E+01
     -8.001  0.0000E+00  0.2000E+01
     -7.964  0.0000E+00  0.2000E+01
     -7.928  0.0000E+00  0.2000E+01
     -7.891  0.0000E+00  0.2000E+01
     -7.854  0.0000E+00  0.2000E+01
     -7.817  0.0000E+00  0.2000E+01
     -7.781  0.0000E+00  0.2000E+01
     -7.744  0.0000E+00  0.2000E+01
     -7.707  0.0000E+00  0.2000E+01
     -7.671  0.0000E+00  0.2000E+01
     -7.634  0.0000E+00  0.2000E+01
     -7.597  0.0000E+00  0.2000E+01
     -7.560  0.0000E+00  0.2000E+01
     -7.524  0.0000E+00  0.2000E+01
     -7.487  0.0000E+00  0.2000E+01
     -7.450  0.0000E+00  0.2000E+01
     -7.414  0.0000E+00  0.2000E+01
     -7.377  0.0000E+00  0.2000E+01
     -7.340  0.0000E+00  0.2000E+01
     -7.303  0.0000E+00  0.2000E+01
     -7.267  0.0000E+00  0.2000E+01
     -7.230  0.0000E+00  0.2000E+01
     -7.193  0.0000E+00  0.2000E+01
     -7.156  0.0000E+00  0.2000E+01
     -7.120  0.0000E+00  0.2000E+01
     -7.083  0.0000E+00  0.2000E+01
     -7.046  0.0000E+00  0.2000E+01
     -7.010  0.0000E+00  0.2000E+01
     -6.973  0.0000E+00  0.2000E+01
     -6.936  0.0000E+00  0.2000E+01
     -6.899  0.0000E+00  0.2000E+01
     -6.863  0.0000E+00  0.2000E+01
     -6.826  0.0000E+00  0.2000E+01
     -6.789  0.0000E+00  0.2000E+01
     -6.753  0.0000E+00  0.2000E+01
     -6.716  0.0000E+00  0.2000E+01
     -6.679  0.0000E+00  0.2000E+01
     -6.642  0.0000E+00  0.2000E+01
     -6.606  0.0000E+00  0.2000E+01
     -6.569  0.0000E+00  0.2000E+01
     -6.532  0.0000E+00  0.2000E+01
     -6.496  0.0000E+00  0.2000E+01
     -6.459  0.0000E+00  0.2000E+01
     -6.422  0.0000E+00  0.2000E+01
     -6.385  0.0000E+00  0.2000E+01
     -6.349  0.0000E+00  0.2000E+01
     -6.312  0.0000E+00  0.2000E+01
     -6.275  0.0000E+00  0.2000E+01
     -6.238  0.0000E+00  0.2000E+01
     -6.202  0.0000E+00  0.2000E+01
     -6.165  0.0000E+00  0.2000E+01
     -6.128  0.0000E+00  0.2000E+01
     -6.092  0.0000E+00  0.2000E+01
     -6.055  0.0000E+00  0.2000E+01
     -6.018  0.0000E+00  0.2000E+01
     -5.981  0.0000E+00  0.2000E+01
     -5.945  0.0000E+00  0.2000E+01
     -5.908  0.0000E+00  0.2000E+01
     -5.871  0.0000E+00  0.2000E+01
     -5.835  0.0000E+00  0.2000E+01
     -5.798  0.0000E+00  0.2000E+01
     -5.761  0.0000E+00  0.2000E+01
     -5.724  0.0000E+00  0.2000E+01
     -5.688  0.0000E+00  0.2000E+01
     -5.651  0.0000E+00  0.2000E+01
     -5.614  0.0000E+00  0.2000E+01
     -5.578  0.0000E+00  0.2000E+01
     -5.541  0.0000E+00  0.2000E+01
     -5.504  0.0000E+00  0.2000E+01
     -5.467  0.0000E+00  0.2000E+01
     -5.431  0.0000E+00  0.2000E+01
     -5.394  0.0000E+00  0.2000E+01
     -5.357  0.0000E+00  0.2000E+01
     -5.321  0.0000E+00  0.2000E+01
     -5.284  0.0000E+00  0.2000E+01
     -5.247  0.0000E+00  0.2000E+01
     -5.210  0.0000E+00  0.2000E+01
     -5.174  0.0000E+00  0.2000E+01
     -5.137  0.0000E+00  0.2000E+01
     -5.100  0.0000E+00  0.2000E+01
     -5.063  0.0000E+00  0.2000E+01
     -5.027  0.0000E+00  0.2000E+01
     -4.990  0.0000E+00  0.2000E+01
     -4.953  0.0000E+00  0.2000E+01
     -4.917  0.0000E+00  0.2000E+01
     -4.880  0.0000E+00  0.2000E+01
     -4.843  0.0000E+00  0.2000E+01
     -4.806  0.0000E+00  0.2000E+01
     -4.770  0.0000E+00  0.2000E+01
     -4.733  0.0000E+00  0.2000E+01
     -4.696  0.0000E+00  0.2000E+01
     -4.660  0.0000E+00  0.2000E+01
     -4.623  0.0000E+00  0.2000E+01
     -4.586  0.0000E+00  0.2000E+01
     -4.549  0.0000E+00  0.2000E+01
     -4.513  0.0000E+00  0.2000E+01
     -4.476  0.0000E+00  0.2000E+01
     -4.439  0.0000E+00  0.2000E+01
     -4.403  0.0000E+00  0.2000E+01
     -4.366  0.0000E+00  0.2000E+01
     -4.329  0.0000E+00  0.2000E+01
     -4.292  0.0000E+00  0.2000E+01
     -4.256  0.0000E+00  0.2000E+01
     -4.219  0.0000E+00  0.2000E+01
     -4.182  0.0000E+00  0.2000E+01
     -4.146  0.0000E+00  0.2000E+01
     -4.109  0.0000E+00  0.2000E+01
     -4.072  0.0000E+00  0.2000E+01
     -4.035  0.0000E+00  0.2000E+01
     -3.999  0.0000E+00  0.2000E+01
     -3.962  0.0000E+00  0.2000E+01
     -3.925  0.0000E+00  0.2000E+01
     -3.888  0.0000E+00  0.2000E+01
     -3.852  0.2354E-12  0.2000E+01
     -3.815  0.5727E-09  0.2000E+01
     -3.778  0.4836E-06  0.2000E+01
     -3.742  0.1425E-03  0.2000E+01
     -3.705  0.1479E-01  0.2001E+01
     -3.668  0.5463E+00  0.2021E+01
     -3.631  0.7282E+01  0.2288E+01
     -3.595  0.3557E+02  0.3594E+01
     -3.558  0.6444E+02  0.5960E+01
     -3.521  0.4356E+02  0.7560E+01
     -3.485  0.1094E+02  0.7962E+01
     -3.448  0.1010E+01  0.7999E+01
     -3.411  0.3377E-01  0.8000E+01
     -3.374  0.4029E-03  0.8000E+01
     -3.338  0.1695E-05  0.8000E+01
     -3.301  0.2494E-08  0.8000E+01
     -3.264  0.1272E-11  0.8000E+01
     -3.228  0.0000E+00  0.8000E+01
     -3.191  0.0000E+00  0.8000E+01
     -3.154  0.0000E+00  0.8000E+01
     -3.117  0.0000E+00  0.8000E+01
     -3.081  0.0000E+00  0.8000E+01
     -3.044  0.0000E+00  0.8000E+01
     -3.007  0.0000E+00  0.8000E+01
     -2.971  0.0000E+00  0.8000E+01
     -2.934  0.0000E+00  0.8000E+01
     -2.897  0.0000E+00  0.8000E+01
     -2.860  0.0000E+00  0.8000E+01
     -2.824  0.0000E+00  0.8000E+01
     -2.787  0.0000E+00  0.8000E+01
     -2.750  0.0000E+00  0.8000E+01
     -2.713  0.0000E+00  0.8000E+01
     -2.677  0.0000E+00  0.8000E+01
     -2.640  0.0000E+00  0.8000E+01
     -2.603  0.0000E+00  0.8000E+01
     -2.567  0.0000E+00  0.8000E+01
     -2.530  0.0000E+00  0.8000E+01
     -2.493  0.0000E+00  0.8000E+01
     -2.456  0.0000E+00  0.8000E+01
     -2.420  0.0000E+00  0.8000E+01
     -2.383  0.0000E+00  0.8000E+01
     -2.346  0.0000E+00  0.8000E+01
     -2.310  0.0000E+00  0.8000E+01
     -2.273  0.0000E+00  0.8000E+01
     -2.236  0.0000E+00  0.8000E+01
     -2.199  0.0000E+00  0.8000E+01
     -2.163  0.0000E+00  0.8000E+01
     -2.126  0.0000E+00  0.8000E+01
     -2.089  0.0000E+00  0.8000E+01
     -2.053  0.0000E+00  0.8000E+01
     -2.016  0.0000E+00  0.8000E+01
     -1.979  0.0000E+00  0.8000E+01
     -1.942  0.0000E+00  0.8000E+01
     -1.906  0.0000E+00  0.8000E+01
     -1.869  0.0000E+00  0.8000E+01
     -1.832  0.0000E+00  0.8000E+01
     -1.796  0.0000E+00  0.8000E+01
     -1.759  0.0000E+00  0.8000E+01
     -1.722  0.0000E+00  0.8000E+01
     -1.685  0.0000E+00  0.8000E+01
     -1.649  0.0000E+00  0.8000E+01
     -1.612  0.0000E+00  0.8000E+01
     -1.575  0.0000E+00  0.8000E+01
     -1.538  0.0000E+00  0.8000E+01
     -1.502  0.0000E+00  0.8000E+01
     -1.465  0.0000E+00  0.8000E+01
     -1.428  0.0000E+00  0.8000E+01
     -1.392  0.0000E+00  0.8000E+01
     -1.355  0.0000E+00  0.8000E+01
     -1.318  0.0000E+00  0.8000E+01
     -1.281  0.0000E+00  0.8000E+01
     -1.245  0.0000E+00  0.8000E+01
     -1.208  0.0000E+00  0.8000E+01
     -1.171  0.0000E+00  0.8000E+01
     -1.135  0.0000E+00  0.8000E+01
     -1.098  0.0000E+00  0.8000E+01
     -1.061  0.0000E+00  0.8000E+01
     -1.024  0.0000E+00  0.8000E+01
     -0.988  0.0000E+00  0.8000E+01
     -0.951  0.0000E+00  0.8000E+01
     -0.914  0.0000E+00  0.8000E+01
     -0.878  0.0000E+00  0.8000E+01
     -0.841  0.0000E+00  0.8000E+01
     -0.804  0.0000E+00  0.8000E+01
     -0.767  0.0000E+00  0.8000E+01
     -0.731  0.0000E+00  0.8000E+01
     -0.694  0.0000E+00  0.8000E+01
     -0.657  0.0000E+00  0.8000E+01
     -0.621  0.0000E+00  0.8000E+01
     -0.584  0.0000E+00  0.8000E+01
     -0.547  0.1344E-15  0.8000E+01
     -0.510  0.5207E-12  0.8000E+01
     -0.474  0.6174E-09  0.8000E+01
     -0.437  0.2652E-06  0.8000E+01
     -0.400  0.4212E-04  0.8000E+01
     -0.363  0.2549E-02  0.8000E+01
     -0.327  0.6128E-01  0.8002E+01
     -0.290  0.6216E+00  0.8025E+01
     -0.253  0.2900E+01  0.8132E+01
     -0.217  0.7030E+01  0.8390E+01
     -0.180  0.1032E+02  0.8769E+01
     -0.143  0.1083E+02  0.9166E+01
     -0.106  0.9620E+01  0.9520E+01
     -0.070  0.7382E+01  0.9791E+01
     -0.033  0.4103E+01  0.9941E+01
      0.004  0.1399E+01  0.9993E+01
      0.040  0.6174E+00  0.1002E+02
      0.077  0.1796E+01  0.1008E+02
      0.114  0.4781E+01  0.1026E+02
      0.151  0.8854E+01  0.1058E+02
      0.187  0.1261E+02  0.1104E+02
      0.224  0.1497E+02  0.1159E+02
      0.261  0.1576E+02  0.1217E+02
      0.297  0.1578E+02  0.1275E+02
      0.334  0.1592E+02  0.1334E+02
      0.371  0.1596E+02  0.1392E+02
      0.408  0.1525E+02  0.1448E+02
      0.444  0.1377E+02  0.1499E+02
      0.481  0.1158E+02  0.1541E+02
      0.518  0.8107E+01  0.1571E+02
      0.554  0.4556E+01  0.1588E+02
      0.591  0.2179E+01  0.1596E+02
      0.628  0.8601E+00  0.1599E+02
      0.665  0.2203E+00  0.1600E+02
      0.701  0.2827E-01  0.1600E+02
      0.738  0.1572E-02  0.1600E+02
      0.775  0.3497E-04  0.1600E+02
      0.812  0.2951E-06  0.1600E+02
      0.848  0.9114E-09  0.1600E+02
      0.885  0.1005E-11  0.1600E+02
      0.922  0.3839E-15  0.1600E+02
      0.958  0.0000E+00  0.1600E+02
      0.995  0.0000E+00  0.1600E+02
      1.032  0.0000E+00  0.1600E+02
      1.069  0.0000E+00  0.1600E+02
      1.105  0.0000E+00  0.1600E+02
