   14   14    1    1
  0.1021960E+02  0.5697000E-09  0.4047900E-09  0.6204200E-09  0.5000000E-15
  1.000000000000000E-004
  CAR 
 Kpoints                                 
     42   1650     48
 
  0.0000000E+00  0.1666667E-01  0.0000000E+00  0.1670844E-03
      1        -12.732470   1.000000
      2        -11.574841   1.000000
      3         -8.662537   1.000000
      4         -8.424829   1.000000
      5         -6.077753   1.000000
      6         -5.058847   1.000000
      7         -4.639450   1.000000
      8         -4.353328   1.000000
      9         -3.988166   1.000000
     10         -3.600428   1.000000
     11         -2.394134   1.000000
     12         -2.385871   1.000000
     13         -2.026365   1.000000
     14         -1.054799   1.000000
     15         -0.043971   1.000000
     16         -0.012382   1.000000
     17          0.147498   1.000000
     18          0.177429   1.000000
     19          0.567121   1.000000
     20          2.070423   0.000000
     21          2.120690   0.000000
     22          2.217845   0.000000
     23          5.421116   0.000000
     24          5.787435   0.000000
     25          5.832198   0.000000
     26          5.903823   0.000000
     27          6.796748   0.000000
     28          7.688591   0.000000
     29          7.708254   0.000000
     30          8.604584   0.000000
     31          8.751831   0.000000
     32          8.872618   0.000000
     33          9.043072   0.000000
     34         10.049184   0.000000
     35         11.150812   0.000000
     36         11.398239   0.000000
     37         11.767532   0.000000
     38         11.805004   0.000000
     39         11.901380   0.000000
     40         12.365122   0.000000
     41         12.804068   0.000000
     42         13.388811   0.000000
     43         13.568069   0.000000
     44         15.553212   0.000000
     45         15.562715   0.000000
     46         15.947090   0.000000
     47         16.355732   0.000000
     48         16.578508   0.000000
 
  0.4761905E-01  0.1666667E-01  0.0000000E+00  0.3341688E-03
      1        -12.727469   1.000000
      2        -11.583561   1.000000
      3         -8.660218   1.000000
      4         -8.423332   1.000000
      5         -6.067118   1.000000
      6         -5.127641   1.000000
      7         -4.666011   1.000000
      8         -4.272933   1.000000
      9         -3.980655   1.000000
     10         -3.551548   1.000000
     11         -2.393470   1.000000
     12         -2.391966   1.000000
     13         -2.036620   1.000000
     14         -1.092601   1.000000
     15         -0.038999   1.000000
     16         -0.004481   1.000000
     17          0.153446   1.000000
     18          0.162620   1.000000
     19          0.555576   1.000000
     20          2.059862   0.000001
     21          2.111313   0.000000
     22          2.204296   0.000000
     23          5.432602   0.000000
     24          5.776962   0.000000
     25          5.816173   0.000000
     26          5.973882   0.000000
     27          6.785891   0.000000
     28          7.527842   0.000000
     29          7.844248   0.000000
     30          8.621697   0.000000
     31          8.797827   0.000000
     32          8.902544   0.000000
     33          9.045710   0.000000
     34         10.063432   0.000000
     35         11.159189   0.000000
     36         11.349208   0.000000
     37         11.681478   0.000000
     38         11.774738   0.000000
     39         11.928295   0.000000
     40         12.375082   0.000000
     41         12.862014   0.000000
     42         13.478946   0.000000
     43         13.520977   0.000000
     44         15.391726   0.000000
     45         15.591047   0.000000
     46         16.062578   0.000000
     47         16.370005   0.000000
     48         16.370045   0.000000
 
  0.9523810E-01  0.1666667E-01  0.0000000E+00  0.3341688E-03
      1        -12.712513   1.000000
      2        -11.609292   1.000000
      3         -8.653181   1.000000
      4         -8.419082   1.000000
      5         -6.038698   1.000000
      6         -5.278293   1.000000
      7         -4.726897   1.000000
      8         -4.089899   1.000000
      9         -3.956030   1.000000
     10         -3.421201   1.000000
     11         -2.417486   1.000000
     12         -2.385424   1.000000
     13         -2.064753   1.000000
     14         -1.202170   1.000000
     15         -0.024300   1.000000
     16          0.016719   1.000000
     17          0.120143   1.000000
     18          0.170030   1.000000
     19          0.521174   1.000000
     20          2.028932   0.000041
     21          2.083833   0.000000
     22          2.163544   0.000000
     23          5.465104   0.000000
     24          5.771129   0.000000
     25          5.811394   0.000000
     26          6.115147   0.000000
     27          6.754724   0.000000
     28          7.349337   0.000000
     29          7.958915   0.000000
     30          8.670729   0.000000
     31          8.923335   0.000000
     32          8.990346   0.000000
     33          9.051126   0.000000
     34         10.106946   0.000000
     35         11.184599   0.000000
     36         11.207874   0.000000
     37         11.464438   0.000000
     38         11.717531   0.000000
     39         12.006971   0.000000
     40         12.404518   0.000000
     41         12.994579   0.000000
     42         13.388522   0.000000
     43         13.706349   0.000000
     44         15.118937   0.000000
     45         15.668594   0.000000
     46         16.122282   0.000000
     47         16.211069   0.000000
     48         16.413492   0.000000
 
  0.1428571E+00  0.1666667E-01  0.0000000E+00  0.3341688E-03
      1        -12.687737   1.000000
      2        -11.650796   1.000000
      3         -8.641155   1.000000
      4         -8.412732   1.000000
      5         -6.002947   1.000000
      6         -5.449111   1.000000
      7         -4.784901   1.000000
      8         -3.939100   1.000000
      9         -3.842177   1.000000
     10         -3.238707   1.000000
     11         -2.460979   1.000000
     12         -2.374326   1.000000
     13         -2.103721   1.000000
     14         -1.373288   1.000000
     15         -0.000547   1.000000
     16          0.020984   1.000000
     17          0.078952   1.000000
     18          0.191252   1.000000
     19          0.468126   1.000000
     20          1.979958   0.005363
     21          2.040158   0.000010
     22          2.095747   0.000000
     23          5.513367   0.000000
     24          5.753211   0.000000
     25          5.863537   0.000000
     26          6.298521   0.000000
     27          6.707274   0.000000
     28          7.178003   0.000000
     29          8.050447   0.000000
     30          8.744314   0.000000
     31          9.044053   0.000000
     32          9.100294   0.000000
     33          9.138535   0.000000
     34         10.183379   0.000000
     35         10.989659   0.000000
     36         11.184650   0.000000
     37         11.227214   0.000000
     38         11.683973   0.000000
     39         12.127609   0.000000
     40         12.456074   0.000000
     41         13.114652   0.000000
     42         13.190479   0.000000
     43         14.004326   0.000000
     44         14.880238   0.000000
     45         15.777575   0.000000
     46         15.854343   0.000000
     47         16.292097   0.000000
     48         16.482277   0.000000
 
  0.1904762E+00  0.1666667E-01  0.0000000E+00  0.3341688E-03
      1        -12.653378   1.000000
      2        -11.706166   1.000000
      3         -8.623940   1.000000
      4         -8.405344   1.000000
      5         -5.975961   1.000000
      6         -5.615298   1.000000
      7         -4.805842   1.000000
      8         -3.884196   1.000000
      9         -3.602499   1.000000
     10         -3.026464   1.000000
     11         -2.526695   1.000000
     12         -2.358369   1.000000
     13         -2.145108   1.000000
     14         -1.592245   1.000000
     15         -0.065301   1.000000
     16          0.030708   1.000000
     17          0.111294   1.000000
     18          0.193855   1.000000
     19          0.419370   1.000000
     20          1.916637   0.223468
     21          1.983273   0.004081
     22          2.002014   0.000748
     23          5.570177   0.000000
     24          5.726377   0.000000
     25          5.977123   0.000000
     26          6.515164   0.000000
     27          6.649374   0.000000
     28          7.023860   0.000000
     29          8.128652   0.000000
     30          8.827381   0.000000
     31          9.024646   0.000000
     32          9.303116   0.000000
     33          9.328998   0.000000
     34         10.300747   0.000000
     35         10.713743   0.000000
     36         10.890512   0.000000
     37         11.284286   0.000000
     38         11.703732   0.000000
     39         12.260223   0.000000
     40         12.548931   0.000000
     41         12.946891   0.000000
     42         13.124902   0.000000
     43         14.331096   0.000000
     44         14.762999   0.000000
     45         15.568645   0.000000
     46         15.910997   0.000000
     47         16.262086   0.000000
     48         16.587930   0.000000
 
  0.2380952E+00  0.1666667E-01  0.0000000E+00  0.3341688E-03
      1        -12.609801   1.000000
      2        -11.773068   1.000000
      3         -8.601645   1.000000
      4         -8.398374   1.000000
      5         -5.972877   1.000000
      6         -5.766542   1.000000
      7         -4.765789   1.000000
      8         -3.822084   1.000000
      9         -3.355263   1.000000
     10         -2.800949   1.000000
     11         -2.612509   1.000000
     12         -2.337567   1.000000
     13         -2.183085   1.000000
     14         -1.842990   1.000000
     15         -0.185214   1.000000
     16          0.061198   1.000000
     17          0.136064   1.000000
     18          0.159415   1.000000
     19          0.424910   1.000000
     20          1.842410   0.909702
     21          1.886581   0.535690
     22          1.917001   0.220409
     23          5.627777   0.000000
     24          5.701786   0.000000
     25          6.144616   0.000000
     26          6.587857   0.000000
     27          6.754070   0.000000
     28          6.895973   0.000000
     29          8.198770   0.000000
     30          8.888648   0.000000
     31          8.985663   0.000000
     32          9.517741   0.000000
     33          9.553599   0.000000
     34         10.385090   0.000000
     35         10.476876   0.000000
     36         10.631064   0.000000
     37         11.346053   0.000000
     38         11.785053   0.000000
     39         12.359134   0.000000
     40         12.670325   0.000000
     41         12.719290   0.000000
     42         12.974223   0.000000
     43         14.651972   0.000000
     44         14.813324   0.000000
     45         15.284409   0.000000
     46         16.041223   0.000000
     47         16.089731   0.000000
     48         16.319004   0.000000
 
  0.2857143E+00  0.1666667E-01  0.0000000E+00  0.3341688E-03
      1        -12.557455   1.000000
      2        -11.848887   1.000000
      3         -8.574815   1.000000
      4         -8.393561   1.000000
      5         -5.997540   1.000000
      6         -5.897173   1.000000
      7         -4.657210   1.000000
      8         -3.748225   1.000000
      9         -3.121958   1.000000
     10         -2.729599   1.000000
     11         -2.558680   1.000000
     12         -2.319478   1.000000
     13         -2.215262   1.000000
     14         -2.097730   1.000000
     15         -0.323239   1.000000
     16         -0.016911   1.000000
     17          0.127133   1.000000
     18          0.208360   1.000000
     19          0.485254   1.000000
     20          1.736037   0.999993
     21          1.781259   0.998925
     22          1.845837   0.892880
     23          5.678931   0.000000
     24          5.684975   0.000000
     25          6.360758   0.000000
     26          6.530077   0.000000
     27          6.768222   0.000000
     28          7.036888   0.000000
     29          8.262618   0.000000
     30          8.873736   0.000000
     31          8.937388   0.000000
     32          9.740101   0.000000
     33          9.792732   0.000000
     34         10.043693   0.000000
     35         10.437695   0.000000
     36         10.719944   0.000000
     37         11.393964   0.000000
     38         11.922688   0.000000
     39         12.379503   0.000000
     40         12.426576   0.000000
     41         12.704888   0.000000
     42         12.942211   0.000000
     43         14.864173   0.000000
     44         15.009865   0.000000
     45         15.053872   0.000000
     46         15.839031   0.000000
     47         15.871952   0.000000
     48         16.215517   0.000000
 
  0.3333333E+00  0.1666667E-01  0.0000000E+00  0.3341688E-03
      1        -12.496934   1.000000
      2        -11.930995   1.000000
      3         -8.544587   1.000000
      4         -8.392722   1.000000
      5         -6.040816   1.000000
      6         -6.003451   1.000000
      7         -4.488052   1.000000
      8         -3.662780   1.000000
      9         -2.941428   1.000000
     10         -2.845441   1.000000
     11         -2.414940   1.000000
     12         -2.349273   1.000000
     13         -2.231115   1.000000
     14         -2.205030   1.000000
     15         -0.470071   1.000000
     16         -0.178704   1.000000
     17          0.171133   1.000000
     18          0.252275   1.000000
     19          0.575094   1.000000
     20          1.586562   1.000000
     21          1.709793   1.000000
     22          1.774839   0.999423
     23          5.678760   0.000000
     24          5.717478   0.000000
     25          6.483357   0.000000
     26          6.619485   0.000000
     27          6.676149   0.000000
     28          7.322641   0.000000
     29          8.321386   0.000000
     30          8.787001   0.000000
     31          8.831623   0.000000
     32          9.682189   0.000000
     33          9.970363   0.000000
     34         10.030521   0.000000
     35         10.393377   0.000000
     36         11.020217   0.000000
     37         11.406682   0.000000
     38         12.077933   0.000000
     39         12.105182   0.000000
     40         12.382234   0.000000
     41         12.483463   0.000000
     42         13.169857   0.000000
     43         14.765615   0.000000
     44         14.977814   0.000000
     45         15.365308   0.000000
     46         15.432417   0.000000
     47         15.562416   0.000000
     48         16.337764   0.000000
 
  0.3809524E+00  0.1666667E-01  0.0000000E+00  0.3341688E-03
      1        -12.428973   1.000000
      2        -12.016833   1.000000
      3         -8.512584   1.000000
      4         -8.397459   1.000000
      5         -6.088893   1.000000
      6         -6.082837   1.000000
      7         -4.272070   1.000000
      8         -3.566477   1.000000
      9         -2.970678   1.000000
     10         -2.947307   1.000000
     11         -2.516382   1.000000
     12         -2.297888   1.000000
     13         -2.140269   1.000000
     14         -2.107267   1.000000
     15         -0.610542   1.000000
     16         -0.357771   1.000000
     17          0.217166   1.000000
     18          0.285971   1.000000
     19          0.684874   1.000000
     20          1.425819   1.000000
     21          1.654119   1.000000
     22          1.709572   1.000000
     23          5.683477   0.000000
     24          5.739247   0.000000
     25          6.454012   0.000000
     26          6.598957   0.000000
     27          6.914136   0.000000
     28          7.626751   0.000000
     29          8.377380   0.000000
     30          8.574811   0.000000
     31          8.726873   0.000000
     32          9.321588   0.000000
     33         10.205830   0.000000
     34         10.249057   0.000000
     35         10.485642   0.000000
     36         11.374776   0.000000
     37         11.375195   0.000000
     38         11.773796   0.000000
     39         12.044833   0.000000
     40         12.325053   0.000000
     41         12.524732   0.000000
     42         13.324171   0.000000
     43         14.592481   0.000000
     44         15.012699   0.000000
     45         15.038875   0.000000
     46         15.254142   0.000000
     47         15.695629   0.000000
     48         16.435292   0.000000
 
  0.4285714E+00  0.1666667E-01  0.0000000E+00  0.3341688E-03
      1        -12.354500   1.000000
      2        -12.104066   1.000000
      3         -8.480882   1.000000
      4         -8.408874   1.000000
      5         -6.134065   1.000000
      6         -6.129766   1.000000
      7         -4.022054   1.000000
      8         -3.460445   1.000000
      9         -3.177113   1.000000
     10         -3.098191   1.000000
     11         -2.466075   1.000000
     12         -2.324768   1.000000
     13         -2.031731   1.000000
     14         -1.955812   1.000000
     15         -0.716687   1.000000
     16         -0.533281   1.000000
     17          0.258500   1.000000
     18          0.304888   1.000000
     19          0.811026   1.000000
     20          1.262617   1.000000
     21          1.618357   1.000000
     22          1.655984   1.000000
     23          5.697123   0.000000
     24          5.743419   0.000000
     25          6.445656   0.000000
     26          6.536845   0.000000
     27          7.236897   0.000000
     28          7.945022   0.000000
     29          8.269843   0.000000
     30          8.434067   0.000000
     31          8.640874   0.000000
     32          8.965299   0.000000
     33         10.429372   0.000000
     34         10.441614   0.000000
     35         10.669426   0.000000
     36         11.315315   0.000000
     37         11.479038   0.000000
     38         11.703941   0.000000
     39         11.777539   0.000000
     40         12.507431   0.000000
     41         12.566814   0.000000
     42         13.302990   0.000000
     43         14.551938   0.000000
     44         14.787412   0.000000
     45         14.961472   0.000000
     46         14.988210   0.000000
     47         15.981343   0.000000
     48         16.468491   0.000000
 
  0.4761905E+00  0.1666667E-01  0.0000000E+00  0.3341688E-03
      1        -12.274598   1.000000
      2        -12.190598   1.000000
      3         -8.451721   1.000000
      4         -8.427202   1.000000
      5         -6.157342   1.000000
      6         -6.154612   1.000000
      7         -3.748610   1.000000
      8         -3.462344   1.000000
      9         -3.344987   1.000000
     10         -3.224043   1.000000
     11         -2.406224   1.000000
     12         -2.360642   1.000000
     13         -1.927017   1.000000
     14         -1.888653   1.000000
     15         -0.746581   1.000000
     16         -0.676651   1.000000
     17          0.289751   1.000000
     18          0.306172   1.000000
     19          0.951224   1.000000
     20          1.102892   1.000000
     21          1.606658   1.000000
     22          1.620030   1.000000
     23          5.715710   0.000000
     24          5.733447   0.000000
     25          6.458318   0.000000
     26          6.489562   0.000000
     27          7.578917   0.000000
     28          7.928760   0.000000
     29          8.275057   0.000000
     30          8.495405   0.000000
     31          8.562151   0.000000
     32          8.617358   0.000000
     33         10.577831   0.000000
     34         10.582650   0.000000
     35         10.903911   0.000000
     36         11.164686   0.000000
     37         11.332821   0.000000
     38         11.461801   0.000000
     39         12.112655   0.000000
     40         12.376482   0.000000
     41         12.829471   0.000000
     42         13.098977   0.000000
     43         14.631544   0.000000
     44         14.742526   0.000000
     45         14.771043   0.000000
     46         14.850224   0.000000
     47         16.226435   0.000000
     48         16.399764   0.000000
 
  0.0000000E+00  0.5000000E-01  0.0000000E+00  0.1670844E-03
      1        -12.727114   1.000000
      2        -11.570035   1.000000
      3         -8.658337   1.000000
      4         -8.419652   1.000000
      5         -6.071830   1.000000
      6         -5.050560   1.000000
      7         -4.634524   1.000000
      8         -4.372069   1.000000
      9         -4.099485   1.000000
     10         -3.594878   1.000000
     11         -2.726729   1.000000
     12         -2.243954   1.000000
     13         -1.661206   1.000000
     14         -1.053768   1.000000
     15         -0.106697   1.000000
     16         -0.082889   1.000000
     17          0.151125   1.000000
     18          0.207972   1.000000
     19          0.591617   1.000000
     20          1.992977   0.001752
     21          2.061148   0.000001
     22          2.244561   0.000000
     23          5.478725   0.000000
     24          5.738737   0.000000
     25          5.851191   0.000000
     26          5.882875   0.000000
     27          6.864967   0.000000
     28          7.754137   0.000000
     29          7.777639   0.000000
     30          8.435884   0.000000
     31          8.751438   0.000000
     32          8.954380   0.000000
     33          9.056469   0.000000
     34         10.182148   0.000000
     35         11.204357   0.000000
     36         11.379829   0.000000
     37         11.750912   0.000000
     38         11.828535   0.000000
     39         11.924505   0.000000
     40         12.429387   0.000000
     41         12.806368   0.000000
     42         13.316970   0.000000
     43         13.493296   0.000000
     44         15.515855   0.000000
     45         15.544502   0.000000
     46         15.960972   0.000000
     47         16.313879   0.000000
     48         16.400692   0.000000
 
  0.4761905E-01  0.5000000E-01  0.0000000E+00  0.3341688E-03
      1        -12.722114   1.000000
      2        -11.578751   1.000000
      3         -8.656020   1.000000
      4         -8.418166   1.000000
      5         -6.061157   1.000000
      6         -5.119947   1.000000
      7         -4.661130   1.000000
      8         -4.299442   1.000000
      9         -4.083789   1.000000
     10         -3.546086   1.000000
     11         -2.734504   1.000000
     12         -2.241643   1.000000
     13         -1.671980   1.000000
     14         -1.091572   1.000000
     15         -0.101878   1.000000
     16         -0.075678   1.000000
     17          0.157277   1.000000
     18          0.194498   1.000000
     19          0.579986   1.000000
     20          1.982774   0.004255
     21          2.051788   0.000002
     22          2.230501   0.000000
     23          5.490545   0.000000
     24          5.725809   0.000000
     25          5.855126   0.000000
     26          5.935066   0.000000
     27          6.854153   0.000000
     28          7.596824   0.000000
     29          7.909975   0.000000
     30          8.453498   0.000000
     31          8.798397   0.000000
     32          8.983753   0.000000
     33          9.061144   0.000000
     34         10.191672   0.000000
     35         11.212243   0.000000
     36         11.330867   0.000000
     37         11.665350   0.000000
     38         11.797329   0.000000
     39         11.951524   0.000000
     40         12.439111   0.000000
     41         12.864626   0.000000
     42         13.408133   0.000000
     43         13.446558   0.000000
     44         15.397549   0.000000
     45         15.542432   0.000000
     46         16.043984   0.000000
     47         16.297642   0.000000
     48         16.339546   0.000000
 
  0.9523810E-01  0.5000000E-01  0.0000000E+00  0.3341688E-03
      1        -12.707162   1.000000
      2        -11.604471   1.000000
      3         -8.648965   1.000000
      4         -8.413949   1.000000
      5         -6.032605   1.000000
      6         -5.271224   1.000000
      7         -4.722146   1.000000
      8         -4.168986   1.000000
      9         -4.006457   1.000000
     10         -3.416046   1.000000
     11         -2.757796   1.000000
     12         -2.234688   1.000000
     13         -1.702553   1.000000
     14         -1.201096   1.000000
     15         -0.087870   1.000000
     16         -0.057563   1.000000
     17          0.156855   1.000000
     18          0.174729   1.000000
     19          0.545341   1.000000
     20          1.952855   0.037138
     21          2.024363   0.000070
     22          2.188364   0.000000
     23          5.523967   0.000000
     24          5.730772   0.000000
     25          5.845211   0.000000
     26          6.069603   0.000000
     27          6.823137   0.000000
     28          7.421012   0.000000
     29          8.021997   0.000000
     30          8.504135   0.000000
     31          8.926185   0.000000
     32          9.058118   0.000000
     33          9.084668   0.000000
     34         10.220576   0.000000
     35         11.189748   0.000000
     36         11.236219   0.000000
     37         11.446420   0.000000
     38         11.744019   0.000000
     39         12.030457   0.000000
     40         12.467900   0.000000
     41         12.998335   0.000000
     42         13.315092   0.000000
     43         13.634752   0.000000
     44         15.137806   0.000000
     45         15.613938   0.000000
     46         16.093718   0.000000
     47         16.131839   0.000000
     48         16.414954   0.000000
 
  0.1428571E+00  0.5000000E-01  0.0000000E+00  0.3341688E-03
      1        -12.682399   1.000000
      2        -11.645956   1.000000
      3         -8.636920   1.000000
      4         -8.407638   1.000000
      5         -5.996625   1.000000
      6         -5.442289   1.000000
      7         -4.780410   1.000000
      8         -4.094625   1.000000
      9         -3.816642   1.000000
     10         -3.234577   1.000000
     11         -2.796127   1.000000
     12         -2.223002   1.000000
     13         -1.748402   1.000000
     14         -1.372093   1.000000
     15         -0.066137   1.000000
     16         -0.045399   1.000000
     17          0.110092   1.000000
     18          0.198777   1.000000
     19          0.491326   1.000000
     20          1.905244   0.330589
     21          1.980787   0.005012
     22          2.118597   0.000000
     23          5.573496   0.000000
     24          5.759149   0.000000
     25          5.852834   0.000000
     26          6.249045   0.000000
     27          6.775916   0.000000
     28          7.254127   0.000000
     29          8.110920   0.000000
     30          8.580610   0.000000
     31          9.072277   0.000000
     32          9.105381   0.000000
     33          9.219609   0.000000
     34         10.271461   0.000000
     35         10.972051   0.000000
     36         11.165657   0.000000
     37         11.276439   0.000000
     38         11.719425   0.000000
     39         12.151693   0.000000
     40         12.518008   0.000000
     41         13.118671   0.000000
     42         13.120387   0.000000
     43         13.924326   0.000000
     44         14.913309   0.000000
     45         15.702837   0.000000
     46         15.864639   0.000000
     47         16.160677   0.000000
     48         16.509659   0.000000
 
  0.1904762E+00  0.5000000E-01  0.0000000E+00  0.3341688E-03
      1        -12.648064   1.000000
      2        -11.701309   1.000000
      3         -8.619687   1.000000
      4         -8.400315   1.000000
      5         -5.969338   1.000000
      6         -5.608539   1.000000
      7         -4.801708   1.000000
      8         -4.039121   1.000000
      9         -3.578265   1.000000
     10         -3.028424   1.000000
     11         -2.844657   1.000000
     12         -2.206512   1.000000
     13         -1.803805   1.000000
     14         -1.590838   1.000000
     15         -0.086395   1.000000
     16         -0.040154   1.000000
     17          0.099506   1.000000
     18          0.211550   1.000000
     19          0.437499   1.000000
     20          1.843326   0.905412
     21          1.924043   0.166025
     22          2.022704   0.000085
     23          5.631550   0.000000
     24          5.757182   0.000000
     25          5.942581   0.000000
     26          6.459852   0.000000
     27          6.718325   0.000000
     28          7.107731   0.000000
     29          8.187032   0.000000
     30          8.668770   0.000000
     31          9.063407   0.000000
     32          9.309712   0.000000
     33          9.409436   0.000000
     34         10.347590   0.000000
     35         10.699848   0.000000
     36         10.876901   0.000000
     37         11.329848   0.000000
     38         11.750775   0.000000
     39         12.287634   0.000000
     40         12.605334   0.000000
     41         12.878661   0.000000
     42         13.132449   0.000000
     43         14.228190   0.000000
     44         14.823034   0.000000
     45         15.569698   0.000000
     46         15.849062   0.000000
     47         16.128236   0.000000
     48         16.583991   0.000000
 
  0.2380952E+00  0.5000000E-01  0.0000000E+00  0.3341688E-03
      1        -12.604511   1.000000
      2        -11.768177   1.000000
      3         -8.597366   1.000000
      4         -8.393427   1.000000
      5         -5.965963   1.000000
      6         -5.759748   1.000000
      7         -4.762007   1.000000
      8         -3.978118   1.000000