   1   1   0   0
  0.3366906E+04  0.1498800E-08  0.1249000E-08  0.1798560E-08  0.5000000E-15
  1.000000000000000E-004
  CAR 
 Convergence                             
      2.49709405     -9.97682531  301     -3.60712232      1.00000000
     -9.977  0.0000E+00  0.0000E+00
     -9.935  0.0000E+00  0.0000E+00
     -9.894  0.0000E+00  0.0000E+00
     -9.852  0.0000E+00  0.0000E+00
     -9.811  0.0000E+00  0.0000E+00
     -9.769  0.0000E+00  0.0000E+00
     -9.727  0.0000E+00  0.0000E+00
     -9.686  0.1442E-12  0.5995E-14
     -9.644  0.8145E-09  0.3387E-10
     -9.603  0.1193E-05  0.4963E-07
     -9.561  0.4553E-03  0.1898E-04
     -9.519  0.4600E-01  0.1932E-02
     -9.478  0.1259E+01  0.5430E-01
     -9.436  0.9618E+01  0.4542E+00
     -9.395  0.2109E+02  0.1331E+01
     -9.353  0.1347E+02  0.1891E+01
     -9.312  0.2485E+01  0.1995E+01
     -9.270  0.1290E+00  0.2000E+01
     -9.228  0.1828E-02  0.2000E+01
     -9.187  0.6893E-05  0.2000E+01
     -9.145  0.6801E-08  0.2000E+01
     -9.104  0.1736E-11  0.2000E+01
     -9.062  0.0000E+00  0.2000E+01
     -9.020  0.0000E+00  0.2000E+01
     -8.979  0.0000E+00  0.2000E+01
     -8.937  0.0000E+00  0.2000E+01
     -8.896  0.0000E+00  0.2000E+01
     -8.854  0.0000E+00  0.2000E+01
     -8.813  0.0000E+00  0.2000E+01
     -8.771  0.0000E+00  0.2000E+01
     -8.729  0.0000E+00  0.2000E+01
     -8.688  0.0000E+00  0.2000E+01
     -8.646  0.0000E+00  0.2000E+01
     -8.605  0.0000E+00  0.2000E+01
     -8.563  0.0000E+00  0.2000E+01
     -8.522  0.0000E+00  0.2000E+01
     -8.480  0.0000E+00  0.2000E+01
     -8.438  0.0000E+00  0.2000E+01
     -8.397  0.0000E+00  0.2000E+01
     -8.355  0.0000E+00  0.2000E+01
     -8.314  0.0000E+00  0.2000E+01
     -8.272  0.0000E+00  0.2000E+01
     -8.230  0.0000E+00  0.2000E+01
     -8.189  0.0000E+00  0.2000E+01
     -8.147  0.0000E+00  0.2000E+01
     -8.106  0.0000E+00  0.2000E+01
     -8.064  0.0000E+00  0.2000E+01
     -8.023  0.0000E+00  0.2000E+01
     -7.981  0.0000E+00  0.2000E+01
     -7.939  0.0000E+00  0.2000E+01
     -7.898  0.0000E+00  0.2000E+01
     -7.856  0.0000E+00  0.2000E+01
     -7.815  0.0000E+00  0.2000E+01
     -7.773  0.0000E+00  0.2000E+01
     -7.732  0.0000E+00  0.2000E+01
     -7.690  0.0000E+00  0.2000E+01
     -7.648  0.0000E+00  0.2000E+01
     -7.607  0.0000E+00  0.2000E+01
     -7.565  0.0000E+00  0.2000E+01
     -7.524  0.0000E+00  0.2000E+01
     -7.482  0.0000E+00  0.2000E+01
     -7.440  0.0000E+00  0.2000E+01
     -7.399  0.0000E+00  0.2000E+01
     -7.357  0.0000E+00  0.2000E+01
     -7.316  0.0000E+00  0.2000E+01
     -7.274  0.0000E+00  0.2000E+01
     -7.233  0.0000E+00  0.2000E+01
     -7.191  0.0000E+00  0.2000E+01
     -7.149  0.0000E+00  0.2000E+01
     -7.108  0.0000E+00  0.2000E+01
     -7.066  0.0000E+00  0.2000E+01
     -7.025  0.0000E+00  0.2000E+01
     -6.983  0.0000E+00  0.2000E+01
     -6.942  0.0000E+00  0.2000E+01
     -6.900  0.0000E+00  0.2000E+01
     -6.858  0.0000E+00  0.2000E+01
     -6.817  0.0000E+00  0.2000E+01
     -6.775  0.0000E+00  0.2000E+01
     -6.734  0.0000E+00  0.2000E+01
     -6.692  0.0000E+00  0.2000E+01
     -6.650  0.0000E+00  0.2000E+01
     -6.609  0.0000E+00  0.2000E+01
     -6.567  0.0000E+00  0.2000E+01
     -6.526  0.0000E+00  0.2000E+01
     -6.484  0.0000E+00  0.2000E+01
     -6.443  0.0000E+00  0.2000E+01
     -6.401  0.0000E+00  0.2000E+01
     -6.359  0.0000E+00  0.2000E+01
     -6.318  0.0000E+00  0.2000E+01
     -6.276  0.0000E+00  0.2000E+01
     -6.235  0.0000E+00  0.2000E+01
     -6.193  0.0000E+00  0.2000E+01
     -6.151  0.0000E+00  0.2000E+01
     -6.110  0.0000E+00  0.2000E+01
     -6.068  0.0000E+00  0.2000E+01
     -6.027  0.0000E+00  0.2000E+01
     -5.985  0.0000E+00  0.2000E+01
     -5.944  0.0000E+00  0.2000E+01
     -5.902  0.0000E+00  0.2000E+01
     -5.860  0.0000E+00  0.2000E+01
     -5.819  0.0000E+00  0.2000E+01
     -5.777  0.0000E+00  0.2000E+01
     -5.736  0.0000E+00  0.2000E+01
     -5.694  0.0000E+00  0.2000E+01
     -5.653  0.0000E+00  0.2000E+01
     -5.611  0.0000E+00  0.2000E+01
     -5.569  0.0000E+00  0.2000E+01
     -5.528  0.0000E+00  0.2000E+01
     -5.486  0.0000E+00  0.2000E+01
     -5.445  0.0000E+00  0.2000E+01
     -5.403  0.0000E+00  0.2000E+01
     -5.361  0.0000E+00  0.2000E+01
     -5.320  0.0000E+00  0.2000E+01
     -5.278  0.0000E+00  0.2000E+01
     -5.237  0.0000E+00  0.2000E+01
     -5.195  0.0000E+00  0.2000E+01
     -5.154  0.0000E+00  0.2000E+01
     -5.112  0.0000E+00  0.2000E+01
     -5.070  0.0000E+00  0.2000E+01
     -5.029  0.0000E+00  0.2000E+01
     -4.987  0.0000E+00  0.2000E+01
     -4.946  0.0000E+00  0.2000E+01
     -4.904  0.0000E+00  0.2000E+01
     -4.863  0.0000E+00  0.2000E+01
     -4.821  0.0000E+00  0.2000E+01
     -4.779  0.0000E+00  0.2000E+01
     -4.738  0.0000E+00  0.2000E+01
     -4.696  0.0000E+00  0.2000E+01
     -4.655  0.0000E+00  0.2000E+01
     -4.613  0.0000E+00  0.2000E+01
     -4.571  0.0000E+00  0.2000E+01
     -4.530  0.0000E+00  0.2000E+01
     -4.488  0.0000E+00  0.2000E+01
     -4.447  0.0000E+00  0.2000E+01
     -4.405  0.0000E+00  0.2000E+01
     -4.364  0.0000E+00  0.2000E+01
     -4.322  0.0000E+00  0.2000E+01
     -4.280  0.0000E+00  0.2000E+01
     -4.239  0.0000E+00  0.2000E+01
     -4.197  0.0000E+00  0.2000E+01
     -4.156  0.0000E+00  0.2000E+01
     -4.114  0.0000E+00  0.2000E+01
     -4.073  0.0000E+00  0.2000E+01
     -4.031  0.0000E+00  0.2000E+01
     -3.989  0.0000E+00  0.2000E+01
     -3.948  0.0000E+00  0.2000E+01
     -3.906  0.0000E+00  0.2000E+01
     -3.865  0.8010E-14  0.2000E+01
     -3.823  0.1085E-09  0.2000E+01
     -3.781  0.2653E-06  0.2000E+01
     -3.740  0.1683E-03  0.2000E+01
     -3.698  0.2806E-01  0.2001E+01
     -3.657  0.1256E+01  0.2053E+01
     -3.615  0.1549E+02  0.2698E+01
     -3.574  0.5435E+02  0.4957E+01
     -3.532  0.5537E+02  0.7260E+01
     -3.490  0.1639E+02  0.7941E+01
     -3.449  0.1380E+01  0.7999E+01
     -3.407  0.3208E-01  0.8000E+01
     -3.366  0.2002E-03  0.8000E+01
     -3.324  0.3288E-06  0.8000E+01
     -3.282  0.1401E-09  0.8000E+01
     -3.241  0.1602E-13  0.8000E+01
     -3.199  0.0000E+00  0.8000E+01
     -3.158  0.0000E+00  0.8000E+01
     -3.116  0.0000E+00  0.8000E+01
     -3.075  0.0000E+00  0.8000E+01
     -3.033  0.0000E+00  0.8000E+01
     -2.991  0.0000E+00  0.8000E+01
     -2.950  0.0000E+00  0.8000E+01
     -2.908  0.0000E+00  0.8000E+01
     -2.867  0.0000E+00  0.8000E+01
     -2.825  0.0000E+00  0.8000E+01
     -2.784  0.0000E+00  0.8000E+01
     -2.742  0.0000E+00  0.8000E+01
     -2.700  0.0000E+00  0.8000E+01
     -2.659  0.0000E+00  0.8000E+01
     -2.617  0.0000E+00  0.8000E+01
     -2.576  0.0000E+00  0.8000E+01
     -2.534  0.0000E+00  0.8000E+01
     -2.492  0.0000E+00  0.8000E+01
     -2.451  0.0000E+00  0.8000E+01
     -2.409  0.0000E+00  0.8000E+01
     -2.368  0.0000E+00  0.8000E+01
     -2.326  0.0000E+00  0.8000E+01
     -2.285  0.0000E+00  0.8000E+01
     -2.243  0.0000E+00  0.8000E+01
     -2.201  0.0000E+00  0.8000E+01
     -2.160  0.0000E+00  0.8000E+01
     -2.118  0.0000E+00  0.8000E+01
     -2.077  0.0000E+00  0.8000E+01
     -2.035  0.0000E+00  0.8000E+01
     -1.994  0.0000E+00  0.8000E+01
     -1.952  0.0000E+00  0.8000E+01
     -1.910  0.0000E+00  0.8000E+01
     -1.869  0.0000E+00  0.8000E+01
     -1.827  0.0000E+00  0.8000E+01
     -1.786  0.0000E+00  0.8000E+01
     -1.744  0.0000E+00  0.8000E+01
     -1.702  0.0000E+00  0.8000E+01
     -1.661  0.0000E+00  0.8000E+01
     -1.619  0.0000E+00  0.8000E+01
     -1.578  0.0000E+00  0.8000E+01
     -1.536  0.0000E+00  0.8000E+01
     -1.495  0.0000E+00  0.8000E+01
     -1.453  0.0000E+00  0.8000E+01
     -1.411  0.0000E+00  0.8000E+01
     -1.370  0.0000E+00  0.8000E+01
     -1.328  0.0000E+00  0.8000E+01
     -1.287  0.0000E+00  0.8000E+01
     -1.245  0.0000E+00  0.8000E+01
     -1.204  0.0000E+00  0.8000E+01
     -1.162  0.0000E+00  0.8000E+01
     -1.120  0.0000E+00  0.8000E+01
     -1.079  0.0000E+00  0.8000E+01
     -1.037  0.0000E+00  0.8000E+01
     -0.996  0.0000E+00  0.8000E+01
     -0.954  0.0000E+00  0.8000E+01
     -0.912  0.0000E+00  0.8000E+01
     -0.871  0.0000E+00  0.8000E+01
     -0.829  0.0000E+00  0.8000E+01
     -0.788  0.0000E+00  0.8000E+01
     -0.746  0.0000E+00  0.8000E+01
     -0.705  0.0000E+00  0.8000E+01
     -0.663  0.0000E+00  0.8000E+01
     -0.621  0.0000E+00  0.8000E+01
     -0.580  0.0000E+00  0.8000E+01
     -0.538  0.1153E-14  0.8000E+01
     -0.497  0.7891E-11  0.8000E+01
     -0.455  0.1418E-07  0.8000E+01
     -0.413  0.7021E-05  0.8000E+01
     -0.372  0.9968E-03  0.8000E+01
     -0.330  0.4300E-01  0.8002E+01
     -0.289  0.6144E+00  0.8027E+01
     -0.247  0.3301E+01  0.8165E+01
     -0.206  0.7970E+01  0.8496E+01
     -0.164  0.1075E+02  0.8943E+01
     -0.122  0.1031E+02  0.9372E+01
     -0.081  0.8328E+01  0.9718E+01
     -0.039  0.4927E+01  0.9923E+01
      0.002  0.1650E+01  0.9992E+01
      0.044  0.6809E+00  0.1002E+02
      0.085  0.2251E+01  0.1011E+02
      0.127  0.5998E+01  0.1036E+02
      0.169  0.1060E+02  0.1080E+02
      0.210  0.1411E+02  0.1139E+02
      0.252  0.1563E+02  0.1204E+02
      0.293  0.1576E+02  0.1270E+02
      0.335  0.1591E+02  0.1336E+02
      0.377  0.1619E+02  0.1403E+02
      0.418  0.1652E+02  0.1472E+02
      0.460  0.1761E+02  0.1545E+02
      0.501  0.1847E+02  0.1622E+02
      0.543  0.1846E+02  0.1698E+02
      0.584  0.1899E+02  0.1777E+02
      0.626  0.1990E+02  0.1860E+02
      0.668  0.2035E+02  0.1945E+02
      0.709  0.2102E+02  0.2032E+02
      0.751  0.2243E+02  0.2125E+02
      0.792  0.2235E+02  0.2218E+02
      0.834  0.2186E+02  0.2309E+02
      0.875  0.2337E+02  0.2406E+02
      0.917  0.2451E+02  0.2508E+02
      0.959  0.2419E+02  0.2609E+02
      1.000  0.2487E+02  0.2712E+02
      1.042  0.2588E+02  0.2820E+02
      1.083  0.2597E+02  0.2928E+02
      1.125  0.2604E+02  0.3036E+02
      1.167  0.2682E+02  0.3148E+02
      1.208  0.2769E+02  0.3263E+02
      1.250  0.2727E+02  0.3376E+02
      1.291  0.2747E+02  0.3490E+02
      1.333  0.2853E+02  0.3609E+02
      1.374  0.2856E+02  0.3728E+02
      1.416  0.2828E+02  0.3845E+02
      1.458  0.2933E+02  0.3967E+02
      1.499  0.3086E+02  0.4096E+02
      1.541  0.2997E+02  0.4220E+02
      1.582  0.2954E+02  0.4343E+02
      1.624  0.3004E+02  0.4468E+02
      1.665  0.2762E+02  0.4583E+02
      1.707  0.2113E+02  0.4671E+02
      1.749  0.1398E+02  0.4729E+02
      1.790  0.8280E+01  0.4763E+02
      1.832  0.4775E+01  0.4783E+02
      1.873  0.2561E+01  0.4794E+02
      1.915  0.1085E+01  0.4798E+02
      1.957  0.3441E+00  0.4800E+02
      1.998  0.7260E-01  0.4800E+02
      2.040  0.7014E-02  0.4800E+02
      2.081  0.2236E-03  0.4800E+02
      2.123  0.2035E-05  0.4800E+02
      2.164  0.5005E-08  0.4800E+02
      2.206  0.3245E-11  0.4800E+02
      2.248  0.5595E-15  0.4800E+02
      2.289  0.0000E+00  0.4800E+02
      2.331  0.0000E+00  0.4800E+02
      2.372  0.0000E+00  0.4800E+02
      2.414  0.0000E+00  0.4800E+02
      2.456  0.0000E+00  0.4800E+02
      2.497  0.0000E+00  0.4800E+02
