<?xml version="1.0" encoding="ISO-8859-1"?>
<modeling>
 <generator>
  <i name="program" type="string">vasp </i>
  <i name="version" type="string">6.4.3  </i>
  <i name="subversion" type="string">19Mar24 (build May 31 2024 16:31:43) complex                          parallel </i>
  <i name="platform" type="string">LinuxIFC </i>
  <i name="date" type="string">2024 11 11 </i>
  <i name="time" type="string">18:22:33 </i>
 </generator>
 <incar>
  <i type="string" name="SYSTEM">Convergence</i>
  <i type="int" name="ISTART">     0</i>
  <i type="string" name="PREC">Accurate</i>
  <i type="string" name="ALGO">Normal</i>
  <i type="int" name="ISPIN">     1</i>
  <i type="int" name="ICHARG">     2</i>
  <i type="int" name="NELM">   100</i>
  <i type="int" name="IBRION">    -1</i>
  <i name="EDIFF">      0.00000100</i>
  <i name="EDIFFG">     -0.00100000</i>
  <i type="int" name="NSW">     0</i>
  <i type="int" name="ISIF">     2</i>
  <i name="ENCUT">    600.00000000</i>
  <i name="POTIM">      0.50000000</i>
  <i type="int" name="ISMEAR">     0</i>
  <i name="SIGMA">      0.05000000</i>
  <i type="logical" name="LWAVE"> F  </i>
  <i type="logical" name="LCHARG"> F  </i>
  <i type="string" name="GGA">PE</i>
 </incar>
 <primitive_cell>
  <structure name="primitive_cell" >
   <crystal>
    <varray name="basis" >
     <v>      15.01650000       0.00000000       0.00000000 </v>
     <v>       0.00000000      12.51375000       0.00000000 </v>
     <v>       0.00000000       0.00000000      18.01980000 </v>
    </varray>
    <i name="volume">   3386.14975574 </i>
    <varray name="rec_basis" >
     <v>       0.06659341       0.00000000       0.00000000 </v>
     <v>       0.00000000       0.07991210       0.00000000 </v>
     <v>       0.00000000       0.00000000       0.05549451 </v>
    </varray>
   </crystal>
   <varray name="positions" >
    <v>       0.52123000       0.54500000       0.63796000 </v>
   </varray>
  </structure>
  <varray name="primitive_index" >
   <v type="int" >        1 </v>
  </varray>
 </primitive_cell>
 <kpoints>
  <generation param="Monkhorst-Pack">
   <v type="int" name="divisions">      10       14        9 </v>
   <v name="usershift">      0.00000000       0.00000000       0.00000000 </v>
   <v name="genvec1">      0.10000000       0.00000000       0.00000000 </v>
   <v name="genvec2">      0.00000000       0.07142857       0.00000000 </v>
   <v name="genvec3">      0.00000000       0.00000000       0.11111111 </v>
   <v name="shift">      0.50000000       0.50000000       0.00000000 </v>
  </generation>
  <varray name="kpointlist" >
   <v>       0.05000000       0.03571429       0.00000000 </v>
   <v>       0.15000000       0.03571429       0.00000000 </v>
   <v>       0.25000000       0.03571429       0.00000000 </v>
   <v>       0.35000000       0.03571429       0.00000000 </v>
   <v>       0.45000000       0.03571429       0.00000000 </v>
   <v>       0.05000000       0.10714286       0.00000000 </v>
   <v>       0.15000000       0.10714286       0.00000000 </v>
   <v>       0.25000000       0.10714286       0.00000000 </v>
   <v>       0.35000000       0.10714286       0.00000000 </v>
   <v>       0.45000000       0.10714286       0.00000000 </v>
   <v>       0.05000000       0.17857143       0.00000000 </v>
   <v>       0.15000000       0.17857143       0.00000000 </v>
   <v>       0.25000000       0.17857143       0.00000000 </v>
   <v>       0.35000000       0.17857143       0.00000000 </v>
   <v>       0.45000000       0.17857143       0.00000000 </v>
   <v>       0.05000000       0.25000000       0.00000000 </v>
   <v>       0.15000000       0.25000000       0.00000000 </v>
   <v>       0.25000000       0.25000000       0.00000000 </v>
   <v>       0.35000000       0.25000000       0.00000000 </v>
   <v>       0.45000000       0.25000000       0.00000000 </v>
   <v>       0.05000000       0.32142857       0.00000000 </v>
   <v>       0.15000000       0.32142857       0.00000000 </v>
   <v>       0.25000000       0.32142857       0.00000000 </v>
   <v>       0.35000000       0.32142857       0.00000000 </v>
   <v>       0.45000000       0.32142857       0.00000000 </v>
   <v>       0.05000000       0.39285714       0.00000000 </v>
   <v>       0.15000000       0.39285714       0.00000000 </v>
   <v>       0.25000000       0.39285714       0.00000000 </v>
   <v>       0.35000000       0.39285714       0.00000000 </v>
   <v>       0.45000000       0.39285714       0.00000000 </v>
   <v>       0.05000000       0.46428571       0.00000000 </v>
   <v>       0.15000000       0.46428571       0.00000000 </v>
   <v>       0.25000000       0.46428571       0.00000000 </v>
   <v>       0.35000000       0.46428571       0.00000000 </v>
   <v>       0.45000000       0.46428571       0.00000000 </v>
   <v>       0.05000000       0.03571429       0.11111111 </v>
   <v>       0.15000000       0.03571429       0.11111111 </v>
   <v>       0.25000000       0.03571429       0.11111111 </v>
   <v>       0.35000000       0.03571429       0.11111111 </v>
   <v>       0.45000000       0.03571429       0.11111111 </v>
   <v>       0.05000000       0.10714286       0.11111111 </v>
   <v>       0.15000000       0.10714286       0.11111111 </v>
   <v>       0.25000000       0.10714286       0.11111111 </v>
   <v>       0.35000000       0.10714286       0.11111111 </v>
   <v>       0.45000000       0.10714286       0.11111111 </v>
   <v>       0.05000000       0.17857143       0.11111111 </v>
   <v>       0.15000000       0.17857143       0.11111111 </v>
   <v>       0.25000000       0.17857143       0.11111111 </v>
   <v>       0.35000000       0.17857143       0.11111111 </v>
   <v>       0.45000000       0.17857143       0.11111111 </v>
   <v>       0.05000000       0.25000000       0.11111111 </v>
   <v>       0.15000000       0.25000000       0.11111111 </v>
   <v>       0.25000000       0.25000000       0.11111111 </v>
   <v>       0.35000000       0.25000000       0.11111111 </v>
   <v>       0.45000000       0.25000000       0.11111111 </v>
   <v>       0.05000000       0.32142857       0.11111111 </v>
   <v>       0.15000000       0.32142857       0.11111111 </v>
   <v>       0.25000000       0.32142857       0.11111111 </v>
   <v>       0.35000000       0.32142857       0.11111111 </v>
   <v>       0.45000000       0.32142857       0.11111111 </v>
   <v>       0.05000000       0.39285714       0.11111111 </v>
   <v>       0.15000000       0.39285714       0.11111111 </v>
   <v>       0.25000000       0.39285714       0.11111111 </v>
   <v>       0.35000000       0.39285714       0.11111111 </v>
   <v>       0.45000000       0.39285714       0.11111111 </v>
   <v>       0.05000000       0.46428571       0.11111111 </v>
   <v>       0.15000000       0.46428571       0.11111111 </v>
   <v>       0.25000000       0.46428571       0.11111111 </v>
   <v>       0.35000000       0.46428571       0.11111111 </v>
   <v>       0.45000000       0.46428571       0.11111111 </v>
   <v>       0.05000000       0.03571429       0.22222222 </v>
   <v>       0.15000000       0.03571429       0.22222222 </v>
   <v>       0.25000000       0.03571429       0.22222222 </v>
   <v>       0.35000000       0.03571429       0.22222222 </v>
   <v>       0.45000000       0.03571429       0.22222222 </v>
   <v>       0.05000000       0.10714286       0.22222222 </v>
   <v>       0.15000000       0.10714286       0.22222222 </v>
   <v>       0.25000000       0.10714286       0.22222222 </v>
   <v>       0.35000000       0.10714286       0.22222222 </v>
   <v>       0.45000000       0.10714286       0.22222222 </v>
   <v>       0.05000000       0.17857143       0.22222222 </v>
   <v>       0.15000000       0.17857143       0.22222222 </v>
   <v>       0.25000000       0.17857143       0.22222222 </v>
   <v>       0.35000000       0.17857143       0.22222222 </v>
   <v>       0.45000000       0.17857143       0.22222222 </v>
   <v>       0.05000000       0.25000000       0.22222222 </v>
   <v>       0.15000000       0.25000000       0.22222222 </v>
   <v>       0.25000000       0.25000000       0.22222222 </v>
   <v>       0.35000000       0.25000000       0.22222222 </v>
   <v>       0.45000000       0.25000000       0.22222222 </v>
   <v>       0.05000000       0.32142857       0.22222222 </v>
   <v>       0.15000000       0.32142857       0.22222222 </v>
   <v>       0.25000000       0.32142857       0.22222222 </v>
   <v>       0.35000000       0.32142857       0.22222222 </v>
   <v>       0.45000000       0.32142857       0.22222222 </v>
   <v>       0.05000000       0.39285714       0.22222222 </v>
   <v>       0.15000000       0.39285714       0.22222222 </v>
   <v>       0.25000000       0.39285714       0.22222222 </v>
   <v>       0.35000000       0.39285714       0.22222222 </v>
   <v>       0.45000000       0.39285714       0.22222222 </v>
   <v>       0.05000000       0.46428571       0.22222222 </v>
   <v>       0.15000000       0.46428571       0.22222222 </v>
   <v>       0.25000000       0.46428571       0.22222222 </v>
   <v>       0.35000000       0.46428571       0.22222222 </v>
   <v>       0.45000000       0.46428571       0.22222222 </v>
   <v>       0.05000000       0.03571429       0.33333333 </v>
   <v>       0.15000000       0.03571429       0.33333333 </v>
   <v>       0.25000000       0.03571429       0.33333333 </v>
   <v>       0.35000000       0.03571429       0.33333333 </v>
   <v>       0.45000000       0.03571429       0.33333333 </v>
   <v>       0.05000000       0.10714286       0.33333333 </v>
   <v>       0.15000000       0.10714286       0.33333333 </v>
   <v>       0.25000000       0.10714286       0.33333333 </v>
   <v>       0.35000000       0.10714286       0.33333333 </v>
   <v>       0.45000000       0.10714286       0.33333333 </v>
   <v>       0.05000000       0.17857143       0.33333333 </v>
   <v>       0.15000000       0.17857143       0.33333333 </v>
   <v>       0.25000000       0.17857143       0.33333333 </v>
   <v>       0.35000000       0.17857143       0.33333333 </v>
   <v>       0.45000000       0.17857143       0.33333333 </v>
   <v>       0.05000000       0.25000000       0.33333333 </v>
   <v>       0.15000000       0.25000000       0.33333333 </v>
   <v>       0.25000000       0.25000000       0.33333333 </v>
   <v>       0.35000000       0.25000000       0.33333333 </v>
   <v>       0.45000000       0.25000000       0.33333333 </v>
   <v>       0.05000000       0.32142857       0.33333333 </v>
   <v>       0.15000000       0.32142857       0.33333333 </v>
   <v>       0.25000000       0.32142857       0.33333333 </v>
   <v>       0.35000000       0.32142857       0.33333333 </v>
   <v>       0.45000000       0.32142857       0.33333333 </v>
   <v>       0.05000000       0.39285714       0.33333333 </v>
   <v>       0.15000000       0.39285714       0.33333333 </v>
   <v>       0.25000000       0.39285714       0.33333333 </v>
   <v>       0.35000000       0.39285714       0.33333333 </v>
   <v>       0.45000000       0.39285714       0.33333333 </v>
   <v>       0.05000000       0.46428571       0.33333333 </v>
   <v>       0.15000000       0.46428571       0.33333333 </v>
   <v>       0.25000000       0.46428571       0.33333333 </v>
   <v>       0.35000000       0.46428571       0.33333333 </v>
   <v>       0.45000000       0.46428571       0.33333333 </v>
   <v>       0.05000000       0.03571429       0.44444444 </v>
   <v>       0.15000000       0.03571429       0.44444444 </v>
   <v>       0.25000000       0.03571429       0.44444444 </v>
   <v>       0.35000000       0.03571429       0.44444444 </v>
   <v>       0.45000000       0.03571429       0.44444444 </v>
   <v>       0.05000000       0.10714286       0.44444444 </v>
   <v>       0.15000000       0.10714286       0.44444444 </v>
   <v>       0.25000000       0.10714286       0.44444444 </v>
   <v>       0.35000000       0.10714286       0.44444444 </v>
   <v>       0.45000000       0.10714286       0.44444444 </v>
   <v>       0.05000000       0.17857143       0.44444444 </v>
   <v>       0.15000000       0.17857143       0.44444444 </v>
   <v>       0.25000000       0.17857143       0.44444444 </v>
   <v>       0.35000000       0.17857143       0.44444444 </v>
   <v>       0.45000000       0.17857143       0.44444444 </v>
   <v>       0.05000000       0.25000000       0.44444444 </v>
   <v>       0.15000000       0.25000000       0.44444444 </v>
   <v>       0.25000000       0.25000000       0.44444444 </v>
   <v>       0.35000000       0.25000000       0.44444444 </v>
   <v>       0.45000000       0.25000000       0.44444444 </v>
   <v>       0.05000000       0.32142857       0.44444444 </v>
   <v>       0.15000000       0.32142857       0.44444444 </v>
   <v>       0.25000000       0.32142857       0.44444444 </v>
   <v>       0.35000000       0.32142857       0.44444444 </v>
   <v>       0.45000000       0.32142857       0.44444444 </v>
   <v>       0.05000000       0.39285714       0.44444444 </v>
   <v>       0.15000000       0.39285714       0.44444444 </v>
   <v>       0.25000000       0.39285714       0.44444444 </v>
   <v>       0.35000000       0.39285714       0.44444444 </v>
   <v>       0.45000000       0.39285714       0.44444444 </v>
   <v>       0.05000000       0.46428571       0.44444444 </v>
   <v>       0.15000000       0.46428571       0.44444444 </v>
   <v>       0.25000000       0.46428571       0.44444444 </v>
   <v>       0.35000000       0.46428571       0.44444444 </v>
   <v>       0.45000000       0.46428571       0.44444444 </v>
  </varray>
  <varray name="weights" >
   <v>       0.00317460 </v>
   <v>       0.00317460 </v>
   <v>       0.00317460 </v>
   <v>       0.00317460 </v>
   <v>       0.00317460 </v>
   <v>       0.00317460 </v>
   <v>       0.00317460 </v>
   <v>       0.00317460 </v>
   <v>       0.00317460 </v>
   <v>       0.00317460 </v>
   <v>       0.00317460 </v>
   <v>       0.00317460 </v>
   <v>       0.00317460 </v>
   <v>       0.00317460 </v>
   <v>       0.00317460 </v>
   <v>       0.00317460 </v>
   <v>       0.00317460 </v>
   <v>       0.00317460 </v>
   <v>       0.00317460 </v>
   <v>       0.00317460 </v>
   <v>       0.00317460 </v>
   <v>       0.00317460 </v>
   <v>       0.00317460 </v>
   <v>       0.00317460 </v>
   <v>       0.00317460 </v>
   <v>       0.00317460 </v>
   <v>       0.00317460 </v>
   <v>       0.00317460 </v>
   <v>       0.00317460 </v>
   <v>       0.00317460 </v>
   <v>       0.00317460 </v>
   <v>       0.00317460 </v>
   <v>       0.00317460 </v>
   <v>       0.00317460 </v>
   <v>       0.00317460 </v>
   <v>       0.00634921 </v>
   <v>       0.00634921 </v>
   <v>       0.00634921 </v>
   <v>       0.00634921 </v>
   <v>       0.00634921 </v>
   <v>       0.00634921 </v>
   <v>       0.00634921 </v>
   <v>       0.00634921 </v>
   <v>       0.00634921 </v>
   <v>       0.00634921 </v>
   <v>       0.00634921 </v>
   <v>       0.00634921 </v>
   <v>       0.00634921 </v>
   <v>       0.00634921 </v>
   <v>       0.00634921 </v>
   <v>       0.00634921 </v>
   <v>       0.00634921 </v>
   <v>       0.00634921 </v>
   <v>       0.00634921 </v>
   <v>       0.00634921 </v>
   <v>       0.00634921 </v>
   <v>       0.00634921 </v>
   <v>       0.00634921 </v>
   <v>       0.00634921 </v>
   <v>       0.00634921 </v>
   <v>       0.00634921 </v>
   <v>       0.00634921 </v>
   <v>       0.00634921 </v>
   <v>       0.00634921 </v>
   <v>       0.00634921 </v>
   <v>       0.00634921 </v>
   <v>       0.00634921 </v>
   <v>       0.00634921 </v>
   <v>       0.00634921 </v>
   <v>       0.00634921 </v>
   <v>       0.00634921 </v>
   <v>       0.00634921 </v>
   <v>       0.00634921 </v>
   <v>       0.00634921 </v>
   <v>       0.00634921 </v>
   <v>       0.00634921 </v>
   <v>       0.00634921 </v>
   <v>       0.00634921 </v>
   <v>       0.00634921 </v>
   <v>       0.00634921 </v>
   <v>       0.00634921 </v>
   <v>       0.00634921 </v>
   <v>       0.00634921 </v>
   <v>       0.00634921 </v>
   <v>       0.00634921 </v>
   <v>       0.00634921 </v>
   <v>       0.00634921 </v>
   <v>       0.00634921 </v>
   <v>       0.00634921 </v>
   <v>       0.00634921 </v>
   <v>       0.00634921 </v>
   <v>       0.00634921 </v>
   <v>       0.00634921 </v>
   <v>       0.00634921 </v>
   <v>       0.00634921 </v>
   <v>       0.00634921 </v>
   <v>       0.00634921 </v>
   <v>       0.00634921 </v>
   <v>       0.00634921 </v>
   <v>       0.00634921 </v>
   <v>       0.00634921 </v>
   <v>       0.00634921 </v>
   <v>       0.00634921 </v>
   <v>       0.00634921 </v>
   <v>       0.00634921 </v>
   <v>       0.00634921 </v>
   <v>       0.00634921 </v>
   <v>       0.00634921 </v>
   <v>       0.00634921 </v>
   <v>       0.00634921 </v>
   <v>       0.00634921 </v>
   <v>       0.00634921 </v>
   <v>       0.00634921 </v>
   <v>       0.00634921 </v>
   <v>       0.00634921 </v>
   <v>       0.00634921 </v>
   <v>       0.00634921 </v>
   <v>       0.00634921 </v>
   <v>       0.00634921 </v>
   <v>       0.00634921 </v>
   <v>       0.00634921 </v>
   <v>       0.00634921 </v>
   <v>       0.00634921 </v>
   <v>       0.00634921 </v>
   <v>       0.00634921 </v>
   <v>       0.00634921 </v>
   <v>       0.00634921 </v>
   <v>       0.00634921 </v>
   <v>       0.00634921 </v>
   <v>       0.00634921 </v>
   <v>       0.00634921 </v>
   <v>       0.00634921 </v>
   <v>       0.00634921 </v>
   <v>       0.00634921 </v>
   <v>       0.00634921 </v>
   <v>       0.00634921 </v>
   <v>       0.00634921 </v>
   <v>       0.00634921 </v>
   <v>       0.00634921 </v>
   <v>       0.00634921 </v>
   <v>       0.00634921 </v>
   <v>       0.00634921 </v>
   <v>       0.00634921 </v>
   <v>       0.00634921 </v>
   <v>       0.00634921 </v>
   <v>       0.00634921 </v>
   <v>       0.00634921 </v>
   <v>       0.00634921 </v>
   <v>       0.00634921 </v>
   <v>       0.00634921 </v>
   <v>       0.00634921 </v>
   <v>       0.00634921 </v>
   <v>       0.00634921 </v>
   <v>       0.00634921 </v>
   <v>       0.00634921 </v>
   <v>       0.00634921 </v>
   <v>       0.00634921 </v>
   <v>       0.00634921 </v>
   <v>       0.00634921 </v>
   <v>       0.00634921 </v>
   <v>       0.00634921 </v>
   <v>       0.00634921 </v>
   <v>       0.00634921 </v>
   <v>       0.00634921 </v>
   <v>       0.00634921 </v>
   <v>       0.00634921 </v>
   <v>       0.00634921 </v>
   <v>       0.00634921 </v>
   <v>       0.00634921 </v>
   <v>       0.00634921 </v>
   <v>       0.00634921 </v>
   <v>       0.00634921 </v>
   <v>       0.00634921 </v>
   <v>       0.00634921 </v>
   <v>       0.00634921 </v>
  </varray>
 </kpoints>
 <parameters>
  <separator name="general" >
   <i type="string" name="SYSTEM">Convergence</i>
   <i type="logical" name="LCOMPAT"> F  </i>
  </separator>
  <separator name="electronic" >
   <i type="string" name="PREC">accura</i>
   <i name="ENMAX">    600.00000000</i>
   <i name="ENAUG">    535.51400000</i>
   <i name="EDIFF">      0.00000100</i>
   <i type="int" name="IALGO">    38</i>
   <i type="int" name="IWAVPR">    10</i>
   <i type="int" name="NBANDS">    24</i>
   <i type="int" name="NBANDSLOW">    -1</i>
   <i type="int" name="NBANDSHIGH">    -1</i>
   <i name="NELECT">      3.00000000</i>
   <i type="int" name="TURBO">     0</i>
   <i type="int" name="IRESTART">     0</i>
   <i type="int" name="NREBOOT">     0</i>
   <i type="int" name="NMIN">     0</i>
   <i name="EREF">      0.00000000</i>
   <separator name="electronic smearing" >
    <i type="int" name="ISMEAR">     0</i>
    <i name="SIGMA">      0.05000000</i>
    <i name="KSPACING">      0.50000000</i>
    <i type="logical" name="KGAMMA"> T  </i>
    <i type="logical" name="KBLOWUP"> T  </i>
   </separator>
   <separator name="electronic projectors" >
    <i type="logical" name="LREAL"> F  </i>
    <v name="ROPT">      0.00000000</v>
    <i type="int" name="LMAXPAW">  -100</i>
    <i type="int" name="LMAXMIX">     2</i>
    <i type="logical" name="NLSPLINE"> F  </i>
   </separator>
   <separator name="electronic startup" >
    <i type="int" name="ISTART">     0</i>
    <i type="int" name="ICHARG">     2</i>
    <i type="int" name="INIWAV">     1</i>
   </separator>
   <separator name="electronic spin" >
    <i type="int" name="ISPIN">     1</i>
    <i type="logical" name="LNONCOLLINEAR"> F  </i>
    <v name="MAGMOM">      1.00000000</v>
    <i name="NUPDOWN">     -1.00000000</i>
    <i type="logical" name="LSORBIT"> F  </i>
    <v name="SAXIS">      0.00000000      0.00000000      1.00000000</v>
    <i type="logical" name="LSPIRAL"> F  </i>
    <v name="QSPIRAL">      0.00000000      0.00000000      0.00000000</v>
    <i type="logical" name="LZEROZ"> F  </i>
   </separator>
   <separator name="electronic exchange-correlation" >
    <i type="logical" name="LASPH"> F  </i>
   </separator>
   <separator name="electronic convergence" >
    <i type="int" name="NELM">   100</i>
    <i type="int" name="NELMDL">    -5</i>
    <i type="int" name="NELMIN">     2</i>
    <i name="ENINI">    600.00000000</i>
    <separator name="electronic convergence detail" >
     <i type="logical" name="LDIAG"> T  </i>
     <i type="logical" name="LSUBROT"> F  </i>
     <i name="WEIMIN">      0.00000000</i>
     <i name="EBREAK">      0.00000001</i>
     <i name="DEPER">      0.30000000</i>
     <i type="int" name="NRMM">     4</i>
     <i name="TIME">      0.40000000</i>
    </separator>
   </separator>
   <separator name="electronic mixer" >
    <i name="AMIX">      0.40000000</i>
    <i name="BMIX">      1.00000000</i>
    <i name="AMIN">      0.10000000</i>
    <i name="AMIX_MAG">      1.60000000</i>
    <i name="BMIX_MAG">      1.00000000</i>
    <separator name="electronic mixer details" >
     <i type="int" name="IMIX">     4</i>
     <i type="logical" name="MIXFIRST"> F  </i>
     <i type="int" name="MAXMIX">   -45</i>
     <i name="WC">    100.00000000</i>
     <i type="int" name="INIMIX">     1</i>
     <i type="int" name="MIXPRE">     1</i>
     <i type="int" name="MREMOVE">     5</i>
    </separator>
   </separator>
   <separator name="electronic dipolcorrection" >
    <i type="logical" name="LDIPOL"> F  </i>
    <i type="logical" name="LMONO"> F  </i>
    <i type="int" name="IDIPOL">     0</i>
    <i name="EPSILON">      1.00000000</i>
    <v name="DIPOL">   -100.00000000   -100.00000000   -100.00000000</v>
    <i name="EFIELD">      0.00000000</i>
    <i type="logical" name="LVACPOTAV"> F  </i>
   </separator>
  </separator>
  <separator name="grids" >
   <i type="int" name="NGX">   120</i>
   <i type="int" name="NGY">   100</i>
   <i type="int" name="NGZ">   144</i>
   <i type="int" name="NGXF">   240</i>
   <i type="int" name="NGYF">   200</i>
   <i type="int" name="NGZF">   288</i>
   <i type="logical" name="ADDGRID"> F  </i>
  </separator>
  <separator name="ionic" >
   <i type="int" name="NSW">     0</i>
   <i type="int" name="IBRION">    -1</i>
   <i type="int" name="MDALGO">     0</i>
   <i type="int" name="ISIF">     2</i>
   <i name="PSTRESS">      0.00000000</i>
   <i name="EDIFFG">     -0.00100000</i>
   <i type="int" name="NFREE">     0</i>
   <i name="POTIM">      0.50000000</i>
   <i name="SMASS">     -3.00000000</i>
   <i name="SCALEE">      1.00000000</i>
  </separator>
  <separator name="ionic md" >
   <i name="TEBEG">      0.00010000</i>
   <i name="TEEND">      0.00010000</i>
   <i type="int" name="NBLOCK">     1</i>
   <i type="int" name="KBLOCK">     1</i>
   <i type="int" name="NPACO">   256</i>
   <i name="APACO">     10.00000000</i>
  </separator>
  <separator name="symmetry" >
   <i type="int" name="ISYM">     2</i>
   <i name="SYMPREC">      0.00001000</i>
  </separator>
  <separator name="dos" >
   <i type="int" name="LORBIT">     0</i>
   <v name="RWIGS">     -1.00000000</v>
   <i type="int" name="NEDOS">   301</i>
   <i name="EMIN">     10.00000000</i>
   <i name="EMAX">    -10.00000000</i>
   <i name="EFERMI">      0.00000000</i>
  </separator>
  <separator name="writing" >
   <i type="int" name="NWRITE">     2</i>
   <i type="logical" name="LWAVE"> F  </i>
   <i type="logical" name="LDOWNSAMPLE"> F  </i>
   <i type="logical" name="LCHARG"> F  </i>
   <i type="logical" name="LPARD"> F  </i>
   <i type="logical" name="LVTOT"> F  </i>
   <i type="logical" name="LVHAR"> F  </i>
   <i type="logical" name="LELF"> F  </i>
   <i type="logical" name="LOPTICS"> F  </i>
   <v name="STM">      0.00000000      0.00000000      0.00000000      0.00000000      0.00000000      0.00000000      0.00000000</v>
  </separator>
  <separator name="performance" >
   <i type="int" name="NPAR">    24</i>
   <i type="int" name="NSIM">     4</i>
   <i type="int" name="NBLK">    -1</i>
   <i type="logical" name="LPLANE"> T  </i>
   <i type="logical" name="LSCALAPACK"> T  </i>
   <i type="logical" name="LSCAAWARE"> F  </i>
   <i type="logical" name="LSCALU"> F  </i>
   <i type="logical" name="LASYNC"> F  </i>
   <i type="logical" name="LORBITALREAL"> F  </i>
  </separator>
  <separator name="miscellaneous" >
   <i type="int" name="IDIOT">     3</i>
   <i type="int" name="PHON_NSTRUCT">    -1</i>
   <i type="logical" name="LMUSIC"> F  </i>
   <v name="POMASS">     10.81100000</v>
   <v name="DARWINR">      0.00000000</v>
   <v name="DARWINV">      1.00000000</v>
   <i type="logical" name="LCORR"> T  </i>
  </separator>
  <i type="logical" name="GGA_COMPAT"> T  </i>
  <i type="logical" name="LBERRY"> F  </i>
  <i type="int" name="ICORELEVEL">     0</i>
  <i type="logical" name="LDAU"> F  </i>
  <i type="int" name="I_CONSTRAINED_M">     0</i>
  <separator name="electronic exchange-correlation" >
   <i type="string" name="GGA    ">PE</i>
   <i type="string" name="XC_C">1</i>
   <i type="int" name="VOSKOWN">     0</i>
   <i type="logical" name="LHFCALC"> F  </i>
   <i type="string" name="PRECFOCK"></i>
   <i type="logical" name="LSYMGRAD"> F  </i>
   <i type="logical" name="LHFONE"> F  </i>
   <i type="logical" name="LRHFCALC"> F  </i>
   <i type="logical" name="LTHOMAS"> F  </i>
   <i type="logical" name="LMODELHF"> F  </i>
   <i type="logical" name="LFOCKACE"> F  </i>
   <i name="ENCUT4O">     -1.00000000</i>
   <i type="int" name="EXXOEP">     0</i>
   <i type="int" name="FOURORBIT">     0</i>
   <i name="AEXX">      0.00000000</i>
   <i name="HFALPHA">      0.00000000</i>
   <i name="MCALPHA">      0.00000000</i>
   <i name="ALDAX">      1.00000000</i>
   <i name="AGGAX">      1.00000000</i>
   <i name="AMGGAX">      1.00000000</i>
   <i name="ALDAC">      1.00000000</i>
   <i name="AGGAC">      1.00000000</i>
   <i name="AMGGAC">      1.00000000</i>
   <i type="int" name="NKREDX">     1</i>
   <i type="int" name="NKREDY">     1</i>
   <i type="int" name="NKREDZ">     1</i>
   <i type="logical" name="SHIFTRED"> F  </i>
   <i type="logical" name="ODDONLY"> F  </i>
   <i type="logical" name="EVENONLY"> F  </i>
   <i type="int" name="LMAXFOCK">     0</i>
   <i type="int" name="NMAXFOCKAE">     0</i>
   <i type="logical" name="LFOCKAEDFT"> F  </i>
   <i name="HFSCREEN">      0.00000000</i>
   <i name="HFSCREENC">      0.00000000</i>
   <i type="int" name="NBANDSGWLOW">     0</i>
  </separator>
  <separator name="vdW DFT" >
   <i type="logical" name="LUSE_VDW"> F  </i>
   <i type="int" name="IVDW_NL">    -1</i>
   <i type="logical" name="LSPIN_VDW"> F  </i>
   <i name="ZAB_VDW">     -0.84910000</i>
   <i name="GAMMA_VDW">      1.39626340</i>
   <i name="ALPHA_VDW">      0.00000000</i>
   <i name="PARAM1">      0.12340000</i>
   <i name="PARAM2">      1.00000000</i>
   <i name="BPARAM">      6.30000000</i>
   <i name="CPARAM">      0.00930000</i>
  </separator>
  <separator name="model GW" >
   <i type="int" name="MODEL_GW">     0</i>
   <i name="MODEL_EPS0">   2031.68985345</i>
   <i name="MODEL_ALPHA">      1.00000000</i>
  </separator>
  <separator name="linear response parameters" >
   <i type="logical" name="LEPSILON"> F  </i>
   <i type="logical" name="LRPA"> F  </i>
   <i type="logical" name="LNABLA"> F  </i>
   <i type="logical" name="LVEL"> F  </i>
   <i name="CSHIFT">      0.10000000</i>
   <i name="OMEGAMAX">     -1.00000000</i>
   <i name="DEG_THRESHOLD">      0.00200000</i>
   <i name="RTIME">     -0.10000000</i>
   <i name="WPLASMAI">      0.00000000</i>
   <v name="DFIELD">      0.00000000      0.00000000      0.00000000</v>
   <v name="WPLASMA">      0.00000000      0.00000000      0.00000000      0.00000000      0.00000000      0.00000000      0.00000000      0.00000000      0.00000000</v>
  </separator>
  <separator name="orbital magnetization" >
   <i type="logical" name="NUCIND"> F  </i>
   <v name="MAGPOS">      0.00000000      0.00000000      0.00000000</v>
   <i type="logical" name="LNICSALL"> T  </i>
   <i type="logical" name="ORBITALMAG"> F  </i>
   <i type="logical" name="LMAGBLOCH"> F  </i>
   <i type="logical" name="LCHIMAG"> F  </i>
   <i type="logical" name="LGAUGE"> T  </i>
   <i type="int" name="MAGATOM">     0</i>
   <v name="MAGDIPOL">      0.00000000      0.00000000      0.00000000</v>
   <v name="AVECCONST">      0.00000000      0.00000000      0.00000000</v>
  </separator>
  <separator name="response functions" >
   <i type="logical" name="LALL_IN_ONE"> F  </i>
   <i type="int" name="IALL_IN_ONE">    -1</i>
   <i type="int" name="NBANDS_WAVE">    -1</i>
   <i type="logical" name="LFINITE_TEMPERATURE"> F  </i>
   <i type="logical" name="LADDER"> F  </i>
   <i type="logical" name="LRPAFORCE"> F  </i>
   <i type="logical" name="LFXC"> F  </i>
   <i type="logical" name="LHARTREE"> T  </i>
   <i type="int" name="IBSE">     0</i>
   <v type="int" name="KPOINT">    -1     0     0     0</v>
   <i type="logical" name="LTCTC"> F  </i>
   <i type="logical" name="LTCTE"> F  </i>
   <i type="logical" name="LTETE"> F  </i>
   <i type="logical" name="LTRIPLET"> F  </i>
   <i type="logical" name="LFXCEPS"> F  </i>
   <i type="logical" name="LFXHEG"> F  </i>
   <i type="int" name="NATURALO">     2</i>
   <i type="logical" name="LHOLEGF"> F  </i>
   <i type="logical" name="L2ORDER"> F  </i>
   <i type="logical" name="LDMP1"> F  </i>
   <i type="logical" name="LMP2LT"> F  </i>
   <i type="logical" name="LSMP2LT"> F  </i>
   <i type="logical" name="LGWLF"> F  </i>
   <i name="ENCUTGW">     -1.60000002</i>
   <i name="ENCUTGWSOFT">     -1.60000002</i>
   <i name="ENCUTLF">     -1.00000000</i>
   <i type="logical" name="ESF_SPLINES"> F  </i>
   <i name="ESF_CONV">      0.01000000</i>
   <i type="int" name="ESF_NINTER">    15</i>
   <i type="int" name="LMAXMP2">    -1</i>
   <i name="SCISSOR">      0.00000000</i>
   <i type="int" name="NOMEGA">     0</i>
   <i type="int" name="NOMEGAR">     0</i>
   <i type="int" name="NBANDSGW">    -1</i>
   <i type="int" name="NBANDSO">    -1</i>
   <i type="int" name="NBANDSV">    -1</i>
   <i type="int" name="NELMGW">     1</i>
   <i type="int" name="NELMHF">     1</i>
   <i type="int" name="DIM">     3</i>
   <i type="int" name="IESPILON">     4</i>
   <i type="int" name="ANTIRES">     0</i>
   <i name="OMEGAMAX">    -30.00000000</i>
   <i name="OMEGAMIN">    -30.00000000</i>
   <i name="OMEGATL">   -200.00000000</i>
   <i type="int" name="OMEGAGRID">     0</i>
   <i name="CSHIFT">     -0.10000000</i>
   <i type="logical" name="LSELFENERGY"> F  </i>
   <i type="logical" name="LSPECTRAL"> F  </i>
   <i type="logical" name="LSPECTRALGW"> F  </i>
   <i type="logical" name="LSINGLES"> F  </i>
   <i type="logical" name="LFERMIGW"> F  </i>
   <i type="logical" name="ODDONLYGW"> F  </i>
   <i type="logical" name="EVENONLYGW"> F  </i>
   <i type="int" name="NKREDLFX">     1</i>
   <i type="int" name="NKREDLFY">     1</i>
   <i type="int" name="NKREDLFZ">     1</i>
   <i type="int" name="MAXMEM">  2800</i>
   <i type="int" name="TELESCOPE">     0</i>
   <i type="int" name="NTAUPAR">    -1</i>
   <i type="int" name="NOMEGAPAR">    -1</i>
   <i name="DAMP_NEWTON">      0.80000001</i>
   <i name="LAMBDA">      1.00000000</i>
  </separator>
  <separator name="External order field" >
   <i name="OFIELD_KAPPA">      0.00000000</i>
   <v name="OFIELD_K">      0.00000000      0.00000000      0.00000000</v>
   <i name="OFIELD_Q6_NEAR">      0.00000000</i>
   <i name="OFIELD_Q6_FAR">      0.00000000</i>
   <i name="OFIELD_A">      0.00000000</i>
  </separator>
  <separator name="optional k-points parameters" >
   <i type="int" name="KPOINTS_OPT_MODE">     1</i>
   <i type="logical" name="LKPOINTS_OPT"> F  </i>
  </separator>
 </parameters>
 <atominfo>
  <atoms>       1 </atoms>
  <types>       1 </types>
  <array name="atoms" >
   <dimension dim="1">ion</dimension>
   <field type="string">element</field>
   <field type="int">atomtype</field>
   <set>
    <rc><c>B </c><c>   1</c></rc>
   </set>
  </array>
  <array name="atomtypes" >
   <dimension dim="1">type</dimension>
   <field type="int">atomspertype</field>
   <field type="string">element</field>
   <field>mass</field>
   <field>valence</field>
   <field type="string">pseudopotential</field>
   <set>
    <rc><c>   1</c><c>B </c><c>     10.81100000</c><c>      3.00000000</c><c>  PAW_PBE B 06Sep2000                   </c></rc>
   </set>
  </array>
 </atominfo>
 <structure name="initialpos" >
  <crystal>
   <varray name="basis" >
    <v>      15.01650000       0.00000000       0.00000000 </v>
    <v>       0.00000000      12.51375000       0.00000000 </v>
    <v>       0.00000000       0.00000000      18.01980000 </v>
   </varray>
   <i name="volume">   3386.14975574 </i>
   <varray name="rec_basis" >
    <v>       0.06659341       0.00000000       0.00000000 </v>
    <v>       0.00000000       0.07991210       0.00000000 </v>
    <v>       0.00000000       0.00000000       0.05549451 </v>
   </varray>
  </crystal>
  <varray name="positions" >
   <v>       0.52123000       0.54500000       0.63796000 </v>
  </varray>
 </structure>
 <calculation>
  <scstep>
   <time name="dav">   61.43   62.43</time>
   <time name="total">   61.94   62.95</time>
   <energy>
    <i name="alphaZ">      0.02031661 </i>
    <i name="ewald">    -11.81601902 </i>
    <i name="hartreedc">    -42.59656467 </i>
    <i name="XCdc">      4.75549672 </i>
    <i name="pawpsdc">     43.49986551 </i>
    <i name="pawaedc">    -42.64454556 </i>
    <i name="eentropy">     -0.01013706 </i>
    <i name="bandstr">    -14.30529695 </i>
    <i name="atom">     71.16960075 </i>
    <i name="e_fr_energy">      8.07271633 </i>
    <i name="e_wo_entrp">      8.08285340 </i>
    <i name="e_0_energy">      8.07778486 </i>
   </energy>
  </scstep>
  <scstep>
   <time name="dav">   99.59  100.67</time>
   <time name="total">   99.59  100.67</time>
   <energy>
    <i name="e_fr_energy">      0.10558117 </i>
    <i name="e_wo_entrp">      0.13367460 </i>
    <i name="e_0_energy">      0.11962788 </i>
   </energy>
  </scstep>
  <scstep>
   <time name="dav">   62.30   63.17</time>
   <time name="total">   62.30   63.17</time>
   <energy>
    <i name="e_fr_energy">     -0.05486829 </i>
    <i name="e_wo_entrp">     -0.00203114 </i>
    <i name="e_0_energy">     -0.02844972 </i>
   </energy>
  </scstep>
  <scstep>
   <time name="dav">   67.22   68.09</time>
   <time name="total">   67.23   68.09</time>
   <energy>
    <i name="e_fr_energy">     -0.05821390 </i>
    <i name="e_wo_entrp">     -0.00521260 </i>
    <i name="e_0_energy">     -0.03171325 </i>
   </energy>
  </scstep>
  <scstep>
   <time name="dav">   85.33   86.40</time>
   <time name="total">   89.35   90.45</time>
   <energy>
    <i name="e_fr_energy">     -0.05825220 </i>
    <i name="e_wo_entrp">     -0.00525086 </i>
    <i name="e_0_energy">     -0.03175153 </i>
   </energy>
  </scstep>
  <scstep>
   <time name="dav">   74.90   76.03</time>
   <time name="total">   75.37   76.51</time>
   <energy>
    <i name="alphaZ">      0.02031661 </i>
    <i name="ewald">    -11.81601902 </i>
    <i name="hartreedc">    -42.59678137 </i>
    <i name="XCdc">      4.75548707 </i>
    <i name="pawpsdc">     43.56786930 </i>
    <i name="pawaedc">    -42.71258217 </i>
    <i name="eentropy">     -0.05300134 </i>
    <i name="bandstr">    -22.39314246 </i>
    <i name="atom">     71.16960075 </i>
    <i name="e_fr_energy">     -0.05825262 </i>
    <i name="e_wo_entrp">     -0.00525128 </i>
    <i name="e_0_energy">     -0.03175195 </i>
   </energy>
  </scstep>
  <structure>
   <crystal>
    <varray name="basis" >
     <v>      15.01650000       0.00000000       0.00000000 </v>
     <v>       0.00000000      12.51375000       0.00000000 </v>
     <v>       0.00000000       0.00000000      18.01980000 </v>
    </varray>
    <i name="volume">   3386.14975574 </i>
    <varray name="rec_basis" >
     <v>       0.06659341       0.00000000       0.00000000 </v>
     <v>       0.00000000       0.07991210       0.00000000 </v>
     <v>       0.00000000       0.00000000       0.05549451 </v>
    </varray>
   </crystal>
   <varray name="positions" >
    <v>       0.52123000       0.54500000       0.63796000 </v>
   </varray>
  </structure>
  <varray name="forces" >
   <v>      -0.00000000      -0.00000000       0.00000000 </v>
  </varray>
  <varray name="stress" >
   <v>      -0.00046575       0.00000000       0.00000000 </v>
   <v>       0.00000000      -0.00047500       0.00000000 </v>
   <v>       0.00000000       0.00000000      -0.00045663 </v>
  </varray>
  <energy>
   <i name="e_fr_energy">     -0.05825262 </i>
   <i name="e_wo_entrp">     -0.00525128 </i>
   <i name="e_0_energy">     -0.03175195 </i>
  </energy>
  <time name="totalsc">  515.39  521.71</time>
  <eigenvalues>
   <array>
    <dimension dim="1">band</dimension>
    <dimension dim="2">kpoint</dimension>
    <dimension dim="3">spin</dimension>
    <field>eigene</field>
    <field>occ</field>
    <set>
     <set comment="spin 1">
      <set comment="kpoint 1">
       <r>   -9.4100    1.0000 </r>
       <r>   -3.5731    0.1667 </r>
       <r>   -3.5731    0.1667 </r>
       <r>   -3.5730    0.1659 </r>
       <r>   -0.2617    0.0000 </r>
       <r>    0.2934    0.0000 </r>
       <r>    0.3089    0.0000 </r>
       <r>    0.4381    0.0000 </r>
       <r>    0.5722    0.0000 </r>
       <r>    0.6850    0.0000 </r>
       <r>    0.8268    0.0000 </r>
       <r>    0.9087    0.0000 </r>
       <r>    0.9417    0.0000 </r>
       <r>    1.0335    0.0000 </r>
       <r>    1.0761    0.0000 </r>
       <r>    1.1715    0.0000 </r>
       <r>    1.2056    0.0000 </r>
       <r>    1.2868    0.0000 </r>
       <r>    1.3316    0.0000 </r>
       <r>    1.3492    0.0000 </r>
       <r>    1.4249    0.0000 </r>
       <r>    1.4952    0.0000 </r>
       <r>    1.5728    0.0000 </r>
       <r>    1.7038    0.0000 </r>
      </set>
      <set comment="kpoint 2">
       <r>   -9.4100    1.0000 </r>
       <r>   -3.5731    0.1667 </r>
       <r>   -3.5731    0.1667 </r>
       <r>   -3.5730    0.1659 </r>
       <r>   -0.2519    0.0000 </r>
       <r>    0.2681    0.0000 </r>
       <r>    0.3201    0.0000 </r>
       <r>    0.3726    0.0000 </r>
       <r>    0.6876    0.0000 </r>
       <r>    0.7063    0.0000 </r>
       <r>    0.7991    0.0000 </r>
       <r>    0.8285    0.0000 </r>
       <r>    0.8393    0.0000 </r>
       <r>    1.1493    0.0000 </r>
       <r>    1.1622    0.0000 </r>
       <r>    1.1952    0.0000 </r>
       <r>    1.2166    0.0000 </r>
       <r>    1.2541    0.0000 </r>
       <r>    1.3289    0.0000 </r>
       <r>    1.3482    0.0000 </r>
       <r>    1.3847    0.0000 </r>
       <r>    1.5731    0.0000 </r>
       <r>    1.6342    0.0000 </r>
       <r>    1.6840    0.0000 </r>
      </set>
      <set comment="kpoint 3">
       <r>   -9.4100    1.0000 </r>
       <r>   -3.5731    0.1667 </r>
       <r>   -3.5731    0.1667 </r>
       <r>   -3.5730    0.1659 </r>
       <r>   -0.2338    0.0000 </r>
       <r>    0.1986    0.0000 </r>
       <r>    0.3417    0.0000 </r>
       <r>    0.3745    0.0000 </r>
       <r>    0.7024    0.0000 </r>
       <r>    0.7098    0.0000 </r>
       <r>    0.7139    0.0000 </r>
       <r>    0.8522    0.0000 </r>
       <r>    0.8703    0.0000 </r>
       <r>    1.0872    0.0000 </r>
       <r>    1.1911    0.0000 </r>
       <r>    1.2312    0.0000 </r>
       <r>    1.2700    0.0000 </r>
       <r>    1.2926    0.0000 </r>
       <r>    1.3843    0.0000 </r>
       <r>    1.3956    0.0000 </r>
       <r>    1.4028    0.0000 </r>
       <r>    1.5924    0.0000 </r>
       <r>    1.5932    0.0000 </r>
       <r>    1.6460    0.0000 </r>
      </set>
      <set comment="kpoint 4">
       <r>   -9.4100    1.0000 </r>
       <r>   -3.5731    0.1668 </r>
       <r>   -3.5731    0.1667 </r>
       <r>   -3.5730    0.1659 </r>
       <r>   -0.2116    0.0000 </r>
       <r>    0.1310    0.0000 </r>
       <r>    0.3707    0.0000 </r>
       <r>    0.4056    0.0000 </r>
       <r>    0.6230    0.0000 </r>
       <r>    0.6253    0.0000 </r>
       <r>    0.7375    0.0000 </r>
       <r>    0.8852    0.0000 </r>
       <r>    0.9990    0.0000 </r>
       <r>    1.0380    0.0000 </r>
       <r>    1.1643    0.0000 </r>
       <r>    1.2170    0.0000 </r>
       <r>    1.3039    0.0000 </r>
       <r>    1.3597    0.0000 </r>
       <r>    1.4329    0.0000 </r>
       <r>    1.4820    0.0000 </r>
       <r>    1.5020    0.0000 </r>
       <r>    1.5419    0.0000 </r>
       <r>    1.5553    0.0000 </r>
       <r>    1.6016    0.0000 </r>
      </set>
      <set comment="kpoint 5">
       <r>   -9.4100    1.0000 </r>
       <r>   -3.5731    0.1668 </r>
       <r>   -3.5731    0.1667 </r>
       <r>   -3.5730    0.1659 </r>
       <r>   -0.1946    0.0000 </r>
       <r>    0.0899    0.0000 </r>
       <r>    0.3971    0.0000 </r>
       <r>    0.4436    0.0000 </r>
       <r>    0.5598    0.0000 </r>
       <r>    0.5713    0.0000 </r>
       <r>    0.7578    0.0000 </r>
       <r>    0.9101    0.0000 </r>
       <r>    0.9686    0.0000 </r>
       <r>    1.0987    0.0000 </r>
       <r>    1.2093    0.0000 </r>
       <r>    1.2368    0.0000 </r>
       <r>    1.3385    0.0000 </r>
       <r>    1.4001    0.0000 </r>
       <r>    1.4006    0.0000 </r>
       <r>    1.4449    0.0000 </r>
       <r>    1.4502    0.0000 </r>
       <r>    1.5120    0.0000 </r>
       <r>    1.5776    0.0000 </r>
       <r>    1.5799    0.0000 </r>
      </set>
      <set comment="kpoint 6">
       <r>   -9.4100    1.0000 </r>
       <r>   -3.5731    0.1667 </r>
       <r>   -3.5731    0.1666 </r>
       <r>   -3.5730    0.1660 </r>
       <r>   -0.2526    0.0000 </r>
       <r>    0.3015    0.0000 </r>
       <r>    0.3179    0.0000 </r>
       <r>    0.4470    0.0000 </r>
       <r>    0.5605    0.0000 </r>
       <r>    0.5907    0.0000 </r>
       <r>    0.9162    0.0000 </r>
       <r>    0.9442    0.0000 </r>
       <r>    0.9615    0.0000 </r>
       <r>    1.0227    0.0000 </r>
       <r>    1.0820    0.0000 </r>
       <r>    1.0850    0.0000 </r>
       <r>    1.0928    0.0000 </r>
       <r>    1.1866    0.0000 </r>
       <r>    1.3312    0.0000 </r>
       <r>    1.4527    0.0000 </r>
       <r>    1.4897    0.0000 </r>
       <r>    1.5810    0.0000 </r>
       <r>    1.6344    0.0000 </r>
       <r>    1.6756    0.0000 </r>
      </set>
      <set comment="kpoint 7">
       <r>   -9.4100    1.0000 </r>
       <r>   -3.5731    0.1667 </r>
       <r>   -3.5731    0.1667 </r>
       <r>   -3.5730    0.1660 </r>
       <r>   -0.2428    0.0000 </r>
       <r>    0.2766    0.0000 </r>
       <r>    0.3290    0.0000 </r>
       <r>    0.3815    0.0000 </r>
       <r>    0.5774    0.0000 </r>
       <r>    0.7104    0.0000 </r>
       <r>    0.8078    0.0000 </r>
       <r>    0.8383    0.0000 </r>
       <r>    0.9653    0.0000 </r>
       <r>    1.0565    0.0000 </r>
       <r>    1.0594    0.0000 </r>
       <r>    1.1330    0.0000 </r>
       <r>    1.1904    0.0000 </r>
       <r>    1.2312    0.0000 </r>
       <r>    1.4175    0.0000 </r>
       <r>    1.4628    0.0000 </r>
       <r>    1.4669    0.0000 </r>
       <r>    1.5550    0.0000 </r>
       <r>    1.5712    0.0000 </r>
       <r>    1.6013    0.0000 </r>
      </set>
      <set comment="kpoint 8">
       <r>   -9.4100    1.0000 </r>
       <r>   -3.5731    0.1667 </r>
       <r>   -3.5731    0.1667 </r>
       <r>   -3.5730    0.1660 </r>
       <r>   -0.2247    0.0000 </r>
       <r>    0.2076    0.0000 </r>
       <r>    0.3506    0.0000 </r>
       <r>    0.3830    0.0000 </r>
       <r>    0.5979    0.0000 </r>
       <r>    0.7115    0.0000 </r>
       <r>    0.7193    0.0000 </r>
       <r>    0.8720    0.0000 </r>
       <r>    0.9627    0.0000 </r>
       <r>    1.0008    0.0000 </r>
       <r>    1.0825    0.0000 </r>
       <r>    1.1493    0.0000 </r>
       <r>    1.3222    0.0000 </r>
       <r>    1.3472    0.0000 </r>
       <r>    1.3933    0.0000 </r>
       <r>    1.4654    0.0000 </r>
       <r>    1.4941    0.0000 </r>
       <r>    1.5060    0.0000 </r>
       <r>    1.5283    0.0000 </r>
       <r>    1.6285    0.0000 </r>
      </set>
      <set comment="kpoint 9">
       <r>   -9.4100    1.0000 </r>
       <r>   -3.5731    0.1668 </r>
       <r>   -3.5731    0.1667 </r>
       <r>   -3.5730    0.1660 </r>
       <r>   -0.2026    0.0000 </r>
       <r>    0.1402    0.0000 </r>
       <r>    0.3795    0.0000 </r>
       <r>    0.4140    0.0000 </r>
       <r>    0.6236    0.0000 </r>
       <r>    0.6323    0.0000 </r>
       <r>    0.6345    0.0000 </r>
       <r>    0.8919    0.0000 </r>
       <r>    1.0162    0.0000 </r>
       <r>    1.0370    0.0000 </r>
       <r>    1.1099    0.0000 </r>
       <r>    1.1847    0.0000 </r>
       <r>    1.2891    0.0000 </r>
       <r>    1.3659    0.0000 </r>
       <r>    1.3957    0.0000 </r>
       <r>    1.4815    0.0000 </r>
       <r>    1.5420    0.0000 </r>
       <r>    1.5481    0.0000 </r>
       <r>    1.5670    0.0000 </r>
       <r>    1.6370    0.0000 </r>
      </set>
      <set comment="kpoint 10">
       <r>   -9.4100    1.0000 </r>
       <r>   -3.5731    0.1668 </r>
       <r>   -3.5731    0.1667 </r>
       <r>   -3.5730    0.1660 </r>
       <r>   -0.1857    0.0000 </r>
       <r>    0.0993    0.0000 </r>
       <r>    0.4058    0.0000 </r>
       <r>    0.4520    0.0000 </r>
       <r>    0.5685    0.0000 </r>
       <r>    0.5809    0.0000 </r>
       <r>    0.6466    0.0000 </r>
       <r>    0.8482    0.0000 </r>
       <r>    1.0359    0.0000 </r>
       <r>    1.1331    0.0000 </r>
       <r>    1.1883    0.0000 </r>
       <r>    1.2274    0.0000 </r>
       <r>    1.2563    0.0000 </r>
       <r>    1.3287    0.0000 </r>
       <r>    1.3325    0.0000 </r>
       <r>    1.4166    0.0000 </r>
       <r>    1.5217    0.0000 </r>
       <r>    1.6384    0.0000 </r>
       <r>    1.6447    0.0000 </r>
       <r>    1.7025    0.0000 </r>
      </set>
      <set comment="kpoint 11">
       <r>   -9.4100    1.0000 </r>
       <r>   -3.5731    0.1667 </r>
       <r>   -3.5731    0.1666 </r>
       <r>   -3.5731    0.1663 </r>
       <r>   -0.2347    0.0000 </r>
       <r>    0.3143    0.0000 </r>
       <r>    0.3356    0.0000 </r>
       <r>    0.4600    0.0000 </r>
       <r>    0.4666    0.0000 </r>
       <r>    0.6032    0.0000 </r>
       <r>    0.9160    0.0000 </r>
       <r>    0.9523    0.0000 </r>
       <r>    0.9587    0.0000 </r>
       <r>    0.9721    0.0000 </r>
       <r>    1.0701    0.0000 </r>
       <r>    1.0772    0.0000 </r>
       <r>    1.1008    0.0000 </r>
       <r>    1.1320    0.0000 </r>
       <r>    1.2269    0.0000 </r>
       <r>    1.5431    0.0000 </r>
       <r>    1.5716    0.0000 </r>
       <r>    1.6052    0.0000 </r>
       <r>    1.6401    0.0000 </r>
       <r>    1.6567    0.0000 </r>
      </set>
      <set comment="kpoint 12">
       <r>   -9.4100    1.0000 </r>
       <r>   -3.5731    0.1667 </r>
       <r>   -3.5731    0.1667 </r>
       <r>   -3.5731    0.1663 </r>
       <r>   -0.2249    0.0000 </r>
       <r>    0.2917    0.0000 </r>
       <r>    0.3468    0.0000 </r>
       <r>    0.3980    0.0000 </r>
       <r>    0.4725    0.0000 </r>
       <r>    0.7274    0.0000 </r>
       <r>    0.8242    0.0000 </r>
       <r>    0.8547    0.0000 </r>
       <r>    0.9373    0.0000 </r>
       <r>    0.9560    0.0000 </r>
       <r>    1.0158    0.0000 </r>
       <r>    1.1248    0.0000 </r>
       <r>    1.2057    0.0000 </r>
       <r>    1.2499    0.0000 </r>
       <r>    1.3397    0.0000 </r>
       <r>    1.4486    0.0000 </r>
       <r>    1.4766    0.0000 </r>
       <r>    1.6067    0.0000 </r>
       <r>    1.6101    0.0000 </r>
       <r>    1.6704    0.0000 </r>
      </set>
      <set comment="kpoint 13">
       <r>   -9.4100    1.0000 </r>
       <r>   -3.5731    0.1667 </r>
       <r>   -3.5731    0.1667 </r>
       <r>   -3.5731    0.1663 </r>
       <r>   -0.2069    0.0000 </r>
       <r>    0.2252    0.0000 </r>
       <r>    0.3682    0.0000 </r>
       <r>    0.3971    0.0000 </r>
       <r>    0.4932    0.0000 </r>
       <r>    0.7295    0.0000 </r>
       <r>    0.7339    0.0000 </r>
       <r>    0.8554    0.0000 </r>
       <r>    0.8999    0.0000 </r>
       <r>    0.9760    0.0000 </r>
       <r>    1.0239    0.0000 </r>
       <r>    1.1455    0.0000 </r>
       <r>    1.3159    0.0000 </r>
       <r>    1.3430    0.0000 </r>
       <r>    1.3892    0.0000 </r>
       <r>    1.4043    0.0000 </r>
       <r>    1.4976    0.0000 </r>
       <r>    1.5515    0.0000 </r>
       <r>    1.6266    0.0000 </r>
       <r>    1.6866    0.0000 </r>
      </set>
      <set comment="kpoint 14">
       <r>   -9.4100    1.0000 </r>
       <r>   -3.5731    0.1667 </r>
       <r>   -3.5731    0.1667 </r>
       <r>   -3.5731    0.1663 </r>
       <r>   -0.1850    0.0000 </r>
       <r>    0.1586    0.0000 </r>
       <r>    0.3969    0.0000 </r>
       <r>    0.4269    0.0000 </r>
       <r>    0.5204    0.0000 </r>
       <r>    0.6497    0.0000 </r>
       <r>    0.6509    0.0000 </r>
       <r>    0.7854    0.0000 </r>
       <r>    1.0036    0.0000 </r>
       <r>    1.0482    0.0000 </r>
       <r>    1.0612    0.0000 </r>
       <r>    1.1706    0.0000 </r>
       <r>    1.2643    0.0000 </r>
       <r>    1.2704    0.0000 </r>
       <r>    1.4448    0.0000 </r>
       <r>    1.5126    0.0000 </r>
       <r>    1.5760    0.0000 </r>
       <r>    1.5998    0.0000 </r>
       <r>    1.6551    0.0000 </r>
       <r>    1.6780    0.0000 </r>
      </set>
      <set comment="kpoint 15">
       <r>   -9.4100    1.0000 </r>
       <r>   -3.5731    0.1668 </r>
       <r>   -3.5731    0.1667 </r>
       <r>   -3.5731    0.1663 </r>
       <r>   -0.1682    0.0000 </r>
       <r>    0.1180    0.0000 </r>
       <r>    0.4228    0.0000 </r>
       <r>    0.4631    0.0000 </r>
       <r>    0.5450    0.0000 </r>
       <r>    0.5850    0.0000 </r>
       <r>    0.5999    0.0000 </r>
       <r>    0.7382    0.0000 </r>
       <r>    1.0280    0.0000 </r>
       <r>    1.0911    0.0000 </r>
       <r>    1.1865    0.0000 </r>
       <r>    1.1925    0.0000 </r>
       <r>    1.2166    0.0000 </r>
       <r>    1.2467    0.0000 </r>
       <r>    1.3841    0.0000 </r>
       <r>    1.4560    0.0000 </r>
       <r>    1.6314    0.0000 </r>
       <r>    1.6894    0.0000 </r>
       <r>    1.7361    0.0000 </r>
       <r>    1.7611    0.0000 </r>
      </set>
      <set comment="kpoint 16">
       <r>   -9.4100    1.0000 </r>
       <r>   -3.5731    0.1667 </r>
       <r>   -3.5731    0.1667 </r>
       <r>   -3.5731    0.1666 </r>
       <r>   -0.2088    0.0000 </r>
       <r>    0.3064    0.0000 </r>
       <r>    0.3620    0.0000 </r>
       <r>    0.3984    0.0000 </r>
       <r>    0.4908    0.0000 </r>
       <r>    0.6303    0.0000 </r>
       <r>    0.8365    0.0000 </r>
       <r>    0.8559    0.0000 </r>
       <r>    0.9562    0.0000 </r>
       <r>    0.9682    0.0000 </r>
       <r>    1.0182    0.0000 </r>
       <r>    1.1004    0.0000 </r>
       <r>    1.1057    0.0000 </r>
       <r>    1.1482    0.0000 </r>
       <r>    1.2727    0.0000 </r>
       <r>    1.4583    0.0000 </r>
       <r>    1.4801    0.0000 </r>
       <r>    1.5805    0.0000 </r>
       <r>    1.6178    0.0000 </r>
       <r>    1.6908    0.0000 </r>
      </set>
      <set comment="kpoint 17">
       <r>   -9.4100    1.0000 </r>
       <r>   -3.5731    0.1667 </r>
       <r>   -3.5731    0.1666 </r>
       <r>   -3.5731    0.1666 </r>
       <r>   -0.1991    0.0000 </r>
       <r>    0.2995    0.0000 </r>
       <r>    0.3730    0.0000 </r>
       <r>    0.3834    0.0000 </r>
       <r>    0.4342    0.0000 </r>
       <r>    0.7501    0.0000 </r>
       <r>    0.8281    0.0000 </r>
       <r>    0.8313    0.0000 </r>
       <r>    0.8771    0.0000 </r>
       <r>    0.8905    0.0000 </r>
       <r>    0.9189    0.0000 </r>
       <r>    1.2191    0.0000 </r>
       <r>    1.2276    0.0000 </r>
       <r>    1.2765    0.0000 </r>
       <r>    1.2938    0.0000 </r>
       <r>    1.3528    0.0000 </r>
       <r>    1.3839    0.0000 </r>
       <r>    1.6898    0.0000 </r>
       <r>    1.6955    0.0000 </r>
       <r>    1.7422    0.0000 </r>
      </set>
      <set comment="kpoint 18">
       <r>   -9.4100    1.0000 </r>
       <r>   -3.5731    0.1667 </r>
       <r>   -3.5731    0.1667 </r>
       <r>   -3.5731    0.1667 </r>
       <r>   -0.1813    0.0000 </r>
       <r>    0.2492    0.0000 </r>
       <r>    0.3733    0.0000 </r>
       <r>    0.3942    0.0000 </r>
       <r>    0.4484    0.0000 </r>
       <r>    0.7259    0.0000 </r>
       <r>    0.7551    0.0000 </r>
       <r>    0.7940    0.0000 </r>
       <r>    0.8787    0.0000 </r>
       <r>    0.9205    0.0000 </r>
       <r>    0.9241    0.0000 </r>
       <r>    1.2382    0.0000 </r>
       <r>    1.2432    0.0000 </r>
       <r>    1.2883    0.0000 </r>
       <r>    1.3914    0.0000 </r>
       <r>    1.4157    0.0000 </r>
       <r>    1.4412    0.0000 </r>
       <r>    1.6715    0.0000 </r>
       <r>    1.7366    0.0000 </r>
       <r>    1.7371    0.0000 </r>
      </set>
      <set comment="kpoint 19">
       <r>   -9.4100    1.0000 </r>
       <r>   -3.5731    0.1667 </r>
       <r>   -3.5731    0.1667 </r>
       <r>   -3.5731    0.1667 </r>
       <r>   -0.1596    0.0000 </r>
       <r>    0.1856    0.0000 </r>
       <r>    0.3957    0.0000 </r>
       <r>    0.4226    0.0000 </r>
       <r>    0.4808    0.0000 </r>
       <r>    0.6488    0.0000 </r>
       <r>    0.6783    0.0000 </r>
       <r>    0.7123    0.0000 </r>
       <r>    0.9056    0.0000 </r>
       <r>    0.9550    0.0000 </r>
       <r>    1.0779    0.0000 </r>
       <r>    1.1629    0.0000 </r>
       <r>    1.1670    0.0000 </r>
       <r>    1.3172    0.0000 </r>
       <r>    1.5371    0.0000 </r>
       <r>    1.5403    0.0000 </r>
       <r>    1.5790    0.0000 </r>
       <r>    1.6453    0.0000 </r>
       <r>    1.6648    0.0000 </r>
       <r>    1.7639    0.0000 </r>
      </set>
      <set comment="kpoint 20">
       <r>   -9.4100    1.0000 </r>
       <r>   -3.5731    0.1667 </r>
       <r>   -3.5731    0.1667 </r>
       <r>   -3.5731    0.1667 </r>
       <r>   -0.1430    0.0000 </r>
       <r>    0.1459    0.0000 </r>
       <r>    0.4202    0.0000 </r>
       <r>    0.4479    0.0000 </r>
       <r>    0.5174    0.0000 </r>
       <r>    0.5919    0.0000 </r>
       <r>    0.6282    0.0000 </r>
       <r>    0.6559    0.0000 </r>
       <r>    0.9309    0.0000 </r>
       <r>    0.9952    0.0000 </r>
       <r>    1.0940    0.0000 </r>
       <r>    1.1124    0.0000 </r>
       <r>    1.2535    0.0000 </r>
       <r>    1.3387    0.0000 </r>
       <r>    1.4421    0.0000 </r>
       <r>    1.5763    0.0000 </r>
       <r>    1.6834    0.0000 </r>
       <r>    1.7181    0.0000 </r>
       <r>    1.7685    0.0000 </r>
       <r>    1.7973    0.0000 </r>
      </set>
      <set comment="kpoint 21">
       <r>   -9.4100    1.0000 </r>
       <r>   -3.5732    0.1670 </r>
       <r>   -3.5731    0.1666 </r>
       <r>   -3.5731    0.1666 </r>
       <r>   -0.1768    0.0000 </r>
       <r>    0.2423    0.0000 </r>
       <r>    0.3961    0.0000 </r>
       <r>    0.4125    0.0000 </r>
       <r>    0.5242    0.0000 </r>
       <r>    0.6660    0.0000 </r>
       <r>    0.7496    0.0000 </r>
       <r>    0.7602    0.0000 </r>
       <r>    0.8800    0.0000 </r>
       <r>    1.0005    0.0000 </r>
       <r>    1.0209    0.0000 </r>
       <r>    1.0475    0.0000 </r>
       <r>    1.1336    0.0000 </r>
       <r>    1.1779    0.0000 </r>
       <r>    1.3693    0.0000 </r>
       <r>    1.3721    0.0000 </r>
       <r>    1.4335    0.0000 </r>
       <r>    1.4942    0.0000 </r>
       <r>    1.5368    0.0000 </r>
       <r>    1.7275    0.0000 </r>
      </set>
      <set comment="kpoint 22">
       <r>   -9.4100    1.0000 </r>
       <r>   -3.5732    0.1670 </r>
       <r>   -3.5731    0.1666 </r>
       <r>   -3.5731    0.1666 </r>
       <r>   -0.1672    0.0000 </r>
       <r>    0.2511    0.0000 </r>
       <r>    0.3832    0.0000 </r>
       <r>    0.4070    0.0000 </r>
       <r>    0.4675    0.0000 </r>
       <r>    0.7262    0.0000 </r>
       <r>    0.7598    0.0000 </r>
       <r>    0.7935    0.0000 </r>
       <r>    0.8221    0.0000 </r>
       <r>    0.8945    0.0000 </r>
       <r>    0.9323    0.0000 </r>
       <r>    1.1455    0.0000 </r>
       <r>    1.2296    0.0000 </r>
       <r>    1.2712    0.0000 </r>
       <r>    1.2933    0.0000 </r>
       <r>    1.3185    0.0000 </r>
       <r>    1.4475    0.0000 </r>
       <r>    1.6304    0.0000 </r>
       <r>    1.6640    0.0000 </r>
       <r>    1.7348    0.0000 </r>
      </set>
      <set comment="kpoint 23">
       <r>   -9.4100    1.0000 </r>
       <r>   -3.5732    0.1670 </r>
       <r>   -3.5731    0.1666 </r>
       <r>   -3.5731    0.1666 </r>
       <r>   -0.1496    0.0000 </r>
       <r>    0.2576    0.0000 </r>
       <r>    0.3206    0.0000 </r>
       <r>    0.4279    0.0000 </r>
       <r>    0.4782    0.0000 </r>
       <r>    0.6501    0.0000 </r>
       <r>    0.7693    0.0000 </r>
       <r>    0.8114    0.0000 </r>
       <r>    0.8147    0.0000 </r>
       <r>    0.8272    0.0000 </r>
       <r>    0.9571    0.0000 </r>
       <r>    1.1496    0.0000 </r>
       <r>    1.1547    0.0000 </r>
       <r>    1.3067    0.0000 </r>
       <r>    1.4211    0.0000 </r>
       <r>    1.4472    0.0000 </r>
       <r>    1.4934    0.0000 </r>
       <r>    1.7290    0.0000 </r>
       <r>    1.7681    0.0000 </r>
       <r>    1.8159    0.0000 </r>
      </set>
      <set comment="kpoint 24">
       <r>   -9.4100    1.0000 </r>
       <r>   -3.5732    0.1670 </r>
       <r>   -3.5731    0.1667 </r>
       <r>   -3.5731    0.1666 </r>
       <r>   -0.1284    0.0000 </r>
       <r>    0.2191    0.0000 </r>
       <r>    0.3184    0.0000 </r>
       <r>    0.4556    0.0000 </r>
       <r>    0.5108    0.0000 </r>
       <r>    0.5757    0.0000 </r>
       <r>    0.7135    0.0000 </r>
       <r>    0.7306    0.0000 </r>
       <r>    0.8190    0.0000 </r>
       <r>    0.8600    0.0000 </r>
       <r>    1.0612    0.0000 </r>
       <r>    1.0701    0.0000 </r>
       <r>    1.1252    0.0000 </r>
       <r>    1.4355    0.0000 </r>
       <r>    1.5035    0.0000 </r>
       <r>    1.5730    0.0000 </r>
       <r>    1.6329    0.0000 </r>
       <r>    1.6660    0.0000 </r>
       <r>    1.7976    0.0000 </r>
       <r>    1.8288    0.0000 </r>
      </set>
      <set comment="kpoint 25">
       <r>   -9.4100    1.0000 </r>
       <r>   -3.5732    0.1670 </r>
       <r>   -3.5731    0.1667 </r>
       <r>   -3.5731    0.1666 </r>
       <r>   -0.1124    0.0000 </r>
       <r>    0.1824    0.0000 </r>
       <r>    0.3393    0.0000 </r>
       <r>    0.4800    0.0000 </r>
       <r>    0.5244    0.0000 </r>
       <r>    0.5512    0.0000 </r>
       <r>    0.6655    0.0000 </r>
       <r>    0.6659    0.0000 </r>
       <r>    0.8444    0.0000 </r>
       <r>    0.9006    0.0000 </r>
       <r>    1.0005    0.0000 </r>
       <r>    1.0177    0.0000 </r>
       <r>    1.2889    0.0000 </r>
       <r>    1.4517    0.0000 </r>
       <r>    1.5084    0.0000 </r>
       <r>    1.6399    0.0000 </r>
       <r>    1.7177    0.0000 </r>
       <r>    1.7342    0.0000 </r>
       <r>    1.8101    0.0000 </r>
       <r>    1.8295    0.0000 </r>
      </set>
      <set comment="kpoint 26">
       <r>   -9.4100    1.0000 </r>
       <r>   -3.5732    0.1673 </r>
       <r>   -3.5731    0.1666 </r>
       <r>   -3.5731    0.1666 </r>
       <r>   -0.1429    0.0000 </r>
       <r>    0.1754    0.0000 </r>
       <r>    0.4355    0.0000 </r>
       <r>    0.4546    0.0000 </r>
       <r>    0.5624    0.0000 </r>
       <r>    0.6740    0.0000 </r>
       <r>    0.6742    0.0000 </r>
       <r>    0.7085    0.0000 </r>
       <r>    0.8073    0.0000 </r>
       <r>    0.9437    0.0000 </r>
       <r>    1.0384    0.0000 </r>
       <r>    1.0910    0.0000 </r>
       <r>    1.1728    0.0000 </r>
       <r>    1.2244    0.0000 </r>
       <r>    1.2932    0.0000 </r>
       <r>    1.2972    0.0000 </r>
       <r>    1.4186    0.0000 </r>
       <r>    1.4270    0.0000 </r>
       <r>    1.6042    0.0000 </r>
       <r>    1.7724    0.0000 </r>
      </set>
      <set comment="kpoint 27">
       <r>   -9.4100    1.0000 </r>
       <r>   -3.5732    0.1673 </r>
       <r>   -3.5731    0.1666 </r>
       <r>   -3.5731    0.1666 </r>
       <r>   -0.1335    0.0000 </r>
       <r>    0.1865    0.0000 </r>
       <r>    0.4205    0.0000 </r>
       <r>    0.4462    0.0000 </r>
       <r>    0.5105    0.0000 </r>
       <r>    0.6494    0.0000 </r>
       <r>    0.6854    0.0000 </r>
       <r>    0.7359    0.0000 </r>
       <r>    0.8342    0.0000 </r>
       <r>    0.9334    0.0000 </r>
       <r>    0.9791    0.0000 </r>
       <r>    1.0711    0.0000 </r>
       <r>    1.1679    0.0000 </r>
       <r>    1.1879    0.0000 </r>
       <r>    1.3151    0.0000 </r>
       <r>    1.3655    0.0000 </r>
       <r>    1.5506    0.0000 </r>
       <r>    1.5572    0.0000 </r>
       <r>    1.6283    0.0000 </r>
       <r>    1.7778    0.0000 </r>
      </set>
      <set comment="kpoint 28">
       <r>   -9.4100    1.0000 </r>
       <r>   -3.5732    0.1673 </r>
       <r>   -3.5731    0.1666 </r>
       <r>   -3.5731    0.1666 </r>
       <r>   -0.1165    0.0000 </r>
       <r>    0.2072    0.0000 </r>
       <r>    0.3437    0.0000 </r>
       <r>    0.4664    0.0000 </r>
       <r>    0.5219    0.0000 </r>
       <r>    0.5735    0.0000 </r>
       <r>    0.7073    0.0000 </r>
       <r>    0.7422    0.0000 </r>
       <r>    0.8398    0.0000 </r>
       <r>    0.8575    0.0000 </r>
       <r>    0.9961    0.0000 </r>
       <r>    1.0709    0.0000 </r>
       <r>    1.0756    0.0000 </r>
       <r>    1.2343    0.0000 </r>
       <r>    1.4575    0.0000 </r>
       <r>    1.5144    0.0000 </r>
       <r>    1.6122    0.0000 </r>
       <r>    1.7056    0.0000 </r>
       <r>    1.7325    0.0000 </r>
       <r>    1.7777    0.0000 </r>
      </set>
      <set comment="kpoint 29">
       <r>   -9.4100    1.0000 </r>
       <r>   -3.5732    0.1673 </r>
       <r>   -3.5731    0.1667 </r>
       <r>   -3.5731    0.1666 </r>
       <r>   -0.0961    0.0000 </r>
       <r>    0.2312    0.0000 </r>
       <r>    0.2806    0.0000 </r>
       <r>    0.4930    0.0000 </r>
       <r>    0.4962    0.0000 </r>
       <r>    0.5574    0.0000 </r>
       <r>    0.7326    0.0000 </r>
       <r>    0.7689    0.0000 </r>
       <r>    0.7730    0.0000 </r>
       <r>    0.7761    0.0000 </r>
       <r>    0.9824    0.0000 </r>
       <r>    0.9890    0.0000 </r>
       <r>    1.1597    0.0000 </r>
       <r>    1.3918    0.0000 </r>
       <r>    1.6088    0.0000 </r>
       <r>    1.6106    0.0000 </r>
       <r>    1.6792    0.0000 </r>
       <r>    1.7058    0.0000 </r>
       <r>    1.8454    0.0000 </r>
       <r>    1.8788    0.0000 </r>
      </set>
      <set comment="kpoint 30">
       <r>   -9.4100    1.0000 </r>
       <r>   -3.5732    0.1673 </r>
       <r>   -3.5731    0.1667 </r>
       <r>   -3.5731    0.1666 </r>
       <r>   -0.0809    0.0000 </r>
       <r>    0.2256    0.0000 </r>
       <r>    0.2724    0.0000 </r>
       <r>    0.4464    0.0000 </r>
       <r>    0.5160    0.0000 </r>
       <r>    0.5961    0.0000 </r>
       <r>    0.7087    0.0000 </r>
       <r>    0.7100    0.0000 </r>
       <r>    0.7723    0.0000 </r>
       <r>    0.8156    0.0000 </r>
       <r>    0.9166    0.0000 </r>
       <r>    0.9344    0.0000 </r>
       <r>    1.3267    0.0000 </r>
       <r>    1.4977    0.0000 </r>
       <r>    1.5770    0.0000 </r>
       <r>    1.6356    0.0000 </r>
       <r>    1.7475    0.0000 </r>
       <r>    1.7501    0.0000 </r>
       <r>    1.8708    0.0000 </r>
       <r>    1.8759    0.0000 </r>
      </set>
      <set comment="kpoint 31">
       <r>   -9.4100    1.0000 </r>
       <r>   -3.5732    0.1675 </r>
       <r>   -3.5731    0.1666 </r>
       <r>   -3.5731    0.1665 </r>
       <r>   -0.1178    0.0000 </r>
       <r>    0.1327    0.0000 </r>
       <r>    0.4704    0.0000 </r>
       <r>    0.5023    0.0000 </r>
       <r>    0.5947    0.0000 </r>
       <r>    0.6067    0.0000 </r>
       <r>    0.6208    0.0000 </r>
       <r>    0.7448    0.0000 </r>
       <r>    0.7592    0.0000 </r>
       <r>    0.8860    0.0000 </r>
       <r>    1.0707    0.0000 </r>
       <r>    1.1428    0.0000 </r>
       <r>    1.2092    0.0000 </r>
       <r>    1.2254    0.0000 </r>
       <r>    1.2392    0.0000 </r>
       <r>    1.2794    0.0000 </r>
       <r>    1.3582    0.0000 </r>
       <r>    1.3662    0.0000 </r>
       <r>    1.7092    0.0000 </r>
       <r>    1.8497    0.0000 </r>
      </set>
      <set comment="kpoint 32">
       <r>   -9.4100    1.0000 </r>
       <r>   -3.5732    0.1675 </r>
       <r>   -3.5731    0.1666 </r>
       <r>   -3.5731    0.1666 </r>
       <r>   -0.1087    0.0000 </r>
       <r>    0.1444    0.0000 </r>
       <r>    0.4603    0.0000 </r>
       <r>    0.4807    0.0000 </r>
       <r>    0.5537    0.0000 </r>
       <r>    0.5885    0.0000 </r>
       <r>    0.6329    0.0000 </r>
       <r>    0.6756    0.0000 </r>
       <r>    0.8680    0.0000 </r>
       <r>    0.9695    0.0000 </r>
       <r>    1.0178    0.0000 </r>
       <r>    1.0338    0.0000 </r>
       <r>    1.1148    0.0000 </r>
       <r>    1.1148    0.0000 </r>
       <r>    1.3459    0.0000 </r>
       <r>    1.4182    0.0000 </r>
       <r>    1.4978    0.0000 </r>
       <r>    1.5062    0.0000 </r>
       <r>    1.7170    0.0000 </r>
       <r>    1.8500    0.0000 </r>
      </set>
      <set comment="kpoint 33">
       <r>   -9.4100    1.0000 </r>
       <r>   -3.5732    0.1675 </r>
       <r>   -3.5731    0.1666 </r>
       <r>   -3.5731    0.1666 </r>
       <r>   -0.0922    0.0000 </r>
       <r>    0.1670    0.0000 </r>
       <r>    0.3804    0.0000 </r>
       <r>    0.4999    0.0000 </r>
       <r>    0.5139    0.0000 </r>
       <r>    0.5716    0.0000 </r>
       <r>    0.6565    0.0000 </r>
       <r>    0.6751    0.0000 </r>
       <r>    0.8774    0.0000 </r>
       <r>    0.9035    0.0000 </r>
       <r>    0.9970    0.0000 </r>
       <r>    1.0134    0.0000 </r>
       <r>    1.0478    0.0000 </r>
       <r>    1.1784    0.0000 </r>
       <r>    1.4885    0.0000 </r>
       <r>    1.5674    0.0000 </r>
       <r>    1.6462    0.0000 </r>
       <r>    1.6581    0.0000 </r>
       <r>    1.7348    0.0000 </r>
       <r>    1.8246    0.0000 </r>
      </set>
      <set comment="kpoint 34">
       <r>   -9.4100    1.0000 </r>
       <r>   -3.5732    0.1675 </r>
       <r>   -3.5731    0.1666 </r>
       <r>   -3.5731    0.1666 </r>
       <r>   -0.0728    0.0000 </r>
       <r>    0.1982    0.0000 </r>
       <r>    0.3127    0.0000 </r>
       <r>    0.4375    0.0000 </r>
       <r>    0.5248    0.0000 </r>
       <r>    0.6055    0.0000 </r>
       <r>    0.6895    0.0000 </r>
       <r>    0.7067    0.0000 </r>
       <r>    0.8032    0.0000 </r>
       <r>    0.8235    0.0000 </r>
       <r>    0.9142    0.0000 </r>
       <r>    0.9285    0.0000 </r>
       <r>    1.1940    0.0000 </r>
       <r>    1.3419    0.0000 </r>
       <r>    1.6375    0.0000 </r>
       <r>    1.6931    0.0000 </r>
       <r>    1.7061    0.0000 </r>
       <r>    1.7682    0.0000 </r>
       <r>    1.8128    0.0000 </r>
       <r>    1.8227    0.0000 </r>
      </set>
      <set comment="kpoint 35">
       <r>   -9.4100    1.0000 </r>
       <r>   -3.5732    0.1675 </r>
       <r>   -3.5731    0.1667 </r>
       <r>   -3.5731    0.1666 </r>
       <r>   -0.0585    0.0000 </r>
       <r>    0.2287    0.0000 </r>
       <r>    0.2724    0.0000 </r>
       <r>    0.3843    0.0000 </r>
       <r>    0.5456    0.0000 </r>
       <r>    0.6449    0.0000 </r>
       <r>    0.7226    0.0000 </r>
       <r>    0.7469    0.0000 </r>
       <r>    0.7569    0.0000 </r>
       <r>    0.7586    0.0000 </r>
       <r>    0.8471    0.0000 </r>
       <r>    0.8700    0.0000 </r>
       <r>    1.3581    0.0000 </r>
       <r>    1.5104    0.0000 </r>
       <r>    1.5494    0.0000 </r>
       <r>    1.7133    0.0000 </r>
       <r>    1.7280    0.0000 </r>
       <r>    1.7734    0.0000 </r>
       <r>    1.9159    0.0000 </r>
       <r>    1.9226    0.0000 </r>
      </set>
      <set comment="kpoint 36">
       <r>   -9.4100    1.0000 </r>
       <r>   -3.5731    0.1667 </r>
       <r>   -3.5731    0.1667 </r>
       <r>   -3.5730    0.1659 </r>
       <r>   -0.2586    0.0000 </r>
       <r>    0.2167    0.0000 </r>
       <r>    0.3870    0.0000 </r>
       <r>    0.4514    0.0000 </r>
       <r>    0.5790    0.0000 </r>
       <r>    0.6884    0.0000 </r>
       <r>    0.8296    0.0000 </r>
       <r>    0.8353    0.0000 </r>
       <r>    0.9627    0.0000 </r>
       <r>    1.0270    0.0000 </r>
       <r>    1.1017    0.0000 </r>
       <r>    1.1606    0.0000 </r>
       <r>    1.2509    0.0000 </r>
       <r>    1.2672    0.0000 </r>
       <r>    1.3091    0.0000 </r>
       <r>    1.4112    0.0000 </r>
       <r>    1.4354    0.0000 </r>
       <r>    1.4939    0.0000 </r>
       <r>    1.5158    0.0000 </r>
       <r>    1.6227    0.0000 </r>
      </set>
      <set comment="kpoint 37">
       <r>   -9.4100    1.0000 </r>
       <r>   -3.5731    0.1667 </r>
       <r>   -3.5731    0.1667 </r>
       <r>   -3.5730    0.1659 </r>
       <r>   -0.2489    0.0000 </r>
       <r>    0.2221    0.0000 </r>
       <r>    0.3181    0.0000 </r>
       <r>    0.4372    0.0000 </r>
       <r>    0.6904    0.0000 </r>
       <r>    0.7041    0.0000 </r>
       <r>    0.7313    0.0000 </r>
       <r>    0.8419    0.0000 </r>
       <r>    0.9171    0.0000 </r>
       <r>    1.0903    0.0000 </r>
       <r>    1.1180    0.0000 </r>
       <r>    1.1898    0.0000 </r>
       <r>    1.2452    0.0000 </r>
       <r>    1.2956    0.0000 </r>
       <r>    1.3326    0.0000 </r>
       <r>    1.3447    0.0000 </r>
       <r>    1.4585    0.0000 </r>
       <r>    1.4966    0.0000 </r>
       <r>    1.5833    0.0000 </r>
       <r>    1.6283    0.0000 </r>
      </set>
      <set comment="kpoint 38">
       <r>   -9.4100    1.0000 </r>
       <r>   -3.5731    0.1667 </r>
       <r>   -3.5731    0.1667 </r>
       <r>   -3.5730    0.1659 </r>
       <r>   -0.2309    0.0000 </r>
       <r>    0.1965    0.0000 </r>
       <r>    0.2778    0.0000 </r>
       <r>    0.4570    0.0000 </r>
       <r>    0.6183    0.0000 </r>
       <r>    0.7161    0.0000 </r>
       <r>    0.8015    0.0000 </r>
       <r>    0.8598    0.0000 </r>
       <r>    0.8770    0.0000 </r>
       <r>    1.0876    0.0000 </r>
       <r>    1.1422    0.0000 </r>
       <r>    1.2307    0.0000 </r>
       <r>    1.2415    0.0000 </r>
       <r>    1.3003    0.0000 </r>
       <r>    1.3433    0.0000 </r>
       <r>    1.4517    0.0000 </r>
       <r>    1.4891    0.0000 </r>
       <r>    1.5116    0.0000 </r>
       <r>    1.5217    0.0000 </r>
       <r>    1.6372    0.0000 </r>
      </set>
      <set comment="kpoint 39">
       <r>   -9.4100    1.0000 </r>
       <r>   -3.5731    0.1668 </r>
       <r>   -3.5731    0.1667 </r>
       <r>   -3.5730    0.1659 </r>
       <r>   -0.2089    0.0000 </r>
       <r>    0.1349    0.0000 </r>
       <r>    0.3002    0.0000 </r>
       <r>    0.4859    0.0000 </r>
       <r>    0.5373    0.0000 </r>
       <r>    0.7265    0.0000 </r>
       <r>    0.7407    0.0000 </r>
       <r>    0.8889    0.0000 </r>
       <r>    1.0031    0.0000 </r>
       <r>    1.0422    0.0000 </r>
       <r>    1.1653    0.0000 </r>
       <r>    1.1718    0.0000 </r>
       <r>    1.2991    0.0000 </r>
       <r>    1.3615    0.0000 </r>
       <r>    1.4025    0.0000 </r>
       <r>    1.4607    0.0000 </r>
       <r>    1.4956    0.0000 </r>
       <r>    1.5331    0.0000 </r>
       <r>    1.5664    0.0000 </r>
       <r>    1.6039    0.0000 </r>
      </set>
      <set comment="kpoint 40">
       <r>   -9.4100    1.0000 </r>
       <r>   -3.5731    0.1668 </r>
       <r>   -3.5731    0.1667 </r>
       <r>   -3.5730    0.1659 </r>
       <r>   -0.1921    0.0000 </r>
       <r>    0.0948    0.0000 </r>
       <r>    0.3306    0.0000 </r>
       <r>    0.4709    0.0000 </r>
       <r>    0.5260    0.0000 </r>
       <r>    0.6695    0.0000 </r>
       <r>    0.7606    0.0000 </r>
       <r>    0.9135    0.0000 </r>
       <r>    0.9734    0.0000 </r>
       <r>    1.1033    0.0000 </r>
       <r>    1.1912    0.0000 </r>
       <r>    1.2162    0.0000 </r>
       <r>    1.3244    0.0000 </r>
       <r>    1.3642    0.0000 </r>
       <r>    1.4002    0.0000 </r>
       <r>    1.4233    0.0000 </r>
       <r>    1.4768    0.0000 </r>
       <r>    1.5369    0.0000 </r>
       <r>    1.5625    0.0000 </r>
       <r>    1.6072    0.0000 </r>
      </set>
      <set comment="kpoint 41">
       <r>   -9.4100    1.0000 </r>
       <r>   -3.5731    0.1667 </r>
       <r>   -3.5731    0.1666 </r>
       <r>   -3.5730    0.1660 </r>
       <r>   -0.2496    0.0000 </r>
       <r>    0.2257    0.0000 </r>
       <r>    0.3944    0.0000 </r>
       <r>    0.4601    0.0000 </r>
       <r>    0.5666    0.0000 </r>
       <r>    0.5957    0.0000 </r>
       <r>    0.8424    0.0000 </r>
       <r>    0.9478    0.0000 </r>
       <r>    0.9711    0.0000 </r>
       <r>    0.9980    0.0000 </r>
       <r>    1.0390    0.0000 </r>
       <r>    1.1600    0.0000 </r>
       <r>    1.1652    0.0000 </r>
       <r>    1.2062    0.0000 </r>
       <r>    1.3313    0.0000 </r>
       <r>    1.3924    0.0000 </r>
       <r>    1.4888    0.0000 </r>
       <r>    1.5662    0.0000 </r>
       <r>    1.5849    0.0000 </r>
       <r>    1.6246    0.0000 </r>
      </set>
      <set comment="kpoint 42">
       <r>   -9.4100    1.0000 </r>
       <r>   -3.5731    0.1667 </r>
       <r>   -3.5731    0.1667 </r>
       <r>   -3.5730    0.1660 </r>
       <r>   -0.2398    0.0000 </r>
       <r>    0.2310    0.0000 </r>
       <r>    0.3270    0.0000 </r>
       <r>    0.4452    0.0000 </r>
       <r>    0.5817    0.0000 </r>
       <r>    0.7074    0.0000 </r>
       <r>    0.7405    0.0000 </r>
       <r>    0.9238    0.0000 </r>
       <r>    0.9622    0.0000 </r>
       <r>    1.0025    0.0000 </r>
       <r>    1.0710    0.0000 </r>
       <r>    1.1228    0.0000 </r>
       <r>    1.1959    0.0000 </r>
       <r>    1.3056    0.0000 </r>
       <r>    1.3994    0.0000 </r>
       <r>    1.4093    0.0000 </r>
       <r>    1.4925    0.0000 </r>
       <r>    1.5102    0.0000 </r>
       <r>    1.5299    0.0000 </r>
       <r>    1.6032    0.0000 </r>
      </set>
      <set comment="kpoint 43">
       <r>   -9.4100    1.0000 </r>
       <r>   -3.5731    0.1667 </r>
       <r>   -3.5731    0.1667 </r>
       <r>   -3.5730    0.1660 </r>
       <r>   -0.2218    0.0000 </r>
       <r>    0.2055    0.0000 </r>
       <r>    0.2869    0.0000 </r>
       <r>    0.4648    0.0000 </r>
       <r>    0.6017    0.0000 </r>
       <r>    0.6278    0.0000 </r>
       <r>    0.8095    0.0000 </r>
       <r>    0.8824    0.0000 </r>
       <r>    0.9621    0.0000 </r>
       <r>    1.0045    0.0000 </r>
       <r>    1.0302    0.0000 </r>
       <r>    1.2146    0.0000 </r>
       <r>    1.2614    0.0000 </r>
       <r>    1.3445    0.0000 </r>
       <r>    1.4086    0.0000 </r>
       <r>    1.4134    0.0000 </r>
       <r>    1.4779    0.0000 </r>
       <r>    1.5311    0.0000 </r>
       <r>    1.5756    0.0000 </r>
       <r>    1.5966    0.0000 </r>
      </set>
      <set comment="kpoint 44">
       <r>   -9.4100    1.0000 </r>
       <r>   -3.5731    0.1668 </r>
       <r>   -3.5731    0.1667 </r>
       <r>   -3.5730    0.1660 </r>
       <r>   -0.1999    0.0000 </r>
       <r>    0.1442    0.0000 </r>
       <r>    0.3092    0.0000 </r>
       <r>    0.4937    0.0000 </r>
       <r>    0.5463    0.0000 </r>
       <r>    0.6283    0.0000 </r>
       <r>    0.7347    0.0000 </r>
       <r>    0.8967    0.0000 </r>
       <r>    1.0168    0.0000 </r>
       <r>    1.0406    0.0000 </r>
       <r>    1.0592    0.0000 </r>
       <r>    1.2393    0.0000 </r>
       <r>    1.2814    0.0000 </r>
       <r>    1.3169    0.0000 </r>
       <r>    1.4128    0.0000 </r>
       <r>    1.4707    0.0000 </r>
       <r>    1.4880    0.0000 </r>
       <r>    1.5512    0.0000 </r>
       <r>    1.5988    0.0000 </r>
       <r>    1.6483    0.0000 </r>
      </set>
      <set comment="kpoint 45">
       <r>   -9.4100    1.0000 </r>
       <r>   -3.5731    0.1668 </r>
       <r>   -3.5731    0.1667 </r>
       <r>   -3.5730    0.1660 </r>
       <r>   -0.1832    0.0000 </r>
       <r>    0.1042    0.0000 </r>
       <r>    0.3395    0.0000 </r>
       <r>    0.4801    0.0000 </r>
       <r>    0.5335    0.0000 </r>
       <r>    0.6503    0.0000 </r>
       <r>    0.6779    0.0000 </r>
       <r>    0.8537    0.0000 </r>
       <r>    1.0363    0.0000 </r>
       <r>    1.0868    0.0000 </r>
       <r>    1.1971    0.0000 </r>
       <r>    1.2204    0.0000 </r>
       <r>    1.2596    0.0000 </r>
       <r>    1.3077    0.0000 </r>
       <r>    1.4115    0.0000 </r>
       <r>    1.4273    0.0000 </r>
       <r>    1.4825    0.0000 </r>
       <r>    1.5791    0.0000 </r>
       <r>    1.5972    0.0000 </r>
       <r>    1.6557    0.0000 </r>
      </set>
      <set comment="kpoint 46">
       <r>   -9.4100    1.0000 </r>
       <r>   -3.5731    0.1667 </r>
       <r>   -3.5731    0.1666 </r>
       <r>   -3.5731    0.1663 </r>
       <r>   -0.2317    0.0000 </r>
       <r>    0.2430    0.0000 </r>
       <r>    0.4011    0.0000 </r>
       <r>    0.4700    0.0000 </r>
       <r>    0.4813    0.0000 </r>
       <r>    0.6094    0.0000 </r>
       <r>    0.8479    0.0000 </r>
       <r>    0.8789    0.0000 </r>
       <r>    0.9919    0.0000 </r>
       <r>    1.0227    0.0000 </r>
       <r>    1.0622    0.0000 </r>
       <r>    1.0928    0.0000 </r>
       <r>    1.1247    0.0000 </r>
       <r>    1.1979    0.0000 </r>
       <r>    1.2327    0.0000 </r>
       <r>    1.4735    0.0000 </r>
       <r>    1.5021    0.0000 </r>
       <r>    1.5480    0.0000 </r>
       <r>    1.6184    0.0000 </r>
       <r>    1.6609    0.0000 </r>
      </set>
      <set comment="kpoint 47">
       <r>   -9.4100    1.0000 </r>
       <r>   -3.5731    0.1667 </r>
       <r>   -3.5731    0.1667 </r>
       <r>   -3.5731    0.1663 </r>
       <r>   -0.2220    0.0000 </r>
       <r>    0.2482    0.0000 </r>
       <r>    0.3438    0.0000 </r>
       <r>    0.4481    0.0000 </r>
[...]
       <r>    1.0306    0.0000 </r>
       <r>    1.0684    0.0000 </r>
       <r>    1.1339    0.0000 </r>
       <r>    1.1561    0.0000 </r>
       <r>    1.2790    0.0000 </r>
       <r>    1.5632    0.0000 </r>
       <r>    1.6797    0.0000 </r>
       <r>    1.7125    0.0000 </r>
       <r>    1.7591    0.0000 </r>
      </set>
      <set comment="kpoint 172">
       <r>   -9.4100    1.0000 </r>
       <r>   -3.5732    0.1675 </r>
       <r>   -3.5731    0.1666 </r>
       <r>   -3.5731    0.1666 </r>
       <r>   -0.0854    0.0000 </r>
       <r>    0.1968    0.0000 </r>
       <r>    0.2645    0.0000 </r>
       <r>    0.3628    0.0000 </r>
       <r>    0.5230    0.0000 </r>
       <r>    0.6845    0.0000 </r>
       <r>    0.7300    0.0000 </r>
       <r>    0.8288    0.0000 </r>
       <r>    0.9134    0.0000 </r>
       <r>    0.9835    0.0000 </r>
       <r>    1.0531    0.0000 </r>
       <r>    1.1061    0.0000 </r>
       <r>    1.1287    0.0000 </r>
       <r>    1.1864    0.0000 </r>
       <r>    1.2292    0.0000 </r>
       <r>    1.3018    0.0000 </r>
       <r>    1.4696    0.0000 </r>
       <r>    1.5987    0.0000 </r>
       <r>    1.6258    0.0000 </r>
       <r>    1.7449    0.0000 </r>
      </set>
      <set comment="kpoint 173">
       <r>   -9.4100    1.0000 </r>
       <r>   -3.5732    0.1675 </r>
       <r>   -3.5731    0.1666 </r>
       <r>   -3.5731    0.1666 </r>
       <r>   -0.0699    0.0000 </r>
       <r>    0.2179    0.0000 </r>
       <r>    0.2883    0.0000 </r>
       <r>    0.3883    0.0000 </r>
       <r>    0.4337    0.0000 </r>
       <r>    0.5882    0.0000 </r>
       <r>    0.6316    0.0000 </r>
       <r>    0.7256    0.0000 </r>
       <r>    1.0097    0.0000 </r>
       <r>    1.0570    0.0000 </r>
       <r>    1.1336    0.0000 </r>
       <r>    1.1547    0.0000 </r>
       <r>    1.2196    0.0000 </r>
       <r>    1.2932    0.0000 </r>
       <r>    1.3071    0.0000 </r>
       <r>    1.3825    0.0000 </r>
       <r>    1.4136    0.0000 </r>
       <r>    1.5011    0.0000 </r>
       <r>    1.5399    0.0000 </r>
       <r>    1.6508    0.0000 </r>
      </set>
      <set comment="kpoint 174">
       <r>   -9.4100    1.0000 </r>
       <r>   -3.5732    0.1675 </r>
       <r>   -3.5731    0.1666 </r>
       <r>   -3.5731    0.1666 </r>
       <r>   -0.0519    0.0000 </r>
       <r>    0.2460    0.0000 </r>
       <r>    0.3217    0.0000 </r>
       <r>    0.3654    0.0000 </r>
       <r>    0.4254    0.0000 </r>
       <r>    0.5100    0.0000 </r>
       <r>    0.5474    0.0000 </r>
       <r>    0.6359    0.0000 </r>
       <r>    1.0408    0.0000 </r>
       <r>    1.1706    0.0000 </r>
       <r>    1.1789    0.0000 </r>
       <r>    1.2140    0.0000 </r>
       <r>    1.2945    0.0000 </r>
       <r>    1.3149    0.0000 </r>
       <r>    1.3936    0.0000 </r>
       <r>    1.4196    0.0000 </r>
       <r>    1.4485    0.0000 </r>
       <r>    1.5015    0.0000 </r>
       <r>    1.5645    0.0000 </r>
       <r>    1.5812    0.0000 </r>
      </set>
      <set comment="kpoint 175">
       <r>   -9.4100    1.0000 </r>
       <r>   -3.5732    0.1675 </r>
       <r>   -3.5731    0.1667 </r>
       <r>   -3.5731    0.1666 </r>
       <r>   -0.0390    0.0000 </r>
       <r>    0.2713    0.0000 </r>
       <r>    0.3248    0.0000 </r>
       <r>    0.3581    0.0000 </r>
       <r>    0.4543    0.0000 </r>
       <r>    0.4738    0.0000 </r>
       <r>    0.4887    0.0000 </r>
       <r>    0.5654    0.0000 </r>
       <r>    1.0681    0.0000 </r>
       <r>    1.2041    0.0000 </r>
       <r>    1.2116    0.0000 </r>
       <r>    1.2276    0.0000 </r>
       <r>    1.3382    0.0000 </r>
       <r>    1.3595    0.0000 </r>
       <r>    1.3721    0.0000 </r>
       <r>    1.4385    0.0000 </r>
       <r>    1.4920    0.0000 </r>
       <r>    1.5744    0.0000 </r>
       <r>    1.6027    0.0000 </r>
       <r>    1.6629    0.0000 </r>
      </set>
     </set>
    </set>
   </array>
  </eigenvalues>
  <separator name="orbital magnetization" >
   <v name="MAGDIPOLOUT">      0.00000000      0.00000000      0.00000000</v>
  </separator>
  <dos>
   <i name="efermi">     -3.60731137 </i>
   <total>
    <array>
     <dimension dim="1">gridpoints</dimension>
     <dimension dim="2">spin</dimension>
     <field>energy</field>
     <field>total</field>
     <field>integrated</field>
     <set>
      <set comment="spin 1">
       <r>    -9.9766     0.0000     0.0000 </r>
       <r>    -9.9351     0.0000     0.0000 </r>
       <r>    -9.8935     0.0000     0.0000 </r>
       <r>    -9.8520     0.0000     0.0000 </r>
       <r>    -9.8104     0.0000     0.0000 </r>
       <r>    -9.7689     0.0000     0.0000 </r>
       <r>    -9.7273     0.0000     0.0000 </r>
       <r>    -9.6858     0.0000     0.0000 </r>
       <r>    -9.6442     0.0000     0.0000 </r>
       <r>    -9.6027     0.0000     0.0000 </r>
       <r>    -9.5611     0.0005     0.0000 </r>
       <r>    -9.5196     0.0463     0.0019 </r>
       <r>    -9.4780     1.2636     0.0545 </r>
       <r>    -9.4365     9.6276     0.4545 </r>
       <r>    -9.3949    21.0908     1.3309 </r>
       <r>    -9.3534    13.4793     1.8910 </r>
       <r>    -9.3118     2.4918     1.9945 </r>
       <r>    -9.2702     0.1298     1.9999 </r>
       <r>    -9.2287     0.0018     2.0000 </r>
       <r>    -9.1871     0.0000     2.0000 </r>
       <r>    -9.1456     0.0000     2.0000 </r>
       <r>    -9.1040     0.0000     2.0000 </r>
       <r>    -9.0625     0.0000     2.0000 </r>
       <r>    -9.0209     0.0000     2.0000 </r>
       <r>    -8.9794     0.0000     2.0000 </r>
       <r>    -8.9378     0.0000     2.0000 </r>
       <r>    -8.8963     0.0000     2.0000 </r>
       <r>    -8.8547     0.0000     2.0000 </r>
       <r>    -8.8132     0.0000     2.0000 </r>
       <r>    -8.7716     0.0000     2.0000 </r>
       <r>    -8.7301     0.0000     2.0000 </r>
       <r>    -8.6885     0.0000     2.0000 </r>
       <r>    -8.6470     0.0000     2.0000 </r>
       <r>    -8.6054     0.0000     2.0000 </r>
       <r>    -8.5639     0.0000     2.0000 </r>
       <r>    -8.5223     0.0000     2.0000 </r>
       <r>    -8.4807     0.0000     2.0000 </r>
       <r>    -8.4392     0.0000     2.0000 </r>
       <r>    -8.3976     0.0000     2.0000 </r>
       <r>    -8.3561     0.0000     2.0000 </r>
       <r>    -8.3145     0.0000     2.0000 </r>
       <r>    -8.2730     0.0000     2.0000 </r>
       <r>    -8.2314     0.0000     2.0000 </r>
       <r>    -8.1899     0.0000     2.0000 </r>
       <r>    -8.1483     0.0000     2.0000 </r>
       <r>    -8.1068     0.0000     2.0000 </r>
       <r>    -8.0652     0.0000     2.0000 </r>
       <r>    -8.0237     0.0000     2.0000 </r>
       <r>    -7.9821     0.0000     2.0000 </r>
       <r>    -7.9406     0.0000     2.0000 </r>
       <r>    -7.8990     0.0000     2.0000 </r>
       <r>    -7.8575     0.0000     2.0000 </r>
       <r>    -7.8159     0.0000     2.0000 </r>
       <r>    -7.7743     0.0000     2.0000 </r>
       <r>    -7.7328     0.0000     2.0000 </r>
       <r>    -7.6912     0.0000     2.0000 </r>
       <r>    -7.6497     0.0000     2.0000 </r>
       <r>    -7.6081     0.0000     2.0000 </r>
       <r>    -7.5666     0.0000     2.0000 </r>
       <r>    -7.5250     0.0000     2.0000 </r>
       <r>    -7.4835     0.0000     2.0000 </r>
       <r>    -7.4419     0.0000     2.0000 </r>
       <r>    -7.4004     0.0000     2.0000 </r>
       <r>    -7.3588     0.0000     2.0000 </r>
       <r>    -7.3173     0.0000     2.0000 </r>
       <r>    -7.2757     0.0000     2.0000 </r>
       <r>    -7.2342     0.0000     2.0000 </r>
       <r>    -7.1926     0.0000     2.0000 </r>
       <r>    -7.1511     0.0000     2.0000 </r>
       <r>    -7.1095     0.0000     2.0000 </r>
       <r>    -7.0680     0.0000     2.0000 </r>
       <r>    -7.0264     0.0000     2.0000 </r>
       <r>    -6.9848     0.0000     2.0000 </r>
       <r>    -6.9433     0.0000     2.0000 </r>
       <r>    -6.9017     0.0000     2.0000 </r>
       <r>    -6.8602     0.0000     2.0000 </r>
       <r>    -6.8186     0.0000     2.0000 </r>
       <r>    -6.7771     0.0000     2.0000 </r>
       <r>    -6.7355     0.0000     2.0000 </r>
       <r>    -6.6940     0.0000     2.0000 </r>
       <r>    -6.6524     0.0000     2.0000 </r>
       <r>    -6.6109     0.0000     2.0000 </r>
       <r>    -6.5693     0.0000     2.0000 </r>
       <r>    -6.5278     0.0000     2.0000 </r>
       <r>    -6.4862     0.0000     2.0000 </r>
       <r>    -6.4447     0.0000     2.0000 </r>
       <r>    -6.4031     0.0000     2.0000 </r>
       <r>    -6.3616     0.0000     2.0000 </r>
       <r>    -6.3200     0.0000     2.0000 </r>
       <r>    -6.2784     0.0000     2.0000 </r>
       <r>    -6.2369     0.0000     2.0000 </r>
       <r>    -6.1953     0.0000     2.0000 </r>
       <r>    -6.1538     0.0000     2.0000 </r>
       <r>    -6.1122     0.0000     2.0000 </r>
       <r>    -6.0707     0.0000     2.0000 </r>
       <r>    -6.0291     0.0000     2.0000 </r>
       <r>    -5.9876     0.0000     2.0000 </r>
       <r>    -5.9460     0.0000     2.0000 </r>
       <r>    -5.9045     0.0000     2.0000 </r>
       <r>    -5.8629     0.0000     2.0000 </r>
       <r>    -5.8214     0.0000     2.0000 </r>
       <r>    -5.7798     0.0000     2.0000 </r>
       <r>    -5.7383     0.0000     2.0000 </r>
       <r>    -5.6967     0.0000     2.0000 </r>
       <r>    -5.6552     0.0000     2.0000 </r>
       <r>    -5.6136     0.0000     2.0000 </r>
       <r>    -5.5721     0.0000     2.0000 </r>
       <r>    -5.5305     0.0000     2.0000 </r>
       <r>    -5.4889     0.0000     2.0000 </r>
       <r>    -5.4474     0.0000     2.0000 </r>
       <r>    -5.4058     0.0000     2.0000 </r>
       <r>    -5.3643     0.0000     2.0000 </r>
       <r>    -5.3227     0.0000     2.0000 </r>
       <r>    -5.2812     0.0000     2.0000 </r>
       <r>    -5.2396     0.0000     2.0000 </r>
       <r>    -5.1981     0.0000     2.0000 </r>
       <r>    -5.1565     0.0000     2.0000 </r>
       <r>    -5.1150     0.0000     2.0000 </r>
       <r>    -5.0734     0.0000     2.0000 </r>
       <r>    -5.0319     0.0000     2.0000 </r>
       <r>    -4.9903     0.0000     2.0000 </r>
       <r>    -4.9488     0.0000     2.0000 </r>
       <r>    -4.9072     0.0000     2.0000 </r>
       <r>    -4.8657     0.0000     2.0000 </r>
       <r>    -4.8241     0.0000     2.0000 </r>
       <r>    -4.7825     0.0000     2.0000 </r>
       <r>    -4.7410     0.0000     2.0000 </r>
       <r>    -4.6994     0.0000     2.0000 </r>
       <r>    -4.6579     0.0000     2.0000 </r>
       <r>    -4.6163     0.0000     2.0000 </r>
       <r>    -4.5748     0.0000     2.0000 </r>
       <r>    -4.5332     0.0000     2.0000 </r>
       <r>    -4.4917     0.0000     2.0000 </r>
       <r>    -4.4501     0.0000     2.0000 </r>
       <r>    -4.4086     0.0000     2.0000 </r>
       <r>    -4.3670     0.0000     2.0000 </r>
       <r>    -4.3255     0.0000     2.0000 </r>
       <r>    -4.2839     0.0000     2.0000 </r>
       <r>    -4.2424     0.0000     2.0000 </r>
       <r>    -4.2008     0.0000     2.0000 </r>
       <r>    -4.1593     0.0000     2.0000 </r>
       <r>    -4.1177     0.0000     2.0000 </r>
       <r>    -4.0762     0.0000     2.0000 </r>
       <r>    -4.0346     0.0000     2.0000 </r>
       <r>    -3.9930     0.0000     2.0000 </r>
       <r>    -3.9515     0.0000     2.0000 </r>
       <r>    -3.9099     0.0000     2.0000 </r>
       <r>    -3.8684     0.0000     2.0000 </r>
       <r>    -3.8268     0.0000     2.0000 </r>
       <r>    -3.7853     0.0000     2.0000 </r>
       <r>    -3.7437     0.0001     2.0000 </r>
       <r>    -3.7022     0.0188     2.0008 </r>
       <r>    -3.6606     0.9421     2.0399 </r>
       <r>    -3.6191    13.0148     2.5807 </r>
       <r>    -3.5775    51.0522     4.7021 </r>
       <r>    -3.5360    58.1779     7.1195 </r>
       <r>    -3.4944    19.3097     7.9219 </r>
       <r>    -3.4529     1.8307     7.9980 </r>
       <r>    -3.4113     0.0481     8.0000 </r>
       <r>    -3.3698     0.0003     8.0000 </r>
       <r>    -3.3282     0.0000     8.0000 </r>
       <r>    -3.2867     0.0000     8.0000 </r>
       <r>    -3.2451     0.0000     8.0000 </r>
       <r>    -3.2035     0.0000     8.0000 </r>
       <r>    -3.1620     0.0000     8.0000 </r>
       <r>    -3.1204     0.0000     8.0000 </r>
       <r>    -3.0789     0.0000     8.0000 </r>
       <r>    -3.0373     0.0000     8.0000 </r>
       <r>    -2.9958     0.0000     8.0000 </r>
       <r>    -2.9542     0.0000     8.0000 </r>
       <r>    -2.9127     0.0000     8.0000 </r>
       <r>    -2.8711     0.0000     8.0000 </r>
       <r>    -2.8296     0.0000     8.0000 </r>
       <r>    -2.7880     0.0000     8.0000 </r>
       <r>    -2.7465     0.0000     8.0000 </r>
       <r>    -2.7049     0.0000     8.0000 </r>
       <r>    -2.6634     0.0000     8.0000 </r>
       <r>    -2.6218     0.0000     8.0000 </r>
       <r>    -2.5803     0.0000     8.0000 </r>
       <r>    -2.5387     0.0000     8.0000 </r>
       <r>    -2.4971     0.0000     8.0000 </r>
       <r>    -2.4556     0.0000     8.0000 </r>
       <r>    -2.4140     0.0000     8.0000 </r>
       <r>    -2.3725     0.0000     8.0000 </r>
       <r>    -2.3309     0.0000     8.0000 </r>
       <r>    -2.2894     0.0000     8.0000 </r>
       <r>    -2.2478     0.0000     8.0000 </r>
       <r>    -2.2063     0.0000     8.0000 </r>
       <r>    -2.1647     0.0000     8.0000 </r>
       <r>    -2.1232     0.0000     8.0000 </r>
       <r>    -2.0816     0.0000     8.0000 </r>
       <r>    -2.0401     0.0000     8.0000 </r>
       <r>    -1.9985     0.0000     8.0000 </r>
       <r>    -1.9570     0.0000     8.0000 </r>
       <r>    -1.9154     0.0000     8.0000 </r>
       <r>    -1.8739     0.0000     8.0000 </r>
       <r>    -1.8323     0.0000     8.0000 </r>
       <r>    -1.7908     0.0000     8.0000 </r>
       <r>    -1.7492     0.0000     8.0000 </r>
       <r>    -1.7076     0.0000     8.0000 </r>
       <r>    -1.6661     0.0000     8.0000 </r>
       <r>    -1.6245     0.0000     8.0000 </r>
       <r>    -1.5830     0.0000     8.0000 </r>
       <r>    -1.5414     0.0000     8.0000 </r>
       <r>    -1.4999     0.0000     8.0000 </r>
       <r>    -1.4583     0.0000     8.0000 </r>
       <r>    -1.4168     0.0000     8.0000 </r>
       <r>    -1.3752     0.0000     8.0000 </r>
       <r>    -1.3337     0.0000     8.0000 </r>
       <r>    -1.2921     0.0000     8.0000 </r>
       <r>    -1.2506     0.0000     8.0000 </r>
       <r>    -1.2090     0.0000     8.0000 </r>
       <r>    -1.1675     0.0000     8.0000 </r>
       <r>    -1.1259     0.0000     8.0000 </r>
       <r>    -1.0844     0.0000     8.0000 </r>
       <r>    -1.0428     0.0000     8.0000 </r>
       <r>    -1.0012     0.0000     8.0000 </r>
       <r>    -0.9597     0.0000     8.0000 </r>
       <r>    -0.9181     0.0000     8.0000 </r>
       <r>    -0.8766     0.0000     8.0000 </r>
       <r>    -0.8350     0.0000     8.0000 </r>
       <r>    -0.7935     0.0000     8.0000 </r>
       <r>    -0.7519     0.0000     8.0000 </r>
       <r>    -0.7104     0.0000     8.0000 </r>
       <r>    -0.6688     0.0000     8.0000 </r>
       <r>    -0.6273     0.0000     8.0000 </r>
       <r>    -0.5857     0.0000     8.0000 </r>
       <r>    -0.5442     0.0000     8.0000 </r>
       <r>    -0.5026     0.0000     8.0000 </r>
       <r>    -0.4611     0.0000     8.0000 </r>
       <r>    -0.4195     0.0000     8.0000 </r>
       <r>    -0.3780     0.0005     8.0000 </r>
       <r>    -0.3364     0.0260     8.0011 </r>
       <r>    -0.2949     0.4373     8.0193 </r>
       <r>    -0.2533     2.7092     8.1318 </r>
       <r>    -0.2117     7.3097     8.4356 </r>
       <r>    -0.1702    10.6250     8.8771 </r>
       <r>    -0.1286    10.5583     9.3158 </r>
       <r>    -0.0871     8.7314     9.6786 </r>
       <r>    -0.0455     5.4566     9.9054 </r>
       <r>    -0.0040     1.9721     9.9873 </r>
       <r>     0.0376     0.6472    10.0142 </r>
       <r>     0.0791     1.8799    10.0923 </r>
       <r>     0.1207     5.3825    10.3160 </r>
       <r>     0.1622    10.0154    10.7321 </r>
       <r>     0.2038    13.7993    11.3055 </r>
       <r>     0.2453    15.5993    11.9537 </r>
       <r>     0.2869    15.8228    12.6112 </r>
       <r>     0.3284    15.9349    13.2734 </r>
       <r>     0.3700    16.2232    13.9475 </r>
       <r>     0.4115    16.5125    14.6336 </r>
       <r>     0.4531    17.5165    15.3615 </r>
       <r>     0.4947    18.5006    16.1302 </r>
       <r>     0.5362    18.5256    16.9000 </r>
       <r>     0.5778    18.9653    17.6881 </r>
       <r>     0.6193    19.8928    18.5147 </r>
       <r>     0.6609    20.3834    19.3617 </r>
       <r>     0.7024    20.9928    20.2340 </r>
       <r>     0.7440    22.3887    21.1643 </r>
       <r>     0.7855    22.5072    22.0995 </r>
       <r>     0.8271    21.8985    23.0095 </r>
       <r>     0.8686    23.2864    23.9771 </r>
       <r>     0.9102    24.5677    24.9979 </r>
       <r>     0.9517    24.2957    26.0075 </r>
       <r>     0.9933    24.8548    27.0403 </r>
       <r>     1.0348    25.9369    28.1180 </r>
       <r>     1.0764    26.0671    29.2012 </r>
       <r>     1.1179    26.1173    30.2864 </r>
       <r>     1.1595    26.8433    31.4018 </r>
       <r>     1.2010    27.7582    32.5553 </r>
       <r>     1.2426    27.4128    33.6944 </r>
       <r>     1.2842    27.5247    34.8381 </r>
       <r>     1.3257    28.6032    36.0266 </r>
       <r>     1.3673    28.6962    37.2190 </r>
       <r>     1.4088    28.3794    38.3983 </r>
       <r>     1.4504    29.3565    39.6181 </r>
       <r>     1.4919    30.9445    40.9039 </r>
       <r>     1.5335    30.1363    42.1562 </r>
       <r>     1.5750    29.6282    43.3873 </r>
       <r>     1.6166    30.1531    44.6403 </r>
       <r>     1.6581    27.8516    45.7976 </r>
       <r>     1.6997    21.3993    46.6868 </r>
       <r>     1.7412    14.2003    47.2768 </r>
       <r>     1.7828     8.4225    47.6268 </r>
       <r>     1.8243     4.8474    47.8283 </r>
       <r>     1.8659     2.6003    47.9363 </r>
       <r>     1.9074     1.1025    47.9821 </r>
       <r>     1.9490     0.3495    47.9966 </r>
       <r>     1.9906     0.0736    47.9997 </r>
       <r>     2.0321     0.0071    48.0000 </r>
       <r>     2.0737     0.0002    48.0000 </r>
       <r>     2.1152     0.0000    48.0000 </r>
       <r>     2.1568     0.0000    48.0000 </r>
       <r>     2.1983     0.0000    48.0000 </r>
       <r>     2.2399     0.0000    48.0000 </r>
       <r>     2.2814     0.0000    48.0000 </r>
       <r>     2.3230     0.0000    48.0000 </r>
       <r>     2.3645     0.0000    48.0000 </r>
       <r>     2.4061     0.0000    48.0000 </r>
       <r>     2.4476     0.0000    48.0000 </r>
       <r>     2.4892     0.0000    48.0000 </r>
      </set>
     </set>
    </array>
   </total>
  </dos>
 </calculation>
 <structure name="finalpos" >
  <crystal>
   <varray name="basis" >
    <v>      15.01650000       0.00000000       0.00000000 </v>
    <v>       0.00000000      12.51375000       0.00000000 </v>
    <v>       0.00000000       0.00000000      18.01980000 </v>
   </varray>
   <i name="volume">   3386.14975574 </i>
   <varray name="rec_basis" >
    <v>       0.06659341       0.00000000       0.00000000 </v>
    <v>       0.00000000       0.07991210       0.00000000 </v>
    <v>       0.00000000       0.00000000       0.05549451 </v>
   </varray>
  </crystal>
  <varray name="positions" >
   <v>       0.52123000       0.54500000       0.63796000 </v>
  </varray>
 </structure>
</modeling>
