 running   24 mpi-ranks, with    1 threads/rank, on    1 nodes
 distrk:  each k-point on   24 cores,    1 groups
 distr:  one band on    1 cores,   24 groups
 vasp.6.4.3 19Mar24 (build May 31 2024 16:31:43) complex                        
  
 POSCAR found type information on POSCAR B 
 POSCAR found :  1 types and       1 ions
 Reading from existing POTCAR
 scaLAPACK will be used
 Reading from existing POTCAR
 LDA part: xc-table for (Slater+PW92), standard interpolation
 POSCAR, INCAR and KPOINTS ok, starting setup
 FFT: planning ... GRIDC
 FFT: planning ... GRID_SOFT
 FFT: planning ... GRID
 WAVECAR not read
 entering main loop
       N       E                     dE             d eps       ncg     rms          rms(c)
DAV:   1     0.807271633290E+01    0.80727E+01   -0.33581E+02  8400   0.387E+01
DAV:   2     0.105581166841E+00   -0.79671E+01   -0.79374E+01 16512   0.580E+00
DAV:   3    -0.548682933133E-01   -0.16045E+00   -0.13753E+00  8544   0.147E+00
DAV:   4    -0.582139013074E-01   -0.33456E-02   -0.31864E-02  9528   0.180E-01
DAV:   5    -0.582521973999E-01   -0.38296E-04   -0.38278E-04 13368   0.217E-02    0.848E-03
DAV:   6    -0.582526227435E-01   -0.42534E-06   -0.28461E-06 11112   0.342E-03
   1 F= -.58252623E-01 E0= -.31751952E-01  d E =-.530013E-01
