  14  14   0   0
  0.6072273E+02  0.5700971E-09  0.6201871E-09  0.2404406E-08  0.5000000E-15
  1.000000000000000E-004
  CAR 
 Convergence                             
      6.01892926    -20.42200521  301     -4.61342929      1.00000000
    -20.422  0.0000E+00  0.0000E+00
    -20.334  0.0000E+00  0.0000E+00
    -20.246  0.0000E+00  0.0000E+00
    -20.158  0.0000E+00  0.0000E+00
    -20.069  0.0000E+00  0.0000E+00
    -19.981  0.0000E+00  0.0000E+00
    -19.893  0.0000E+00  0.0000E+00
    -19.805  0.0000E+00  0.0000E+00
    -19.717  0.0000E+00  0.0000E+00
    -19.629  0.0000E+00  0.0000E+00
    -19.541  0.0000E+00  0.0000E+00
    -19.453  0.1584E-10  0.1396E-11
    -19.364  0.1773E-04  0.1562E-05
    -19.276  0.6515E-01  0.5743E-02
    -19.188  0.2263E+01  0.2052E+00
    -19.100  0.5877E+01  0.7232E+00
    -19.012  0.4724E+01  0.1140E+01
    -18.924  0.3677E+01  0.1464E+01
    -18.836  0.2501E+01  0.1684E+01
    -18.747  0.3288E+01  0.1974E+01
    -18.659  0.2258E+01  0.2173E+01
    -18.571  0.2677E+01  0.2409E+01
    -18.483  0.3036E+01  0.2676E+01
    -18.395  0.2732E+01  0.2917E+01
    -18.307  0.4391E+01  0.3304E+01
    -18.219  0.4320E+01  0.3685E+01
    -18.130  0.2908E+01  0.3941E+01
    -18.042  0.6624E+00  0.3999E+01
    -17.954  0.5922E-02  0.4000E+01
    -17.866  0.2865E-06  0.4000E+01
    -17.778  0.4093E-13  0.4000E+01
    -17.690  0.0000E+00  0.4000E+01
    -17.602  0.0000E+00  0.4000E+01
    -17.514  0.0000E+00  0.4000E+01
    -17.425  0.0000E+00  0.4000E+01
    -17.337  0.0000E+00  0.4000E+01
    -17.249  0.0000E+00  0.4000E+01
    -17.161  0.0000E+00  0.4000E+01
    -17.073  0.0000E+00  0.4000E+01
    -16.985  0.0000E+00  0.4000E+01
    -16.897  0.0000E+00  0.4000E+01
    -16.808  0.0000E+00  0.4000E+01
    -16.720  0.0000E+00  0.4000E+01
    -16.632  0.0000E+00  0.4000E+01
    -16.544  0.0000E+00  0.4000E+01
    -16.456  0.0000E+00  0.4000E+01
    -16.368  0.0000E+00  0.4000E+01
    -16.280  0.0000E+00  0.4000E+01
    -16.191  0.0000E+00  0.4000E+01
    -16.103  0.0000E+00  0.4000E+01
    -16.015  0.0000E+00  0.4000E+01
    -15.927  0.0000E+00  0.4000E+01
    -15.839  0.0000E+00  0.4000E+01
    -15.751  0.0000E+00  0.4000E+01
    -15.663  0.0000E+00  0.4000E+01
    -15.575  0.1238E-12  0.4000E+01
    -15.486  0.7020E-06  0.4000E+01
    -15.398  0.1104E-01  0.4001E+01
    -15.310  0.1202E+01  0.4107E+01
    -15.222  0.5293E+01  0.4573E+01
    -15.134  0.9430E+01  0.5405E+01
    -15.046  0.6961E+01  0.6018E+01
    -14.958  0.4019E+01  0.6372E+01
    -14.869  0.5391E+01  0.6847E+01
    -14.781  0.6951E+01  0.7460E+01
    -14.693  0.3178E+01  0.7740E+01
    -14.605  0.2143E+01  0.7929E+01
    -14.517  0.7764E+00  0.7997E+01
    -14.429  0.2989E-01  0.8000E+01
    -14.341  0.6006E-05  0.8000E+01
    -14.252  0.3190E-11  0.8000E+01
    -14.164  0.0000E+00  0.8000E+01
    -14.076  0.0000E+00  0.8000E+01
    -13.988  0.0000E+00  0.8000E+01
    -13.900  0.0000E+00  0.8000E+01
    -13.812  0.0000E+00  0.8000E+01
    -13.724  0.0000E+00  0.8000E+01
    -13.635  0.3919E-14  0.8000E+01
    -13.547  0.6570E-07  0.8000E+01
    -13.459  0.2695E-02  0.8000E+01
    -13.371  0.3855E+00  0.8034E+01
    -13.283  0.6106E+00  0.8088E+01
    -13.195  0.4634E+00  0.8129E+01
    -13.107  0.1069E+01  0.8223E+01
    -13.019  0.1099E+01  0.8320E+01
    -12.930  0.7909E+00  0.8390E+01
    -12.842  0.1269E+01  0.8502E+01
    -12.754  0.1229E+01  0.8610E+01
    -12.666  0.2673E+01  0.8846E+01
    -12.578  0.5558E+01  0.9335E+01
    -12.490  0.2337E+01  0.9541E+01
    -12.402  0.2961E+01  0.9802E+01
    -12.313  0.1553E+01  0.9939E+01
    -12.225  0.2017E+01  0.1012E+02
    -12.137  0.3427E+01  0.1042E+02
    -12.049  0.2512E+01  0.1064E+02
    -11.961  0.3205E+01  0.1092E+02
    -11.873  0.2553E+01  0.1115E+02
    -11.785  0.2750E+01  0.1139E+02
    -11.696  0.3713E+01  0.1172E+02
    -11.608  0.1627E+01  0.1186E+02
    -11.520  0.3484E+01  0.1217E+02
    -11.432  0.3733E+01  0.1250E+02
    -11.344  0.5088E+01  0.1295E+02
    -11.256  0.6773E+01  0.1354E+02
    -11.168  0.5219E+01  0.1400E+02
    -11.080  0.3124E+01  0.1428E+02
    -10.991  0.5061E+01  0.1472E+02
    -10.903  0.5343E+01  0.1519E+02
    -10.815  0.2700E+01  0.1543E+02
    -10.727  0.3729E+01  0.1576E+02
    -10.639  0.4664E+01  0.1617E+02
    -10.551  0.6116E+01  0.1671E+02
    -10.463  0.4073E+01  0.1707E+02
    -10.374  0.4535E+01  0.1747E+02
    -10.286  0.5707E+01  0.1797E+02
    -10.198  0.2493E+01  0.1819E+02
    -10.110  0.3365E+01  0.1849E+02
    -10.022  0.3200E+01  0.1877E+02
     -9.934  0.1496E+01  0.1890E+02
     -9.846  0.2472E+01  0.1912E+02
     -9.757  0.3769E+01  0.1945E+02
     -9.669  0.1224E+01  0.1956E+02
     -9.581  0.1615E+01  0.1970E+02
     -9.493  0.4044E+01  0.2006E+02
     -9.405  0.2622E+01  0.2029E+02
     -9.317  0.7349E+00  0.2036E+02
     -9.229  0.1196E+01  0.2046E+02
     -9.141  0.3119E+01  0.2074E+02
     -9.052  0.3832E+01  0.2107E+02
     -8.964  0.4119E+01  0.2144E+02
     -8.876  0.7955E+00  0.2151E+02
     -8.788  0.1628E+01  0.2165E+02
     -8.700  0.2799E+01  0.2190E+02
     -8.612  0.1334E+01  0.2201E+02
     -8.524  0.1008E+01  0.2210E+02
     -8.435  0.3832E+01  0.2244E+02
     -8.347  0.3373E+01  0.2274E+02
     -8.259  0.2733E+01  0.2298E+02
     -8.171  0.3414E+01  0.2328E+02
     -8.083  0.3154E+01  0.2356E+02
     -7.995  0.2867E+01  0.2381E+02
     -7.907  0.2752E+01  0.2405E+02
     -7.818  0.5210E+01  0.2451E+02
     -7.730  0.5690E+01  0.2501E+02
     -7.642  0.5297E+01  0.2548E+02
     -7.554  0.6057E+01  0.2602E+02
     -7.466  0.7696E+01  0.2669E+02
     -7.378  0.6835E+01  0.2730E+02
     -7.290  0.6321E+01  0.2785E+02
     -7.202  0.9580E+01  0.2870E+02
     -7.113  0.8640E+01  0.2946E+02
     -7.025  0.5165E+01  0.2991E+02
     -6.937  0.5240E+01  0.3038E+02
     -6.849  0.4246E+01  0.3075E+02
     -6.761  0.3775E+01  0.3108E+02
     -6.673  0.3916E+01  0.3143E+02
     -6.585  0.1533E+01  0.3156E+02
     -6.496  0.2868E+01  0.3182E+02
     -6.408  0.8784E+01  0.3259E+02
     -6.320  0.7484E+01  0.3325E+02
     -6.232  0.2371E+01  0.3346E+02
     -6.144  0.4951E+01  0.3389E+02
     -6.056  0.6616E+01  0.3448E+02
     -5.968  0.5245E+01  0.3494E+02
     -5.879  0.4655E+01  0.3535E+02
     -5.791  0.4551E+01  0.3575E+02
     -5.703  0.4350E+01  0.3614E+02
     -5.615  0.4527E+01  0.3653E+02
     -5.527  0.3819E+01  0.3687E+02
     -5.439  0.5692E+01  0.3737E+02
     -5.351  0.4758E+01  0.3779E+02
     -5.263  0.2755E+01  0.3803E+02
     -5.174  0.3721E+01  0.3836E+02
     -5.086  0.2301E+01  0.3857E+02
     -4.998  0.4116E+01  0.3893E+02
     -4.910  0.8229E+01  0.3965E+02
     -4.822  0.6524E+01  0.4023E+02
     -4.734  0.6521E+01  0.4080E+02
     -4.646  0.8985E+01  0.4159E+02
     -4.557  0.1179E+02  0.4263E+02
     -4.469  0.3391E+01  0.4293E+02
     -4.381  0.7602E+00  0.4300E+02
     -4.293  0.1913E+01  0.4317E+02
     -4.205  0.1653E+01  0.4331E+02
     -4.117  0.6959E+00  0.4338E+02
     -4.029  0.1261E+00  0.4339E+02
     -3.940  0.7941E+00  0.4346E+02
     -3.852  0.2077E+00  0.4348E+02
     -3.764  0.7934E+00  0.4355E+02
     -3.676  0.1186E+00  0.4356E+02
     -3.588  0.1615E+00  0.4357E+02
     -3.500  0.9486E+00  0.4365E+02
     -3.412  0.1634E+01  0.4380E+02
     -3.324  0.2808E+00  0.4382E+02
     -3.235  0.3924E-03  0.4382E+02
     -3.147  0.1113E-05  0.4382E+02
     -3.059  0.1262E-01  0.4382E+02
     -2.971  0.5920E+00  0.4388E+02
     -2.883  0.4009E+00  0.4391E+02
     -2.795  0.3350E-01  0.4391E+02
     -2.707  0.7065E+00  0.4398E+02
     -2.618  0.2710E+00  0.4400E+02
     -2.530  0.2008E+00  0.4402E+02
     -2.442  0.2155E+01  0.4421E+02
     -2.354  0.3569E+01  0.4452E+02
     -2.266  0.4471E+01  0.4492E+02
     -2.178  0.6421E+01  0.4548E+02
     -2.090  0.4528E+01  0.4588E+02
     -2.001  0.3348E+01  0.4618E+02
     -1.913  0.4148E+01  0.4654E+02
     -1.825  0.4886E+01  0.4697E+02
     -1.737  0.4443E+01  0.4736E+02
     -1.649  0.3571E+01  0.4768E+02
     -1.561  0.3041E+01  0.4795E+02
     -1.473  0.1858E+01  0.4811E+02
     -1.385  0.2248E+01  0.4831E+02
     -1.296  0.2401E+01  0.4852E+02
     -1.208  0.3244E+01  0.4881E+02
     -1.120  0.2445E+01  0.4902E+02
     -1.032  0.2968E+01  0.4928E+02
     -0.944  0.1749E+01  0.4944E+02
     -0.856  0.2670E+01  0.4967E+02
     -0.768  0.2920E+01  0.4993E+02
     -0.679  0.1832E+01  0.5009E+02
     -0.591  0.2918E+01  0.5035E+02
     -0.503  0.5653E+01  0.5085E+02
     -0.415  0.4364E+01  0.5123E+02
     -0.327  0.4609E+01  0.5164E+02
     -0.239  0.4588E+01  0.5204E+02
     -0.151  0.4023E+01  0.5240E+02
     -0.062  0.5634E+01  0.5289E+02
      0.026  0.6429E+01  0.5346E+02
      0.114  0.7328E+01  0.5411E+02
      0.202  0.3295E+01  0.5440E+02
      0.290  0.3090E+01  0.5467E+02
      0.378  0.4787E+01  0.5509E+02
      0.466  0.2540E+01  0.5531E+02
      0.554  0.4036E+01  0.5567E+02
      0.643  0.4614E+01  0.5608E+02
      0.731  0.2742E+01  0.5632E+02
      0.819  0.3907E+01  0.5666E+02
      0.907  0.4410E+01  0.5705E+02
      0.995  0.4252E+01  0.5743E+02
      1.083  0.9596E+01  0.5827E+02
      1.171  0.6470E+01  0.5884E+02
      1.260  0.7429E+01  0.5950E+02
      1.348  0.1067E+02  0.6044E+02
      1.436  0.8377E+01  0.6118E+02
      1.524  0.5255E+01  0.6164E+02
      1.612  0.3880E+01  0.6198E+02
      1.700  0.6225E+01  0.6253E+02
      1.788  0.9888E+01  0.6340E+02
      1.877  0.7996E+01  0.6411E+02
      1.965  0.8444E+01  0.6485E+02
      2.053  0.7285E+01  0.6549E+02
      2.141  0.8643E+01  0.6625E+02
      2.229  0.1361E+02  0.6745E+02
      2.317  0.8311E+01  0.6819E+02
      2.405  0.1140E+02  0.6919E+02
      2.493  0.1167E+02  0.7022E+02
      2.582  0.1166E+02  0.7125E+02
      2.670  0.1483E+02  0.7255E+02
      2.758  0.1415E+02  0.7380E+02
      2.846  0.1525E+02  0.7514E+02
      2.934  0.1173E+02  0.7618E+02
      3.022  0.1507E+02  0.7751E+02
      3.110  0.9791E+01  0.7837E+02
      3.199  0.1156E+02  0.7939E+02
      3.287  0.1470E+02  0.8068E+02
      3.375  0.1282E+02  0.8181E+02
      3.463  0.1316E+02  0.8297E+02
      3.551  0.1318E+02  0.8414E+02
      3.639  0.1212E+02  0.8520E+02
      3.727  0.1295E+02  0.8635E+02
      3.816  0.1314E+02  0.8750E+02
      3.904  0.1442E+02  0.8877E+02
      3.992  0.1126E+02  0.8977E+02
      4.080  0.1121E+02  0.9075E+02
      4.168  0.1176E+02  0.9179E+02
      4.256  0.1128E+02  0.9279E+02
      4.344  0.1140E+02  0.9379E+02
      4.432  0.1134E+02  0.9479E+02
      4.521  0.5816E+01  0.9530E+02
      4.609  0.4259E+01  0.9568E+02
      4.697  0.2659E+01  0.9591E+02
      4.785  0.5812E+00  0.9596E+02
      4.873  0.3854E+00  0.9600E+02
      4.961  0.2839E-01  0.9600E+02
      5.049  0.1139E-04  0.9600E+02
      5.138  0.1251E-10  0.9600E+02
      5.226  0.0000E+00  0.9600E+02
      5.314  0.0000E+00  0.9600E+02
      5.402  0.0000E+00  0.9600E+02
      5.490  0.0000E+00  0.9600E+02
      5.578  0.0000E+00  0.9600E+02
      5.666  0.0000E+00  0.9600E+02
      5.755  0.0000E+00  0.9600E+02
      5.843  0.0000E+00  0.9600E+02
      5.931  0.0000E+00  0.9600E+02
      6.019  0.0000E+00  0.9600E+02
