   14   14    1    1
  0.6072273E+02  0.5700971E-09  0.6201871E-09  0.2404406E-08  0.5000000E-15
  1.000000000000000E-004
  CAR 
 Convergence                             
     42     25     48
 
  0.5000000E-01  0.0000000E+00  0.0000000E+00  0.2222222E-01
      1        -19.220145   1.000000
      2        -18.127011   1.000000
      3        -15.147891   1.000000
      4        -14.889756   1.000000
      5        -12.501952   1.000000
      6        -11.625324   1.000000
      7        -11.604901   1.000000
      8        -11.219178   1.000000
      9        -10.815694   1.000000
     10        -10.023859   1.000000
     11         -9.968161   1.000000
     12         -7.681140   1.000000
     13         -7.535243   1.000000
     14         -7.519645   1.000000
     15         -6.548635   1.000000
     16         -6.488092   1.000000
     17         -5.899037   1.000000
     18         -5.566653   1.000000
     19         -5.487031   1.000000
     20         -4.997645   1.000000
     21         -4.564674   0.083945
     22         -4.273356   0.000000
     23         -2.503281   0.000000
     24         -1.557949   0.000000
     25         -1.539130   0.000000
     26         -1.399149   0.000000
     27         -0.381001   0.000000
     28         -0.021730   0.000000
     29          0.499747   0.000000
     30          1.121967   0.000000
     31          1.182564   0.000000
     32          1.551975   0.000000
     33          1.666709   0.000000
     34          2.131317   0.000000
     35          2.339228   0.000000
     36          2.517495   0.000000
     37          2.677961   0.000000
     38          2.845580   0.000000
     39          2.858178   0.000000
     40          2.988989   0.000000
     41          3.900377   0.000000
     42          4.117339   0.000000
     43          4.327671   0.000000
     44          4.378174   0.000000
     45          4.430631   0.000000
     46          4.556790   0.000000
     47          4.610769   0.000000
     48          4.817069   0.000000
 
  0.1500000E+00  0.0000000E+00  0.0000000E+00  0.2222222E-01
      1        -19.177852   1.000000
      2        -18.196665   1.000000
      3        -15.127513   1.000000
      4        -14.880091   1.000000
      5        -12.433537   1.000000
      6        -11.975651   1.000000
      7        -11.547061   1.000000
      8        -11.333584   1.000000
      9        -10.349094   1.000000
     10        -10.134474   1.000000
     11         -9.637160   1.000000
     12         -7.977072   1.000000
     13         -7.489431   1.000000
     14         -7.465120   1.000000
     15         -6.689899   1.000000
     16         -6.442280   1.000000
     17         -6.012304   1.000000
     18         -5.655369   1.000000
     19         -5.590157   1.000000
     20         -4.974185   1.000000
     21         -4.573745   0.130836
     22         -4.415626   0.000000
     23         -2.451335   0.000000
     24         -1.604228   0.000000
     25         -1.444244   0.000000
     26         -1.053253   0.000000
     27         -0.423877   0.000000
     28          0.093110   0.000000
     29          0.647594   0.000000
     30          1.076810   0.000000
     31          1.263041   0.000000
     32          1.639000   0.000000
     33          1.755418   0.000000
     34          1.895377   0.000000
     35          2.525706   0.000000
     36          2.585705   0.000000
     37          2.841677   0.000000
     38          2.920396   0.000000
     39          2.996544   0.000000
     40          3.150284   0.000000
     41          3.553154   0.000000
     42          3.879781   0.000000
     43          3.895731   0.000000
     44          4.260584   0.000000
     45          4.363630   0.000000
     46          4.422046   0.000000
     47          4.437715   0.000000
     48          4.683360   0.000000
 
  0.2500000E+00  0.0000000E+00  0.0000000E+00  0.2222222E-01
      1        -19.095135   1.000000
      2        -18.322645   1.000000
      3        -15.084786   1.000000
      4        -14.869072   1.000000
      5        -12.419846   1.000000
      6        -12.299666   1.000000
      7        -11.433525   1.000000
      8        -11.280447   1.000000
      9        -10.328717   1.000000
     10         -9.802898   1.000000
     11         -9.163135   1.000000
     12         -8.470522   1.000000
     13         -7.405279   1.000000
     14         -7.372402   1.000000
     15         -6.949605   1.000000
     16         -6.470496   1.000000
     17         -6.122745   1.000000
     18         -5.803809   1.000000
     19         -5.762458   1.000000
     20         -4.927584   1.000000
     21         -4.686521   0.980649
     22         -4.594229   0.293545
     23         -2.355875   0.000000
     24         -1.683683   0.000000
     25         -1.115048   0.000000
     26         -0.564631   0.000000
     27         -0.444251   0.000000
     28          0.170588   0.000000
     29          0.892047   0.000000
     30          1.077565   0.000000
     31          1.429764   0.000000
     32          1.688692   0.000000
     33          1.789893   0.000000
     34          1.925873   0.000000
     35          2.675160   0.000000
     36          2.743583   0.000000
     37          2.894734   0.000000
     38          2.927775   0.000000
     39          3.034021   0.000000
     40          3.183190   0.000000
     41          3.351550   0.000000
     42          3.412940   0.000000
     43          3.495866   0.000000
     44          3.926019   0.000000
     45          4.317008   0.000000
     46          4.373944   0.000000
     47          4.378268   0.000000
     48          4.402021   0.000000
 
  0.3500000E+00  0.0000000E+00  0.0000000E+00  0.2222222E-01
      1        -18.975985   1.000000
      2        -18.483860   1.000000
      3        -15.022901   1.000000
      4        -14.871130   1.000000
      5        -12.525047   1.000000
      6        -12.515341   1.000000
      7        -11.268913   1.000000
      8        -10.945827   1.000000
      9        -10.569105   1.000000
     10         -9.398153   1.000000
     11         -8.918242   1.000000
     12         -8.668041   1.000000
     13         -7.301924   1.000000
     14         -7.277974   1.000000
     15         -7.270742   1.000000
     16         -6.791899   1.000000
     17         -5.985859   1.000000
     18         -5.963718   1.000000
     19         -5.945987   1.000000
     20         -5.029974   1.000000
     21         -4.861620   1.000000
     22         -4.642071   0.791063
     23         -2.229186   0.000000
     24         -1.797825   0.000000
     25         -0.584331   0.000000
     26         -0.391923   0.000000
     27          0.021208   0.000000
     28          0.088245   0.000000
     29          1.060547   0.000000
     30          1.185003   0.000000
     31          1.536566   0.000000
     32          1.678589   0.000000
     33          1.903017   0.000000
     34          2.130336   0.000000
     35          2.172577   0.000000
     36          2.680576   0.000000
     37          2.685052   0.000000
     38          2.925298   0.000000
     39          2.947184   0.000000
     40          3.073500   0.000000
     41          3.213851   0.000000
     42          3.456996   0.000000
     43          3.520715   0.000000
     44          3.957001   0.000000
     45          3.966797   0.000000
     46          3.974923   0.000000
     47          4.125947   0.000000
     48          4.430472   0.000000
 
  0.4500000E+00  0.0000000E+00  0.0000000E+00  0.2222222E-01
      1        -18.827025   1.000000
      2        -18.658247   1.000000
      3        -14.954746   1.000000
      4        -14.899413   1.000000
      5        -12.628570   1.000000
      6        -12.613139   1.000000
      7        -11.060973   1.000000
      8        -10.821734   1.000000
      9        -10.430024   1.000000
     10         -9.835070   1.000000
     11         -8.605245   1.000000
     12         -8.363766   1.000000
     13         -7.485524   1.000000
     14         -7.219112   1.000000
     15         -7.218107   1.000000
     16         -7.204622   1.000000
     17         -6.073021   1.000000
     18         -6.069475   1.000000
     19         -5.723269   1.000000
     20         -5.393089   1.000000
     21         -4.784676   0.999999
     22         -4.707807   0.996201
     23         -2.084516   0.000000
     24         -1.935895   0.000000
     25         -0.263489   0.000000
     26         -0.086397   0.000000
     27          0.077876   0.000000
     28          0.672757   0.000000
     29          0.740762   0.000000
     30          1.315999   0.000000
     31          1.375911   0.000000
     32          1.424575   0.000000
     33          1.999055   0.000000
     34          2.082337   0.000000
     35          2.360503   0.000000
     36          2.465373   0.000000
     37          2.486632   0.000000
     38          2.840948   0.000000
     39          2.930254   0.000000
     40          3.017016   0.000000
     41          3.196288   0.000000
     42          3.411968   0.000000
     43          3.455876   0.000000
     44          3.780550   0.000000
     45          3.818072   0.000000
     46          3.922231   0.000000
     47          4.426716   0.000000
     48          4.551948   0.000000
 
  0.5000000E-01  0.1111111E+00  0.0000000E+00  0.4444444E-01
      1        -19.209739   1.000000
      2        -18.145821   1.000000
      3        -15.146203   1.000000
      4        -14.857603   1.000000
      5        -12.638664   1.000000
      6        -11.763582   1.000000
      7        -11.583080   1.000000
      8        -11.036719   1.000000
      9        -10.672090   1.000000
     10        -10.081612   1.000000
     11         -9.850912   1.000000
     12         -7.734861   1.000000
     13         -7.539854   1.000000
     14         -7.410609   1.000000
     15         -6.710347   1.000000
     16         -6.526698   1.000000
     17         -6.125630   1.000000
     18         -5.688487   1.000000
     19         -5.500077   1.000000
     20         -5.005902   1.000000
     21         -4.553194   0.044218
     22         -3.983830   0.000000
     23         -2.479773   0.000000
     24         -1.572856   0.000000
     25         -1.484110   0.000000
     26         -1.295470   0.000000
     27         -0.565231   0.000000
     28         -0.024277   0.000000
     29          0.603225   0.000000
     30          1.167568   0.000000
     31          1.371444   0.000000
     32          1.603839   0.000000
     33          1.702785   0.000000
     34          2.156945   0.000000
     35          2.330709   0.000000
     36          2.559457   0.000000
     37          2.572005   0.000000
     38          2.906128   0.000000
     39          2.991078   0.000000
     40          3.068028   0.000000
     41          3.739867   0.000000
     42          3.842790   0.000000
     43          4.074441   0.000000
     44          4.207963   0.000000
     45          4.245190   0.000000
     46          4.556214   0.000000
     47          4.589593   0.000000
     48          4.660452   0.000000
 
  0.1500000E+00  0.1111111E+00  0.0000000E+00  0.4444444E-01
      1        -19.167896   1.000000
      2        -18.211719   1.000000
      3        -15.150291   1.000000
      4        -14.839626   1.000000
      5        -12.609684   1.000000
      6        -11.869749   1.000000
      7        -11.525952   1.000000
      8        -11.283196   1.000000
      9        -10.288779   1.000000
     10        -10.178042   1.000000
     11         -9.510848   1.000000
     12         -8.027171   1.000000
     13         -7.606789   1.000000
     14         -7.267853   1.000000
     15         -6.771133   1.000000
     16         -6.548918   1.000000
     17         -6.200435   1.000000
     18         -5.881357   1.000000
     19         -5.451199   1.000000
     20         -4.978784   1.000000
     21         -4.567476   0.096841
     22         -4.187614   0.000000
     23         -2.436834   0.000000
     24         -1.617847   0.000000
     25         -1.383639   0.000000
     26         -1.010558   0.000000
     27         -0.574826   0.000000
     28          0.164589   0.000000
     29          0.769532   0.000000
     30          1.151779   0.000000
     31          1.349787   0.000000
     32          1.692655   0.000000
     33          1.771711   0.000000
     34          1.904591   0.000000
     35          2.406230   0.000000
     36          2.623714   0.000000
     37          2.741873   0.000000
     38          3.105292   0.000000
     39          3.123369   0.000000
     40          3.266406   0.000000
     41          3.304538   0.000000
     42          3.664439   0.000000
     43          3.805762   0.000000
     44          4.187094   0.000000
     45          4.307903   0.000000
     46          4.331728   0.000000
     47          4.465783   0.000000
     48          4.525287   0.000000
 
  0.2500000E+00  0.1111111E+00  0.0000000E+00  0.4444444E-01
      1        -19.086146   1.000000
      2        -18.331927   1.000000
      3        -15.134243   1.000000
      4        -14.833189   1.000000
      5        -12.624404   1.000000
      6        -12.011060   1.000000
      7        -11.414007   1.000000
      8        -11.316452   1.000000
      9        -10.352964   1.000000
     10         -9.806079   1.000000
     11         -9.066585   1.000000
     12         -8.490779   1.000000
     13         -7.601847   1.000000
     14         -7.155843   1.000000
     15         -7.024233   1.000000
     16         -6.438459   1.000000
     17         -6.367764   1.000000
     18         -6.054020   1.000000
     19         -5.510148   1.000000
     20         -4.931065   1.000000
     21         -4.598436   0.335751
     22         -4.546085   0.028404
     23         -2.350569   0.000000
     24         -1.698327   0.000000
     25         -1.066685   0.000000
     26         -0.595293   0.000000
     27         -0.518294   0.000000
     28          0.331304   0.000000
     29          1.044465   0.000000
     30          1.071120   0.000000
     31          1.452545   0.000000
     32          1.669766   0.000000
     33          1.842071   0.000000
     34          1.990301   0.000000
     35          2.571708   0.000000
     36          2.608463   0.000000
     37          2.770987   0.000000
     38          2.774238   0.000000
     39          3.183613   0.000000
     40          3.311948   0.000000
     41          3.369829   0.000000
     42          3.498937   0.000000
     43          3.530934   0.000000
     44          3.987472   0.000000
     45          4.037171   0.000000
     46          4.378636   0.000000
     47          4.388075   0.000000
     48          4.444308   0.000000
 
  0.3500000E+00  0.1111111E+00  0.0000000E+00  0.4444444E-01
      1        -18.968605   1.000000
      2        -18.487311   1.000000
      3        -15.084996   1.000000
      4        -14.861269   1.000000
      5        -12.646602   1.000000
      6        -12.239702   1.000000
      7        -11.252221   1.000000
      8        -10.997330   1.000000
      9        -10.576620   1.000000
     10         -9.439655   1.000000
     11         -9.027937   1.000000
     12         -8.515223   1.000000
     13         -7.525484   1.000000
     14         -7.330313   1.000000
     15         -7.143814   1.000000
     16         -6.716390   1.000000
     17         -6.169871   1.000000
     18         -6.111375   1.000000
     19         -5.658233   1.000000
     20         -5.012110   1.000000
     21         -4.843598   1.000000
     22         -4.643545   0.802841
     23         -2.229288   0.000000
     24         -1.809168   0.000000
     25         -0.555280   0.000000
     26         -0.380842   0.000000
     27         -0.099606   0.000000
     28          0.271888   0.000000
     29          1.116418   0.000000
     30          1.245601   0.000000
     31          1.436868   0.000000
     32          1.777904   0.000000
     33          1.900114   0.000000
     34          1.999286   0.000000
     35          2.233510   0.000000
     36          2.668127   0.000000
     37          2.701586   0.000000
     38          2.797439   0.000000
     39          2.944512   0.000000
     40          3.144779   0.000000
     41          3.230003   0.000000
     42          3.391455   0.000000
     43          3.648864   0.000000
     44          3.906019   0.000000
     45          3.908863   0.000000
     46          4.147802   0.000000
     47          4.238047   0.000000
     48          4.403527   0.000000
 
  0.4500000E+00  0.1111111E+00  0.0000000E+00  0.4444444E-01
      1        -18.822109   1.000000
      2        -18.656886   1.000000
      3        -15.008821   1.000000
      4        -14.925758   1.000000
      5        -12.596998   1.000000
      6        -12.454798   1.000000
      7        -11.049010   1.000000
      8        -10.817412   1.000000
      9        -10.485172   1.000000
     10         -9.894104   1.000000
     11         -8.683773   1.000000
     12         -8.366143   1.000000
     13         -7.423714   1.000000
     14         -7.395423   1.000000
     15         -7.246897   1.000000
     16         -7.108364   1.000000
     17         -6.021674   1.000000
     18         -5.848034   1.000000
     19         -5.847392   1.000000
     20         -5.449759   1.000000
     21         -4.779250   0.999999
     22         -4.706586   0.995791
     23         -2.088171   0.000000
     24         -1.943186   0.000000
     25         -0.178592   0.000000
     26          0.057896   0.000000
     27          0.068310   0.000000
     28          0.362378   0.000000
     29          1.013317   0.000000
     30          1.232728   0.000000
     31          1.284692   0.000000
     32          1.338259   0.000000
     33          2.077936   0.000000
     34          2.124440   0.000000
     35          2.404166   0.000000
     36          2.510603   0.000000
     37          2.561120   0.000000
     38          2.880642   0.000000
     39          2.981741   0.000000
     40          2.994247   0.000000
     41          3.179801   0.000000
     42          3.474508   0.000000
     43          3.491334   0.000000
     44          3.603599   0.000000
     45          3.800106   0.000000
     46          3.851418   0.000000
     47          4.376262   0.000000
     48          4.410857   0.000000
 
  0.5000000E-01  0.2222222E+00  0.0000000E+00  0.4444444E-01
      1        -19.181860   1.000000
      2        -18.194671   1.000000
      3        -15.138514   1.000000
      4        -14.773270   1.000000
      5        -12.918618   1.000000
      6        -11.989208   1.000000
      7        -11.521889   1.000000
      8        -10.683127   1.000000
      9        -10.354219   1.000000
     10        -10.226874   1.000000
     11         -9.526868   1.000000
     12         -7.876424   1.000000
     13         -7.472167   1.000000
     14         -7.251971   1.000000
     15         -7.196449   1.000000
     16         -6.614331   1.000000
     17         -6.444332   1.000000
     18         -5.923435   1.000000
     19         -5.621570   1.000000
     20         -4.990825   1.000000
     21         -4.560160   0.065944
     22         -3.444883   0.000000
     23         -2.411519   0.000000
     24         -1.648328   0.000000
     25         -1.398674   0.000000
     26         -0.904981   0.000000
     27         -0.886159   0.000000
     28         -0.057895   0.000000
     29          0.883556   0.000000
     30          1.261767   0.000000
     31          1.733718   0.000000
     32          1.760720   0.000000
     33          1.800250   0.000000
     34          2.106163   0.000000
     35          2.369866   0.000000
     36          2.626119   0.000000
     37          2.680776   0.000000
     38          3.003367   0.000000
     39          3.053457   0.000000
     40          3.099388   0.000000
     41          3.243284   0.000000
     42          3.340467   0.000000
     43          3.714778   0.000000
     44          3.831892   0.000000
     45          4.125760   0.000000
     46          4.141881   0.000000
     47          4.338925   0.000000
     48          4.660960   0.000000
 
  0.1500000E+00  0.2222222E+00  0.0000000E+00  0.4444444E-01
      1        -19.141257   1.000000
      2        -18.251269   1.000000
      3        -15.182998   1.000000
      4        -14.763410   1.000000
      5        -12.856011   1.000000
      6        -11.912583   1.000000
      7        -11.466848   1.000000
      8        -11.002948   1.000000
      9        -10.292329   1.000000
     10        -10.097384   1.000000
     11         -9.223040   1.000000
     12         -8.151246   1.000000
     13         -7.637988   1.000000
     14         -7.174830   1.000000
     15         -7.037475   1.000000
     16         -6.798771   1.000000
     17         -6.376919   1.000000
     18         -6.132167   1.000000
     19         -5.423952   1.000000
     20         -4.963775   1.000000
     21         -4.576999   0.151410
     22         -3.806217   0.000000
     23         -2.386095   0.000000
     24         -1.678885   0.000000
     25         -1.256079   0.000000
     26         -0.802285   0.000000
     27         -0.745446   0.000000
     28          0.193162   0.000000
     29          1.085130   0.000000
     30          1.245482   0.000000
     31          1.617599   0.000000
     32          1.744156   0.000000
     33          1.854406   0.000000
     34          2.010517   0.000000
     35          2.328362   0.000000
     36          2.578919   0.000000
     37          2.686081   0.000000
     38          2.791130   0.000000
     39          3.152271   0.000000
     40          3.256364   0.000000
     41          3.396521   0.000000
     42          3.601954   0.000000
     43          3.668344   0.000000
     44          3.816116   0.000000
     45          4.099291   0.000000
     46          4.195858   0.000000
     47          4.285232   0.000000
     48          4.558403   0.000000
 
  0.2500000E+00  0.2222222E+00  0.0000000E+00  0.4444444E-01
      1        -19.062157   1.000000
      2        -18.356827   1.000000
      3        -15.211255   1.000000
      4        -14.798384   1.000000
      5        -12.748605   1.000000
      6        -11.755619   1.000000
      7        -11.359570   1.000000
      8        -11.298135   1.000000
      9        -10.420771   1.000000
     10         -9.733979   1.000000
     11         -9.010827   1.000000
     12         -8.426502   1.000000
     13         -7.733369   1.000000
     14         -7.176429   1.000000
     15         -7.051601   1.000000
     16         -6.890937   1.000000
     17         -6.386095   1.000000
     18         -6.152943   1.000000
     19         -5.334986   1.000000
     20         -4.917013   1.000000
     21         -4.612002   0.483895
     22         -4.364590   0.000000
     23         -2.326100   0.000000
     24         -1.746603   0.000000
     25         -0.944770   0.000000
     26         -0.586949   0.000000
     27         -0.514870   0.000000
     28          0.498643   0.000000
     29          1.087364   0.000000
     30          1.393162   0.000000
     31          1.489788   0.000000
     32          1.726547   0.000000
     33          1.913039   0.000000
     34          2.152898   0.000000
     35          2.200606   0.000000
     36          2.313823   0.000000
     37          2.782267   0.000000
     38          2.825264   0.000000
     39          3.185291   0.000000
     40          3.268489   0.000000
     41          3.379434   0.000000
     42          3.544089   0.000000
     43          3.751860   0.000000
     44          3.856125   0.000000
     45          4.047798   0.000000
     46          4.157939   0.000000
     47          4.326497   0.000000
     48          4.407854   0.000000
 
  0.3500000E+00  0.2222222E+00  0.0000000E+00  0.4444444E-01
      1        -18.949044   1.000000
      2        -18.496982   1.000000
      3        -15.189902   1.000000
      4        -14.888869   1.000000
      5        -12.598660   1.000000
      6        -11.862944   1.000000
      7        -11.206131   1.000000
      8        -11.145191   1.000000
      9        -10.600129   1.000000
     10         -9.556462   1.000000
     11         -9.147876   1.000000
     12         -8.311615   1.000000
     13         -7.729416   1.000000
     14         -7.338965   1.000000
     15         -7.238356   1.000000
     16         -6.759846   1.000000
     17         -6.414094   1.000000
     18         -5.979788   1.000000
     19         -5.380322   1.000000
     20         -5.033876   1.000000
     21         -4.820042   1.000000
     22         -4.645521   0.817976
     23         -2.226867   0.000000
     24         -1.845550   0.000000
     25         -0.474989   0.000000
     26         -0.273916   0.000000
     27         -0.241416   0.000000
     28          0.588746   0.000000
     29          0.968928   0.000000
     30          1.325759   0.000000
     31          1.400996   0.000000
     32          1.749251   0.000000
     33          1.940723   0.000000
     34          2.061897   0.000000
     35          2.389829   0.000000
     36          2.425144   0.000000
     37          2.774591   0.000000
     38          2.791135   0.000000
     39          2.930885   0.000000
     40          3.304378   0.000000
     41          3.306662   0.000000
     42          3.490185   0.000000
     43          3.680422   0.000000
     44          3.715143   0.000000
     45          3.842870   0.000000
     46          4.251487   0.000000
     47          4.272824   0.000000
     48          4.310111   0.000000
 
  0.4500000E+00  0.2222222E+00  0.0000000E+00  0.4444444E-01
      1        -18.809275   1.000000
      2        -18.653696   1.000000
      3        -15.116474   1.000000
      4        -15.006769   1.000000
      5        -12.396795   1.000000
      6        -12.143325   1.000000
      7        -11.016841   1.000000
      8        -10.807501   1.000000
      9        -10.655265   1.000000
     10        -10.077499   1.000000
     11         -8.774055   1.000000
     12         -8.413975   1.000000
     13         -7.629948   1.000000
     14         -7.455003   1.000000
     15         -7.221722   1.000000
     16         -6.928306   1.000000
     17         -6.113408   1.000000
     18         -5.749138   1.000000
     19         -5.611479   1.000000
     20         -5.533527   1.000000
     21         -4.767694   0.999994
     22         -4.703487   0.994571
     23         -2.100642   0.000000
     24         -1.967643   0.000000
     25          0.027285   0.000000
     26          0.055728   0.000000
     27          0.059627   0.000000
     28          0.356388   0.000000
     29          1.051294   0.000000
     30          1.058142   0.000000
     31          1.183244   0.000000
     32          1.282926   0.000000
     33          2.241383   0.000000
     34          2.246303   0.000000
     35          2.478040   0.000000
     36          2.593723   0.000000
     37          2.716898   0.000000
     38          2.790846   0.000000
     39          2.905768   0.000000
     40          3.159214   0.000000
     41          3.206477   0.000000
     42          3.505607   0.000000
     43          3.578213   0.000000
     44          3.608108   0.000000
     45          3.764519   0.000000
     46          3.877858   0.000000
     47          4.175981   0.000000
     48          4.321807   0.000000
 
  0.5000000E-01  0.3333333E+00  0.0000000E+00  0.4444444E-01
      1        -19.146941   1.000000
      2        -18.252931   1.000000
      3        -15.125700   1.000000
      4        -14.665994   1.000000
      5        -13.189762   1.000000
      6        -12.173686   1.000000
      7        -11.437419   1.000000
      8        -10.397320   1.000000
      9        -10.336044   1.000000
     10         -9.943402   1.000000
     11         -9.080890   1.000000
     12         -8.049532   1.000000
     13         -7.887936   1.000000
     14         -7.357364   1.000000
     15         -7.115160   1.000000
     16         -6.932506   1.000000
     17         -6.431691   1.000000
     18         -6.165073   1.000000
     19         -5.839443   1.000000
     20         -4.953629   1.000000
     21         -4.588304   0.238647
     22         -2.979898   0.000000
     23         -2.311420   0.000000
     24         -1.755792   0.000000
     25         -1.309626   0.000000
     26         -1.127993   0.000000
     27         -0.300182   0.000000
     28         -0.113264   0.000000
     29          1.268750   0.000000
     30          1.364112   0.000000
     31          1.851212   0.000000
     32          2.009218   0.000000
     33          2.014896   0.000000
     34          2.176754   0.000000
     35          2.187899   0.000000
     36          2.460773   0.000000
     37          2.696442   0.000000
     38          2.741427   0.000000
     39          2.876994   0.000000
     40          2.928420   0.000000
     41          3.190286   0.000000
     42          3.358831   0.000000
     43          3.492475   0.000000
     44          3.585683   0.000000
     45          3.866588   0.000000
     46          3.947386   0.000000
     47          3.972090   0.000000
     48          4.490482   0.000000
 
  0.1500000E+00  0.3333333E+00  0.0000000E+00  0.4444444E-01
      1        -19.107957   1.000000
      2        -18.299267   1.000000
      3        -15.198199   1.000000
      4        -14.702237   1.000000
      5        -13.027834   1.000000
      6        -12.064291   1.000000
      7        -11.385483   1.000000
      8        -10.611346   1.000000