       N       E                     dE             d eps       ncg     rms          rms(c)
DAV:   1     0.264981486895E+03    0.26498E+03   -0.13832E+04  2400   0.665E+02
DAV:   2    -0.665806483010E+02   -0.33156E+03   -0.31616E+03  4584   0.141E+02
DAV:   3    -0.937614176463E+02   -0.27181E+02   -0.26886E+02  3552   0.466E+01
DAV:   4    -0.941964869686E+02   -0.43507E+00   -0.43447E+00  3408   0.699E+00
DAV:   5    -0.942062597960E+02   -0.97728E-02   -0.97692E-02  3528   0.983E-01    0.132E+01
DAV:   6    -0.857351186621E+02    0.84711E+01   -0.13209E+01  3600   0.840E+00    0.644E+00
DAV:   7    -0.843425281780E+02    0.13926E+01   -0.55849E+00  3600   0.519E+00    0.279E+00
DAV:   8    -0.842615829550E+02    0.80945E-01   -0.17270E+00  3432   0.290E+00    0.176E+00
DAV:   9    -0.841111066428E+02    0.15048E+00   -0.85761E-01  3480   0.138E+00    0.466E-01
DAV:  10    -0.841045995482E+02    0.65071E-02   -0.66399E-02  3576   0.637E-01    0.378E-01
DAV:  11    -0.840978582881E+02    0.67413E-02   -0.36509E-02  3336   0.453E-01    0.173E-01
DAV:  12    -0.840957412132E+02    0.21171E-02   -0.85095E-03  3552   0.191E-01    0.100E-01
DAV:  13    -0.840971500539E+02   -0.14088E-02   -0.62450E-03  3432   0.166E-01    0.678E-02
DAV:  14    -0.840991454040E+02   -0.19954E-02   -0.14275E-03  3048   0.950E-02    0.306E-02
DAV:  15    -0.841007363282E+02   -0.15909E-02   -0.32549E-04  3024   0.451E-02    0.212E-02
DAV:  16    -0.841021111587E+02   -0.13748E-02   -0.18473E-04  2928   0.330E-02    0.800E-03
DAV:  17    -0.841030615486E+02   -0.95039E-03   -0.79178E-05  3192   0.167E-02    0.675E-03
DAV:  18    -0.841032820664E+02   -0.22052E-03   -0.79090E-06  3264   0.674E-03    0.295E-03
DAV:  19    -0.841035011027E+02   -0.21904E-03   -0.11674E-05  3120   0.501E-03    0.117E-03
DAV:  20    -0.841035578009E+02   -0.56698E-04   -0.23352E-06  3264   0.215E-03    0.653E-04
DAV:  21    -0.841035694785E+02   -0.11678E-04   -0.32218E-07  3216   0.100E-03    0.244E-04
DAV:  22    -0.841035736686E+02   -0.41901E-05   -0.10130E-07  3312   0.492E-04    0.130E-04
DAV:  23    -0.841035746772E+02   -0.10087E-05   -0.21151E-08  3288   0.225E-04    0.374E-05
DAV:  24    -0.841035748417E+02   -0.16443E-06   -0.39023E-09  2472   0.103E-04
   1 F= -.84103575E+02 E0= -.84095562E+02  d E =-.160265E-01
