<?xml version="1.0" encoding="ISO-8859-1"?>
<modeling>
 <generator>
  <i name="program" type="string">vasp </i>
  <i name="version" type="string">6.4.3  </i>
  <i name="subversion" type="string">19Mar24 (build May 31 2024 16:31:43) complex                          parallel </i>
  <i name="platform" type="string">LinuxIFC </i>
  <i name="date" type="string">2025 02 13 </i>
  <i name="time" type="string">15:48:44 </i>
 </generator>
 <incar>
  <i type="string" name="SYSTEM">Convergence</i>
  <i type="int" name="ISTART">     0</i>
  <i type="string" name="PREC">Accurate</i>
  <i type="string" name="ALGO">Normal</i>
  <i type="int" name="ISPIN">     1</i>
  <i type="int" name="ICHARG">     2</i>
  <i type="int" name="NELM">   200</i>
  <i type="int" name="IBRION">    -1</i>
  <i name="EDIFF">      0.00000100</i>
  <i name="EDIFFG">     -0.00100000</i>
  <i type="int" name="NSW">     0</i>
  <i type="int" name="ISIF">     2</i>
  <i name="ENCUT">    600.00000000</i>
  <i name="POTIM">      0.50000000</i>
  <i type="int" name="ISMEAR">     0</i>
  <i name="SIGMA">      0.05000000</i>
  <i type="logical" name="LWAVE"> F  </i>
  <i type="logical" name="LCHARG"> F  </i>
  <i type="string" name="GGA">PE</i>
  <i type="logical" name="LDIPOL"> T  </i>
  <i type="int" name="IDIPOL">     3</i>
  <v name="DIPOL">      0.50000000      0.50000000      0.08400000</v>
 </incar>
 <primitive_cell>
  <structure name="primitive_cell" >
   <crystal>
    <varray name="basis" >
     <v>       5.70097065       0.00000000       0.00000000 </v>
     <v>       0.00000000       6.20187140       0.00000000 </v>
     <v>       0.00000000       0.00000000      24.04405832 </v>
    </varray>
    <i name="volume">    850.11823945 </i>
    <varray name="rec_basis" >
     <v>       0.17540873       0.00000000       0.00000000 </v>
     <v>       0.00000000       0.16124165       0.00000000 </v>
     <v>       0.00000000       0.00000000       0.04159032 </v>
    </varray>
   </crystal>
   <varray name="positions" >
    <v>       0.52128989       0.63795769       0.08409683 </v>
    <v>       0.47871011       0.36204231       0.08409683 </v>
    <v>       0.97871011       0.63795769       0.08409683 </v>
    <v>       0.02128989       0.36204231       0.08409683 </v>
    <v>       0.59744966       0.89986831       0.08409683 </v>
    <v>       0.40255034       0.10013168       0.08409683 </v>
    <v>       0.90255034       0.89986831       0.08409683 </v>
    <v>       0.09744966       0.10013168       0.08409683 </v>
    <v>       0.75000000       0.72957939       0.13313621 </v>
    <v>       0.25000000       0.27042061       0.03505746 </v>
    <v>       0.75000000       0.72957939       0.03505746 </v>
    <v>       0.25000000       0.27042061       0.13313621 </v>
    <v>       0.25000000       0.52399302       0.08409683 </v>
    <v>       0.75000000       0.47600695       0.08409683 </v>
   </varray>
  </structure>
  <varray name="primitive_index" >
   <v type="int" >        1 </v>
   <v type="int" >        2 </v>
   <v type="int" >        3 </v>
   <v type="int" >        4 </v>
   <v type="int" >        5 </v>
   <v type="int" >        6 </v>
   <v type="int" >        7 </v>
   <v type="int" >        8 </v>
   <v type="int" >        9 </v>
   <v type="int" >       10 </v>
   <v type="int" >       11 </v>
   <v type="int" >       12 </v>
   <v type="int" >       13 </v>
   <v type="int" >       14 </v>
  </varray>
 </primitive_cell>
 <kpoints>
  <generation param="Monkhorst-Pack">
   <v type="int" name="divisions">      10        9        1 </v>
   <v name="usershift">      0.00000000       0.00000000       0.00000000 </v>
   <v name="genvec1">      0.10000000       0.00000000       0.00000000 </v>
   <v name="genvec2">      0.00000000       0.11111111       0.00000000 </v>
   <v name="genvec3">      0.00000000       0.00000000       1.00000000 </v>
   <v name="shift">      0.50000000       0.00000000       0.00000000 </v>
  </generation>
  <varray name="kpointlist" >
   <v>       0.05000000       0.00000000       0.00000000 </v>
   <v>       0.15000000       0.00000000       0.00000000 </v>
   <v>       0.25000000       0.00000000       0.00000000 </v>
   <v>       0.35000000       0.00000000       0.00000000 </v>
   <v>       0.45000000       0.00000000       0.00000000 </v>
   <v>       0.05000000       0.11111111       0.00000000 </v>
   <v>       0.15000000       0.11111111       0.00000000 </v>
   <v>       0.25000000       0.11111111       0.00000000 </v>
   <v>       0.35000000       0.11111111       0.00000000 </v>
   <v>       0.45000000       0.11111111       0.00000000 </v>
   <v>       0.05000000       0.22222222       0.00000000 </v>
   <v>       0.15000000       0.22222222       0.00000000 </v>
   <v>       0.25000000       0.22222222       0.00000000 </v>
   <v>       0.35000000       0.22222222       0.00000000 </v>
   <v>       0.45000000       0.22222222       0.00000000 </v>
   <v>       0.05000000       0.33333333       0.00000000 </v>
   <v>       0.15000000       0.33333333       0.00000000 </v>
   <v>       0.25000000       0.33333333       0.00000000 </v>
   <v>       0.35000000       0.33333333       0.00000000 </v>
   <v>       0.45000000       0.33333333       0.00000000 </v>
   <v>       0.05000000       0.44444444       0.00000000 </v>
   <v>       0.15000000       0.44444444       0.00000000 </v>
   <v>       0.25000000       0.44444444       0.00000000 </v>
   <v>       0.35000000       0.44444444       0.00000000 </v>
   <v>       0.45000000       0.44444444       0.00000000 </v>
  </varray>
  <varray name="weights" >
   <v>       0.02222222 </v>
   <v>       0.02222222 </v>
   <v>       0.02222222 </v>
   <v>       0.02222222 </v>
   <v>       0.02222222 </v>
   <v>       0.04444444 </v>
   <v>       0.04444444 </v>
   <v>       0.04444444 </v>
   <v>       0.04444444 </v>
   <v>       0.04444444 </v>
   <v>       0.04444444 </v>
   <v>       0.04444444 </v>
   <v>       0.04444444 </v>
   <v>       0.04444444 </v>
   <v>       0.04444444 </v>
   <v>       0.04444444 </v>
   <v>       0.04444444 </v>
   <v>       0.04444444 </v>
   <v>       0.04444444 </v>
   <v>       0.04444444 </v>
   <v>       0.04444444 </v>
   <v>       0.04444444 </v>
   <v>       0.04444444 </v>
   <v>       0.04444444 </v>
   <v>       0.04444444 </v>
  </varray>
 </kpoints>
 <parameters>
  <separator name="general" >
   <i type="string" name="SYSTEM">Convergence</i>
   <i type="logical" name="LCOMPAT"> F  </i>
  </separator>
  <separator name="electronic" >
   <i type="string" name="PREC">accura</i>
   <i name="ENMAX">    600.00000000</i>
   <i name="ENAUG">    535.51400000</i>
   <i name="EDIFF">      0.00000100</i>
   <i type="int" name="IALGO">    38</i>
   <i type="int" name="IWAVPR">    10</i>
   <i type="int" name="NBANDS">    48</i>
   <i type="int" name="NBANDSLOW">    -1</i>
   <i type="int" name="NBANDSHIGH">    -1</i>
   <i name="NELECT">     42.00000000</i>
   <i type="int" name="TURBO">     0</i>
   <i type="int" name="IRESTART">     0</i>
   <i type="int" name="NREBOOT">     0</i>
   <i type="int" name="NMIN">     0</i>
   <i name="EREF">      0.00000000</i>
   <separator name="electronic smearing" >
    <i type="int" name="ISMEAR">     0</i>
    <i name="SIGMA">      0.05000000</i>
    <i name="KSPACING">      0.50000000</i>
    <i type="logical" name="KGAMMA"> T  </i>
    <i type="logical" name="KBLOWUP"> T  </i>
   </separator>
   <separator name="electronic projectors" >
    <i type="logical" name="LREAL"> F  </i>
    <v name="ROPT">      0.00000000</v>
    <i type="int" name="LMAXPAW">  -100</i>
    <i type="int" name="LMAXMIX">     2</i>
    <i type="logical" name="NLSPLINE"> F  </i>
   </separator>
   <separator name="electronic startup" >
    <i type="int" name="ISTART">     0</i>
    <i type="int" name="ICHARG">     2</i>
    <i type="int" name="INIWAV">     1</i>
   </separator>
   <separator name="electronic spin" >
    <i type="int" name="ISPIN">     1</i>
    <i type="logical" name="LNONCOLLINEAR"> F  </i>
    <v name="MAGMOM">      1.00000000      1.00000000      1.00000000      1.00000000      1.00000000      1.00000000      1.00000000      1.00000000      1.00000000      1.00000000      1.00000000      1.00000000      1.00000000      1.00000000</v>
    <i name="NUPDOWN">     -1.00000000</i>
    <i type="logical" name="LSORBIT"> F  </i>
    <v name="SAXIS">      0.00000000      0.00000000      1.00000000</v>
    <i type="logical" name="LSPIRAL"> F  </i>
    <v name="QSPIRAL">      0.00000000      0.00000000      0.00000000</v>
    <i type="logical" name="LZEROZ"> F  </i>
   </separator>
   <separator name="electronic exchange-correlation" >
    <i type="logical" name="LASPH"> F  </i>
   </separator>
   <separator name="electronic convergence" >
    <i type="int" name="NELM">   200</i>
    <i type="int" name="NELMDL">    -5</i>
    <i type="int" name="NELMIN">     2</i>
    <i name="ENINI">    600.00000000</i>
    <separator name="electronic convergence detail" >
     <i type="logical" name="LDIAG"> T  </i>
     <i type="logical" name="LSUBROT"> F  </i>
     <i name="WEIMIN">      0.00000000</i>
     <i name="EBREAK">      0.00000001</i>
     <i name="DEPER">      0.30000000</i>
     <i type="int" name="NRMM">     4</i>
     <i name="TIME">      0.40000000</i>
    </separator>
   </separator>
   <separator name="electronic mixer" >
    <i name="AMIX">      0.40000000</i>
    <i name="BMIX">      1.00000000</i>
    <i name="AMIN">      0.10000000</i>
    <i name="AMIX_MAG">      1.60000000</i>
    <i name="BMIX_MAG">      1.00000000</i>
    <separator name="electronic mixer details" >
     <i type="int" name="IMIX">     4</i>
     <i type="logical" name="MIXFIRST"> F  </i>
     <i type="int" name="MAXMIX">   -45</i>
     <i name="WC">    100.00000000</i>
     <i type="int" name="INIMIX">     1</i>
     <i type="int" name="MIXPRE">     1</i>
     <i type="int" name="MREMOVE">     5</i>
    </separator>
   </separator>
   <separator name="electronic dipolcorrection" >
    <i type="logical" name="LDIPOL"> T  </i>
    <i type="logical" name="LMONO"> F  </i>
    <i type="int" name="IDIPOL">     3</i>
    <i name="EPSILON">      1.00000000</i>
    <v name="DIPOL">      0.50000000      0.50000000      0.08400000</v>
    <i name="EFIELD">      0.00000000</i>
    <i type="logical" name="LVACPOTAV"> F  </i>
   </separator>
  </separator>
  <separator name="grids" >
   <i type="int" name="NGX">    48</i>
   <i type="int" name="NGY">    50</i>
   <i type="int" name="NGZ">   192</i>
   <i type="int" name="NGXF">    96</i>
   <i type="int" name="NGYF">   100</i>
   <i type="int" name="NGZF">   384</i>
   <i type="logical" name="ADDGRID"> F  </i>
  </separator>
  <separator name="ionic" >
   <i type="int" name="NSW">     0</i>
   <i type="int" name="IBRION">    -1</i>
   <i type="int" name="MDALGO">     0</i>
   <i type="int" name="ISIF">     2</i>
   <i name="PSTRESS">      0.00000000</i>
   <i name="EDIFFG">     -0.00100000</i>
   <i type="int" name="NFREE">     0</i>
   <i name="POTIM">      0.50000000</i>
   <i name="SMASS">     -3.00000000</i>
   <i name="SCALEE">      1.00000000</i>
  </separator>
  <separator name="ionic md" >
   <i name="TEBEG">      0.00010000</i>
   <i name="TEEND">      0.00010000</i>
   <i type="int" name="NBLOCK">     1</i>
   <i type="int" name="KBLOCK">     1</i>
   <i type="int" name="NPACO">   256</i>
   <i name="APACO">     10.00000000</i>
  </separator>
  <separator name="symmetry" >
   <i type="int" name="ISYM">     2</i>
   <i name="SYMPREC">      0.00001000</i>
  </separator>
  <separator name="dos" >
   <i type="int" name="LORBIT">     0</i>
   <v name="RWIGS">     -1.00000000</v>
   <i type="int" name="NEDOS">   301</i>
   <i name="EMIN">     10.00000000</i>
   <i name="EMAX">    -10.00000000</i>
   <i name="EFERMI">      0.00000000</i>
  </separator>
  <separator name="writing" >
   <i type="int" name="NWRITE">     2</i>
   <i type="logical" name="LWAVE"> F  </i>
   <i type="logical" name="LDOWNSAMPLE"> F  </i>
   <i type="logical" name="LCHARG"> F  </i>
   <i type="logical" name="LPARD"> F  </i>
   <i type="logical" name="LVTOT"> F  </i>
   <i type="logical" name="LVHAR"> F  </i>
   <i type="logical" name="LELF"> F  </i>
   <i type="logical" name="LOPTICS"> F  </i>
   <v name="STM">      0.00000000      0.00000000      0.00000000      0.00000000      0.00000000      0.00000000      0.00000000</v>
  </separator>
  <separator name="performance" >
   <i type="int" name="NPAR">    24</i>
   <i type="int" name="NSIM">     4</i>
   <i type="int" name="NBLK">    -1</i>
   <i type="logical" name="LPLANE"> T  </i>
   <i type="logical" name="LSCALAPACK"> T  </i>
   <i type="logical" name="LSCAAWARE"> F  </i>
   <i type="logical" name="LSCALU"> F  </i>
   <i type="logical" name="LASYNC"> F  </i>
   <i type="logical" name="LORBITALREAL"> F  </i>
  </separator>
  <separator name="miscellaneous" >
   <i type="int" name="IDIOT">     3</i>
   <i type="int" name="PHON_NSTRUCT">    -1</i>
   <i type="logical" name="LMUSIC"> F  </i>
   <v name="POMASS">     10.81100000</v>
   <v name="DARWINR">      0.00000000</v>
   <v name="DARWINV">      1.00000000</v>
   <i type="logical" name="LCORR"> T  </i>
  </separator>
  <i type="logical" name="GGA_COMPAT"> T  </i>
  <i type="logical" name="LBERRY"> F  </i>
  <i type="int" name="ICORELEVEL">     0</i>
  <i type="logical" name="LDAU"> F  </i>
  <i type="int" name="I_CONSTRAINED_M">     0</i>
  <separator name="electronic exchange-correlation" >
   <i type="string" name="GGA    ">PE</i>
   <i type="string" name="XC_C">1</i>
   <i type="int" name="VOSKOWN">     0</i>
   <i type="logical" name="LHFCALC"> F  </i>
   <i type="string" name="PRECFOCK"></i>
   <i type="logical" name="LSYMGRAD"> F  </i>
   <i type="logical" name="LHFONE"> F  </i>
   <i type="logical" name="LRHFCALC"> F  </i>
   <i type="logical" name="LTHOMAS"> F  </i>
   <i type="logical" name="LMODELHF"> F  </i>
   <i type="logical" name="LFOCKACE"> F  </i>
   <i name="ENCUT4O">     -1.00000000</i>
   <i type="int" name="EXXOEP">     0</i>
   <i type="int" name="FOURORBIT">     0</i>
   <i name="AEXX">      0.00000000</i>
   <i name="HFALPHA">      0.00000000</i>
   <i name="MCALPHA">      0.00000000</i>
   <i name="ALDAX">      1.00000000</i>
   <i name="AGGAX">      1.00000000</i>
   <i name="AMGGAX">      1.00000000</i>
   <i name="ALDAC">      1.00000000</i>
   <i name="AGGAC">      1.00000000</i>
   <i name="AMGGAC">      1.00000000</i>
   <i type="int" name="NKREDX">     1</i>
   <i type="int" name="NKREDY">     1</i>
   <i type="int" name="NKREDZ">     1</i>
   <i type="logical" name="SHIFTRED"> F  </i>
   <i type="logical" name="ODDONLY"> F  </i>
   <i type="logical" name="EVENONLY"> F  </i>
   <i type="int" name="LMAXFOCK">     0</i>
   <i type="int" name="NMAXFOCKAE">     0</i>
   <i type="logical" name="LFOCKAEDFT"> F  </i>
   <i name="HFSCREEN">      0.00000000</i>
   <i name="HFSCREENC">      0.00000000</i>
   <i type="int" name="NBANDSGWLOW">     0</i>
  </separator>
  <separator name="vdW DFT" >
   <i type="logical" name="LUSE_VDW"> F  </i>
   <i type="int" name="IVDW_NL">    -1</i>
   <i type="logical" name="LSPIN_VDW"> F  </i>
   <i name="ZAB_VDW">     -0.84910000</i>
   <i name="GAMMA_VDW">      1.39626340</i>
   <i name="ALPHA_VDW">      0.00000000</i>
   <i name="PARAM1">      0.12340000</i>
   <i name="PARAM2">      1.00000000</i>
   <i name="BPARAM">      6.30000000</i>
   <i name="CPARAM">      0.00930000</i>
  </separator>
  <separator name="model GW" >
   <i type="int" name="MODEL_GW">     0</i>
   <i name="MODEL_EPS0">     36.43363883</i>
   <i name="MODEL_ALPHA">      1.00000000</i>
  </separator>
  <separator name="linear response parameters" >
   <i type="logical" name="LEPSILON"> F  </i>
   <i type="logical" name="LRPA"> F  </i>
   <i type="logical" name="LNABLA"> F  </i>
   <i type="logical" name="LVEL"> F  </i>
   <i name="CSHIFT">      0.10000000</i>
   <i name="OMEGAMAX">     -1.00000000</i>
   <i name="DEG_THRESHOLD">      0.00200000</i>
   <i name="RTIME">     -0.10000000</i>
   <i name="WPLASMAI">      0.00000000</i>
   <v name="DFIELD">      0.00000000      0.00000000      0.00000000</v>
   <v name="WPLASMA">      0.00000000      0.00000000      0.00000000      0.00000000      0.00000000      0.00000000      0.00000000      0.00000000      0.00000000</v>
  </separator>
  <separator name="orbital magnetization" >
   <i type="logical" name="NUCIND"> F  </i>
   <v name="MAGPOS">      0.00000000      0.00000000      0.00000000</v>
   <i type="logical" name="LNICSALL"> T  </i>
   <i type="logical" name="ORBITALMAG"> F  </i>
   <i type="logical" name="LMAGBLOCH"> F  </i>
   <i type="logical" name="LCHIMAG"> F  </i>
   <i type="logical" name="LGAUGE"> T  </i>
   <i type="int" name="MAGATOM">     0</i>
   <v name="MAGDIPOL">      0.00000000      0.00000000      0.00000000</v>
   <v name="AVECCONST">      0.00000000      0.00000000      0.00000000</v>
  </separator>
  <separator name="response functions" >
   <i type="logical" name="LALL_IN_ONE"> F  </i>
   <i type="int" name="IALL_IN_ONE">    -1</i>
   <i type="int" name="NBANDS_WAVE">    -1</i>
   <i type="logical" name="LFINITE_TEMPERATURE"> F  </i>
   <i type="logical" name="LADDER"> F  </i>
   <i type="logical" name="LRPAFORCE"> F  </i>
   <i type="logical" name="LFXC"> F  </i>
   <i type="logical" name="LHARTREE"> T  </i>
   <i type="int" name="IBSE">     0</i>
   <v type="int" name="KPOINT">    -1     0     0     0</v>
   <i type="logical" name="LTCTC"> F  </i>
   <i type="logical" name="LTCTE"> F  </i>
   <i type="logical" name="LTETE"> F  </i>
   <i type="logical" name="LTRIPLET"> F  </i>
   <i type="logical" name="LFXCEPS"> F  </i>
   <i type="logical" name="LFXHEG"> F  </i>
   <i type="int" name="NATURALO">     2</i>
   <i type="logical" name="LHOLEGF"> F  </i>
   <i type="logical" name="L2ORDER"> F  </i>
   <i type="logical" name="LDMP1"> F  </i>
   <i type="logical" name="LMP2LT"> F  </i>
   <i type="logical" name="LSMP2LT"> F  </i>
   <i type="logical" name="LGWLF"> F  </i>
   <i name="ENCUTGW">     -1.60000002</i>
   <i name="ENCUTGWSOFT">     -1.60000002</i>
   <i name="ENCUTLF">     -1.00000000</i>
   <i type="logical" name="ESF_SPLINES"> F  </i>
   <i name="ESF_CONV">      0.01000000</i>
   <i type="int" name="ESF_NINTER">    15</i>
   <i type="int" name="LMAXMP2">    -1</i>
   <i name="SCISSOR">      0.00000000</i>
   <i type="int" name="NOMEGA">     0</i>
   <i type="int" name="NOMEGAR">     0</i>
   <i type="int" name="NBANDSGW">    -1</i>
   <i type="int" name="NBANDSO">    -1</i>
   <i type="int" name="NBANDSV">    -1</i>
   <i type="int" name="NELMGW">     1</i>
   <i type="int" name="NELMHF">     1</i>
   <i type="int" name="DIM">     3</i>
   <i type="int" name="IESPILON">     4</i>
   <i type="int" name="ANTIRES">     0</i>
   <i name="OMEGAMAX">    -30.00000000</i>
   <i name="OMEGAMIN">    -30.00000000</i>
   <i name="OMEGATL">   -200.00000000</i>
   <i type="int" name="OMEGAGRID">     0</i>
   <i name="CSHIFT">     -0.10000000</i>
   <i type="logical" name="LSELFENERGY"> F  </i>
   <i type="logical" name="LSPECTRAL"> F  </i>
   <i type="logical" name="LSPECTRALGW"> F  </i>
   <i type="logical" name="LSINGLES"> F  </i>
   <i type="logical" name="LFERMIGW"> F  </i>
   <i type="logical" name="ODDONLYGW"> F  </i>
   <i type="logical" name="EVENONLYGW"> F  </i>
   <i type="int" name="NKREDLFX">     1</i>
   <i type="int" name="NKREDLFY">     1</i>
   <i type="int" name="NKREDLFZ">     1</i>
   <i type="int" name="MAXMEM">  2800</i>
   <i type="int" name="TELESCOPE">     0</i>
   <i type="int" name="NTAUPAR">    -1</i>
   <i type="int" name="NOMEGAPAR">    -1</i>
   <i name="DAMP_NEWTON">      0.80000001</i>
   <i name="LAMBDA">      1.00000000</i>
  </separator>
  <separator name="External order field" >
   <i name="OFIELD_KAPPA">      0.00000000</i>
   <v name="OFIELD_K">      0.00000000      0.00000000      0.00000000</v>
   <i name="OFIELD_Q6_NEAR">      0.00000000</i>
   <i name="OFIELD_Q6_FAR">      0.00000000</i>
   <i name="OFIELD_A">      0.00000000</i>
  </separator>
  <separator name="optional k-points parameters" >
   <i type="int" name="KPOINTS_OPT_MODE">     1</i>
   <i type="logical" name="LKPOINTS_OPT"> F  </i>
  </separator>
 </parameters>
 <atominfo>
  <atoms>      14 </atoms>
  <types>       1 </types>
  <array name="atoms" >
   <dimension dim="1">ion</dimension>
   <field type="string">element</field>
   <field type="int">atomtype</field>
   <set>
    <rc><c>B </c><c>   1</c></rc>
    <rc><c>B </c><c>   1</c></rc>
    <rc><c>B </c><c>   1</c></rc>
    <rc><c>B </c><c>   1</c></rc>
    <rc><c>B </c><c>   1</c></rc>
    <rc><c>B </c><c>   1</c></rc>
    <rc><c>B </c><c>   1</c></rc>
    <rc><c>B </c><c>   1</c></rc>
    <rc><c>B </c><c>   1</c></rc>
    <rc><c>B </c><c>   1</c></rc>
    <rc><c>B </c><c>   1</c></rc>
    <rc><c>B </c><c>   1</c></rc>
    <rc><c>B </c><c>   1</c></rc>
    <rc><c>B </c><c>   1</c></rc>
   </set>
  </array>
  <array name="atomtypes" >
   <dimension dim="1">type</dimension>
   <field type="int">atomspertype</field>
   <field type="string">element</field>
   <field>mass</field>
   <field>valence</field>
   <field type="string">pseudopotential</field>
   <set>
    <rc><c>  14</c><c>B </c><c>     10.81100000</c><c>      3.00000000</c><c>  PAW_PBE B 06Sep2000                   </c></rc>
   </set>
  </array>
 </atominfo>
 <structure name="initialpos" >
  <crystal>
   <varray name="basis" >
    <v>       5.70097065       0.00000000       0.00000000 </v>
    <v>       0.00000000       6.20187140       0.00000000 </v>
    <v>       0.00000000       0.00000000      24.04405832 </v>
   </varray>
   <i name="volume">    850.11823945 </i>
   <varray name="rec_basis" >
    <v>       0.17540873       0.00000000       0.00000000 </v>
    <v>       0.00000000       0.16124165       0.00000000 </v>
    <v>       0.00000000       0.00000000       0.04159032 </v>
   </varray>
  </crystal>
  <varray name="positions" >
   <v>       0.52128989       0.63795769       0.08409683 </v>
   <v>       0.47871011       0.36204231       0.08409683 </v>
   <v>       0.97871011       0.63795769       0.08409683 </v>
   <v>       0.02128989       0.36204231       0.08409683 </v>
   <v>       0.59744966       0.89986831       0.08409683 </v>
   <v>       0.40255034       0.10013168       0.08409683 </v>
   <v>       0.90255034       0.89986831       0.08409683 </v>
   <v>       0.09744966       0.10013168       0.08409683 </v>
   <v>       0.75000000       0.72957939       0.13313621 </v>
   <v>       0.25000000       0.27042061       0.03505746 </v>
   <v>       0.75000000       0.72957939       0.03505746 </v>
   <v>       0.25000000       0.27042061       0.13313621 </v>
   <v>       0.25000000       0.52399302       0.08409683 </v>
   <v>       0.75000000       0.47600695       0.08409683 </v>
  </varray>
 </structure>
 <calculation>
  <scstep>
   <time name="dav">    7.15    7.25</time>
   <time name="total">    7.26    7.36</time>
   <dipole>
    <v name="dipole">      0.00000000       0.00000000      -0.00000327 </v>
    <i name="Tr[quadrupol]">   -255.55724718 </i>
    <i name="Echarged">      0.00000000 </i>
    <i name="Edipol_quadrupol">      0.00000000 </i>
    <i name="Eion">      0.00000000 </i>
   </dipole>
   <energy>
    <i name="alphaZ">     15.86113418 </i>
    <i name="ewald">   6320.24766129 </i>
    <i name="hartreedc">  -6941.67214916 </i>
    <i name="XCdc">     94.76451061 </i>
    <i name="pawpsdc">    608.99811708 </i>
    <i name="pawaedc">   -597.02363782 </i>
    <i name="eentropy">     -0.00646788 </i>
    <i name="bandstr">   -232.56209195 </i>
    <i name="atom">    996.37441054 </i>
    <i name="e_fr_energy">    264.98148690 </i>
    <i name="e_wo_entrp">    264.98795478 </i>
    <i name="e_0_energy">    264.98472084 </i>
   </energy>
  </scstep>
  <scstep>
   <time name="dav">   11.30   11.36</time>
   <time name="total">   11.30   11.37</time>
   <dipole>
    <v name="dipole">      0.00000000       0.00000000      -0.00000327 </v>
    <i name="Tr[quadrupol]">   -255.55724718 </i>
    <i name="Echarged">      0.00000000 </i>
    <i name="Edipol_quadrupol">      0.00000000 </i>
    <i name="Eion">      0.00000000 </i>
   </dipole>
   <energy>
    <i name="e_fr_energy">    -66.58064830 </i>
    <i name="e_wo_entrp">    -66.57245877 </i>
    <i name="e_0_energy">    -66.57655353 </i>
   </energy>
  </scstep>
  <scstep>
   <time name="dav">    9.25    9.30</time>
   <time name="total">    9.25    9.30</time>
   <dipole>
    <v name="dipole">      0.00000000       0.00000000      -0.00000327 </v>
    <i name="Tr[quadrupol]">   -255.55724718 </i>
    <i name="Echarged">      0.00000000 </i>
    <i name="Edipol_quadrupol">      0.00000000 </i>
    <i name="Eion">      0.00000000 </i>
   </dipole>
   <energy>
    <i name="e_fr_energy">    -93.76141765 </i>
    <i name="e_wo_entrp">    -93.75051293 </i>
    <i name="e_0_energy">    -93.75596529 </i>
   </energy>
  </scstep>
  <scstep>
   <time name="dav">    8.95    9.01</time>
   <time name="total">    8.95    9.01</time>
   <dipole>
    <v name="dipole">      0.00000000       0.00000000      -0.00000327 </v>
    <i name="Tr[quadrupol]">   -255.55724718 </i>
    <i name="Echarged">      0.00000000 </i>
    <i name="Edipol_quadrupol">      0.00000000 </i>
    <i name="Eion">      0.00000000 </i>
   </dipole>
   <energy>
    <i name="e_fr_energy">    -94.19648697 </i>
    <i name="e_wo_entrp">    -94.18554864 </i>
    <i name="e_0_energy">    -94.19101780 </i>
   </energy>
  </scstep>
  <scstep>
   <time name="dav">    9.22    9.28</time>
   <time name="total">    9.58    9.65</time>
   <dipole>
    <v name="dipole">      0.00000000       0.00000000      -0.00000327 </v>
    <i name="Tr[quadrupol]">   -255.55724718 </i>
    <i name="Echarged">      0.00000000 </i>
    <i name="Edipol_quadrupol">      0.00000000 </i>
    <i name="Eion">      0.00000000 </i>
   </dipole>
   <energy>
    <i name="e_fr_energy">    -94.20625980 </i>
    <i name="e_wo_entrp">    -94.19532220 </i>
    <i name="e_0_energy">    -94.20079100 </i>
   </energy>
  </scstep>
  <scstep>
   <time name="dav">    9.34    9.42</time>
   <time name="total">    9.79    9.87</time>
   <dipole>
    <v name="dipole">      0.00000000       0.00000000       0.00031109 </v>
    <i name="Tr[quadrupol]">   -257.02347324 </i>
    <i name="Echarged">      0.00000000 </i>
    <i name="Edipol_quadrupol">      0.00000000 </i>
    <i name="Eion">      0.00000000 </i>
   </dipole>
   <energy>
    <i name="e_fr_energy">    -85.73511866 </i>
    <i name="e_wo_entrp">    -85.71909999 </i>
    <i name="e_0_energy">    -85.72710933 </i>
   </energy>
  </scstep>
  <scstep>
   <time name="dav">    9.26    9.36</time>
   <time name="total">    9.70    9.79</time>
   <dipole>
    <v name="dipole">      0.00000000       0.00000000       0.00062771 </v>
    <i name="Tr[quadrupol]">   -258.15013300 </i>
    <i name="Echarged">      0.00000000 </i>
    <i name="Edipol_quadrupol">      0.00000000 </i>
    <i name="Eion">      0.00000000 </i>
   </dipole>
   <energy>
    <i name="e_fr_energy">    -84.34252818 </i>
    <i name="e_wo_entrp">    -84.32485541 </i>
    <i name="e_0_energy">    -84.33369179 </i>
   </energy>
  </scstep>
  <scstep>
   <time name="dav">    9.01    9.04</time>
   <time name="total">    9.45    9.47</time>
   <dipole>
    <v name="dipole">      0.00000000       0.00000000       0.00083941 </v>
    <i name="Tr[quadrupol]">   -258.69497020 </i>
    <i name="Echarged">      0.00000000 </i>
    <i name="Edipol_quadrupol">      0.00000000 </i>
    <i name="Eion">      0.00000000 </i>
   </dipole>
   <energy>
    <i name="e_fr_energy">    -84.26158295 </i>
    <i name="e_wo_entrp">    -84.24804846 </i>
    <i name="e_0_energy">    -84.25481571 </i>
   </energy>
  </scstep>
  <scstep>
   <time name="dav">    9.08    9.11</time>
   <time name="total">    9.51    9.54</time>
   <dipole>
    <v name="dipole">      0.00000000       0.00000000       0.00090359 </v>
    <i name="Tr[quadrupol]">   -258.96749684 </i>
    <i name="Echarged">      0.00000000 </i>
    <i name="Edipol_quadrupol">      0.00000000 </i>
    <i name="Eion">      0.00000000 </i>
   </dipole>
   <energy>
    <i name="e_fr_energy">    -84.11110664 </i>
    <i name="e_wo_entrp">    -84.09386010 </i>
    <i name="e_0_energy">    -84.10248337 </i>
   </energy>
  </scstep>
  <scstep>
   <time name="dav">    9.32    9.39</time>
   <time name="total">    9.75    9.82</time>
   <dipole>
    <v name="dipole">      0.00000000       0.00000000       0.00102407 </v>
    <i name="Tr[quadrupol]">   -259.36198243 </i>
    <i name="Echarged">      0.00000000 </i>
    <i name="Edipol_quadrupol">      0.00000000 </i>
    <i name="Eion">      0.00000000 </i>
   </dipole>
   <energy>
    <i name="e_fr_energy">    -84.10459955 </i>
    <i name="e_wo_entrp">    -84.08784701 </i>
    <i name="e_0_energy">    -84.09622328 </i>
   </energy>
  </scstep>
  <scstep>
   <time name="dav">    8.81    8.91</time>
   <time name="total">    9.25    9.35</time>
   <dipole>
    <v name="dipole">      0.00000000       0.00000000       0.00106377 </v>
    <i name="Tr[quadrupol]">   -259.56006598 </i>
    <i name="Echarged">      0.00000000 </i>
    <i name="Edipol_quadrupol">      0.00000000 </i>
    <i name="Eion">      0.00000000 </i>
   </dipole>
   <energy>
    <i name="e_fr_energy">    -84.09785829 </i>
    <i name="e_wo_entrp">    -84.08072418 </i>
    <i name="e_0_energy">    -84.08929123 </i>
   </energy>
  </scstep>
  <scstep>
   <time name="dav">    9.21    9.29</time>
   <time name="total">    9.64    9.72</time>
   <dipole>
    <v name="dipole">      0.00000000       0.00000000       0.00108376 </v>
    <i name="Tr[quadrupol]">   -259.86087500 </i>
    <i name="Echarged">      0.00000000 </i>
    <i name="Edipol_quadrupol">      0.00000000 </i>
    <i name="Eion">      0.00000000 </i>
   </dipole>
   <energy>
    <i name="e_fr_energy">    -84.09574121 </i>
    <i name="e_wo_entrp">    -84.07910090 </i>
    <i name="e_0_energy">    -84.08742105 </i>
   </energy>
  </scstep>
  <scstep>
   <time name="dav">    8.89    8.97</time>
   <time name="total">    9.33    9.41</time>
   <dipole>
    <v name="dipole">      0.00000000       0.00000000       0.00101852 </v>
    <i name="Tr[quadrupol]">   -260.10595735 </i>
    <i name="Echarged">      0.00000000 </i>
    <i name="Edipol_quadrupol">      0.00000000 </i>
    <i name="Eion">      0.00000000 </i>
   </dipole>
   <energy>
    <i name="e_fr_energy">    -84.09715005 </i>
    <i name="e_wo_entrp">    -84.08105658 </i>
    <i name="e_0_energy">    -84.08910332 </i>
   </energy>
  </scstep>
  <scstep>
   <time name="dav">    8.24    8.33</time>
   <time name="total">    8.68    8.77</time>
   <dipole>
    <v name="dipole">      0.00000000       0.00000000       0.00083533 </v>
    <i name="Tr[quadrupol]">   -260.22303968 </i>
    <i name="Echarged">      0.00000000 </i>
    <i name="Edipol_quadrupol">      0.00000000 </i>
    <i name="Eion">      0.00000000 </i>
   </dipole>
   <energy>
    <i name="e_fr_energy">    -84.09914540 </i>
    <i name="e_wo_entrp">    -84.08304779 </i>
    <i name="e_0_energy">    -84.09109660 </i>
   </energy>
  </scstep>
  <scstep>
   <time name="dav">    8.32    8.37</time>
   <time name="total">    8.77    8.81</time>
   <dipole>
    <v name="dipole">      0.00000000       0.00000000       0.00062668 </v>
    <i name="Tr[quadrupol]">   -260.26290145 </i>
    <i name="Echarged">      0.00000000 </i>
    <i name="Edipol_quadrupol">      0.00000000 </i>
    <i name="Eion">      0.00000000 </i>
   </dipole>
   <energy>
    <i name="e_fr_energy">    -84.10073633 </i>
    <i name="e_wo_entrp">    -84.08469187 </i>
    <i name="e_0_energy">    -84.09271410 </i>
   </energy>
  </scstep>
  <scstep>
   <time name="dav">    8.05    8.09</time>
   <time name="total">    8.49    8.53</time>
   <dipole>
    <v name="dipole">      0.00000000       0.00000000       0.00042005 </v>
    <i name="Tr[quadrupol]">   -260.25799820 </i>
    <i name="Echarged">      0.00000000 </i>
    <i name="Edipol_quadrupol">      0.00000000 </i>
    <i name="Eion">      0.00000000 </i>
   </dipole>
   <energy>
    <i name="e_fr_energy">    -84.10211116 </i>
    <i name="e_wo_entrp">    -84.08607703 </i>
    <i name="e_0_energy">    -84.09409410 </i>
   </energy>
  </scstep>
  <scstep>
   <time name="dav">    8.65    8.74</time>
   <time name="total">    9.09    9.18</time>
   <dipole>
    <v name="dipole">      0.00000000       0.00000000       0.00023597 </v>
    <i name="Tr[quadrupol]">   -260.24353226 </i>
    <i name="Echarged">      0.00000000 </i>
    <i name="Edipol_quadrupol">      0.00000000 </i>
    <i name="Eion">      0.00000000 </i>
   </dipole>
   <energy>
    <i name="e_fr_energy">    -84.10306155 </i>
    <i name="e_wo_entrp">    -84.08703395 </i>
    <i name="e_0_energy">    -84.09504775 </i>
   </energy>
  </scstep>
  <scstep>
   <time name="dav">    8.70    8.79</time>
   <time name="total">    9.14    9.22</time>
   <dipole>
    <v name="dipole">      0.00000000       0.00000000       0.00016252 </v>
    <i name="Tr[quadrupol]">   -260.23793576 </i>
    <i name="Echarged">      0.00000000 </i>
    <i name="Edipol_quadrupol">      0.00000000 </i>
    <i name="Eion">      0.00000000 </i>
   </dipole>
   <energy>
    <i name="e_fr_energy">    -84.10328207 </i>
    <i name="e_wo_entrp">    -84.08725532 </i>
    <i name="e_0_energy">    -84.09526870 </i>
   </energy>
  </scstep>
  <scstep>
   <time name="dav">    8.44    8.49</time>
   <time name="total">    8.89    8.93</time>
   <dipole>
    <v name="dipole">      0.00000000       0.00000000       0.00006839 </v>
    <i name="Tr[quadrupol]">   -260.22950170 </i>
    <i name="Echarged">      0.00000000 </i>
    <i name="Edipol_quadrupol">      0.00000000 </i>
    <i name="Eion">      0.00000000 </i>
   </dipole>
   <energy>
    <i name="e_fr_energy">    -84.10350110 </i>
    <i name="e_wo_entrp">    -84.08747424 </i>
    <i name="e_0_energy">    -84.09548767 </i>
   </energy>
  </scstep>
  <scstep>
   <time name="dav">    8.77    8.81</time>
   <time name="total">    9.20    9.24</time>
   <dipole>
    <v name="dipole">      0.00000000       0.00000000       0.00002729 </v>
    <i name="Tr[quadrupol]">   -260.22619396 </i>
    <i name="Echarged">      0.00000000 </i>
    <i name="Edipol_quadrupol">      0.00000000 </i>
    <i name="Eion">      0.00000000 </i>
   </dipole>
   <energy>
    <i name="e_fr_energy">    -84.10355780 </i>
    <i name="e_wo_entrp">    -84.08753202 </i>
    <i name="e_0_energy">    -84.09554491 </i>
   </energy>
  </scstep>
  <scstep>
   <time name="dav">    8.60    8.68</time>
   <time name="total">    9.04    9.12</time>
   <dipole>
    <v name="dipole">      0.00000000       0.00000000       0.00001260 </v>
    <i name="Tr[quadrupol]">   -260.22492968 </i>
    <i name="Echarged">      0.00000000 </i>
    <i name="Edipol_quadrupol">      0.00000000 </i>
    <i name="Eion">      0.00000000 </i>
   </dipole>
   <energy>
    <i name="e_fr_energy">    -84.10356948 </i>
    <i name="e_wo_entrp">    -84.08754309 </i>
    <i name="e_0_energy">    -84.09555629 </i>
   </energy>
  </scstep>
  <scstep>
   <time name="dav">    8.77    8.82</time>
   <time name="total">    9.21    9.26</time>
   <dipole>
    <v name="dipole">      0.00000000       0.00000000       0.00000522 </v>
    <i name="Tr[quadrupol]">   -260.22420790 </i>
    <i name="Echarged">      0.00000000 </i>
    <i name="Edipol_quadrupol">      0.00000000 </i>
    <i name="Eion">      0.00000000 </i>
   </dipole>
   <energy>
    <i name="e_fr_energy">    -84.10357367 </i>
    <i name="e_wo_entrp">    -84.08754709 </i>
    <i name="e_0_energy">    -84.09556038 </i>
   </energy>
  </scstep>
  <scstep>
   <time name="dav">    8.76    8.80</time>
   <time name="total">    9.20    9.24</time>
   <dipole>
    <v name="dipole">      0.00000000       0.00000000       0.00000224 </v>
    <i name="Tr[quadrupol]">   -260.22392935 </i>
    <i name="Echarged">      0.00000000 </i>
    <i name="Edipol_quadrupol">      0.00000000 </i>
    <i name="Eion">      0.00000000 </i>
   </dipole>
   <energy>
    <i name="e_fr_energy">    -84.10357468 </i>
    <i name="e_wo_entrp">    -84.08754819 </i>
    <i name="e_0_energy">    -84.09556143 </i>
   </energy>
  </scstep>
  <scstep>
   <time name="dav">    7.20    7.25</time>
   <time name="total">    7.29    7.33</time>
   <dipole>
    <v name="dipole">      0.00000000       0.00000000       0.00000070 </v>
    <i name="Tr[quadrupol]">   -260.22362061 </i>
    <i name="Echarged">      0.00000000 </i>
    <i name="Edipol_quadrupol">      0.00000000 </i>
    <i name="Eion">      0.00000000 </i>
   </dipole>
   <energy>
    <i name="alphaZ">     15.86113353 </i>
    <i name="ewald">   6320.24766129 </i>
    <i name="hartreedc">  -7109.06334665 </i>
    <i name="XCdc">     98.83515314 </i>
    <i name="pawpsdc">   3416.33717412 </i>
    <i name="pawaedc">  -3405.39710811 </i>
    <i name="eentropy">     -0.01602648 </i>
    <i name="bandstr">   -417.28262622 </i>
    <i name="atom">    996.37441054 </i>
    <i name="e_fr_energy">    -84.10357484 </i>
    <i name="e_wo_entrp">    -84.08754836 </i>
    <i name="e_0_energy">    -84.09556160 </i>
   </energy>
  </scstep>
  <structure>
   <crystal>
    <varray name="basis" >
     <v>       5.70097065       0.00000000       0.00000000 </v>
     <v>       0.00000000       6.20187140       0.00000000 </v>
     <v>       0.00000000       0.00000000      24.04405832 </v>
    </varray>
    <i name="volume">    850.11823945 </i>
    <varray name="rec_basis" >
     <v>       0.17540873       0.00000000       0.00000000 </v>
     <v>       0.00000000       0.16124165       0.00000000 </v>
     <v>       0.00000000       0.00000000       0.04159032 </v>
    </varray>
   </crystal>
   <varray name="positions" >
    <v>       0.52128989       0.63795769       0.08409683 </v>
    <v>       0.47871011       0.36204231       0.08409683 </v>
    <v>       0.97871011       0.63795769       0.08409683 </v>
    <v>       0.02128989       0.36204231       0.08409683 </v>
    <v>       0.59744966       0.89986831       0.08409683 </v>
    <v>       0.40255034       0.10013168       0.08409683 </v>
    <v>       0.90255034       0.89986831       0.08409683 </v>
    <v>       0.09744966       0.10013168       0.08409683 </v>
    <v>       0.75000000       0.72957939       0.13313621 </v>
    <v>       0.25000000       0.27042061       0.03505746 </v>
    <v>       0.75000000       0.72957939       0.03505746 </v>
    <v>       0.25000000       0.27042061       0.13313621 </v>
    <v>       0.25000000       0.52399302       0.08409683 </v>
    <v>       0.75000000       0.47600695       0.08409683 </v>
   </varray>
  </structure>
  <varray name="forces" >
   <v>      -0.03178428       0.03919786       0.00000000 </v>
   <v>       0.03178428      -0.03919786       0.00000000 </v>
   <v>       0.03178428       0.03919786       0.00000000 </v>
   <v>      -0.03178428      -0.03919786       0.00000000 </v>
   <v>      -0.17900762       0.19737102       0.00000000 </v>
   <v>       0.17900762      -0.19737102       0.00000000 </v>
   <v>       0.17900762       0.19737102       0.00000000 </v>
   <v>      -0.17900762      -0.19737102       0.00000000 </v>
   <v>       0.00000000      -0.18407854      -2.79696398 </v>
   <v>       0.00000000       0.18407854       2.79696398 </v>
   <v>       0.00000000      -0.18407854       2.79696398 </v>
   <v>       0.00000000       0.18407854      -2.79696398 </v>
   <v>       0.00000000      -0.10955080       0.00000000 </v>
   <v>       0.00000000       0.10955080       0.00000000 </v>
  </varray>
  <varray name="stress" >
   <v>       4.33413271       0.00000000       0.00000000 </v>
   <v>      -0.00000000       4.60477407       0.00000000 </v>
   <v>       0.00000000       0.00000000     -25.02016552 </v>
  </varray>
  <energy>
   <i name="e_fr_energy">    -84.10357484 </i>
   <i name="e_wo_entrp">    -84.08754836 </i>
   <i name="e_0_energy">    -84.09556160 </i>
  </energy>
  <time name="totalsc">  225.87  227.44</time>
  <eigenvalues>
   <array>
    <dimension dim="1">band</dimension>
    <dimension dim="2">kpoint</dimension>
    <dimension dim="3">spin</dimension>
    <field>eigene</field>
    <field>occ</field>
    <set>
     <set comment="spin 1">
      <set comment="kpoint 1">
       <r>  -19.2201    1.0000 </r>
       <r>  -18.1270    1.0000 </r>
       <r>  -15.1479    1.0000 </r>
       <r>  -14.8898    1.0000 </r>
       <r>  -12.5020    1.0000 </r>
       <r>  -11.6253    1.0000 </r>
       <r>  -11.6049    1.0000 </r>
       <r>  -11.2192    1.0000 </r>
       <r>  -10.8157    1.0000 </r>
       <r>  -10.0239    1.0000 </r>
       <r>   -9.9682    1.0000 </r>
       <r>   -7.6811    1.0000 </r>
       <r>   -7.5352    1.0000 </r>
       <r>   -7.5196    1.0000 </r>
       <r>   -6.5486    1.0000 </r>
       <r>   -6.4881    1.0000 </r>
       <r>   -5.8990    1.0000 </r>
       <r>   -5.5667    1.0000 </r>
       <r>   -5.4870    1.0000 </r>
       <r>   -4.9976    1.0000 </r>
       <r>   -4.5647    0.0839 </r>
       <r>   -4.2734    0.0000 </r>
       <r>   -2.5033    0.0000 </r>
       <r>   -1.5579    0.0000 </r>
       <r>   -1.5391    0.0000 </r>
       <r>   -1.3991    0.0000 </r>
       <r>   -0.3810    0.0000 </r>
       <r>   -0.0217    0.0000 </r>
       <r>    0.4997    0.0000 </r>
       <r>    1.1220    0.0000 </r>
       <r>    1.1826    0.0000 </r>
       <r>    1.5520    0.0000 </r>
       <r>    1.6667    0.0000 </r>
       <r>    2.1313    0.0000 </r>
       <r>    2.3392    0.0000 </r>
       <r>    2.5175    0.0000 </r>
       <r>    2.6780    0.0000 </r>
       <r>    2.8456    0.0000 </r>
       <r>    2.8582    0.0000 </r>
       <r>    2.9890    0.0000 </r>
       <r>    3.9004    0.0000 </r>
       <r>    4.1173    0.0000 </r>
       <r>    4.3277    0.0000 </r>
       <r>    4.3782    0.0000 </r>
       <r>    4.4306    0.0000 </r>
       <r>    4.5568    0.0000 </r>
       <r>    4.6108    0.0000 </r>
       <r>    4.8171    0.0000 </r>
      </set>
      <set comment="kpoint 2">
       <r>  -19.1779    1.0000 </r>
       <r>  -18.1967    1.0000 </r>
       <r>  -15.1275    1.0000 </r>
       <r>  -14.8801    1.0000 </r>
       <r>  -12.4335    1.0000 </r>
       <r>  -11.9757    1.0000 </r>
       <r>  -11.5471    1.0000 </r>
       <r>  -11.3336    1.0000 </r>
       <r>  -10.3491    1.0000 </r>
       <r>  -10.1345    1.0000 </r>
       <r>   -9.6372    1.0000 </r>
       <r>   -7.9771    1.0000 </r>
       <r>   -7.4894    1.0000 </r>
       <r>   -7.4651    1.0000 </r>
       <r>   -6.6899    1.0000 </r>
       <r>   -6.4423    1.0000 </r>
       <r>   -6.0123    1.0000 </r>
       <r>   -5.6554    1.0000 </r>
       <r>   -5.5902    1.0000 </r>
       <r>   -4.9742    1.0000 </r>
       <r>   -4.5737    0.1308 </r>
       <r>   -4.4156    0.0000 </r>
       <r>   -2.4513    0.0000 </r>
       <r>   -1.6042    0.0000 </r>
       <r>   -1.4442    0.0000 </r>
       <r>   -1.0533    0.0000 </r>
       <r>   -0.4239    0.0000 </r>
       <r>    0.0931    0.0000 </r>
       <r>    0.6476    0.0000 </r>
       <r>    1.0768    0.0000 </r>
       <r>    1.2630    0.0000 </r>
       <r>    1.6390    0.0000 </r>
       <r>    1.7554    0.0000 </r>
       <r>    1.8954    0.0000 </r>
       <r>    2.5257    0.0000 </r>
       <r>    2.5857    0.0000 </r>
       <r>    2.8417    0.0000 </r>
       <r>    2.9204    0.0000 </r>
       <r>    2.9965    0.0000 </r>
       <r>    3.1503    0.0000 </r>
       <r>    3.5532    0.0000 </r>
       <r>    3.8798    0.0000 </r>
       <r>    3.8957    0.0000 </r>
       <r>    4.2606    0.0000 </r>
       <r>    4.3636    0.0000 </r>
       <r>    4.4220    0.0000 </r>
       <r>    4.4377    0.0000 </r>
       <r>    4.6834    0.0000 </r>
      </set>
      <set comment="kpoint 3">
       <r>  -19.0951    1.0000 </r>
       <r>  -18.3226    1.0000 </r>
       <r>  -15.0848    1.0000 </r>
       <r>  -14.8691    1.0000 </r>
       <r>  -12.4198    1.0000 </r>
       <r>  -12.2997    1.0000 </r>
       <r>  -11.4335    1.0000 </r>
       <r>  -11.2804    1.0000 </r>
       <r>  -10.3287    1.0000 </r>
       <r>   -9.8029    1.0000 </r>
       <r>   -9.1631    1.0000 </r>
       <r>   -8.4705    1.0000 </r>
       <r>   -7.4053    1.0000 </r>
       <r>   -7.3724    1.0000 </r>
       <r>   -6.9496    1.0000 </r>
       <r>   -6.4705    1.0000 </r>
       <r>   -6.1227    1.0000 </r>
       <r>   -5.8038    1.0000 </r>
       <r>   -5.7625    1.0000 </r>
       <r>   -4.9276    1.0000 </r>
       <r>   -4.6865    0.9806 </r>
       <r>   -4.5942    0.2935 </r>
       <r>   -2.3559    0.0000 </r>
       <r>   -1.6837    0.0000 </r>
       <r>   -1.1150    0.0000 </r>
       <r>   -0.5646    0.0000 </r>
       <r>   -0.4443    0.0000 </r>
       <r>    0.1706    0.0000 </r>
       <r>    0.8920    0.0000 </r>
       <r>    1.0776    0.0000 </r>
       <r>    1.4298    0.0000 </r>
       <r>    1.6887    0.0000 </r>
       <r>    1.7899    0.0000 </r>
       <r>    1.9259    0.0000 </r>
       <r>    2.6752    0.0000 </r>
       <r>    2.7436    0.0000 </r>
       <r>    2.8947    0.0000 </r>
       <r>    2.9278    0.0000 </r>
       <r>    3.0340    0.0000 </r>
       <r>    3.1832    0.0000 </r>
       <r>    3.3516    0.0000 </r>
       <r>    3.4129    0.0000 </r>
       <r>    3.4959    0.0000 </r>
       <r>    3.9260    0.0000 </r>
       <r>    4.3170    0.0000 </r>
       <r>    4.3739    0.0000 </r>
       <r>    4.3783    0.0000 </r>
       <r>    4.4020    0.0000 </r>
      </set>
      <set comment="kpoint 4">
       <r>  -18.9760    1.0000 </r>
       <r>  -18.4839    1.0000 </r>
       <r>  -15.0229    1.0000 </r>
       <r>  -14.8711    1.0000 </r>
       <r>  -12.5250    1.0000 </r>
       <r>  -12.5153    1.0000 </r>
       <r>  -11.2689    1.0000 </r>
       <r>  -10.9458    1.0000 </r>
       <r>  -10.5691    1.0000 </r>
       <r>   -9.3982    1.0000 </r>
       <r>   -8.9182    1.0000 </r>
       <r>   -8.6680    1.0000 </r>
       <r>   -7.3019    1.0000 </r>
       <r>   -7.2780    1.0000 </r>
       <r>   -7.2707    1.0000 </r>
       <r>   -6.7919    1.0000 </r>
       <r>   -5.9859    1.0000 </r>
       <r>   -5.9637    1.0000 </r>
       <r>   -5.9460    1.0000 </r>
       <r>   -5.0300    1.0000 </r>
       <r>   -4.8616    1.0000 </r>
       <r>   -4.6421    0.7911 </r>
       <r>   -2.2292    0.0000 </r>
       <r>   -1.7978    0.0000 </r>
       <r>   -0.5843    0.0000 </r>
       <r>   -0.3919    0.0000 </r>
       <r>    0.0212    0.0000 </r>
       <r>    0.0882    0.0000 </r>
       <r>    1.0605    0.0000 </r>
       <r>    1.1850    0.0000 </r>
       <r>    1.5366    0.0000 </r>
       <r>    1.6786    0.0000 </r>
       <r>    1.9030    0.0000 </r>
       <r>    2.1303    0.0000 </r>
       <r>    2.1726    0.0000 </r>
       <r>    2.6806    0.0000 </r>
       <r>    2.6851    0.0000 </r>
       <r>    2.9253    0.0000 </r>
       <r>    2.9472    0.0000 </r>
       <r>    3.0735    0.0000 </r>
       <r>    3.2139    0.0000 </r>
       <r>    3.4570    0.0000 </r>
       <r>    3.5207    0.0000 </r>
       <r>    3.9570    0.0000 </r>
       <r>    3.9668    0.0000 </r>
       <r>    3.9749    0.0000 </r>
       <r>    4.1259    0.0000 </r>
       <r>    4.4305    0.0000 </r>
      </set>
      <set comment="kpoint 5">
       <r>  -18.8270    1.0000 </r>
       <r>  -18.6582    1.0000 </r>
       <r>  -14.9547    1.0000 </r>
       <r>  -14.8994    1.0000 </r>
       <r>  -12.6286    1.0000 </r>
       <r>  -12.6131    1.0000 </r>
       <r>  -11.0610    1.0000 </r>
       <r>  -10.8217    1.0000 </r>
       <r>  -10.4300    1.0000 </r>
       <r>   -9.8351    1.0000 </r>
       <r>   -8.6052    1.0000 </r>
       <r>   -8.3638    1.0000 </r>
       <r>   -7.4855    1.0000 </r>
       <r>   -7.2191    1.0000 </r>
       <r>   -7.2181    1.0000 </r>
       <r>   -7.2046    1.0000 </r>
       <r>   -6.0730    1.0000 </r>
       <r>   -6.0695    1.0000 </r>
       <r>   -5.7233    1.0000 </r>
       <r>   -5.3931    1.0000 </r>
       <r>   -4.7847    1.0000 </r>
       <r>   -4.7078    0.9962 </r>
       <r>   -2.0845    0.0000 </r>
       <r>   -1.9359    0.0000 </r>
       <r>   -0.2635    0.0000 </r>
       <r>   -0.0864    0.0000 </r>
       <r>    0.0779    0.0000 </r>
       <r>    0.6728    0.0000 </r>
       <r>    0.7408    0.0000 </r>
       <r>    1.3160    0.0000 </r>
       <r>    1.3759    0.0000 </r>
       <r>    1.4246    0.0000 </r>
       <r>    1.9991    0.0000 </r>
       <r>    2.0823    0.0000 </r>
       <r>    2.3605    0.0000 </r>
       <r>    2.4654    0.0000 </r>
       <r>    2.4866    0.0000 </r>
       <r>    2.8409    0.0000 </r>
       <r>    2.9303    0.0000 </r>
       <r>    3.0170    0.0000 </r>
       <r>    3.1963    0.0000 </r>
       <r>    3.4120    0.0000 </r>
       <r>    3.4559    0.0000 </r>
       <r>    3.7805    0.0000 </r>
       <r>    3.8181    0.0000 </r>
       <r>    3.9222    0.0000 </r>
       <r>    4.4267    0.0000 </r>
       <r>    4.5519    0.0000 </r>
      </set>
      <set comment="kpoint 6">
       <r>  -19.2097    1.0000 </r>
       <r>  -18.1458    1.0000 </r>
       <r>  -15.1462    1.0000 </r>
       <r>  -14.8576    1.0000 </r>
       <r>  -12.6387    1.0000 </r>
       <r>  -11.7636    1.0000 </r>
       <r>  -11.5831    1.0000 </r>
       <r>  -11.0367    1.0000 </r>
       <r>  -10.6721    1.0000 </r>
       <r>  -10.0816    1.0000 </r>
       <r>   -9.8509    1.0000 </r>
       <r>   -7.7349    1.0000 </r>
       <r>   -7.5399    1.0000 </r>
       <r>   -7.4106    1.0000 </r>
       <r>   -6.7103    1.0000 </r>
       <r>   -6.5267    1.0000 </r>
       <r>   -6.1256    1.0000 </r>
       <r>   -5.6885    1.0000 </r>
       <r>   -5.5001    1.0000 </r>
       <r>   -5.0059    1.0000 </r>
       <r>   -4.5532    0.0442 </r>
       <r>   -3.9838    0.0000 </r>
       <r>   -2.4798    0.0000 </r>
       <r>   -1.5729    0.0000 </r>
       <r>   -1.4841    0.0000 </r>
       <r>   -1.2955    0.0000 </r>
       <r>   -0.5652    0.0000 </r>
       <r>   -0.0243    0.0000 </r>
       <r>    0.6032    0.0000 </r>
       <r>    1.1676    0.0000 </r>
       <r>    1.3714    0.0000 </r>
       <r>    1.6038    0.0000 </r>
       <r>    1.7028    0.0000 </r>
       <r>    2.1569    0.0000 </r>
       <r>    2.3307    0.0000 </r>
       <r>    2.5595    0.0000 </r>
       <r>    2.5720    0.0000 </r>
       <r>    2.9061    0.0000 </r>
       <r>    2.9911    0.0000 </r>
       <r>    3.0680    0.0000 </r>
       <r>    3.7399    0.0000 </r>
       <r>    3.8428    0.0000 </r>
       <r>    4.0744    0.0000 </r>
       <r>    4.2080    0.0000 </r>
       <r>    4.2452    0.0000 </r>
       <r>    4.5562    0.0000 </r>
       <r>    4.5896    0.0000 </r>
       <r>    4.6605    0.0000 </r>
      </set>
      <set comment="kpoint 7">
       <r>  -19.1679    1.0000 </r>
       <r>  -18.2117    1.0000 </r>
       <r>  -15.1503    1.0000 </r>
       <r>  -14.8396    1.0000 </r>
       <r>  -12.6097    1.0000 </r>
       <r>  -11.8697    1.0000 </r>
       <r>  -11.5260    1.0000 </r>
       <r>  -11.2832    1.0000 </r>
       <r>  -10.2888    1.0000 </r>
       <r>  -10.1780    1.0000 </r>
       <r>   -9.5108    1.0000 </r>
       <r>   -8.0272    1.0000 </r>
       <r>   -7.6068    1.0000 </r>
       <r>   -7.2679    1.0000 </r>
       <r>   -6.7711    1.0000 </r>
       <r>   -6.5489    1.0000 </r>
       <r>   -6.2004    1.0000 </r>
       <r>   -5.8814    1.0000 </r>
       <r>   -5.4512    1.0000 </r>
       <r>   -4.9788    1.0000 </r>
       <r>   -4.5675    0.0968 </r>
       <r>   -4.1876    0.0000 </r>
       <r>   -2.4368    0.0000 </r>
       <r>   -1.6178    0.0000 </r>
       <r>   -1.3836    0.0000 </r>
       <r>   -1.0106    0.0000 </r>
       <r>   -0.5748    0.0000 </r>
       <r>    0.1646    0.0000 </r>
       <r>    0.7695    0.0000 </r>
       <r>    1.1518    0.0000 </r>
       <r>    1.3498    0.0000 </r>
       <r>    1.6927    0.0000 </r>
       <r>    1.7717    0.0000 </r>
       <r>    1.9046    0.0000 </r>
       <r>    2.4062    0.0000 </r>
       <r>    2.6237    0.0000 </r>
       <r>    2.7419    0.0000 </r>
       <r>    3.1053    0.0000 </r>
       <r>    3.1234    0.0000 </r>
       <r>    3.2664    0.0000 </r>
       <r>    3.3045    0.0000 </r>
       <r>    3.6644    0.0000 </r>
       <r>    3.8058    0.0000 </r>
       <r>    4.1871    0.0000 </r>
       <r>    4.3079    0.0000 </r>
       <r>    4.3317    0.0000 </r>
       <r>    4.4658    0.0000 </r>
       <r>    4.5253    0.0000 </r>
      </set>
      <set comment="kpoint 8">
       <r>  -19.0861    1.0000 </r>
       <r>  -18.3319    1.0000 </r>
       <r>  -15.1342    1.0000 </r>
       <r>  -14.8332    1.0000 </r>
       <r>  -12.6244    1.0000 </r>
       <r>  -12.0111    1.0000 </r>
       <r>  -11.4140    1.0000 </r>
       <r>  -11.3165    1.0000 </r>
       <r>  -10.3530    1.0000 </r>
       <r>   -9.8061    1.0000 </r>
       <r>   -9.0666    1.0000 </r>
       <r>   -8.4908    1.0000 </r>
       <r>   -7.6018    1.0000 </r>
       <r>   -7.1558    1.0000 </r>
       <r>   -7.0242    1.0000 </r>
       <r>   -6.4385    1.0000 </r>
       <r>   -6.3678    1.0000 </r>
       <r>   -6.0540    1.0000 </r>
       <r>   -5.5101    1.0000 </r>
       <r>   -4.9311    1.0000 </r>
       <r>   -4.5984    0.3358 </r>
       <r>   -4.5461    0.0284 </r>
       <r>   -2.3506    0.0000 </r>
       <r>   -1.6983    0.0000 </r>
       <r>   -1.0667    0.0000 </r>
       <r>   -0.5953    0.0000 </r>
       <r>   -0.5183    0.0000 </r>
       <r>    0.3313    0.0000 </r>
       <r>    1.0445    0.0000 </r>
       <r>    1.0711    0.0000 </r>
       <r>    1.4525    0.0000 </r>
       <r>    1.6698    0.0000 </r>
       <r>    1.8421    0.0000 </r>
       <r>    1.9903    0.0000 </r>
       <r>    2.5717    0.0000 </r>
       <r>    2.6085    0.0000 </r>
       <r>    2.7710    0.0000 </r>
       <r>    2.7742    0.0000 </r>
       <r>    3.1836    0.0000 </r>
       <r>    3.3119    0.0000 </r>
       <r>    3.3698    0.0000 </r>
       <r>    3.4989    0.0000 </r>
       <r>    3.5309    0.0000 </r>
       <r>    3.9875    0.0000 </r>
       <r>    4.0372    0.0000 </r>
       <r>    4.3786    0.0000 </r>
       <r>    4.3881    0.0000 </r>
       <r>    4.4443    0.0000 </r>
      </set>
      <set comment="kpoint 9">
       <r>  -18.9686    1.0000 </r>
       <r>  -18.4873    1.0000 </r>
       <r>  -15.0850    1.0000 </r>
       <r>  -14.8613    1.0000 </r>
       <r>  -12.6466    1.0000 </r>
       <r>  -12.2397    1.0000 </r>
       <r>  -11.2522    1.0000 </r>
       <r>  -10.9973    1.0000 </r>
       <r>  -10.5766    1.0000 </r>
       <r>   -9.4397    1.0000 </r>
       <r>   -9.0279    1.0000 </r>
       <r>   -8.5152    1.0000 </r>
       <r>   -7.5255    1.0000 </r>
       <r>   -7.3303    1.0000 </r>
       <r>   -7.1438    1.0000 </r>
       <r>   -6.7164    1.0000 </r>
       <r>   -6.1699    1.0000 </r>
       <r>   -6.1114    1.0000 </r>
       <r>   -5.6582    1.0000 </r>
       <r>   -5.0121    1.0000 </r>
       <r>   -4.8436    1.0000 </r>
       <r>   -4.6435    0.8028 </r>
       <r>   -2.2293    0.0000 </r>
       <r>   -1.8092    0.0000 </r>
       <r>   -0.5553    0.0000 </r>
       <r>   -0.3808    0.0000 </r>
       <r>   -0.0996    0.0000 </r>
       <r>    0.2719    0.0000 </r>
       <r>    1.1164    0.0000 </r>
       <r>    1.2456    0.0000 </r>
       <r>    1.4369    0.0000 </r>
       <r>    1.7779    0.0000 </r>
       <r>    1.9001    0.0000 </r>
       <r>    1.9993    0.0000 </r>
       <r>    2.2335    0.0000 </r>
       <r>    2.6681    0.0000 </r>
       <r>    2.7016    0.0000 </r>
       <r>    2.7974    0.0000 </r>
       <r>    2.9445    0.0000 </r>
       <r>    3.1448    0.0000 </r>
       <r>    3.2300    0.0000 </r>
       <r>    3.3915    0.0000 </r>
       <r>    3.6489    0.0000 </r>
       <r>    3.9060    0.0000 </r>
       <r>    3.9089    0.0000 </r>
       <r>    4.1478    0.0000 </r>
       <r>    4.2380    0.0000 </r>
       <r>    4.4035    0.0000 </r>
      </set>
      <set comment="kpoint 10">
       <r>  -18.8221    1.0000 </r>
       <r>  -18.6569    1.0000 </r>
       <r>  -15.0088    1.0000 </r>
       <r>  -14.9258    1.0000 </r>
       <r>  -12.5970    1.0000 </r>
       <r>  -12.4548    1.0000 </r>
       <r>  -11.0490    1.0000 </r>
       <r>  -10.8174    1.0000 </r>
       <r>  -10.4852    1.0000 </r>
       <r>   -9.8941    1.0000 </r>
       <r>   -8.6838    1.0000 </r>
       <r>   -8.3661    1.0000 </r>
       <r>   -7.4237    1.0000 </r>
       <r>   -7.3954    1.0000 </r>
       <r>   -7.2469    1.0000 </r>
       <r>   -7.1084    1.0000 </r>
       <r>   -6.0217    1.0000 </r>
       <r>   -5.8480    1.0000 </r>
       <r>   -5.8474    1.0000 </r>
       <r>   -5.4498    1.0000 </r>
       <r>   -4.7793    1.0000 </r>
       <r>   -4.7066    0.9958 </r>
       <r>   -2.0882    0.0000 </r>
       <r>   -1.9432    0.0000 </r>
       <r>   -0.1786    0.0000 </r>
       <r>    0.0579    0.0000 </r>
       <r>    0.0683    0.0000 </r>
       <r>    0.3624    0.0000 </r>
       <r>    1.0133    0.0000 </r>
       <r>    1.2327    0.0000 </r>
       <r>    1.2847    0.0000 </r>
       <r>    1.3383    0.0000 </r>
       <r>    2.0779    0.0000 </r>
       <r>    2.1244    0.0000 </r>
       <r>    2.4042    0.0000 </r>
       <r>    2.5106    0.0000 </r>
       <r>    2.5611    0.0000 </r>
       <r>    2.8806    0.0000 </r>
       <r>    2.9817    0.0000 </r>
       <r>    2.9942    0.0000 </r>
       <r>    3.1798    0.0000 </r>
       <r>    3.4745    0.0000 </r>
       <r>    3.4913    0.0000 </r>
       <r>    3.6036    0.0000 </r>
       <r>    3.8001    0.0000 </r>
       <r>    3.8514    0.0000 </r>
       <r>    4.3763    0.0000 </r>
       <r>    4.4109    0.0000 </r>
      </set>
      <set comment="kpoint 11">
       <r>  -19.1819    1.0000 </r>
       <r>  -18.1947    1.0000 </r>
       <r>  -15.1385    1.0000 </r>
       <r>  -14.7733    1.0000 </r>
       <r>  -12.9186    1.0000 </r>
       <r>  -11.9892    1.0000 </r>
       <r>  -11.5219    1.0000 </r>
       <r>  -10.6831    1.0000 </r>
       <r>  -10.3542    1.0000 </r>
       <r>  -10.2269    1.0000 </r>
       <r>   -9.5269    1.0000 </r>
       <r>   -7.8764    1.0000 </r>
       <r>   -7.4722    1.0000 </r>
       <r>   -7.2520    1.0000 </r>
       <r>   -7.1964    1.0000 </r>
       <r>   -6.6143    1.0000 </r>
       <r>   -6.4443    1.0000 </r>
       <r>   -5.9234    1.0000 </r>
       <r>   -5.6216    1.0000 </r>
       <r>   -4.9908    1.0000 </r>
       <r>   -4.5602    0.0659 </r>
       <r>   -3.4449    0.0000 </r>
       <r>   -2.4115    0.0000 </r>
       <r>   -1.6483    0.0000 </r>
       <r>   -1.3987    0.0000 </r>
       <r>   -0.9050    0.0000 </r>
       <r>   -0.8862    0.0000 </r>
       <r>   -0.0579    0.0000 </r>
       <r>    0.8836    0.0000 </r>
       <r>    1.2618    0.0000 </r>
       <r>    1.7337    0.0000 </r>
       <r>    1.7607    0.0000 </r>
       <r>    1.8002    0.0000 </r>
       <r>    2.1062    0.0000 </r>
       <r>    2.3699    0.0000 </r>
       <r>    2.6261    0.0000 </r>
       <r>    2.6808    0.0000 </r>
       <r>    3.0034    0.0000 </r>
       <r>    3.0535    0.0000 </r>
       <r>    3.0994    0.0000 </r>
       <r>    3.2433    0.0000 </r>
       <r>    3.3405    0.0000 </r>
       <r>    3.7148    0.0000 </r>
       <r>    3.8319    0.0000 </r>
       <r>    4.1258    0.0000 </r>
       <r>    4.1419    0.0000 </r>
       <r>    4.3389    0.0000 </r>
       <r>    4.6610    0.0000 </r>
      </set>
      <set comment="kpoint 12">
       <r>  -19.1413    1.0000 </r>
       <r>  -18.2513    1.0000 </r>
       <r>  -15.1830    1.0000 </r>
       <r>  -14.7634    1.0000 </r>
       <r>  -12.8560    1.0000 </r>
       <r>  -11.9126    1.0000 </r>
       <r>  -11.4668    1.0000 </r>
       <r>  -11.0029    1.0000 </r>
       <r>  -10.2923    1.0000 </r>
       <r>  -10.0974    1.0000 </r>
       <r>   -9.2230    1.0000 </r>
       <r>   -8.1512    1.0000 </r>
       <r>   -7.6380    1.0000 </r>
       <r>   -7.1748    1.0000 </r>
       <r>   -7.0375    1.0000 </r>
       <r>   -6.7988    1.0000 </r>
       <r>   -6.3769    1.0000 </r>
       <r>   -6.1322    1.0000 </r>
       <r>   -5.4240    1.0000 </r>
       <r>   -4.9638    1.0000 </r>
       <r>   -4.5770    0.1514 </r>
       <r>   -3.8062    0.0000 </r>
       <r>   -2.3861    0.0000 </r>
       <r>   -1.6789    0.0000 </r>
       <r>   -1.2561    0.0000 </r>
       <r>   -0.8023    0.0000 </r>
       <r>   -0.7454    0.0000 </r>
       <r>    0.1932    0.0000 </r>
       <r>    1.0851    0.0000 </r>
       <r>    1.2455    0.0000 </r>
       <r>    1.6176    0.0000 </r>
       <r>    1.7442    0.0000 </r>
       <r>    1.8544    0.0000 </r>
       <r>    2.0105    0.0000 </r>
       <r>    2.3284    0.0000 </r>
       <r>    2.5789    0.0000 </r>
       <r>    2.6861    0.0000 </r>
       <r>    2.7911    0.0000 </r>
       <r>    3.1523    0.0000 </r>
       <r>    3.2564    0.0000 </r>
       <r>    3.3965    0.0000 </r>
       <r>    3.6020    0.0000 </r>
       <r>    3.6683    0.0000 </r>
       <r>    3.8161    0.0000 </r>
       <r>    4.0993    0.0000 </r>
       <r>    4.1959    0.0000 </r>
       <r>    4.2852    0.0000 </r>
       <r>    4.5584    0.0000 </r>
      </set>
      <set comment="kpoint 13">
       <r>  -19.0622    1.0000 </r>
       <r>  -18.3568    1.0000 </r>
       <r>  -15.2113    1.0000 </r>
       <r>  -14.7984    1.0000 </r>
       <r>  -12.7486    1.0000 </r>
       <r>  -11.7556    1.0000 </r>
       <r>  -11.3596    1.0000 </r>
       <r>  -11.2981    1.0000 </r>
       <r>  -10.4208    1.0000 </r>
       <r>   -9.7340    1.0000 </r>
       <r>   -9.0108    1.0000 </r>
       <r>   -8.4265    1.0000 </r>
       <r>   -7.7334    1.0000 </r>
       <r>   -7.1764    1.0000 </r>
       <r>   -7.0516    1.0000 </r>
       <r>   -6.8909    1.0000 </r>
       <r>   -6.3861    1.0000 </r>
       <r>   -6.1529    1.0000 </r>
       <r>   -5.3350    1.0000 </r>
       <r>   -4.9170    1.0000 </r>
       <r>   -4.6120    0.4839 </r>
       <r>   -4.3646    0.0000 </r>
       <r>   -2.3261    0.0000 </r>
       <r>   -1.7466    0.0000 </r>
       <r>   -0.9448    0.0000 </r>
       <r>   -0.5869    0.0000 </r>
       <r>   -0.5149    0.0000 </r>
       <r>    0.4986    0.0000 </r>
       <r>    1.0874    0.0000 </r>
       <r>    1.3932    0.0000 </r>
       <r>    1.4898    0.0000 </r>
       <r>    1.7265    0.0000 </r>
       <r>    1.9130    0.0000 </r>
       <r>    2.1529    0.0000 </r>
       <r>    2.2006    0.0000 </r>
       <r>    2.3138    0.0000 </r>
       <r>    2.7823    0.0000 </r>
       <r>    2.8253    0.0000 </r>
       <r>    3.1853    0.0000 </r>
       <r>    3.2685    0.0000 </r>
       <r>    3.3794    0.0000 </r>
       <r>    3.5441    0.0000 </r>
       <r>    3.7519    0.0000 </r>
       <r>    3.8561    0.0000 </r>
       <r>    4.0478    0.0000 </r>
       <r>    4.1579    0.0000 </r>
       <r>    4.3265    0.0000 </r>
       <r>    4.4079    0.0000 </r>
      </set>
      <set comment="kpoint 14">
       <r>  -18.9490    1.0000 </r>
       <r>  -18.4970    1.0000 </r>
       <r>  -15.1899    1.0000 </r>
       <r>  -14.8889    1.0000 </r>
       <r>  -12.5987    1.0000 </r>
       <r>  -11.8629    1.0000 </r>
       <r>  -11.2061    1.0000 </r>
       <r>  -11.1452    1.0000 </r>
       <r>  -10.6001    1.0000 </r>
       <r>   -9.5565    1.0000 </r>
       <r>   -9.1479    1.0000 </r>
       <r>   -8.3116    1.0000 </r>
       <r>   -7.7294    1.0000 </r>
       <r>   -7.3390    1.0000 </r>
       <r>   -7.2384    1.0000 </r>
       <r>   -6.7598    1.0000 </r>
       <r>   -6.4141    1.0000 </r>
       <r>   -5.9798    1.0000 </r>
       <r>   -5.3803    1.0000 </r>
       <r>   -5.0339    1.0000 </r>
       <r>   -4.8200    1.0000 </r>
       <r>   -4.6455    0.8180 </r>
       <r>   -2.2269    0.0000 </r>
       <r>   -1.8455    0.0000 </r>
       <r>   -0.4750    0.0000 </r>
       <r>   -0.2739    0.0000 </r>
       <r>   -0.2414    0.0000 </r>
       <r>    0.5887    0.0000 </r>
       <r>    0.9689    0.0000 </r>
       <r>    1.3258    0.0000 </r>
       <r>    1.4010    0.0000 </r>
       <r>    1.7493    0.0000 </r>
       <r>    1.9407    0.0000 </r>
       <r>    2.0619    0.0000 </r>
       <r>    2.3898    0.0000 </r>
       <r>    2.4251    0.0000 </r>
       <r>    2.7746    0.0000 </r>
       <r>    2.7911    0.0000 </r>
       <r>    2.9309    0.0000 </r>
       <r>    3.3044    0.0000 </r>
       <r>    3.3067    0.0000 </r>
       <r>    3.4902    0.0000 </r>
       <r>    3.6804    0.0000 </r>
       <r>    3.7151    0.0000 </r>
       <r>    3.8429    0.0000 </r>
       <r>    4.2515    0.0000 </r>
       <r>    4.2728    0.0000 </r>
       <r>    4.3101    0.0000 </r>
      </set>
      <set comment="kpoint 15">
       <r>  -18.8093    1.0000 </r>
       <r>  -18.6537    1.0000 </r>
       <r>  -15.1165    1.0000 </r>
       <r>  -15.0068    1.0000 </r>
       <r>  -12.3968    1.0000 </r>
       <r>  -12.1433    1.0000 </r>
       <r>  -11.0168    1.0000 </r>
       <r>  -10.8075    1.0000 </r>
       <r>  -10.6553    1.0000 </r>
       <r>  -10.0775    1.0000 </r>
       <r>   -8.7741    1.0000 </r>
       <r>   -8.4140    1.0000 </r>
       <r>   -7.6299    1.0000 </r>
       <r>   -7.4550    1.0000 </r>
       <r>   -7.2217    1.0000 </r>
       <r>   -6.9283    1.0000 </r>
       <r>   -6.1134    1.0000 </r>
       <r>   -5.7491    1.0000 </r>
       <r>   -5.6115    1.0000 </r>
       <r>   -5.5335    1.0000 </r>
       <r>   -4.7677    1.0000 </r>
       <r>   -4.7035    0.9946 </r>
       <r>   -2.1006    0.0000 </r>
       <r>   -1.9676    0.0000 </r>
       <r>    0.0273    0.0000 </r>
       <r>    0.0557    0.0000 </r>
       <r>    0.0596    0.0000 </r>
       <r>    0.3564    0.0000 </r>
       <r>    1.0513    0.0000 </r>
       <r>    1.0581    0.0000 </r>
       <r>    1.1832    0.0000 </r>
       <r>    1.2829    0.0000 </r>
       <r>    2.2414    0.0000 </r>
       <r>    2.2463    0.0000 </r>
       <r>    2.4780    0.0000 </r>
       <r>    2.5937    0.0000 </r>
       <r>    2.7169    0.0000 </r>
       <r>    2.7908    0.0000 </r>
       <r>    2.9058    0.0000 </r>
       <r>    3.1592    0.0000 </r>
       <r>    3.2065    0.0000 </r>
       <r>    3.5056    0.0000 </r>
       <r>    3.5782    0.0000 </r>
       <r>    3.6081    0.0000 </r>
       <r>    3.7645    0.0000 </r>
       <r>    3.8779    0.0000 </r>
       <r>    4.1760    0.0000 </r>
       <r>    4.3218    0.0000 </r>
      </set>
      <set comment="kpoint 16">
       <r>  -19.1469    1.0000 </r>
       <r>  -18.2529    1.0000 </r>
       <r>  -15.1257    1.0000 </r>
       <r>  -14.6660    1.0000 </r>
       <r>  -13.1898    1.0000 </r>
       <r>  -12.1737    1.0000 </r>
       <r>  -11.4374    1.0000 </r>
       <r>  -10.3973    1.0000 </r>
       <r>  -10.3360    1.0000 </r>
       <r>   -9.9434    1.0000 </r>
       <r>   -9.0809    1.0000 </r>
       <r>   -8.0495    1.0000 </r>
       <r>   -7.8879    1.0000 </r>
       <r>   -7.3574    1.0000 </r>
       <r>   -7.1152    1.0000 </r>
       <r>   -6.9325    1.0000 </r>
       <r>   -6.4317    1.0000 </r>
       <r>   -6.1651    1.0000 </r>
       <r>   -5.8394    1.0000 </r>
       <r>   -4.9536    1.0000 </r>
       <r>   -4.5883    0.2386 </r>
       <r>   -2.9799    0.0000 </r>
       <r>   -2.3114    0.0000 </r>
       <r>   -1.7558    0.0000 </r>
       <r>   -1.3096    0.0000 </r>
       <r>   -1.1280    0.0000 </r>
       <r>   -0.3002    0.0000 </r>
       <r>   -0.1133    0.0000 </r>
       <r>    1.2687    0.0000 </r>
       <r>    1.3641    0.0000 </r>
       <r>    1.8512    0.0000 </r>
       <r>    2.0092    0.0000 </r>
       <r>    2.0149    0.0000 </r>
       <r>    2.1768    0.0000 </r>
       <r>    2.1879    0.0000 </r>
       <r>    2.4608    0.0000 </r>
       <r>    2.6964    0.0000 </r>
       <r>    2.7414    0.0000 </r>
       <r>    2.8770    0.0000 </r>
       <r>    2.9284    0.0000 </r>
       <r>    3.1903    0.0000 </r>
       <r>    3.3588    0.0000 </r>
       <r>    3.4925    0.0000 </r>
       <r>    3.5857    0.0000 </r>
       <r>    3.8666    0.0000 </r>
       <r>    3.9474    0.0000 </r>
       <r>    3.9721    0.0000 </r>
       <r>    4.4905    0.0000 </r>
      </set>
      <set comment="kpoint 17">
       <r>  -19.1080    1.0000 </r>
       <r>  -18.2993    1.0000 </r>
       <r>  -15.1982    1.0000 </r>
       <r>  -14.7022    1.0000 </r>
       <r>  -13.0278    1.0000 </r>
       <r>  -12.0643    1.0000 </r>
       <r>  -11.3855    1.0000 </r>
       <r>  -10.6113    1.0000 </r>
       <r>  -10.4337    1.0000 </r>
       <r>   -9.7858    1.0000 </r>
       <r>   -8.9936    1.0000 </r>
       <r>   -8.2083    1.0000 </r>
       <r>   -7.7645    1.0000 </r>
       <r>   -7.5840    1.0000 </r>
       <r>   -7.1197    1.0000 </r>
       <r>   -6.9304    1.0000 </r>
       <r>   -6.4352    1.0000 </r>
       <r>   -6.2125    1.0000 </r>
       <r>   -5.5412    1.0000 </r>
       <r>   -4.9308    1.0000 </r>
       <r>   -4.6016    0.3693 </r>
       <r>   -3.5528    0.0000 </r>
       <r>   -2.2992    0.0000 </r>
       <r>   -1.7757    0.0000 </r>
       <r>   -1.1570    0.0000 </r>
       <r>   -0.7424    0.0000 </r>
       <r>   -0.3571    0.0000 </r>
       <r>    0.1364    0.0000 </r>
       <r>    1.2692    0.0000 </r>
       <r>    1.4819    0.0000 </r>
       <r>    1.7493    0.0000 </r>
       <r>    1.7823    0.0000 </r>
       <r>    1.9047    0.0000 </r>
       <r>    2.1933    0.0000 </r>
       <r>    2.2322    0.0000 </r>
       <r>    2.3287    0.0000 </r>
       <r>    2.6804    0.0000 </r>
       <r>    2.7769    0.0000 </r>
       <r>    2.9674    0.0000 </r>
       <r>    3.0515    0.0000 </r>
       <r>    3.3521    0.0000 </r>
       <r>    3.4644    0.0000 </r>
       <r>    3.6331    0.0000 </r>
       <r>    3.7758    0.0000 </r>
       <r>    3.8784    0.0000 </r>
       <r>    3.9608    0.0000 </r>
       <r>    4.0977    0.0000 </r>
       <r>    4.4227    0.0000 </r>
      </set>
      <set comment="kpoint 18">
       <r>  -19.0323    1.0000 </r>
       <r>  -18.3880    1.0000 </r>
       <r>  -15.2637    1.0000 </r>
       <r>  -14.8059    1.0000 </r>
       <r>  -12.7453    1.0000 </r>
       <r>  -11.8416    1.0000 </r>
       <r>  -11.2852    1.0000 </r>
       <r>  -10.9650    1.0000 </r>
       <r>  -10.5126    1.0000 </r>
       <r>   -9.5642    1.0000 </r>
       <r>   -9.1984    1.0000 </r>
       <r>   -8.1766    1.0000 </r>
       <r>   -7.7685    1.0000 </r>
       <r>   -7.5230    1.0000 </r>
       <r>   -7.2162    1.0000 </r>
       <r>   -7.1698    1.0000 </r>
       <r>   -6.4005    1.0000 </r>
       <r>   -5.9781    1.0000 </r>
       <r>   -5.3144    1.0000 </r>
       <r>   -4.8897    1.0000 </r>
       <r>   -4.6358    0.7365 </r>
       <r>   -4.2954    0.0000 </r>
       <r>   -2.2693    0.0000 </r>
       <r>   -1.8259    0.0000 </r>
       <r>   -0.8502    0.0000 </r>
       <r>   -0.3654    0.0000 </r>
       <r>   -0.3294    0.0000 </r>
       <r>    0.4785    0.0000 </r>
       <r>    1.0566    0.0000 </r>
       <r>    1.3338    0.0000 </r>
       <r>    1.5635    0.0000 </r>
       <r>    1.8072    0.0000 </r>
       <r>    1.9603    0.0000 </r>
       <r>    2.1276    0.0000 </r>
       <r>    2.4100    0.0000 </r>
       <r>    2.4347    0.0000 </r>
       <r>    2.7944    0.0000 </r>
       <r>    2.7975    0.0000 </r>
       <r>    3.0186    0.0000 </r>
       <r>    3.2139    0.0000 </r>
       <r>    3.2584    0.0000 </r>
       <r>    3.5625    0.0000 </r>
       <r>    3.7037    0.0000 </r>
       <r>    3.7170    0.0000 </r>
       <r>    3.8182    0.0000 </r>
       <r>    4.1386    0.0000 </r>
       <r>    4.2241    0.0000 </r>
       <r>    4.2508    0.0000 </r>
      </set>
      <set comment="kpoint 19">
       <r>  -18.9250    1.0000 </r>
       <r>  -18.5099    1.0000 </r>
       <r>  -15.2732    1.0000 </r>
       <r>  -14.9531    1.0000 </r>
       <r>  -12.4143    1.0000 </r>
       <r>  -11.5611    1.0000 </r>
       <r>  -11.2507    1.0000 </r>
       <r>  -11.1443    1.0000 </r>
       <r>  -10.6376    1.0000 </r>
       <r>   -9.8182    1.0000 </r>
       <r>   -9.1246    1.0000 </r>
       <r>   -8.1987    1.0000 </r>
       <r>   -7.8483    1.0000 </r>
       <r>   -7.4429    1.0000 </r>
       <r>   -7.2180    1.0000 </r>
       <r>   -7.1375    1.0000 </r>
       <r>   -6.3962    1.0000 </r>
       <r>   -5.6912    1.0000 </r>
       <r>   -5.2194    1.0000 </r>
       <r>   -5.1121    1.0000 </r>
       <r>   -4.8130    1.0000 </r>
       <r>   -4.6449    0.8135 </r>
       <r>   -2.2104    0.0000 </r>
       <r>   -1.9074    0.0000 </r>
       <r>   -0.4431    0.0000 </r>
       <r>   -0.2524    0.0000 </r>
       <r>    0.0180    0.0000 </r>
       <r>    0.7243    0.0000 </r>
       <r>    0.8246    0.0000 </r>
       <r>    0.9687    0.0000 </r>
       <r>    1.3128    0.0000 </r>
       <r>    2.0664    0.0000 </r>
       <r>    2.1623    0.0000 </r>
       <r>    2.1898    0.0000 </r>
       <r>    2.2189    0.0000 </r>
       <r>    2.6454    0.0000 </r>
       <r>    2.7714    0.0000 </r>
       <r>    2.8176    0.0000 </r>
       <r>    2.9896    0.0000 </r>
       <r>    3.3951    0.0000 </r>
       <r>    3.4296    0.0000 </r>
       <r>    3.4408    0.0000 </r>
       <r>    3.5727    0.0000 </r>
       <r>    3.6921    0.0000 </r>
       <r>    3.8600    0.0000 </r>
       <r>    3.9639    0.0000 </r>
       <r>    4.0506    0.0000 </r>
       <r>    4.2114    0.0000 </r>
      </set>
      <set comment="kpoint 20">
       <r>  -18.7939    1.0000 </r>
       <r>  -18.6506    1.0000 </r>
       <r>  -15.2156    1.0000 </r>
       <r>  -15.1012    1.0000 </r>
       <r>  -12.0804    1.0000 </r>
       <r>  -11.7514    1.0000 </r>
       <r>  -10.9759    1.0000 </r>
       <r>  -10.9287    1.0000 </r>
       <r>  -10.7991    1.0000 </r>
       <r>  -10.3790    1.0000 </r>
       <r>   -8.7875    1.0000 </r>
       <r>   -8.4506    1.0000 </r>
       <r>   -7.8109    1.0000 </r>
       <r>   -7.6679    1.0000 </r>
       <r>   -6.9841    1.0000 </r>
       <r>   -6.8705    1.0000 </r>
       <r>   -6.3109    1.0000 </r>
       <r>   -5.8048    1.0000 </r>
       <r>   -5.4404    1.0000 </r>
       <r>   -5.2698    1.0000 </r>
       <r>   -4.7572    1.0000 </r>
       <r>   -4.6992    0.9923 </r>
       <r>   -2.1192    0.0000 </r>
       <r>   -2.0108    0.0000 </r>
       <r>   -0.1530    0.0000 </r>
       <r>   -0.0491    0.0000 </r>
       <r>    0.3153    0.0000 </r>
       <r>    0.5759    0.0000 </r>
       <r>    0.8925    0.0000 </r>
       <r>    0.9034    0.0000 </r>
       <r>    1.0672    0.0000 </r>
       <r>    1.4221    0.0000 </r>
       <r>    2.3968    0.0000 </r>
       <r>    2.4142    0.0000 </r>
       <r>    2.4871    0.0000 </r>
       <r>    2.6467    0.0000 </r>
       <r>    2.6769    0.0000 </r>
       <r>    2.9395    0.0000 </r>
       <r>    2.9958    0.0000 </r>
       <r>    3.3134    0.0000 </r>
       <r>    3.4028    0.0000 </r>
       <r>    3.4608    0.0000 </r>
       <r>    3.6302    0.0000 </r>
       <r>    3.7206    0.0000 </r>
       <r>    3.7270    0.0000 </r>
       <r>    4.0015    0.0000 </r>
       <r>    4.0684    0.0000 </r>
       <r>    4.1106    0.0000 </r>
      </set>
      <set comment="kpoint 21">
       <r>  -19.1218    1.0000 </r>
       <r>  -18.2930    1.0000 </r>
       <r>  -15.1156    1.0000 </r>
       <r>  -14.5836    1.0000 </r>
       <r>  -13.3607    1.0000 </r>
       <r>  -12.2745    1.0000 </r>
       <r>  -11.3679    1.0000 </r>
       <r>  -10.5185    1.0000 </r>
       <r>  -10.1145    1.0000 </r>
       <r>   -9.5039    1.0000 </r>
       <r>   -8.7886    1.0000 </r>
       <r>   -8.3108    1.0000 </r>
       <r>   -8.1089    1.0000 </r>
       <r>   -7.6630    1.0000 </r>
       <r>   -7.2509    1.0000 </r>
       <r>   -6.7261    1.0000 </r>
       <r>   -6.4106    1.0000 </r>
       <r>   -6.2704    1.0000 </r>
       <r>   -6.0976    1.0000 </r>
       <r>   -4.9192    1.0000 </r>
       <r>   -4.6180    0.5509 </r>
       <r>   -2.7283    0.0000 </r>
       <r>   -2.2169    0.0000 </r>
       <r>   -1.8548    0.0000 </r>
       <r>   -1.2444    0.0000 </r>
       <r>   -1.2303    0.0000 </r>
       <r>   -0.1615    0.0000 </r>
       <r>    0.4309    0.0000 </r>
       <r>    1.3030    0.0000 </r>
       <r>    1.4024    0.0000 </r>
       <r>    1.6775    0.0000 </r>
       <r>    1.9324    0.0000 </r>
       <r>    2.1731    0.0000 </r>
       <r>    2.1808    0.0000 </r>
       <r>    2.3539    0.0000 </r>
       <r>    2.4033    0.0000 </r>
       <r>    2.5011    0.0000 </r>
       <r>    2.6624    0.0000 </r>
       <r>    2.8247    0.0000 </r>
       <r>    2.9797    0.0000 </r>
       <r>    3.0013    0.0000 </r>
       <r>    3.2120    0.0000 </r>
       <r>    3.2975    0.0000 </r>
       <r>    3.6704    0.0000 </r>
       <r>    3.7017    0.0000 </r>
       <r>    3.7347    0.0000 </r>
       <r>    4.1507    0.0000 </r>
       <r>    4.3184    0.0000 </r>
      </set>
      <set comment="kpoint 22">
       <r>  -19.0840    1.0000 </r>
       <r>  -18.3328    1.0000 </r>
       <r>  -15.2000    1.0000 </r>
       <r>  -14.6735    1.0000 </r>
       <r>  -13.1072    1.0000 </r>
       <r>  -12.1716    1.0000 </r>
       <r>  -11.3187    1.0000 </r>
       <r>  -10.5381    1.0000 </r>
       <r>  -10.3131    1.0000 </r>
       <r>   -9.4269    1.0000 </r>
       <r>   -9.0543    1.0000 </r>
       <r>   -8.2622    1.0000 </r>
       <r>   -7.9488    1.0000 </r>
       <r>   -7.5045    1.0000 </r>
       <r>   -7.4961    1.0000 </r>
       <r>   -7.0062    1.0000 </r>
       <r>   -6.4516    1.0000 </r>
       <r>   -6.0317    1.0000 </r>
       <r>   -5.7617    1.0000 </r>
       <r>   -4.9006    1.0000 </r>
       <r>   -4.6267    0.6465 </r>
       <r>   -3.4560    0.0000 </r>
       <r>   -2.2112    0.0000 </r>
       <r>   -1.8678    0.0000 </r>
       <r>   -1.0968    0.0000 </r>
       <r>   -0.6301    0.0000 </r>
       <r>    0.0427    0.0000 </r>
       <r>    0.2461    0.0000 </r>
       <r>    1.0218    0.0000 </r>
       <r>    1.2449    0.0000 </r>
       <r>    1.8258    0.0000 </r>
       <r>    1.9001    0.0000 </r>
       <r>    2.1664    0.0000 </r>
       <r>    2.3158    0.0000 </r>
       <r>    2.3412    0.0000 </r>
       <r>    2.4784    0.0000 </r>
       <r>    2.5485    0.0000 </r>
       <r>    2.5745    0.0000 </r>
       <r>    2.8238    0.0000 </r>
       <r>    3.0954    0.0000 </r>
       <r>    3.1289    0.0000 </r>
       <r>    3.2357    0.0000 </r>
       <r>    3.5843    0.0000 </r>
       <r>    3.6062    0.0000 </r>
       <r>    3.8855    0.0000 </r>
       <r>    3.9631    0.0000 </r>
       <r>    4.0381    0.0000 </r>
       <r>    4.3041    0.0000 </r>
      </set>
      <set comment="kpoint 23">
       <r>  -19.0110    1.0000 </r>
       <r>  -18.4104    1.0000 </r>
       <r>  -15.2859    1.0000 </r>
       <r>  -14.8282    1.0000 </r>
       <r>  -12.6833    1.0000 </r>
       <r>  -11.9847    1.0000 </r>
       <r>  -11.2247    1.0000 </r>
       <r>  -10.6159    1.0000 </r>
       <r>  -10.5857    1.0000 </r>
       <r>   -9.5847    1.0000 </r>
[...]
       <r>   -9.0261    1.0000 </r>
       <r>   -8.1608    1.0000 </r>
       <r>   -7.8806    1.0000 </r>
       <r>   -7.5993    1.0000 </r>
       <r>   -7.4569    1.0000 </r>
       <r>   -7.0446    1.0000 </r>
       <r>   -6.3968    1.0000 </r>
       <r>   -5.4102    1.0000 </r>
       <r>   -5.2315    1.0000 </r>
       <r>   -5.1834    1.0000 </r>
       <r>   -4.8106    1.0000 </r>
       <r>   -4.6434    0.8014 </r>
       <r>   -2.1754    0.0000 </r>
       <r>   -1.9736    0.0000 </r>
       <r>   -0.4609    0.0000 </r>
       <r>   -0.0554    0.0000 </r>
       <r>    0.3038    0.0000 </r>
       <r>    0.5598    0.0000 </r>
       <r>    0.5622    0.0000 </r>
       <r>    0.8214    0.0000 </r>
       <r>    1.2712    0.0000 </r>
       <r>    2.1819    0.0000 </r>
       <r>    2.2660    0.0000 </r>
       <r>    2.3679    0.0000 </r>
       <r>    2.4910    0.0000 </r>
       <r>    2.6246    0.0000 </r>
       <r>    2.6822    0.0000 </r>
       <r>    2.9532    0.0000 </r>
       <r>    3.0605    0.0000 </r>
       <r>    3.2584    0.0000 </r>
       <r>    3.4399    0.0000 </r>
       <r>    3.4470    0.0000 </r>
       <r>    3.5279    0.0000 </r>
       <r>    3.6048    0.0000 </r>
       <r>    3.7768    0.0000 </r>
       <r>    3.9711    0.0000 </r>
       <r>    4.0397    0.0000 </r>
       <r>    4.1851    0.0000 </r>
      </set>
      <set comment="kpoint 25">
       <r>  -18.7833    1.0000 </r>
       <r>  -18.6490    1.0000 </r>
       <r>  -15.2720    1.0000 </r>
       <r>  -15.1616    1.0000 </r>
       <r>  -11.7121    1.0000 </r>
       <r>  -11.4313    1.0000 </r>
       <r>  -11.1903    1.0000 </r>
       <r>  -10.9452    1.0000 </r>
       <r>  -10.7965    1.0000 </r>
       <r>  -10.7385    1.0000 </r>
       <r>   -8.7608    1.0000 </r>
       <r>   -8.4588    1.0000 </r>
       <r>   -7.9004    1.0000 </r>
       <r>   -7.7998    1.0000 </r>
       <r>   -6.9498    1.0000 </r>
       <r>   -6.8241    1.0000 </r>
       <r>   -6.3513    1.0000 </r>
       <r>   -5.9307    1.0000 </r>
       <r>   -5.2138    1.0000 </r>
       <r>   -5.1482    1.0000 </r>
       <r>   -4.7520    1.0000 </r>
       <r>   -4.6953    0.9897 </r>
       <r>   -2.1285    0.0000 </r>
       <r>   -2.0559    0.0000 </r>
       <r>   -0.2437    0.0000 </r>
       <r>   -0.1311    0.0000 </r>
       <r>    0.4842    0.0000 </r>
       <r>    0.6178    0.0000 </r>
       <r>    0.7963    0.0000 </r>
       <r>    0.8340    0.0000 </r>
       <r>    0.9961    0.0000 </r>
       <r>    1.4933    0.0000 </r>
       <r>    2.4437    0.0000 </r>
       <r>    2.5383    0.0000 </r>
       <r>    2.6106    0.0000 </r>
       <r>    2.6315    0.0000 </r>
       <r>    2.8250    0.0000 </r>
       <r>    3.1950    0.0000 </r>
       <r>    3.2350    0.0000 </r>
       <r>    3.3152    0.0000 </r>
       <r>    3.3727    0.0000 </r>
       <r>    3.4182    0.0000 </r>
       <r>    3.5326    0.0000 </r>
       <r>    3.6925    0.0000 </r>
       <r>    3.7900    0.0000 </r>
       <r>    3.8995    0.0000 </r>
       <r>    4.0269    0.0000 </r>
       <r>    4.0678    0.0000 </r>
      </set>
     </set>
    </set>
   </array>
  </eigenvalues>
  <separator name="orbital magnetization" >
   <v name="MAGDIPOLOUT">      0.00000000      0.00000000      0.00000000</v>
  </separator>
  <dos>
   <i name="efermi">     -4.61342929 </i>
   <total>
    <array>
     <dimension dim="1">gridpoints</dimension>
     <dimension dim="2">spin</dimension>
     <field>energy</field>
     <field>total</field>
     <field>integrated</field>
     <set>
      <set comment="spin 1">
       <r>   -20.4220     0.0000     0.0000 </r>
       <r>   -20.3339     0.0000     0.0000 </r>
       <r>   -20.2457     0.0000     0.0000 </r>
       <r>   -20.1576     0.0000     0.0000 </r>
       <r>   -20.0695     0.0000     0.0000 </r>
       <r>   -19.9813     0.0000     0.0000 </r>
       <r>   -19.8932     0.0000     0.0000 </r>
       <r>   -19.8051     0.0000     0.0000 </r>
       <r>   -19.7169     0.0000     0.0000 </r>
       <r>   -19.6288     0.0000     0.0000 </r>
       <r>   -19.5406     0.0000     0.0000 </r>
       <r>   -19.4525     0.0000     0.0000 </r>
       <r>   -19.3644     0.0000     0.0000 </r>
       <r>   -19.2762     0.0651     0.0057 </r>
       <r>   -19.1881     2.2629     0.2052 </r>
       <r>   -19.1000     5.8771     0.7232 </r>
       <r>   -19.0118     4.7241     1.1395 </r>
       <r>   -18.9237     3.6766     1.4636 </r>
       <r>   -18.8355     2.5011     1.6840 </r>
       <r>   -18.7474     3.2877     1.9738 </r>
       <r>   -18.6593     2.2576     2.1728 </r>
       <r>   -18.5711     2.6770     2.4087 </r>
       <r>   -18.4830     3.0359     2.6763 </r>
       <r>   -18.3949     2.7319     2.9171 </r>
       <r>   -18.3067     4.3907     3.3040 </r>
       <r>   -18.2186     4.3198     3.6848 </r>
       <r>   -18.1305     2.9082     3.9411 </r>
       <r>   -18.0423     0.6624     3.9995 </r>
       <r>   -17.9542     0.0059     4.0000 </r>
       <r>   -17.8660     0.0000     4.0000 </r>
       <r>   -17.7779     0.0000     4.0000 </r>
       <r>   -17.6898     0.0000     4.0000 </r>
       <r>   -17.6016     0.0000     4.0000 </r>
       <r>   -17.5135     0.0000     4.0000 </r>
       <r>   -17.4254     0.0000     4.0000 </r>
       <r>   -17.3372     0.0000     4.0000 </r>
       <r>   -17.2491     0.0000     4.0000 </r>
       <r>   -17.1610     0.0000     4.0000 </r>
       <r>   -17.0728     0.0000     4.0000 </r>
       <r>   -16.9847     0.0000     4.0000 </r>
       <r>   -16.8965     0.0000     4.0000 </r>
       <r>   -16.8084     0.0000     4.0000 </r>
       <r>   -16.7203     0.0000     4.0000 </r>
       <r>   -16.6321     0.0000     4.0000 </r>
       <r>   -16.5440     0.0000     4.0000 </r>
       <r>   -16.4559     0.0000     4.0000 </r>
       <r>   -16.3677     0.0000     4.0000 </r>
       <r>   -16.2796     0.0000     4.0000 </r>
       <r>   -16.1915     0.0000     4.0000 </r>
       <r>   -16.1033     0.0000     4.0000 </r>
       <r>   -16.0152     0.0000     4.0000 </r>
       <r>   -15.9270     0.0000     4.0000 </r>
       <r>   -15.8389     0.0000     4.0000 </r>
       <r>   -15.7508     0.0000     4.0000 </r>
       <r>   -15.6626     0.0000     4.0000 </r>
       <r>   -15.5745     0.0000     4.0000 </r>
       <r>   -15.4864     0.0000     4.0000 </r>
       <r>   -15.3982     0.0110     4.0010 </r>
       <r>   -15.3101     1.2018     4.1069 </r>
       <r>   -15.2220     5.2926     4.5734 </r>
       <r>   -15.1338     9.4301     5.4045 </r>
       <r>   -15.0457     6.9610     6.0180 </r>
       <r>   -14.9575     4.0187     6.3722 </r>
       <r>   -14.8694     5.3914     6.8474 </r>
       <r>   -14.7813     6.9506     7.4600 </r>
       <r>   -14.6931     3.1777     7.7401 </r>
       <r>   -14.6050     2.1430     7.9289 </r>
       <r>   -14.5169     0.7764     7.9974 </r>
       <r>   -14.4287     0.0299     8.0000 </r>
       <r>   -14.3406     0.0000     8.0000 </r>
       <r>   -14.2525     0.0000     8.0000 </r>
       <r>   -14.1643     0.0000     8.0000 </r>
       <r>   -14.0762     0.0000     8.0000 </r>
       <r>   -13.9880     0.0000     8.0000 </r>
       <r>   -13.8999     0.0000     8.0000 </r>
       <r>   -13.8118     0.0000     8.0000 </r>
       <r>   -13.7236     0.0000     8.0000 </r>
       <r>   -13.6355     0.0000     8.0000 </r>
       <r>   -13.5474     0.0000     8.0000 </r>
       <r>   -13.4592     0.0027     8.0002 </r>
       <r>   -13.3711     0.3855     8.0342 </r>
       <r>   -13.2830     0.6106     8.0880 </r>
       <r>   -13.1948     0.4634     8.1289 </r>
       <r>   -13.1067     1.0691     8.2231 </r>
       <r>   -13.0185     1.0994     8.3200 </r>
       <r>   -12.9304     0.7909     8.3897 </r>
       <r>   -12.8423     1.2695     8.5016 </r>
       <r>   -12.7541     1.2291     8.6099 </r>
       <r>   -12.6660     2.6732     8.8455 </r>
       <r>   -12.5779     5.5582     9.3354 </r>
       <r>   -12.4897     2.3370     9.5414 </r>
       <r>   -12.4016     2.9613     9.8024 </r>
       <r>   -12.3135     1.5525     9.9392 </r>
       <r>   -12.2253     2.0167    10.1170 </r>
       <r>   -12.1372     3.4274    10.4190 </r>
       <r>   -12.0490     2.5124    10.6405 </r>
       <r>   -11.9609     3.2048    10.9229 </r>
       <r>   -11.8728     2.5533    11.1480 </r>
       <r>   -11.7846     2.7500    11.3903 </r>
       <r>   -11.6965     3.7134    11.7176 </r>
       <r>   -11.6084     1.6266    11.8610 </r>
       <r>   -11.5202     3.4841    12.1681 </r>
       <r>   -11.4321     3.7326    12.4970 </r>
       <r>   -11.3440     5.0884    12.9455 </r>
       <r>   -11.2558     6.7728    13.5425 </r>
       <r>   -11.1677     5.2195    14.0025 </r>
       <r>   -11.0795     3.1243    14.2778 </r>
       <r>   -10.9914     5.0615    14.7239 </r>
       <r>   -10.9033     5.3430    15.1949 </r>
       <r>   -10.8151     2.7001    15.4328 </r>
       <r>   -10.7270     3.7288    15.7615 </r>
       <r>   -10.6389     4.6637    16.1725 </r>
       <r>   -10.5507     6.1160    16.7115 </r>
       <r>   -10.4626     4.0734    17.0706 </r>
       <r>   -10.3745     4.5354    17.4703 </r>
       <r>   -10.2863     5.7071    17.9733 </r>
       <r>   -10.1982     2.4933    18.1931 </r>
       <r>   -10.1100     3.3649    18.4896 </r>
       <r>   -10.0219     3.2004    18.7717 </r>
       <r>    -9.9338     1.4956    18.9035 </r>
       <r>    -9.8456     2.4723    19.1214 </r>
       <r>    -9.7575     3.7687    19.4536 </r>
       <r>    -9.6694     1.2244    19.5615 </r>
       <r>    -9.5812     1.6146    19.7038 </r>
       <r>    -9.4931     4.0438    20.0602 </r>
       <r>    -9.4049     2.6219    20.2913 </r>
       <r>    -9.3168     0.7349    20.3561 </r>
       <r>    -9.2287     1.1959    20.4615 </r>
       <r>    -9.1405     3.1193    20.7364 </r>
       <r>    -9.0524     3.8318    21.0741 </r>
       <r>    -8.9643     4.1188    21.4371 </r>
       <r>    -8.8761     0.7955    21.5072 </r>
       <r>    -8.7880     1.6275    21.6507 </r>
       <r>    -8.6999     2.7991    21.8974 </r>
       <r>    -8.6117     1.3344    22.0150 </r>
       <r>    -8.5236     1.0082    22.1038 </r>
       <r>    -8.4354     3.8323    22.4416 </r>
       <r>    -8.3473     3.3731    22.7389 </r>
       <r>    -8.2592     2.7332    22.9798 </r>
       <r>    -8.1710     3.4137    23.2807 </r>
       <r>    -8.0829     3.1540    23.5587 </r>
       <r>    -7.9948     2.8675    23.8114 </r>
       <r>    -7.9066     2.7522    24.0540 </r>
       <r>    -7.8185     5.2100    24.5131 </r>
       <r>    -7.7304     5.6899    25.0146 </r>
       <r>    -7.6422     5.2973    25.4815 </r>
       <r>    -7.5541     6.0566    26.0153 </r>
       <r>    -7.4659     7.6963    26.6937 </r>
       <r>    -7.3778     6.8354    27.2961 </r>
       <r>    -7.2897     6.3207    27.8532 </r>
       <r>    -7.2015     9.5797    28.6975 </r>
       <r>    -7.1134     8.6395    29.4590 </r>
       <r>    -7.0253     5.1654    29.9142 </r>
       <r>    -6.9371     5.2395    30.3760 </r>
       <r>    -6.8490     4.2461    30.7503 </r>
       <r>    -6.7609     3.7747    31.0829 </r>
       <r>    -6.6727     3.9155    31.4280 </r>
       <r>    -6.5846     1.5332    31.5632 </r>
       <r>    -6.4964     2.8680    31.8159 </r>
       <r>    -6.4083     8.7835    32.5901 </r>
       <r>    -6.3202     7.4842    33.2497 </r>
       <r>    -6.2320     2.3706    33.4587 </r>
       <r>    -6.1439     4.9507    33.8950 </r>
       <r>    -6.0558     6.6157    34.4781 </r>
       <r>    -5.9676     5.2445    34.9403 </r>
       <r>    -5.8795     4.6546    35.3506 </r>
       <r>    -5.7914     4.5510    35.7517 </r>
       <r>    -5.7032     4.3498    36.1350 </r>
       <r>    -5.6151     4.5273    36.5341 </r>
       <r>    -5.5269     3.8193    36.8707 </r>
       <r>    -5.4388     5.6917    37.3723 </r>
       <r>    -5.3507     4.7582    37.7917 </r>
       <r>    -5.2625     2.7545    38.0345 </r>
       <r>    -5.1744     3.7215    38.3625 </r>
       <r>    -5.0863     2.3014    38.5653 </r>
       <r>    -4.9981     4.1160    38.9281 </r>
       <r>    -4.9100     8.2285    39.6533 </r>
       <r>    -4.8219     6.5239    40.2283 </r>
       <r>    -4.7337     6.5214    40.8031 </r>
       <r>    -4.6456     8.9852    41.5950 </r>
       <r>    -4.5574    11.7916    42.6343 </r>
       <r>    -4.4693     3.3910    42.9331 </r>
       <r>    -4.3812     0.7602    43.0001 </r>
       <r>    -4.2930     1.9129    43.1687 </r>
       <r>    -4.2049     1.6533    43.3144 </r>
       <r>    -4.1168     0.6959    43.3758 </r>
       <r>    -4.0286     0.1261    43.3869 </r>
       <r>    -3.9405     0.7941    43.4569 </r>
       <r>    -3.8524     0.2077    43.4752 </r>
       <r>    -3.7642     0.7934    43.5451 </r>
       <r>    -3.6761     0.1186    43.5556 </r>
       <r>    -3.5879     0.1615    43.5698 </r>
       <r>    -3.4998     0.9486    43.6534 </r>
       <r>    -3.4117     1.6342    43.7974 </r>
       <r>    -3.3235     0.2808    43.8222 </r>
       <r>    -3.2354     0.0004    43.8222 </r>
       <r>    -3.1473     0.0000    43.8222 </r>
       <r>    -3.0591     0.0126    43.8233 </r>
       <r>    -2.9710     0.5920    43.8755 </r>
       <r>    -2.8829     0.4009    43.9108 </r>
       <r>    -2.7947     0.0335    43.9138 </r>
       <r>    -2.7066     0.7065    43.9761 </r>
       <r>    -2.6184     0.2710    43.9999 </r>
       <r>    -2.5303     0.2008    44.0176 </r>
       <r>    -2.4422     2.1546    44.2075 </r>
       <r>    -2.3540     3.5692    44.5221 </r>
       <r>    -2.2659     4.4714    44.9162 </r>
       <r>    -2.1778     6.4212    45.4822 </r>
       <r>    -2.0896     4.5284    45.8813 </r>
       <r>    -2.0015     3.3482    46.1764 </r>
       <r>    -1.9134     4.1475    46.5419 </r>
       <r>    -1.8252     4.8858    46.9725 </r>
       <r>    -1.7371     4.4429    47.3641 </r>
       <r>    -1.6489     3.5711    47.6789 </r>
       <r>    -1.5608     3.0405    47.9469 </r>
       <r>    -1.4727     1.8580    48.1106 </r>
       <r>    -1.3845     2.2481    48.3087 </r>
       <r>    -1.2964     2.4013    48.5204 </r>
       <r>    -1.2083     3.2443    48.8063 </r>
       <r>    -1.1201     2.4446    49.0218 </r>
       <r>    -1.0320     2.9675    49.2833 </r>
       <r>    -0.9439     1.7486    49.4375 </r>
       <r>    -0.8557     2.6700    49.6728 </r>
       <r>    -0.7676     2.9196    49.9301 </r>
       <r>    -0.6794     1.8324    50.0916 </r>
       <r>    -0.5913     2.9183    50.3488 </r>
       <r>    -0.5032     5.6528    50.8470 </r>
       <r>    -0.4150     4.3639    51.2316 </r>
       <r>    -0.3269     4.6088    51.6378 </r>
       <r>    -0.2388     4.5879    52.0422 </r>
       <r>    -0.1506     4.0230    52.3968 </r>
       <r>    -0.0625     5.6338    52.8933 </r>
       <r>     0.0257     6.4293    53.4600 </r>
       <r>     0.1138     7.3281    54.1058 </r>
       <r>     0.2019     3.2955    54.3963 </r>
       <r>     0.2901     3.0895    54.6686 </r>
       <r>     0.3782     4.7872    55.0905 </r>
       <r>     0.4663     2.5397    55.3143 </r>
       <r>     0.5545     4.0362    55.6701 </r>
       <r>     0.6426     4.6137    56.0767 </r>
       <r>     0.7307     2.7425    56.3184 </r>
       <r>     0.8189     3.9071    56.6628 </r>
       <r>     0.9070     4.4096    57.0514 </r>
       <r>     0.9952     4.2516    57.4262 </r>
       <r>     1.0833     9.5961    58.2719 </r>
       <r>     1.1714     6.4699    58.8422 </r>
       <r>     1.2596     7.4287    59.4969 </r>
       <r>     1.3477    10.6714    60.4374 </r>
       <r>     1.4358     8.3770    61.1758 </r>
       <r>     1.5240     5.2548    61.6389 </r>
       <r>     1.6121     3.8803    61.9809 </r>
       <r>     1.7002     6.2252    62.5296 </r>
       <r>     1.7884     9.8876    63.4010 </r>
       <r>     1.8765     7.9956    64.1057 </r>
       <r>     1.9647     8.4444    64.8500 </r>
       <r>     2.0528     7.2853    65.4921 </r>
       <r>     2.1409     8.6430    66.2538 </r>
       <r>     2.2291    13.6056    67.4530 </r>
       <r>     2.3172     8.3107    68.1855 </r>
       <r>     2.4053    11.3981    69.1901 </r>
       <r>     2.4935    11.6701    70.2186 </r>
       <r>     2.5816    11.6637    71.2466 </r>
       <r>     2.6697    14.8301    72.5537 </r>
       <r>     2.7579    14.1477    73.8006 </r>
       <r>     2.8460    15.2466    75.1444 </r>
       <r>     2.9342    11.7273    76.1780 </r>
       <r>     3.0223    15.0669    77.5059 </r>
       <r>     3.1104     9.7907    78.3689 </r>
       <r>     3.1986    11.5589    79.3876 </r>
       <r>     3.2867    14.7030    80.6835 </r>
       <r>     3.3748    12.8234    81.8137 </r>
       <r>     3.4630    13.1594    82.9735 </r>
       <r>     3.5511    13.1812    84.1353 </r>
       <r>     3.6392    12.1191    85.2034 </r>
       <r>     3.7274    12.9526    86.3450 </r>
       <r>     3.8155    13.1430    87.5034 </r>
       <r>     3.9037    14.4169    88.7740 </r>
       <r>     3.9918    11.2635    89.7667 </r>
       <r>     4.0799    11.2122    90.7549 </r>
       <r>     4.1681    11.7633    91.7917 </r>
       <r>     4.2562    11.2780    92.7857 </r>
       <r>     4.3443    11.4044    93.7909 </r>
       <r>     4.4325    11.3353    94.7899 </r>
       <r>     4.5206     5.8163    95.3026 </r>
       <r>     4.6087     4.2594    95.6780 </r>
       <r>     4.6969     2.6589    95.9123 </r>
       <r>     4.7850     0.5812    95.9635 </r>
       <r>     4.8732     0.3854    95.9975 </r>
       <r>     4.9613     0.0284    96.0000 </r>
       <r>     5.0494     0.0000    96.0000 </r>
       <r>     5.1376     0.0000    96.0000 </r>
       <r>     5.2257     0.0000    96.0000 </r>
       <r>     5.3138     0.0000    96.0000 </r>
       <r>     5.4020     0.0000    96.0000 </r>
       <r>     5.4901     0.0000    96.0000 </r>
       <r>     5.5782     0.0000    96.0000 </r>
       <r>     5.6664     0.0000    96.0000 </r>
       <r>     5.7545     0.0000    96.0000 </r>
       <r>     5.8427     0.0000    96.0000 </r>
       <r>     5.9308     0.0000    96.0000 </r>
       <r>     6.0189     0.0000    96.0000 </r>
      </set>
     </set>
    </array>
   </total>
  </dos>
 </calculation>
 <structure name="finalpos" >
  <crystal>
   <varray name="basis" >
    <v>       5.70097065       0.00000000       0.00000000 </v>
    <v>       0.00000000       6.20187140       0.00000000 </v>
    <v>       0.00000000       0.00000000      24.04405832 </v>
   </varray>
   <i name="volume">    850.11823945 </i>
   <varray name="rec_basis" >
    <v>       0.17540873       0.00000000       0.00000000 </v>
    <v>       0.00000000       0.16124165       0.00000000 </v>
    <v>       0.00000000       0.00000000       0.04159032 </v>
   </varray>
  </crystal>
  <varray name="positions" >
   <v>       0.52128989       0.63795769       0.08409683 </v>
   <v>       0.47871011       0.36204231       0.08409683 </v>
   <v>       0.97871011       0.63795769       0.08409683 </v>
   <v>       0.02128989       0.36204231       0.08409683 </v>
   <v>       0.59744966       0.89986831       0.08409683 </v>
   <v>       0.40255034       0.10013168       0.08409683 </v>
   <v>       0.90255034       0.89986831       0.08409683 </v>
   <v>       0.09744966       0.10013168       0.08409683 </v>
   <v>       0.75000000       0.72957939       0.13313621 </v>
   <v>       0.25000000       0.27042061       0.03505746 </v>
   <v>       0.75000000       0.72957939       0.03505746 </v>
   <v>       0.25000000       0.27042061       0.13313621 </v>
   <v>       0.25000000       0.52399302       0.08409683 </v>
   <v>       0.75000000       0.47600695       0.08409683 </v>
  </varray>
 </structure>
</modeling>
