   1   1   0   0
  0.3375000E+04  0.1500000E-08  0.1250000E-08  0.1800000E-08  0.5000000E-15
  1.000000000000000E-004
  CAR 
 Convergence                             
      2.51032910     -9.97752594  301     -3.60675921      1.00000000
     -9.978  0.0000E+00  0.0000E+00
     -9.936  0.0000E+00  0.0000E+00
     -9.894  0.0000E+00  0.0000E+00
     -9.853  0.0000E+00  0.0000E+00
     -9.811  0.0000E+00  0.0000E+00
     -9.769  0.0000E+00  0.0000E+00
     -9.728  0.0000E+00  0.0000E+00
     -9.686  0.1334E-12  0.5551E-14
     -9.645  0.7737E-09  0.3221E-10
     -9.603  0.1151E-05  0.4795E-07
     -9.561  0.4451E-03  0.1858E-04
     -9.520  0.4542E-01  0.1909E-02
     -9.478  0.1252E+01  0.5403E-01
     -9.436  0.9601E+01  0.4537E+00
     -9.395  0.2109E+02  0.1331E+01
     -9.353  0.1346E+02  0.1892E+01
     -9.312  0.2474E+01  0.1995E+01
     -9.270  0.1277E+00  0.2000E+01
     -9.228  0.1792E-02  0.2000E+01
     -9.187  0.6680E-05  0.2000E+01
     -9.145  0.6491E-08  0.2000E+01
     -9.103  0.1627E-11  0.2000E+01
     -9.062  0.0000E+00  0.2000E+01
     -9.020  0.0000E+00  0.2000E+01
     -8.978  0.0000E+00  0.2000E+01
     -8.937  0.0000E+00  0.2000E+01
     -8.895  0.0000E+00  0.2000E+01
     -8.854  0.0000E+00  0.2000E+01
     -8.812  0.0000E+00  0.2000E+01
     -8.770  0.0000E+00  0.2000E+01
     -8.729  0.0000E+00  0.2000E+01
     -8.687  0.0000E+00  0.2000E+01
     -8.645  0.0000E+00  0.2000E+01
     -8.604  0.0000E+00  0.2000E+01
     -8.562  0.0000E+00  0.2000E+01
     -8.521  0.0000E+00  0.2000E+01
     -8.479  0.0000E+00  0.2000E+01
     -8.437  0.0000E+00  0.2000E+01
     -8.396  0.0000E+00  0.2000E+01
     -8.354  0.0000E+00  0.2000E+01
     -8.312  0.0000E+00  0.2000E+01
     -8.271  0.0000E+00  0.2000E+01
     -8.229  0.0000E+00  0.2000E+01
     -8.188  0.0000E+00  0.2000E+01
     -8.146  0.0000E+00  0.2000E+01
     -8.104  0.0000E+00  0.2000E+01
     -8.063  0.0000E+00  0.2000E+01
     -8.021  0.0000E+00  0.2000E+01
     -7.979  0.0000E+00  0.2000E+01
     -7.938  0.0000E+00  0.2000E+01
     -7.896  0.0000E+00  0.2000E+01
     -7.855  0.0000E+00  0.2000E+01
     -7.813  0.0000E+00  0.2000E+01
     -7.771  0.0000E+00  0.2000E+01
     -7.730  0.0000E+00  0.2000E+01
     -7.688  0.0000E+00  0.2000E+01
     -7.646  0.0000E+00  0.2000E+01
     -7.605  0.0000E+00  0.2000E+01
     -7.563  0.0000E+00  0.2000E+01
     -7.522  0.0000E+00  0.2000E+01
     -7.480  0.0000E+00  0.2000E+01
     -7.438  0.0000E+00  0.2000E+01
     -7.397  0.0000E+00  0.2000E+01
     -7.355  0.0000E+00  0.2000E+01
     -7.313  0.0000E+00  0.2000E+01
     -7.272  0.0000E+00  0.2000E+01
     -7.230  0.0000E+00  0.2000E+01
     -7.189  0.0000E+00  0.2000E+01
     -7.147  0.0000E+00  0.2000E+01
     -7.105  0.0000E+00  0.2000E+01
     -7.064  0.0000E+00  0.2000E+01
     -7.022  0.0000E+00  0.2000E+01
     -6.980  0.0000E+00  0.2000E+01
     -6.939  0.0000E+00  0.2000E+01
     -6.897  0.0000E+00  0.2000E+01
     -6.856  0.0000E+00  0.2000E+01
     -6.814  0.0000E+00  0.2000E+01
     -6.772  0.0000E+00  0.2000E+01
     -6.731  0.0000E+00  0.2000E+01
     -6.689  0.0000E+00  0.2000E+01
     -6.647  0.0000E+00  0.2000E+01
     -6.606  0.0000E+00  0.2000E+01
     -6.564  0.0000E+00  0.2000E+01
     -6.523  0.0000E+00  0.2000E+01
     -6.481  0.0000E+00  0.2000E+01
     -6.439  0.0000E+00  0.2000E+01
     -6.398  0.0000E+00  0.2000E+01
     -6.356  0.0000E+00  0.2000E+01
     -6.314  0.0000E+00  0.2000E+01
     -6.273  0.0000E+00  0.2000E+01
     -6.231  0.0000E+00  0.2000E+01
     -6.190  0.0000E+00  0.2000E+01
     -6.148  0.0000E+00  0.2000E+01
     -6.106  0.0000E+00  0.2000E+01
     -6.065  0.0000E+00  0.2000E+01
     -6.023  0.0000E+00  0.2000E+01
     -5.981  0.0000E+00  0.2000E+01
     -5.940  0.0000E+00  0.2000E+01
     -5.898  0.0000E+00  0.2000E+01
     -5.857  0.0000E+00  0.2000E+01
     -5.815  0.0000E+00  0.2000E+01
     -5.773  0.0000E+00  0.2000E+01
     -5.732  0.0000E+00  0.2000E+01
     -5.690  0.0000E+00  0.2000E+01
     -5.648  0.0000E+00  0.2000E+01
     -5.607  0.0000E+00  0.2000E+01
     -5.565  0.0000E+00  0.2000E+01
     -5.524  0.0000E+00  0.2000E+01
     -5.482  0.0000E+00  0.2000E+01
     -5.440  0.0000E+00  0.2000E+01
     -5.399  0.0000E+00  0.2000E+01
     -5.357  0.0000E+00  0.2000E+01
     -5.315  0.0000E+00  0.2000E+01
     -5.274  0.0000E+00  0.2000E+01
     -5.232  0.0000E+00  0.2000E+01
     -5.191  0.0000E+00  0.2000E+01
     -5.149  0.0000E+00  0.2000E+01
     -5.107  0.0000E+00  0.2000E+01
     -5.066  0.0000E+00  0.2000E+01
     -5.024  0.0000E+00  0.2000E+01
     -4.982  0.0000E+00  0.2000E+01
     -4.941  0.0000E+00  0.2000E+01
     -4.899  0.0000E+00  0.2000E+01
     -4.858  0.0000E+00  0.2000E+01
     -4.816  0.0000E+00  0.2000E+01
     -4.774  0.0000E+00  0.2000E+01
     -4.733  0.0000E+00  0.2000E+01
     -4.691  0.0000E+00  0.2000E+01
     -4.649  0.0000E+00  0.2000E+01
     -4.608  0.0000E+00  0.2000E+01
     -4.566  0.0000E+00  0.2000E+01
     -4.524  0.0000E+00  0.2000E+01
     -4.483  0.0000E+00  0.2000E+01
     -4.441  0.0000E+00  0.2000E+01
     -4.400  0.0000E+00  0.2000E+01
     -4.358  0.0000E+00  0.2000E+01
     -4.316  0.0000E+00  0.2000E+01
     -4.275  0.0000E+00  0.2000E+01
     -4.233  0.0000E+00  0.2000E+01
     -4.191  0.0000E+00  0.2000E+01
     -4.150  0.0000E+00  0.2000E+01
     -4.108  0.0000E+00  0.2000E+01
     -4.067  0.0000E+00  0.2000E+01
     -4.025  0.0000E+00  0.2000E+01
     -3.983  0.0000E+00  0.2000E+01
     -3.942  0.0000E+00  0.2000E+01
     -3.900  0.0000E+00  0.2000E+01
     -3.858  0.4475E-13  0.2000E+01
     -3.817  0.3500E-09  0.2000E+01
     -3.775  0.7135E-06  0.2000E+01
     -3.734  0.3769E-03  0.2000E+01
     -3.692  0.5232E-01  0.2002E+01
     -3.650  0.1950E+01  0.2083E+01
     -3.609  0.2008E+02  0.2919E+01
     -3.567  0.5884E+02  0.5368E+01
     -3.525  0.5004E+02  0.7451E+01
     -3.484  0.1231E+02  0.7964E+01
     -3.442  0.8557E+00  0.7999E+01
     -3.401  0.1630E-01  0.8000E+01
     -3.359  0.8282E-04  0.8000E+01
     -3.317  0.1101E-06  0.8000E+01
     -3.276  0.3783E-10  0.8000E+01
     -3.234  0.0000E+00  0.8000E+01
     -3.192  0.0000E+00  0.8000E+01
     -3.151  0.0000E+00  0.8000E+01
     -3.109  0.0000E+00  0.8000E+01
     -3.068  0.0000E+00  0.8000E+01
     -3.026  0.0000E+00  0.8000E+01
     -2.984  0.0000E+00  0.8000E+01
     -2.943  0.0000E+00  0.8000E+01
     -2.901  0.0000E+00  0.8000E+01
     -2.859  0.0000E+00  0.8000E+01
     -2.818  0.0000E+00  0.8000E+01
     -2.776  0.0000E+00  0.8000E+01
     -2.735  0.0000E+00  0.8000E+01
     -2.693  0.0000E+00  0.8000E+01
     -2.651  0.0000E+00  0.8000E+01
     -2.610  0.0000E+00  0.8000E+01
     -2.568  0.0000E+00  0.8000E+01
     -2.526  0.0000E+00  0.8000E+01
     -2.485  0.0000E+00  0.8000E+01
     -2.443  0.0000E+00  0.8000E+01
     -2.402  0.0000E+00  0.8000E+01
     -2.360  0.0000E+00  0.8000E+01
     -2.318  0.0000E+00  0.8000E+01
     -2.277  0.0000E+00  0.8000E+01
     -2.235  0.0000E+00  0.8000E+01
     -2.193  0.0000E+00  0.8000E+01
     -2.152  0.0000E+00  0.8000E+01
     -2.110  0.0000E+00  0.8000E+01
     -2.069  0.0000E+00  0.8000E+01
     -2.027  0.0000E+00  0.8000E+01
     -1.985  0.0000E+00  0.8000E+01
     -1.944  0.0000E+00  0.8000E+01
     -1.902  0.0000E+00  0.8000E+01
     -1.860  0.0000E+00  0.8000E+01
     -1.819  0.0000E+00  0.8000E+01
     -1.777  0.0000E+00  0.8000E+01
     -1.736  0.0000E+00  0.8000E+01
     -1.694  0.0000E+00  0.8000E+01
     -1.652  0.0000E+00  0.8000E+01
     -1.611  0.0000E+00  0.8000E+01
     -1.569  0.0000E+00  0.8000E+01
     -1.527  0.0000E+00  0.8000E+01
     -1.486  0.0000E+00  0.8000E+01
     -1.444  0.0000E+00  0.8000E+01
     -1.403  0.0000E+00  0.8000E+01
     -1.361  0.0000E+00  0.8000E+01
     -1.319  0.0000E+00  0.8000E+01
     -1.278  0.0000E+00  0.8000E+01
     -1.236  0.0000E+00  0.8000E+01
     -1.194  0.0000E+00  0.8000E+01
     -1.153  0.0000E+00  0.8000E+01
     -1.111  0.0000E+00  0.8000E+01
     -1.070  0.0000E+00  0.8000E+01
     -1.028  0.0000E+00  0.8000E+01
     -0.986  0.0000E+00  0.8000E+01
     -0.945  0.0000E+00  0.8000E+01
     -0.903  0.0000E+00  0.8000E+01
     -0.861  0.0000E+00  0.8000E+01
     -0.820  0.0000E+00  0.8000E+01
     -0.778  0.0000E+00  0.8000E+01
     -0.737  0.0000E+00  0.8000E+01
     -0.695  0.0000E+00  0.8000E+01
     -0.653  0.0000E+00  0.8000E+01
     -0.612  0.0000E+00  0.8000E+01
     -0.570  0.0000E+00  0.8000E+01
     -0.528  0.1016E-13  0.8000E+01
     -0.487  0.5063E-10  0.8000E+01
     -0.445  0.6775E-07  0.8000E+01
     -0.404  0.2512E-04  0.8000E+01
     -0.362  0.2693E-02  0.8000E+01
     -0.320  0.8907E-01  0.8004E+01
     -0.279  0.9988E+00  0.8045E+01
     -0.237  0.4363E+01  0.8227E+01
     -0.195  0.8981E+01  0.8601E+01
     -0.154  0.1090E+02  0.9055E+01
     -0.112  0.9956E+01  0.9469E+01
     -0.070  0.7611E+01  0.9786E+01
     -0.029  0.3960E+01  0.9951E+01
      0.013  0.1142E+01  0.9998E+01
      0.054  0.8490E+00  0.1003E+02
      0.096  0.3042E+01  0.1016E+02
      0.138  0.7197E+01  0.1046E+02
      0.179  0.1170E+02  0.1095E+02
      0.221  0.1474E+02  0.1156E+02
      0.263  0.1574E+02  0.1222E+02
      0.304  0.1581E+02  0.1287E+02
      0.346  0.1601E+02  0.1354E+02
      0.387  0.1625E+02  0.1422E+02
      0.429  0.1687E+02  0.1492E+02
      0.471  0.1789E+02  0.1566E+02
      0.512  0.1852E+02  0.1643E+02
      0.554  0.1866E+02  0.1721E+02
      0.596  0.1929E+02  0.1801E+02
      0.637  0.1988E+02  0.1884E+02
      0.679  0.2072E+02  0.1970E+02
      0.720  0.2166E+02  0.2061E+02
      0.762  0.2213E+02  0.2153E+02
      0.804  0.2225E+02  0.2245E+02
      0.845  0.2273E+02  0.2340E+02
      0.887  0.2343E+02  0.2437E+02
      0.929  0.2419E+02  0.2538E+02
      0.970  0.2494E+02  0.2642E+02
      1.012  0.2528E+02  0.2747E+02
      1.053  0.2553E+02  0.2853E+02
      1.095  0.2605E+02  0.2962E+02
      1.137  0.2675E+02  0.3073E+02
      1.178  0.2704E+02  0.3186E+02
      1.220  0.2712E+02  0.3299E+02
      1.262  0.2788E+02  0.3415E+02
      1.303  0.2803E+02  0.3531E+02
      1.345  0.2797E+02  0.3648E+02
      1.386  0.2849E+02  0.3766E+02
      1.428  0.2948E+02  0.3889E+02
      1.470  0.2970E+02  0.4013E+02
      1.511  0.2973E+02  0.4137E+02
      1.553  0.3038E+02  0.4263E+02
      1.595  0.3048E+02  0.4390E+02
      1.636  0.2918E+02  0.4511E+02
      1.678  0.2537E+02  0.4617E+02
      1.719  0.1861E+02  0.4694E+02
      1.761  0.1181E+02  0.4744E+02
      1.803  0.6806E+01  0.4772E+02
      1.844  0.3806E+01  0.4788E+02
      1.886  0.1940E+01  0.4796E+02
      1.928  0.7507E+00  0.4799E+02
      1.969  0.2050E+00  0.4800E+02
      2.011  0.3693E-01  0.4800E+02
      2.052  0.3195E-02  0.4800E+02
      2.094  0.9689E-04  0.4800E+02
      2.136  0.8723E-06  0.4800E+02
      2.177  0.2161E-08  0.4800E+02
      2.219  0.1419E-11  0.4800E+02
      2.261  0.2377E-15  0.4800E+02
      2.302  0.0000E+00  0.4800E+02
      2.344  0.0000E+00  0.4800E+02
      2.385  0.0000E+00  0.4800E+02
      2.427  0.0000E+00  0.4800E+02
      2.469  0.0000E+00  0.4800E+02
      2.510  0.0000E+00  0.4800E+02
