       N       E                     dE             d eps       ncg     rms          rms(c)
DAV:   1     0.754578231702E+01    0.75458E+01   -0.33315E+02 15552   0.339E+01
