 running   24 mpi-ranks, with    1 threads/rank, on    1 nodes
 distrk:  each k-point on   24 cores,    1 groups
 distr:  one band on    1 cores,   24 groups
 vasp.6.4.3 19Mar24 (build May 31 2024 16:31:43) complex                        
  
 POSCAR found type information on POSCAR B 
 POSCAR found :  1 types and       1 ions
 Reading from existing POTCAR
 scaLAPACK will be used
 Reading from existing POTCAR
 LDA part: xc-table for (Slater+PW92), standard interpolation
 POSCAR, INCAR and KPOINTS ok, starting setup
 FFT: planning ... GRIDC
 FFT: planning ... GRID_SOFT
 FFT: planning ... GRID
 WAVECAR not read
 entering main loop
       N       E                     dE             d eps       ncg     rms          rms(c)
DAV:   1     0.754578231702E+01    0.75458E+01   -0.33315E+02 15552   0.339E+01
DAV:   2     0.694386579958E-01   -0.74763E+01   -0.74531E+01 31056   0.547E+00
DAV:   3    -0.558764427587E-01   -0.12532E+00   -0.10582E+00 15576   0.127E+00
DAV:   4    -0.582447243581E-01   -0.23683E-02   -0.23232E-02 17808   0.148E-01
DAV:   5    -0.582717645398E-01   -0.27040E-04   -0.27034E-04 24024   0.175E-02    0.740E-03
DAV:   6    -0.582720744700E-01   -0.30993E-06   -0.20943E-06 21240   0.175E-03
   1 F= -.58272074E-01 E0= -.31771404E-01  d E =-.530013E-01
