  14  14   0   0
  0.1021960E+02  0.5697000E-09  0.4047900E-09  0.6204200E-09  0.5000000E-15
  1.000000000000000E-004
  CAR 
 Kpoints                                 
     17.89177593    -14.16035936  301      1.95989456      1.00000000
    -14.160  0.0000E+00  0.0000E+00
    -14.054  0.0000E+00  0.0000E+00
    -13.947  0.0000E+00  0.0000E+00
    -13.840  0.0000E+00  0.0000E+00
    -13.733  0.0000E+00  0.0000E+00
    -13.626  0.0000E+00  0.0000E+00
    -13.519  0.0000E+00  0.0000E+00
    -13.412  0.0000E+00  0.0000E+00
    -13.306  0.0000E+00  0.0000E+00
    -13.199  0.0000E+00  0.0000E+00
    -13.092  0.0000E+00  0.0000E+00
    -12.985  0.4330E-15  0.4626E-16
    -12.878  0.1983E-06  0.2118E-07
    -12.771  0.1467E-01  0.1568E-02
    -12.665  0.8370E+00  0.9099E-01
    -12.558  0.2682E+01  0.3775E+00
    -12.451  0.3908E+01  0.7950E+00
    -12.344  0.4030E+01  0.1226E+01
    -12.237  0.3776E+01  0.1629E+01
    -12.130  0.2120E+01  0.1855E+01
    -12.024  0.3321E+01  0.2210E+01
    -11.917  0.1960E+01  0.2420E+01
    -11.810  0.3327E+01  0.2775E+01
    -11.703  0.3121E+01  0.3109E+01
    -11.596  0.3705E+01  0.3504E+01
    -11.489  0.2917E+01  0.3816E+01
    -11.383  0.1404E+01  0.3966E+01
    -11.276  0.3159E+00  0.4000E+01
    -11.169  0.9077E-03  0.4000E+01
    -11.062  0.7278E-09  0.4000E+01
    -10.955  0.0000E+00  0.4000E+01
    -10.848  0.0000E+00  0.4000E+01
    -10.741  0.0000E+00  0.4000E+01
    -10.635  0.0000E+00  0.4000E+01
    -10.528  0.0000E+00  0.4000E+01
    -10.421  0.0000E+00  0.4000E+01
    -10.314  0.0000E+00  0.4000E+01
    -10.207  0.0000E+00  0.4000E+01
    -10.100  0.0000E+00  0.4000E+01
     -9.994  0.0000E+00  0.4000E+01
     -9.887  0.0000E+00  0.4000E+01
     -9.780  0.0000E+00  0.4000E+01
     -9.673  0.0000E+00  0.4000E+01
     -9.566  0.0000E+00  0.4000E+01
     -9.459  0.0000E+00  0.4000E+01
     -9.353  0.0000E+00  0.4000E+01
     -9.246  0.0000E+00  0.4000E+01
     -9.139  0.0000E+00  0.4000E+01
     -9.032  0.1909E-09  0.4000E+01
     -8.925  0.5902E-03  0.4000E+01
     -8.818  0.4559E+00  0.4049E+01
     -8.711  0.2388E+01  0.4304E+01
     -8.605  0.5909E+01  0.4935E+01
     -8.498  0.6929E+01  0.5676E+01
     -8.391  0.5922E+01  0.6308E+01
     -8.284  0.5413E+01  0.6887E+01
     -8.177  0.4652E+01  0.7384E+01
     -8.070  0.3810E+01  0.7791E+01
     -7.964  0.1351E+01  0.7935E+01
     -7.857  0.5909E+00  0.7998E+01
     -7.750  0.1755E-01  0.8000E+01
     -7.643  0.3178E-06  0.8000E+01
     -7.536  0.9237E-15  0.8000E+01
     -7.429  0.0000E+00  0.8000E+01
     -7.323  0.0000E+00  0.8000E+01
     -7.216  0.0000E+00  0.8000E+01
     -7.109  0.1155E-15  0.8000E+01
     -7.002  0.8435E-07  0.8000E+01
     -6.895  0.9600E-02  0.8001E+01
     -6.788  0.4718E+00  0.8051E+01
     -6.682  0.5620E+00  0.8111E+01
     -6.575  0.5397E+00  0.8169E+01
     -6.468  0.1062E+01  0.8283E+01
     -6.361  0.9392E+00  0.8383E+01
     -6.254  0.1980E+01  0.8594E+01
     -6.147  0.3411E+01  0.8959E+01
     -6.040  0.3524E+01  0.9335E+01
     -5.934  0.4344E+01  0.9799E+01
     -5.827  0.4159E+01  0.1024E+02
     -5.720  0.4320E+01  0.1071E+02
     -5.613  0.3361E+01  0.1106E+02
     -5.506  0.4033E+01  0.1150E+02
     -5.399  0.4606E+01  0.1199E+02
     -5.293  0.4017E+01  0.1242E+02
     -5.186  0.4809E+01  0.1293E+02
     -5.079  0.4195E+01  0.1338E+02
     -4.972  0.3610E+01  0.1376E+02
     -4.865  0.3270E+01  0.1411E+02
     -4.758  0.1816E+01  0.1431E+02
     -4.652  0.3498E+01  0.1468E+02
     -4.545  0.3399E+01  0.1504E+02
     -4.438  0.3067E+01  0.1537E+02
     -4.331  0.2499E+01  0.1564E+02
     -4.224  0.2230E+01  0.1588E+02
     -4.117  0.3410E+01  0.1624E+02
     -4.011  0.4004E+01  0.1667E+02
     -3.904  0.4450E+01  0.1714E+02
     -3.797  0.2859E+01  0.1745E+02
     -3.690  0.1942E+01  0.1766E+02
     -3.583  0.2331E+01  0.1791E+02
     -3.476  0.1313E+01  0.1805E+02
     -3.369  0.3159E+01  0.1838E+02
     -3.263  0.2679E+01  0.1867E+02
     -3.156  0.3381E+01  0.1903E+02
     -3.049  0.4424E+01  0.1950E+02
     -2.942  0.4077E+01  0.1994E+02
     -2.835  0.2804E+01  0.2024E+02
     -2.728  0.1680E+01  0.2042E+02
     -2.622  0.1917E+01  0.2062E+02
     -2.515  0.2258E+01  0.2087E+02
     -2.408  0.2304E+01  0.2111E+02
     -2.301  0.3382E+01  0.2147E+02
     -2.194  0.2701E+01  0.2176E+02
     -2.087  0.3669E+01  0.2215E+02
     -1.981  0.4989E+01  0.2269E+02
     -1.874  0.5278E+01  0.2325E+02
     -1.767  0.7663E+01  0.2407E+02
     -1.660  0.5694E+01  0.2468E+02
     -1.553  0.5190E+01  0.2523E+02
     -1.446  0.5600E+01  0.2583E+02
     -1.340  0.4491E+01  0.2631E+02
     -1.233  0.3830E+01  0.2672E+02
     -1.126  0.6085E+01  0.2737E+02
     -1.019  0.5387E+01  0.2795E+02
     -0.912  0.2414E+01  0.2820E+02
     -0.805  0.2075E+01  0.2842E+02
     -0.698  0.3744E+01  0.2883E+02
     -0.592  0.4771E+01  0.2933E+02
     -0.485  0.6309E+01  0.3001E+02
     -0.378  0.6767E+01  0.3073E+02
     -0.271  0.5715E+01  0.3134E+02
     -0.164  0.6045E+01  0.3199E+02
     -0.057  0.6935E+01  0.3273E+02
      0.049  0.6651E+01  0.3344E+02
      0.156  0.6761E+01  0.3416E+02
      0.263  0.7369E+01  0.3495E+02
      0.370  0.9044E+01  0.3592E+02
      0.477  0.9329E+01  0.3691E+02
      0.584  0.4113E+01  0.3735E+02
      0.690  0.3012E+01  0.3767E+02
      0.797  0.3483E+01  0.3805E+02
      0.904  0.3107E+01  0.3838E+02
      1.011  0.4064E+01  0.3881E+02
      1.118  0.3023E+01  0.3914E+02
      1.225  0.3963E+01  0.3956E+02
      1.332  0.6063E+01  0.4021E+02
      1.438  0.3472E+01  0.4058E+02
      1.545  0.3407E+01  0.4094E+02
      1.652  0.3492E+01  0.4131E+02
      1.759  0.2258E+01  0.4156E+02
      1.866  0.2038E+01  0.4177E+02
      1.973  0.2505E+01  0.4204E+02
      2.079  0.2991E+01  0.4236E+02
      2.186  0.3000E+01  0.4268E+02
      2.293  0.3702E+01  0.4308E+02
      2.400  0.2497E+01  0.4334E+02
      2.507  0.1505E+01  0.4350E+02
      2.614  0.4809E+00  0.4356E+02
      2.720  0.2394E-02  0.4356E+02
      2.827  0.4592E-08  0.4356E+02
      2.934  0.1918E-03  0.4356E+02
      3.041  0.1942E+00  0.4358E+02
      3.148  0.8277E+00  0.4366E+02
      3.255  0.9709E+00  0.4377E+02
      3.361  0.8698E-01  0.4378E+02
      3.468  0.7735E-01  0.4379E+02
      3.575  0.8047E+00  0.4387E+02
      3.682  0.1025E+01  0.4398E+02
      3.789  0.1730E+00  0.4400E+02
      3.896  0.8487E-04  0.4400E+02
      4.003  0.9492E-11  0.4400E+02
      4.109  0.1004E-10  0.4400E+02
      4.216  0.8686E-04  0.4400E+02
      4.323  0.1486E+00  0.4402E+02
      4.430  0.3785E+00  0.4406E+02
      4.537  0.4284E+00  0.4410E+02
      4.644  0.2226E+00  0.4413E+02
      4.750  0.1005E+01  0.4423E+02
      4.857  0.1257E+01  0.4437E+02
      4.964  0.6208E+00  0.4443E+02
      5.071  0.9287E+00  0.4453E+02
      5.178  0.1341E+01  0.4468E+02
      5.285  0.1361E+01  0.4482E+02
      5.391  0.1694E+01  0.4500E+02
      5.498  0.2667E+01  0.4529E+02
      5.605  0.3170E+01  0.4563E+02
      5.712  0.2628E+01  0.4591E+02
      5.819  0.3760E+01  0.4631E+02
      5.926  0.3840E+01  0.4672E+02
      6.032  0.3213E+01  0.4706E+02
      6.139  0.5417E+01  0.4764E+02
      6.246  0.4464E+01  0.4812E+02
      6.353  0.5464E+01  0.4870E+02
      6.460  0.2503E+01  0.4897E+02
      6.567  0.4110E+01  0.4941E+02
      6.674  0.4475E+01  0.4989E+02
      6.780  0.4016E+01  0.5032E+02
      6.887  0.3529E+01  0.5069E+02
      6.994  0.4156E+01  0.5114E+02
      7.101  0.6091E+01  0.5179E+02
      7.208  0.4243E+01  0.5224E+02
      7.315  0.5343E+01  0.5281E+02
      7.421  0.2932E+01  0.5313E+02
      7.528  0.5180E+01  0.5368E+02
      7.635  0.4488E+01  0.5416E+02
      7.742  0.3893E+01  0.5457E+02
      7.849  0.2296E+01  0.5482E+02
      7.956  0.3130E+01  0.5515E+02
      8.062  0.4710E+01  0.5566E+02
      8.169  0.2518E+01  0.5593E+02
      8.276  0.3332E+01  0.5628E+02
      8.383  0.4948E+01  0.5681E+02
      8.490  0.4285E+01  0.5727E+02
      8.597  0.3413E+01  0.5763E+02
      8.703  0.3436E+01  0.5800E+02
      8.810  0.6567E+01  0.5870E+02
      8.917  0.4372E+01  0.5917E+02
      9.024  0.5605E+01  0.5977E+02
      9.131  0.5572E+01  0.6036E+02
      9.238  0.6923E+01  0.6110E+02
      9.345  0.3242E+01  0.6145E+02
      9.451  0.2407E+01  0.6171E+02
      9.558  0.5032E+01  0.6224E+02
      9.665  0.5414E+01  0.6282E+02
      9.772  0.5908E+01  0.6345E+02
      9.879  0.3597E+01  0.6384E+02
      9.986  0.4512E+01  0.6432E+02
     10.092  0.5746E+01  0.6493E+02
     10.199  0.5226E+01  0.6549E+02
     10.306  0.4361E+01  0.6596E+02
     10.413  0.4355E+01  0.6642E+02
     10.520  0.6362E+01  0.6710E+02
     10.627  0.4387E+01  0.6757E+02
     10.733  0.5498E+01  0.6816E+02
     10.840  0.1726E+01  0.6834E+02
     10.947  0.2769E+01  0.6864E+02
     11.054  0.4867E+01  0.6916E+02
     11.161  0.5627E+01  0.6976E+02
     11.268  0.5712E+01  0.7037E+02
     11.375  0.7479E+01  0.7117E+02
     11.481  0.4325E+01  0.7163E+02
     11.588  0.5594E+01  0.7223E+02
     11.695  0.4931E+01  0.7276E+02
     11.802  0.4741E+01  0.7326E+02
     11.909  0.4925E+01  0.7379E+02
     12.016  0.6130E+01  0.7444E+02
     12.122  0.5000E+01  0.7498E+02
     12.229  0.5256E+01  0.7554E+02
     12.336  0.4597E+01  0.7603E+02
     12.443  0.5922E+01  0.7666E+02
     12.550  0.6853E+01  0.7740E+02
     12.657  0.5668E+01  0.7800E+02
     12.763  0.7179E+01  0.7877E+02
     12.870  0.5895E+01  0.7940E+02
     12.977  0.4365E+01  0.7986E+02
     13.084  0.6673E+01  0.8058E+02
     13.191  0.5461E+01  0.8116E+02
     13.298  0.5798E+01  0.8178E+02
     13.404  0.7006E+01  0.8253E+02
     13.511  0.5854E+01  0.8315E+02
     13.618  0.5284E+01  0.8372E+02
     13.725  0.4838E+01  0.8424E+02
     13.832  0.5153E+01  0.8479E+02
     13.939  0.6763E+01  0.8551E+02
     14.046  0.3609E+01  0.8589E+02
     14.152  0.4267E+01  0.8635E+02
     14.259  0.5953E+01  0.8699E+02
     14.366  0.5487E+01  0.8757E+02
     14.473  0.6816E+01  0.8830E+02
     14.580  0.3964E+01  0.8872E+02
     14.687  0.4225E+01  0.8918E+02
     14.793  0.3751E+01  0.8958E+02
     14.900  0.6425E+01  0.9026E+02
     15.007  0.4824E+01  0.9078E+02
     15.114  0.4808E+01  0.9129E+02
     15.221  0.6947E+01  0.9203E+02
     15.328  0.6548E+01  0.9273E+02
     15.434  0.5576E+01  0.9333E+02
     15.541  0.5032E+01  0.9387E+02
     15.648  0.5656E+01  0.9447E+02
     15.755  0.4457E+01  0.9495E+02
     15.862  0.3079E+01  0.9528E+02
     15.969  0.1929E+01  0.9548E+02
     16.075  0.1268E+01  0.9562E+02
     16.182  0.1179E+01  0.9574E+02
     16.289  0.1175E+01  0.9587E+02
     16.396  0.6818E+00  0.9594E+02
     16.503  0.5225E+00  0.9600E+02
     16.610  0.1418E-01  0.9600E+02
     16.717  0.1980E-06  0.9600E+02
     16.823  0.4618E-15  0.9600E+02
     16.930  0.0000E+00  0.9600E+02
     17.037  0.0000E+00  0.9600E+02
     17.144  0.0000E+00  0.9600E+02
     17.251  0.0000E+00  0.9600E+02
     17.358  0.0000E+00  0.9600E+02
     17.464  0.0000E+00  0.9600E+02
     17.571  0.0000E+00  0.9600E+02
     17.678  0.0000E+00  0.9600E+02
     17.785  0.0000E+00  0.9600E+02
     17.892  0.0000E+00  0.9600E+02
