   14   14    1    1
  0.1021960E+02  0.5697000E-09  0.4047900E-09  0.6204200E-09  0.5000000E-15
  1.000000000000000E-004
  CAR 
 Kpoints                                 
     42     36     48
 
  0.8333333E-01  0.6250000E-01  0.8333333E-01  0.2777778E-01
      1        -12.703444   1.000000
      2        -11.603166   1.000000
      3         -8.659123   1.000000
      4         -8.394291   1.000000
      5         -6.126795   1.000000
      6         -5.267125   1.000000
      7         -4.637879   1.000000
      8         -4.219536   1.000000
      9         -4.017009   1.000000
     10         -3.391899   1.000000
     11         -2.879164   1.000000
     12         -2.132396   1.000000
     13         -1.565887   1.000000
     14         -1.209251   1.000000
     15         -0.157739   1.000000
     16         -0.021229   1.000000
     17          0.029052   1.000000
     18          0.191200   1.000000
     19          0.447014   1.000000
     20          1.839737   0.999661
     21          2.033713   0.018403
     22          2.349540   0.000000
     23          5.518212   0.000000
     24          5.723317   0.000000
     25          5.823197   0.000000
     26          6.035610   0.000000
     27          6.937874   0.000000
     28          7.488245   0.000000
     29          8.013311   0.000000
     30          8.488118   0.000000
     31          8.834551   0.000000
     32          9.132671   0.000000
     33          9.211146   0.000000
     34         10.329445   0.000000
     35         11.154286   0.000000
     36         11.258562   0.000000
     37         11.285476   0.000000
     38         11.789101   0.000000
     39         11.978082   0.000000
     40         12.539075   0.000000
     41         13.069014   0.000000
     42         13.317687   0.000000
     43         13.621979   0.000000
     44         15.083364   0.000000
     45         15.523072   0.000000
     46         15.888611   0.000000
     47         16.077587   0.000000
     48         16.361955   0.000000
 
  0.2500000E+00  0.6250000E-01  0.8333333E-01  0.2777778E-01
      1        -12.584462   1.000000
      2        -11.788116   1.000000
      3         -8.629588   1.000000
      4         -8.366548   1.000000
      5         -6.105469   1.000000
      6         -5.615753   1.000000
      7         -4.771835   1.000000
      8         -4.026054   1.000000
      9         -3.279957   1.000000
     10         -3.070379   1.000000
     11         -2.666551   1.000000
     12         -2.080556   1.000000
     13         -1.931029   1.000000
     14         -1.741106   1.000000
     15         -0.281528   1.000000
     16         -0.149444   1.000000
     17          0.165412   1.000000
     18          0.241162   1.000000
     19          0.303204   1.000000
     20          1.572341   1.000000
     21          1.913570   0.904945
     22          1.991649   0.184552
     23          5.581840   0.000000
     24          5.930698   0.000000
     25          6.149896   0.000000
     26          6.643012   0.000000
     27          6.733143   0.000000
     28          7.029099   0.000000
     29          8.299504   0.000000
     30          8.777065   0.000000
     31          8.988668   0.000000
     32          9.504173   0.000000
     33          9.963852   0.000000
     34         10.156960   0.000000
     35         10.372735   0.000000
     36         10.702924   0.000000
     37         11.322580   0.000000
     38         11.885852   0.000000
     39         12.313460   0.000000
     40         12.641182   0.000000
     41         12.888611   0.000000
     42         13.254873   0.000000
     43         14.358514   0.000000
     44         14.853682   0.000000
     45         15.296407   0.000000
     46         15.634817   0.000000
     47         16.018771   0.000000
     48         16.171513   0.000000
 
  0.4166667E+00  0.6250000E-01  0.8333333E-01  0.2777778E-01
      1        -12.362229   1.000000
      2        -12.073965   1.000000
      3         -8.526648   1.000000
      4         -8.408402   1.000000
      5         -6.154843   1.000000
      6         -5.973872   1.000000
      7         -4.126497   1.000000
      8         -3.742030   1.000000
      9         -3.388860   1.000000
     10         -3.148048   1.000000
     11         -2.357057   1.000000
     12         -2.009971   1.000000
     13         -1.960451   1.000000
     14         -1.872672   1.000000
     15         -0.707045   1.000000
     16         -0.426195   1.000000
     17          0.085511   1.000000
     18          0.267746   1.000000
     19          0.676030   1.000000
     20          1.273333   1.000000
     21          1.516955   1.000000
     22          1.729514   1.000000
     23          5.738065   0.000000
     24          5.942611   0.000000
     25          6.552640   0.000000
     26          6.688571   0.000000
     27          7.082171   0.000000
     28          7.675903   0.000000
     29          8.365639   0.000000
     30          8.502317   0.000000
     31          8.726061   0.000000
     32          8.909796   0.000000
     33         10.030717   0.000000
     34         10.510021   0.000000
     35         10.690641   0.000000
     36         11.309749   0.000000
     37         11.544484   0.000000
     38         11.705886   0.000000
     39         12.159091   0.000000
     40         12.465109   0.000000
     41         12.849128   0.000000
     42         13.428779   0.000000
     43         14.395407   0.000000
     44         14.608111   0.000000
     45         15.099731   0.000000
     46         15.207031   0.000000
     47         15.750575   0.000000
     48         16.230912   0.000000
 
  0.8333333E-01  0.1875000E+00  0.8333333E-01  0.2777778E-01
      1        -12.635204   1.000000
      2        -11.541476   1.000000
      3         -8.605548   1.000000
      4         -8.329611   1.000000
      5         -6.050019   1.000000
      6         -5.201715   1.000000
      7         -5.106021   1.000000
      8         -4.566194   1.000000
      9         -3.999607   1.000000
     10         -3.978371   1.000000
     11         -3.313414   1.000000
     12         -1.201709   1.000000
     13         -1.132382   1.000000
     14         -0.688281   1.000000
     15         -0.534024   1.000000
     16         -0.026316   1.000000
     17          0.058733   1.000000
     18          0.272482   1.000000
     19          0.584955   1.000000
     20          1.225159   1.000000
     21          1.402504   1.000000
     22          2.424133   0.000000
     23          5.274770   0.000000
     24          5.552585   0.000000
     25          6.064985   0.000000
     26          6.255645   0.000000
     27          7.643855   0.000000
     28          7.700377   0.000000
     29          8.305734   0.000000
     30          8.774799   0.000000
     31          9.029279   0.000000
     32          9.336953   0.000000
     33          9.514244   0.000000
     34         10.738619   0.000000
     35         10.953626   0.000000
     36         11.515055   0.000000
     37         11.661050   0.000000
     38         12.118406   0.000000
     39         12.347588   0.000000
     40         12.696622   0.000000
     41         12.982682   0.000000
     42         13.223396   0.000000
     43         13.327515   0.000000
     44         14.547038   0.000000
     45         14.961545   0.000000
     46         15.265341   0.000000
     47         15.436393   0.000000
     48         15.898434   0.000000
 
  0.2500000E+00  0.1875000E+00  0.8333333E-01  0.2777778E-01
      1        -12.516968   1.000000
      2        -11.725435   1.000000
      3         -8.573276   1.000000
      4         -8.305914   1.000000
      5         -6.016606   1.000000
      6         -5.530350   1.000000
      7         -4.985455   1.000000
      8         -4.721459   1.000000
      9         -4.162882   1.000000
     10         -3.195759   1.000000
     11         -2.595879   1.000000
     12         -1.908924   1.000000
     13         -1.083597   1.000000
     14         -0.875877   1.000000
     15         -0.488988   1.000000
     16         -0.119836   1.000000
     17          0.086236   1.000000
     18          0.280181   1.000000
     19          0.349829   1.000000
     20          0.981667   1.000000
     21          1.351291   1.000000
     22          1.979033   0.294142
     23          5.668782   0.000000
     24          6.037896   0.000000
     25          6.218589   0.000000
     26          6.529719   0.000000
     27          7.439944   0.000000
     28          7.928471   0.000000
     29          8.068829   0.000000
     30          8.959441   0.000000
     31          9.224542   0.000000
     32          9.702830   0.000000
     33          9.816474   0.000000
     34         10.137913   0.000000
     35         10.314254   0.000000
     36         11.134417   0.000000
     37         11.536296   0.000000
     38         12.026159   0.000000
     39         12.571263   0.000000
     40         12.795305   0.000000
     41         13.356065   0.000000
     42         13.543265   0.000000
     43         13.794448   0.000000
     44         14.443892   0.000000
     45         14.768174   0.000000
     46         15.284060   0.000000
     47         15.534830   0.000000
     48         16.164956   0.000000
 
  0.4166667E+00  0.1875000E+00  0.8333333E-01  0.2777778E-01
      1        -12.296128   1.000000
      2        -12.009626   1.000000
      3         -8.469304   1.000000
      4         -8.350478   1.000000
      5         -6.062508   1.000000
      6         -5.883224   1.000000
      7         -4.743703   1.000000
      8         -4.442471   1.000000
      9         -4.085157   1.000000
     10         -3.110586   1.000000
     11         -2.227335   1.000000
     12         -1.887251   1.000000
     13         -1.070162   1.000000
     14         -0.971941   1.000000
     15         -0.669920   1.000000
     16         -0.445985   1.000000
     17         -0.030127   1.000000
     18          0.082598   1.000000
     19          0.699766   1.000000
     20          0.938471   1.000000
     21          1.131659   1.000000
     22          1.313193   1.000000
     23          6.207422   0.000000
     24          6.482069   0.000000
     25          6.611154   0.000000
     26          7.023791   0.000000
     27          7.340706   0.000000
     28          7.755367   0.000000
     29          7.982545   0.000000
     30          8.546157   0.000000
     31          9.136620   0.000000
     32          9.180079   0.000000
     33          9.869876   0.000000
     34         10.434017   0.000000
     35         10.691516   0.000000
     36         11.040723   0.000000
     37         11.622970   0.000000
     38         11.876941   0.000000
     39         12.436569   0.000000
     40         13.049861   0.000000
     41         13.377767   0.000000
     42         13.851142   0.000000
     43         14.072586   0.000000
     44         14.266983   0.000000
     45         14.927769   0.000000
     46         15.160584   0.000000
     47         15.650093   0.000000
     48         16.271911   0.000000
 
  0.8333333E-01  0.3125000E+00  0.8333333E-01  0.2777778E-01
      1        -12.532262   1.000000
      2        -11.448835   1.000000
      3         -8.526624   1.000000
      4         -8.232267   1.000000
      5         -5.956856   1.000000
      6         -5.911958   1.000000
      7         -5.016844   1.000000
      8         -4.812444   1.000000
      9         -4.463013   1.000000
     10         -3.896125   1.000000
     11         -3.198703   1.000000
     12         -1.453931   1.000000
     13         -1.274318   1.000000
     14         -1.151698   1.000000
     15          0.086708   1.000000
     16          0.212499   1.000000
     17          0.346979   1.000000
     18          0.582766   1.000000
     19          0.660809   1.000000
     20          0.746581   1.000000
     21          1.327050   1.000000
     22          2.483844   0.000000
     23          4.701440   0.000000
     24          5.077570   0.000000
     25          6.329198   0.000000
     26          6.992439   0.000000
     27          7.164822   0.000000
     28          8.350101   0.000000
     29          8.779849   0.000000
     30          9.593426   0.000000
     31          9.690628   0.000000
     32          9.906307   0.000000
     33         10.265724   0.000000
     34         10.453691   0.000000
     35         10.895529   0.000000
     36         11.975319   0.000000
     37         12.125971   0.000000
     38         12.312671   0.000000
     39         12.443199   0.000000
     40         12.536868   0.000000
     41         12.659659   0.000000
     42         13.147760   0.000000
     43         13.354701   0.000000
     44         14.167812   0.000000
     45         14.412306   0.000000
     46         14.994226   0.000000
     47         15.623428   0.000000
     48         15.744734   0.000000
 
  0.2500000E+00  0.3125000E+00  0.8333333E-01  0.2777778E-01
      1        -12.415220   1.000000
      2        -11.631271   1.000000
      3         -8.490106   1.000000
      4         -8.215013   1.000000
      5         -5.895660   1.000000
      6         -5.789366   1.000000
      7         -5.370759   1.000000
      8         -4.978157   1.000000
      9         -4.645610   1.000000
     10         -3.089038   1.000000
     11         -2.482416   1.000000
     12         -1.871646   1.000000
     13         -1.436193   1.000000
     14         -1.170241   1.000000
     15         -0.178609   1.000000
     16          0.049922   1.000000
     17          0.289006   1.000000
     18          0.368508   1.000000
     19          0.492781   1.000000
     20          0.881206   1.000000
     21          1.273424   1.000000
     22          2.030664   0.022660
     23          5.127605   0.000000
     24          5.721485   0.000000
     25          6.335879   0.000000
     26          7.255717   0.000000
     27          7.462764   0.000000
     28          8.313963   0.000000
     29          8.931181   0.000000
     30          9.242332   0.000000
     31          9.461519   0.000000
     32          9.688587   0.000000
     33         10.134974   0.000000
     34         10.643203   0.000000
     35         10.918878   0.000000
     36         11.433581   0.000000
     37         11.843320   0.000000
     38         12.152230   0.000000
     39         12.506150   0.000000
     40         12.709105   0.000000
     41         13.187098   0.000000
     42         13.280440   0.000000
     43         13.534583   0.000000
     44         14.302558   0.000000
     45         14.415351   0.000000
     46         14.993317   0.000000
     47         15.389976   0.000000
     48         16.057103   0.000000
 
  0.4166667E+00  0.3125000E+00  0.8333333E-01  0.2777778E-01
      1        -12.196572   1.000000
      2        -11.912859   1.000000
      3         -8.384262   1.000000
      4         -8.264169   1.000000
      5         -5.922652   1.000000
      6         -5.752507   1.000000
      7         -5.537347   1.000000
      8         -5.252696   1.000000
      9         -4.023103   1.000000
     10         -3.051730   1.000000
     11         -2.122058   1.000000
     12         -1.801403   1.000000
     13         -1.301838   1.000000
     14         -1.093231   1.000000
     15         -0.689194   1.000000
     16         -0.320763   1.000000
     17          0.021679   1.000000
     18          0.200985   1.000000
     19          0.750748   1.000000
     20          1.034350   1.000000
     21          1.171735   1.000000
     22          1.357640   1.000000
     23          6.068915   0.000000
     24          6.510563   0.000000
     25          6.674532   0.000000
     26          6.979622   0.000000
     27          7.250154   0.000000
     28          7.793960   0.000000
     29          8.932081   0.000000
     30          9.161080   0.000000
     31          9.295456   0.000000
     32          9.897942   0.000000
     33         10.109947   0.000000
     34         10.273003   0.000000
     35         11.077210   0.000000
     36         11.497362   0.000000
     37         12.007489   0.000000
     38         12.061526   0.000000
     39         12.655750   0.000000
     40         12.796026   0.000000
     41         12.927362   0.000000
     42         13.501219   0.000000
     43         13.707065   0.000000
     44         13.868179   0.000000
     45         14.889891   0.000000
     46         15.174512   0.000000
     47         15.213580   0.000000
     48         15.847941   0.000000
 
  0.8333333E-01  0.4375000E+00  0.8333333E-01  0.2777778E-01
      1        -12.454167   1.000000
      2        -11.378942   1.000000
      3         -8.468384   1.000000
      4         -8.158334   1.000000
      5         -6.379279   1.000000
      6         -5.840261   1.000000
      7         -5.253469   1.000000
      8         -4.900762   1.000000
      9         -4.376026   1.000000
     10         -3.822113   1.000000
     11         -3.103482   1.000000
     12         -1.831276   1.000000
     13         -1.653928   1.000000
     14         -1.151149   1.000000
     15         -0.004618   1.000000
     16          0.123256   1.000000
     17          0.219459   1.000000
     18          0.378644   1.000000
     19          0.673539   1.000000
     20          1.232999   1.000000
     21          2.248569   0.000000
     22          2.521196   0.000000
     23          4.343029   0.000000
     24          4.786850   0.000000
     25          6.443092   0.000000
     26          7.051970   0.000000
     27          7.453139   0.000000
     28          8.603936   0.000000
     29          8.737740   0.000000
     30          9.584969   0.000000
     31         10.093648   0.000000
     32         10.287038   0.000000
     33         10.448859   0.000000
     34         11.068207   0.000000
     35         11.188904   0.000000
     36         11.439086   0.000000
     37         11.933810   0.000000
     38         12.178538   0.000000
     39         12.447125   0.000000
     40         13.031031   0.000000
     41         13.262173   0.000000
     42         13.478025   0.000000
     43         13.664495   0.000000
     44         14.374618   0.000000
     45         14.779196   0.000000
     46         15.125053   0.000000
     47         15.248768   0.000000
     48         15.420471   0.000000
 
  0.2500000E+00  0.4375000E+00  0.8333333E-01  0.2777778E-01
      1        -12.338090   1.000000
      2        -11.560188   1.000000
      3         -8.428501   1.000000
      4         -8.146343   1.000000
      5         -6.248466   1.000000
      6         -5.763033   1.000000
      7         -5.424497   1.000000
      8         -5.264585   1.000000
      9         -4.584057   1.000000
     10         -2.993490   1.000000
     11         -2.371882   1.000000
     12         -1.847494   1.000000
     13         -1.818906   1.000000
     14         -1.543635   1.000000
     15         -0.328112   1.000000
     16         -0.089537   1.000000
     17          0.103375   1.000000
     18          0.366721   1.000000
     19          0.389769   1.000000
     20          1.456265   1.000000
     21          2.065789   0.001372
     22          2.152716   0.000000
     23          4.788795   0.000000
     24          5.426158   0.000000
     25          6.466640   0.000000
     26          7.276256   0.000000
     27          7.691346   0.000000
     28          8.625371   0.000000
     29          8.814657   0.000000
     30          9.288543   0.000000
     31          9.359400   0.000000
     32         10.183375   0.000000
     33         10.530156   0.000000
     34         11.222023   0.000000
     35         11.316837   0.000000
     36         11.868189   0.000000
     37         11.982958   0.000000
     38         12.083938   0.000000
     39         12.498504   0.000000
     40         12.843702   0.000000
     41         12.976068   0.000000
     42         13.604005   0.000000
     43         13.681415   0.000000
     44         14.216659   0.000000
     45         14.375598   0.000000
     46         14.855441   0.000000
     47         14.910538   0.000000
     48         15.486854   0.000000
 
  0.4166667E+00  0.4375000E+00  0.8333333E-01  0.2777778E-01
      1        -12.121224   1.000000
      2        -11.839724   1.000000
      3         -8.320969   1.000000
      4         -8.199541   1.000000
      5         -6.010333   1.000000
      6         -5.797886   1.000000
      7         -5.705278   1.000000
      8         -5.611908   1.000000
      9         -3.973574   1.000000
     10         -3.000343   1.000000
     11         -2.006158   1.000000
     12         -1.722080   1.000000
     13         -1.656695   1.000000
     14         -1.479177   1.000000
     15         -0.623687   1.000000
     16         -0.404589   1.000000
     17         -0.250268   1.000000
     18         -0.181772   1.000000
     19          0.782067   1.000000
     20          1.388928   1.000000
     21          1.735971   1.000000
     22          1.975889   0.325494
     23          5.737681   0.000000
     24          6.311328   0.000000
     25          6.771843   0.000000
     26          6.941615   0.000000
     27          7.257458   0.000000
     28          7.526183   0.000000
     29          9.123895   0.000000
     30          9.581694   0.000000
     31          9.753189   0.000000
     32         10.075262   0.000000
     33         10.483543   0.000000
     34         10.993815   0.000000
     35         11.780002   0.000000
     36         11.920576   0.000000
     37         12.041364   0.000000
     38         12.105547   0.000000
     39         12.263436   0.000000
     40         12.763097   0.000000
     41         13.107395   0.000000
     42         13.208482   0.000000
     43         13.784703   0.000000
     44         13.800966   0.000000
     45         14.364116   0.000000
     46         14.479921   0.000000
     47         15.251196   0.000000
     48         15.668467   0.000000
 
  0.8333333E-01  0.6250000E-01  0.2500000E+00  0.2777778E-01
      1        -12.661322   1.000000
      2        -11.676206   1.000000
      3         -8.664567   1.000000
      4         -8.262543   1.000000
      5         -6.516844   1.000000
      6         -5.522308   1.000000
      7         -4.164517   1.000000
      8         -4.083914   1.000000
      9         -3.671644   1.000000
     10         -3.032042   1.000000
     11         -2.905906   1.000000
     12         -2.095560   1.000000
     13         -1.705699   1.000000
     14         -1.390201   1.000000
     15         -0.799864   1.000000
     16         -0.215487   1.000000
     17         -0.080515   1.000000
     18          0.256663   1.000000
     19          0.412873   1.000000
     20          1.490487   1.000000
     21          1.935365   0.756094
     22          3.053445   0.000000
     23          5.271281   0.000000
     24          5.615714   0.000000
     25          5.872340   0.000000
     26          6.523027   0.000000
     27          7.173517   0.000000
     28          7.300645   0.000000
     29          7.984827   0.000000
     30          8.828397   0.000000
     31          9.015311   0.000000
     32          9.331069   0.000000
     33          9.844171   0.000000
     34         10.134557   0.000000
     35         10.714202   0.000000
     36         10.977103   0.000000
     37         11.124122   0.000000
     38         11.966916   0.000000
     39         12.076465   0.000000
     40         12.627234   0.000000
     41         12.803469   0.000000
     42         13.538555   0.000000
     43         14.328703   0.000000
     44         14.564031   0.000000
     45         15.024071   0.000000
     46         15.170800   0.000000
     47         15.467533   0.000000
     48         16.434861   0.000000
 
  0.2500000E+00  0.6250000E-01  0.2500000E+00  0.2777778E-01
      1        -12.547705   1.000000
      2        -11.826543   1.000000
      3         -8.749276   1.000000
      4         -8.310958   1.000000
      5         -6.287658   1.000000
      6         -5.275235   1.000000
      7         -4.695272   1.000000
      8         -3.953133   1.000000
      9         -3.194386   1.000000
     10         -3.141201   1.000000
     11         -2.571805   1.000000
     12         -2.096632   1.000000
     13         -1.871343   1.000000
     14         -1.729483   1.000000
     15         -0.543048   1.000000
     16         -0.477192   1.000000
     17         -0.316879   1.000000
     18          0.258176   1.000000
     19          0.411139   1.000000
     20          1.456305   1.000000
     21          2.169296   0.000000
     22          2.232167   0.000000
     23          5.476009   0.000000
     24          6.151190   0.000000
     25          6.283658   0.000000
     26          6.588925   0.000000
     27          6.797796   0.000000
     28          7.086503   0.000000
     29          8.224013   0.000000
     30          8.799384   0.000000
     31          9.058446   0.000000
     32          9.561722   0.000000
     33          9.897863   0.000000
     34         10.237723   0.000000
     35         10.407871   0.000000
     36         10.787449   0.000000
     37         11.330321   0.000000
     38         11.901837   0.000000
     39         12.342386   0.000000
     40         12.994445   0.000000
     41         13.131302   0.000000
     42         13.830276   0.000000
     43         14.241864   0.000000
     44         14.365976   0.000000
     45         14.820950   0.000000
     46         15.351228   0.000000
     47         15.383348   0.000000
     48         15.951314   0.000000
 
  0.4166667E+00  0.6250000E-01  0.2500000E+00  0.2777778E-01
      1        -12.338386   1.000000
      2        -12.074708   1.000000
      3         -8.694799   1.000000
      4         -8.506244   1.000000
      5         -5.924659   1.000000
      6         -5.466398   1.000000
      7         -4.364387   1.000000
      8         -3.696499   1.000000
      9         -3.434896   1.000000
     10         -3.377046   1.000000
     11         -2.449519   1.000000
     12         -2.026594   1.000000
     13         -1.955434   1.000000
     14         -1.810663   1.000000
     15         -0.547467   1.000000
     16         -0.312912   1.000000
     17         -0.168186   1.000000
     18          0.040842   1.000000
     19          0.293239   1.000000
     20          1.096552   1.000000
     21          1.834832   0.999798
     22          2.166828   0.000000
     23          5.826507   0.000000
     24          6.192472   0.000000
     25          6.569807   0.000000
     26          6.849003   0.000000
     27          7.079823   0.000000
     28          7.209147   0.000000
     29          8.318225   0.000000
     30          8.404629   0.000000
     31          8.607647   0.000000
     32          8.718177   0.000000
     33          9.885443   0.000000
     34         10.279922   0.000000
     35         11.044790   0.000000
     36         11.595451   0.000000
     37         12.034022   0.000000
     38         12.229233   0.000000
     39         12.390659   0.000000
     40         12.791241   0.000000
     41         13.354930   0.000000
     42         13.704091   0.000000
     43         13.861853   0.000000
     44         14.175441   0.000000
     45         14.827916   0.000000
     46         15.181818   0.000000
     47         15.475957   0.000000
     48         15.778195   0.000000
 
  0.8333333E-01  0.1875000E+00  0.2500000E+00  0.2777778E-01
      1        -12.593976   1.000000
      2        -11.612719   1.000000
      3         -8.610795   1.000000
      4         -8.201918   1.000000
      5         -6.439933   1.000000
      6         -5.425603   1.000000
      7         -5.057969   1.000000
      8         -4.122281   1.000000
      9         -4.067696   1.000000
     10         -3.607122   1.000000
     11         -2.838289   1.000000
     12         -1.381560   1.000000
     13         -1.116848   1.000000
     14         -0.780411   1.000000
     15         -0.648836   1.000000
     16         -0.552291   1.000000
     17         -0.021892   1.000000
     18          0.219309   1.000000
     19          0.341456   1.000000
     20          0.916388   1.000000
     21          1.323009   1.000000
     22          3.120825   0.000000
     23          5.386462   0.000000
     24          5.608337   0.000000
     25          6.118805   0.000000
     26          6.251624   0.000000
     27          8.061046   0.000000
     28          8.117552   0.000000
     29          8.262671   0.000000
     30          8.750082   0.000000
     31          9.021676   0.000000
     32          9.535020   0.000000
     33          9.715451   0.000000
     34         10.100745   0.000000
     35         10.442337   0.000000
     36         11.310038   0.000000
     37         11.442622   0.000000
     38         12.026865   0.000000
     39         12.499736   0.000000
     40         12.759637   0.000000
     41         13.339808   0.000000
     42         13.494828   0.000000
     43         13.857122   0.000000
     44         14.401844   0.000000
     45         14.646042   0.000000
     46         15.290887   0.000000
     47         15.379504   0.000000
     48         15.658107   0.000000
 
  0.2500000E+00  0.1875000E+00  0.2500000E+00  0.2777778E-01
      1        -12.481006   1.000000
      2        -11.762933   1.000000
      3         -8.689189   1.000000
      4         -8.252721   1.000000
      5         -6.202577   1.000000
      6         -5.187171   1.000000
      7         -4.937921   1.000000
      8         -4.619818   1.000000