Automatically generated mesh
      36
Reciprocal lattice
    0.08333333333334    0.06250000000000    0.08333333333334             8
    0.25000000000000    0.06250000000000    0.08333333333334             8
    0.41666666666666    0.06250000000000    0.08333333333334             8
    0.08333333333334    0.18750000000000    0.08333333333334             8
    0.25000000000000    0.18750000000000    0.08333333333334             8
    0.41666666666666    0.18750000000000    0.08333333333334             8
    0.08333333333334    0.31250000000000    0.08333333333334             8
    0.25000000000000    0.31250000000000    0.08333333333334             8
    0.41666666666666    0.31250000000000    0.08333333333334             8
    0.08333333333334    0.43750000000000    0.08333333333334             8
    0.25000000000000    0.43750000000000    0.08333333333334             8
    0.41666666666666    0.43750000000000    0.08333333333334             8
    0.08333333333334    0.06250000000000    0.25000000000000             8
    0.25000000000000    0.06250000000000    0.25000000000000             8
    0.41666666666666    0.06250000000000    0.25000000000000             8
    0.08333333333334    0.18750000000000    0.25000000000000             8
    0.25000000000000    0.18750000000000    0.25000000000000             8
    0.41666666666666    0.18750000000000    0.25000000000000             8
    0.08333333333334    0.31250000000000    0.25000000000000             8
    0.25000000000000    0.31250000000000    0.25000000000000             8
    0.41666666666666    0.31250000000000    0.25000000000000             8
    0.08333333333334    0.43750000000000    0.25000000000000             8
    0.25000000000000    0.43750000000000    0.25000000000000             8
    0.41666666666666    0.43750000000000    0.25000000000000             8
    0.08333333333334    0.06250000000000    0.41666666666666             8
    0.25000000000000    0.06250000000000    0.41666666666666             8
    0.41666666666666    0.06250000000000    0.41666666666666             8
    0.08333333333334    0.18750000000000    0.41666666666666             8
    0.25000000000000    0.18750000000000    0.41666666666666             8
    0.41666666666666    0.18750000000000    0.41666666666666             8
    0.08333333333334    0.31250000000000    0.41666666666666             8
    0.25000000000000    0.31250000000000    0.41666666666666             8
    0.41666666666666    0.31250000000000    0.41666666666666             8
    0.08333333333334    0.43750000000000    0.41666666666666             8
    0.25000000000000    0.43750000000000    0.41666666666666             8
    0.41666666666666    0.43750000000000    0.41666666666666             8
