       N       E                     dE             d eps       ncg     rms          rms(c)
DAV:   1     0.470303627180E+02    0.47030E+02   -0.16981E+04  3456   0.688E+02
DAV:   2    -0.931676689141E+02   -0.14020E+03   -0.13187E+03  5016   0.145E+02
DAV:   3    -0.975966735401E+02   -0.44290E+01   -0.44121E+01  5040   0.231E+01
DAV:   4    -0.976224117893E+02   -0.25738E-01   -0.25737E-01  4560   0.200E+00
DAV:   5    -0.976227148460E+02   -0.30306E-03   -0.30305E-03  4992   0.211E-01    0.123E+01
DAV:   6    -0.922019674324E+02    0.54207E+01   -0.40429E+00  4992   0.662E+00    0.674E+00
DAV:   7    -0.905754155586E+02    0.16266E+01   -0.30215E+00  5184   0.569E+00    0.185E+00
DAV:   8    -0.905729126230E+02    0.25029E-02   -0.22001E-01  3864   0.159E+00    0.902E-01
DAV:   9    -0.905884117748E+02   -0.15499E-01   -0.23511E-02  4704   0.547E-01    0.227E-01
DAV:  10    -0.905933515631E+02   -0.49398E-02   -0.41950E-03  4200   0.224E-01    0.857E-02
DAV:  11    -0.905948487152E+02   -0.14972E-02   -0.88022E-04  4200   0.104E-01    0.339E-02
DAV:  12    -0.905949863474E+02   -0.13763E-03   -0.89927E-05  4704   0.361E-02    0.114E-02
DAV:  13    -0.905950094117E+02   -0.23064E-04   -0.22263E-05  4272   0.174E-02    0.240E-03
DAV:  14    -0.905950102829E+02   -0.87119E-06   -0.85094E-07  4680   0.384E-03
   1 F= -.90595010E+02 E0= -.90593029E+02  d E =-.396178E-02
