   14   14    1    1
  0.1021960E+02  0.5697000E-09  0.4047900E-09  0.6204200E-09  0.5000000E-15
  1.000000000000000E-004
  CAR 
 Kpoints                                 
     42   1260     48
 
  0.0000000E+00  0.0000000E+00  0.0000000E+00  0.1146657E-03
      1        -12.733149   1.000000
      2        -11.575991   1.000000
      3         -8.661727   1.000000
      4         -8.424456   1.000000
      5         -6.076842   1.000000
      6         -5.058800   1.000000
      7         -4.637696   1.000000
      8         -4.349018   1.000000
      9         -3.972883   1.000000
     10         -3.597928   1.000000
     11         -2.421293   1.000000
     12         -2.241808   1.000000
     13         -2.182402   1.000000
     14         -1.051811   1.000000
     15         -0.036411   1.000000
     16         -0.002539   1.000000
     17          0.150414   1.000000
     18          0.173944   1.000000
     19          0.565755   1.000000
     20          2.080759   0.000000
     21          2.126941   0.000000
     22          2.215821   0.000000
     23          5.412758   0.000000
     24          5.803066   0.000000
     25          5.818384   0.000000
     26          5.911736   0.000000
     27          6.787019   0.000000
     28          7.674118   0.000000
     29          7.702614   0.000000
     30          8.635587   0.000000
     31          8.754114   0.000000
     32          8.854298   0.000000
     33          9.042347   0.000000
     34         10.030402   0.000000
     35         11.145164   0.000000
     36         11.401048   0.000000
     37         11.770958   0.000000
     38         11.803629   0.000000
     39         11.900448   0.000000
     40         12.355649   0.000000
     41         12.805964   0.000000
     42         13.396334   0.000000
     43         13.575311   0.000000
     44         15.556154   0.000000
     45         15.568989   0.000000
     46         15.943485   0.000000
     47         16.360142   0.000000
     48         16.600787   0.000000
 
  0.5263158E-01  0.0000000E+00  0.0000000E+00  0.2293315E-03
      1        -12.727056   1.000000
      2        -11.586637   1.000000
      3         -8.658903   1.000000
      4         -8.422644   1.000000
      5         -6.063989   1.000000
      6         -5.140797   1.000000
      7         -4.669519   1.000000
      8         -4.252238   1.000000
      9         -3.964331   1.000000
     10         -3.538752   1.000000
     11         -2.418670   1.000000
     12         -2.243532   1.000000
     13         -2.202385   1.000000
     14         -1.097965   1.000000
     15         -0.030307   1.000000
     16          0.007645   1.000000
     17          0.155191   1.000000
     18          0.157570   1.000000
     19          0.551694   1.000000
     20          2.067803   0.000000
     21          2.115495   0.000000
     22          2.199365   0.000000
     23          5.426644   0.000000
     24          5.795113   0.000000
     25          5.798275   0.000000
     26          5.993032   0.000000
     27          6.773766   0.000000
     28          7.498476   0.000000
     29          7.848244   0.000000
     30          8.655901   0.000000
     31          8.809814   0.000000
     32          8.891165   0.000000
     33          9.045252   0.000000
     34         10.048739   0.000000
     35         11.155476   0.000000
     36         11.341230   0.000000
     37         11.666304   0.000000
     38         11.768012   0.000000
     39         11.933249   0.000000
     40         12.367829   0.000000
     41         12.875669   0.000000
     42         13.505220   0.000000
     43         13.517979   0.000000
     44         15.364500   0.000000
     45         15.603612   0.000000
     46         16.081649   0.000000
     47         16.346668   0.000000
     48         16.376043   0.000000
 
  0.1052632E+00  0.0000000E+00  0.0000000E+00  0.2293315E-03
      1        -12.708807   1.000000
      2        -11.617907   1.000000
      3         -8.650255   1.000000
      4         -8.417519   1.000000
      5         -6.030623   1.000000
      6         -5.313138   1.000000
      7         -4.738397   1.000000
      8         -4.035918   1.000000
      9         -3.938741   1.000000
     10         -3.383944   1.000000
     11         -2.410688   1.000000
     12         -2.260242   1.000000
     13         -2.248605   1.000000
     14         -1.230640   1.000000
     15         -0.012206   1.000000
     16          0.036660   1.000000
     17          0.099768   1.000000
     18          0.176984   1.000000
     19          0.510159   1.000000
     20          2.030158   0.000010
     21          2.082160   0.000000
     22          2.149842   0.000000
     23          5.465498   0.000000
     24          5.773278   0.000000
     25          5.815541   0.000000
     26          6.157368   0.000000
     27          6.736142   0.000000
     28          7.301187   0.000000
     29          7.970608   0.000000
     30          8.713799   0.000000
     31          8.959033   0.000000
     32          8.996435   0.000000
     33          9.052391   0.000000
     34         10.105048   0.000000
     35         11.170382   0.000000
     36         11.186841   0.000000
     37         11.411788   0.000000
     38         11.705100   0.000000
     39         12.028426   0.000000
     40         12.403962   0.000000
     41         13.025954   0.000000
     42         13.358794   0.000000
     43         13.773032   0.000000
     44         15.060626   0.000000
     45         15.697080   0.000000
     46         16.065096   0.000000
     47         16.247737   0.000000
     48         16.422119   0.000000
 
  0.1578947E+00  0.0000000E+00  0.0000000E+00  0.2293315E-03
      1        -12.678623   1.000000
      2        -11.668008   1.000000
      3         -8.635466   1.000000
      4         -8.410074   1.000000
      5         -5.992199   1.000000
      6         -5.501910   1.000000
      7         -4.794353   1.000000
      8         -3.896337   1.000000
      9         -3.775495   1.000000
     10         -3.171889   1.000000
     11         -2.397079   1.000000
     12         -2.350503   1.000000
     13         -2.256907   1.000000
     14         -1.435192   1.000000
     15          0.010137   1.000000
     16          0.017135   1.000000
     17          0.080327   1.000000
     18          0.197314   1.000000
     19          0.449852   1.000000
     20          1.971493   0.004500
     21          2.029720   0.000010
     22          2.067351   0.000000
     23          5.521782   0.000000
     24          5.743117   0.000000
     25          5.898239   0.000000
     26          6.370889   0.000000
     27          6.679969   0.000000
     28          7.115127   0.000000
     29          8.067561   0.000000
     30          8.798945   0.000000
     31          9.032584   0.000000
     32          9.163843   0.000000
     33          9.181598   0.000000
     34         10.205257   0.000000
     35         10.910344   0.000000
     36         11.094287   0.000000
     37         11.239027   0.000000
     38         11.679732   0.000000
     39         12.169113   0.000000
     40         12.470337   0.000000
     41         13.124841   0.000000
     42         13.135506   0.000000
     43         14.116192   0.000000
     44         14.821187   0.000000
     45         15.759392   0.000000
     46         15.828288   0.000000
     47         16.322632   0.000000
     48         16.494335   0.000000
 
  0.2105263E+00  0.0000000E+00  0.0000000E+00  0.2293315E-03
      1        -12.636859   1.000000
      2        -11.734182   1.000000
      3         -8.614362   1.000000
      4         -8.401875   1.000000
      5         -5.970944   1.000000
      6         -5.680288   1.000000
      7         -4.794444   1.000000
      8         -3.837500   1.000000
      9         -3.501318   1.000000
     10         -2.929489   1.000000
     11         -2.465932   1.000000
     12         -2.377313   1.000000
     13         -2.268079   1.000000
     14         -1.692340   1.000000
     15         -0.109747   1.000000
     16          0.056415   1.000000
     17          0.133041   1.000000
     18          0.173620   1.000000
     19          0.415050   1.000000
     20          1.897817   0.298689
     21          1.953319   0.017952
     22          1.962537   0.009169
     23          5.585559   0.000000
     24          5.712219   0.000000
     25          6.047487   0.000000
     26          6.613542   0.000000
     27          6.623348   0.000000
     28          6.951243   0.000000
     29          8.150777   0.000000
     30          8.888684   0.000000
     31          8.997382   0.000000
     32          9.393609   0.000000
     33          9.408904   0.000000
     34         10.362038   0.000000
     35         10.585435   0.000000
     36         10.775177   0.000000
     37         11.306250   0.000000
     38         11.724259   0.000000
     39         12.304572   0.000000
     40         12.602339   0.000000
     41         12.841536   0.000000
     42         13.081508   0.000000
     43         14.489321   0.000000
     44         14.748488   0.000000
     45         15.443259   0.000000
     46         15.979535   0.000000
     47         16.218069   0.000000
     48         16.492554   0.000000
 
  0.2631579E+00  0.0000000E+00  0.0000000E+00  0.2293315E-03
      1        -12.584056   1.000000
      2        -11.813090   1.000000
      3         -8.587243   1.000000
      4         -8.395037   1.000000
      5         -5.982589   1.000000
      6         -5.837188   1.000000
      7         -4.713978   1.000000
      8         -3.762759   1.000000
      9         -3.233031   1.000000
     10         -2.674961   1.000000
     11         -2.598979   1.000000
     12         -2.352498   1.000000
     13         -2.280769   1.000000
     14         -1.977628   1.000000
     15         -0.254148   1.000000
     16          0.059372   1.000000
     17          0.103588   1.000000
     18          0.188598   1.000000
     19          0.455275   1.000000
     20          1.811611   0.971939
     21          1.817113   0.960326
     22          1.886122   0.421758
     23          5.646652   0.000000
     24          5.687977   0.000000
     25          6.259148   0.000000
     26          6.546399   0.000000
     27          6.812877   0.000000
     28          6.907512   0.000000
     29          8.225315   0.000000
     30          8.931372   0.000000
     31          8.936902   0.000000
     32          9.634840   0.000000
     33          9.669556   0.000000
     34         10.214852   0.000000
     35         10.518895   0.000000
     36         10.590562   0.000000
     37         11.371022   0.000000
     38         11.842652   0.000000
     39         12.391706   0.000000
     40         12.527645   0.000000
     41         12.825289   0.000000
     42         12.843576   0.000000
     43         14.833531   0.000000
     44         14.870217   0.000000
     45         15.130522   0.000000
     46         15.968546   0.000000
     47         16.097277   0.000000
     48         16.138036   0.000000
 
  0.3157895E+00  0.0000000E+00  0.0000000E+00  0.2293315E-03
      1        -12.520904   1.000000
      2        -11.901201   1.000000
      3         -8.555266   1.000000
      4         -8.392010   1.000000
      5         -6.023340   1.000000
      6         -5.966368   1.000000
      7         -4.553632   1.000000
      8         -3.672831   1.000000
      9         -3.002068   1.000000
     10         -2.742776   1.000000
     11         -2.433707   1.000000
     12         -2.371280   1.000000
     13         -2.283933   1.000000
     14         -2.206604   1.000000
     15         -0.414240   1.000000
     16         -0.111309   1.000000
     17          0.155629   1.000000
     18          0.240469   1.000000
     19          0.543126   1.000000
     20          1.648637   1.000000
     21          1.738759   0.999964
     22          1.806907   0.979481
     23          5.675459   0.000000
     24          5.695988   0.000000
     25          6.488460   0.000000
     26          6.526250   0.000000
     27          6.699007   0.000000
     28          7.217604   0.000000
     29          8.292939   0.000000
     30          8.843249   0.000000
     31          8.871557   0.000000
     32          9.820563   0.000000
     33          9.885532   0.000000
     34          9.938172   0.000000
     35         10.399403   0.000000
     36         10.898776   0.000000
     37         11.405230   0.000000
     38         12.023507   0.000000
     39         12.196451   0.000000
     40         12.457227   0.000000
     41         12.504585   0.000000
     42         13.083854   0.000000
     43         14.841979   0.000000
     44         14.955869   0.000000
     45         15.245392   0.000000
     46         15.604531   0.000000
     47         15.660579   0.000000
     48         16.290212   0.000000
 
  0.3684211E+00  0.0000000E+00  0.0000000E+00  0.2293315E-03
      1        -12.448320   1.000000
      2        -11.994996   1.000000
      3         -8.520330   1.000000
      4         -8.395106   1.000000
      5         -6.076134   1.000000
      6         -6.063742   1.000000
      7         -4.329850   1.000000
      8         -3.568685   1.000000
      9         -2.919434   1.000000
     10         -2.891449   1.000000
     11         -2.524928   1.000000
     12         -2.348407   1.000000
     13         -2.176522   1.000000
     14         -2.153498   1.000000
     15         -0.574199   1.000000
     16         -0.307149   1.000000
     17          0.208304   1.000000
     18          0.281968   1.000000
     19          0.658115   1.000000
     20          1.472599   1.000000
     21          1.672763   1.000000
     22          1.732117   0.999984
     23          5.676391   0.000000
     24          5.726695   0.000000
     25          6.449005   0.000000
     26          6.606965   0.000000
     27          6.840177   0.000000
     28          7.549016   0.000000
     29          8.356031   0.000000
     30          8.654496   0.000000
     31          8.745839   0.000000
     32          9.420815   0.000000
     33         10.144632   0.000000
     34         10.193779   0.000000
     35         10.452567   0.000000
     36         11.277232   0.000000
     37         11.388056   0.000000
     38         11.858199   0.000000
     39         12.131630   0.000000
     40         12.254770   0.000000
     41         12.511251   0.000000
     42         13.290080   0.000000
     43         14.619415   0.000000
     44         15.014597   0.000000
     45         15.138694   0.000000
     46         15.335502   0.000000
     47         15.603836   0.000000
     48         16.413852   0.000000
 
  0.4210526E+00  0.0000000E+00  0.0000000E+00  0.2293315E-03
      1        -12.367448   1.000000
      2        -12.091206   1.000000
      3         -8.485073   1.000000
      4         -8.406047   1.000000
      5         -6.127004   1.000000
      6         -6.123652   1.000000
      7         -4.060589   1.000000
      8         -3.451558   1.000000
      9         -3.133096   1.000000
     10         -3.040166   1.000000
     11         -2.503037   1.000000
     12         -2.366964   1.000000
     13         -2.057474   1.000000
     14         -1.974237   1.000000
     15         -0.702538   1.000000
     16         -0.504397   1.000000
     17          0.256027   1.000000
     18          0.306713   1.000000
     19          0.793968   1.000000
     20          1.292119   1.000000
     21          1.628534   1.000000
     22          1.669663   1.000000
     23          5.689045   0.000000
     24          5.736028   0.000000
     25          6.434347   0.000000
     26          6.534315   0.000000
     27          7.191060   0.000000
     28          7.898095   0.000000
     29          8.328968   0.000000
     30          8.418841   0.000000
     31          8.650238   0.000000
     32          9.025330   0.000000
     33         10.396980   0.000000
     34         10.418233   0.000000
     35         10.636468   0.000000
     36         11.333216   0.000000
     37         11.521948   0.000000
     38         11.684201   0.000000
     39         11.785306   0.000000
     40         12.510995   0.000000
     41         12.515257   0.000000
     42         13.312867   0.000000
     43         14.541527   0.000000
     44         14.817950   0.000000
     45         14.973620   0.000000
     46         15.028814   0.000000
     47         15.933007   0.000000
     48         16.469317   0.000000
 
  0.4736842E+00  0.0000000E+00  0.0000000E+00  0.2293315E-03
      1        -12.279760   1.000000
      2        -12.186972   1.000000
      3         -8.452503   1.000000
      4         -8.425457   1.000000
      5         -6.156020   1.000000
      6         -6.153152   1.000000
      7         -3.760767   1.000000
      8         -3.444221   1.000000
      9         -3.323033   1.000000
     10         -3.185074   1.000000
     11         -2.443349   1.000000
     12         -2.399119   1.000000
     13         -1.934171   1.000000
     14         -1.889697   1.000000
     15         -0.745900   1.000000
     16         -0.668530   1.000000
     17          0.292118   1.000000
     18          0.310266   1.000000
     19          0.947384   1.000000
     20          1.114953   1.000000
     21          1.612814   1.000000
     22          1.627612   1.000000
     23          5.708501   0.000000
     24          5.727243   0.000000
     25          6.445663   0.000000
     26          6.480094   0.000000
     27          7.567316   0.000000
     28          7.954029   0.000000
     29          8.261950   0.000000
     30          8.486440   0.000000
     31          8.563026   0.000000
     32          8.638310   0.000000
     33         10.575509   0.000000
     34         10.578330   0.000000
     35         10.895770   0.000000
     36         11.197128   0.000000
     37         11.318532   0.000000
     38         11.471428   0.000000
     39         12.094485   0.000000
     40         12.383218   0.000000
     41         12.804072   0.000000
     42         13.103009   0.000000
     43         14.622861   0.000000
     44         14.739074   0.000000
     45         14.781015   0.000000
     46         14.853285   0.000000
     47         16.212598   0.000000
     48         16.405437   0.000000
 
  0.0000000E+00  0.3703704E-01  0.0000000E+00  0.2293315E-03
      1        -12.729842   1.000000
      2        -11.573021   1.000000
      3         -8.659120   1.000000
      4         -8.421244   1.000000
      5         -6.073158   1.000000
      6         -5.053680   1.000000
      7         -4.634642   1.000000
      8         -4.358511   1.000000
      9         -4.048839   1.000000
     10         -3.594486   1.000000
     11         -2.600211   1.000000
     12         -2.323310   1.000000
     13         -1.808994   1.000000
     14         -1.051204   1.000000
     15         -0.076696   1.000000
     16         -0.050063   1.000000
     17          0.152874   1.000000
     18          0.196548   1.000000
     19          0.581883   1.000000
     20          2.028259   0.000012
     21          2.089678   0.000000
     22          2.236616   0.000000
     23          5.448671   0.000000
     24          5.760765   0.000000
     25          5.862183   0.000000
     26          5.878710   0.000000
     27          6.829765   0.000000
     28          7.729705   0.000000
     29          7.730715   0.000000
     30          8.510453   0.000000
     31          8.753882   0.000000
     32          8.922146   0.000000
     33          9.050545   0.000000
     34         10.116277   0.000000
     35         11.178838   0.000000
     36         11.389388   0.000000
     37         11.759758   0.000000
     38         11.818971   0.000000
     39         11.914586   0.000000
     40         12.395561   0.000000
     41         12.807511   0.000000
     42         13.350575   0.000000
     43         13.527978   0.000000
     44         15.540071   0.000000
     45         15.550922   0.000000
     46         15.954952   0.000000
     47         16.333652   0.000000
     48         16.485639   0.000000
 
  0.5263158E-01  0.3703704E-01  0.0000000E+00  0.4586630E-03
      1        -12.723740   1.000000
      2        -11.583657   1.000000
      3         -8.656293   1.000000
      4         -8.419440   1.000000
      5         -6.060279   1.000000
      6         -5.136084   1.000000
      7         -4.666504   1.000000
      8         -4.266097   1.000000
      9         -4.035657   1.000000
     10         -3.535360   1.000000
     11         -2.609716   1.000000
     12         -2.320551   1.000000
     13         -1.821645   1.000000
     14         -1.097325   1.000000
     15         -0.070758   1.000000
     16         -0.041309   1.000000
     17          0.160229   1.000000
     18          0.179687   1.000000
     19          0.567787   1.000000
     20          2.015626   0.000057
     21          2.078248   0.000000
     22          2.219722   0.000000
     23          5.462815   0.000000
     24          5.748195   0.000000
     25          5.840685   0.000000
     26          5.965742   0.000000
     27          6.816548   0.000000
     28          7.542124   0.000000
     29          7.888199   0.000000
     30          8.531804   0.000000
     31          8.810278   0.000000
     32          8.958481   0.000000
     33          9.054754   0.000000
     34         10.130855   0.000000
     35         11.188781   0.000000
     36         11.329669   0.000000
     37         11.656098   0.000000
     38         11.782044   0.000000
     39         11.947476   0.000000
     40         12.407584   0.000000
     41         12.877453   0.000000
     42         13.460127   0.000000
     43         13.470934   0.000000
     44         15.369927   0.000000
     45         15.573409   0.000000
     46         16.069394   0.000000
     47         16.318108   0.000000
     48         16.358084   0.000000
 
  0.1052632E+00  0.3703704E-01  0.0000000E+00  0.4586630E-03
      1        -12.705495   1.000000
      2        -11.614928   1.000000
      3         -8.647643   1.000000
      4         -8.414340   1.000000
      5         -6.026811   1.000000
      6         -5.308804   1.000000
      7         -4.735487   1.000000
      8         -4.092693   1.000000
      9         -3.967206   1.000000
     10         -3.380798   1.000000
     11         -2.638529   1.000000
     12         -2.312219   1.000000
     13         -1.856936   1.000000
     14         -1.229969   1.000000
     15         -0.053461   1.000000
     16         -0.020626   1.000000
     17          0.133790   1.000000
     18          0.180535   1.000000
     19          0.526085   1.000000
     20          1.978769   0.002417
     21          2.044939   0.000001
     22          2.169111   0.000000
     23          5.502352   0.000000
     24          5.755378   0.000000
     25          5.830244   0.000000
     26          6.127834   0.000000
     27          6.779018   0.000000
     28          7.346640   0.000000
     29          8.009064   0.000000
     30          8.592361   0.000000
     31          8.961042   0.000000
     32          9.059425   0.000000
     33          9.069011   0.000000
     34         10.175535   0.000000
     35         11.158965   0.000000
     36         11.219052   0.000000
     37         11.400118   0.000000
     38         11.722283   0.000000
     39         12.042846   0.000000
     40         12.443236   0.000000
     41         13.028573   0.000000
     42         13.312481   0.000000
     43         13.726505   0.000000
     44         15.075167   0.000000
     45         15.662078   0.000000
     46         16.057891   0.000000
     47         16.186913   0.000000
     48         16.433087   0.000000
 
  0.1578947E+00  0.3703704E-01  0.0000000E+00  0.4586630E-03
      1        -12.675318   1.000000
      2        -11.665006   1.000000
      3         -8.632835   1.000000
      4         -8.406916   1.000000
      5         -5.988212   1.000000
      6         -5.497689   1.000000
      7         -4.791642   1.000000
      8         -4.006554   1.000000
      9         -3.750972   1.000000
     10         -3.169569   1.000000
     11         -2.686973   1.000000
     12         -2.298127   1.000000
     13         -1.908094   1.000000
     14         -1.434416   1.000000
     15         -0.026642   1.000000
     16         -0.025376   1.000000
     17          0.094092   1.000000
     18          0.204425   1.000000
     19          0.464628   1.000000
     20          1.920861   0.119007
     21          1.992582   0.000667
     22          2.085397   0.000000
     23          5.559540   0.000000
     24          5.757555   0.000000
     25          5.881403   0.000000
     26          6.338424   0.000000
     27          6.723020   0.000000
     28          7.164338   0.000000
     29          8.104444   0.000000
     30          8.680518   0.000000
     31          9.060645   0.000000
     32          9.167249   0.000000
     33          9.239320   0.000000
     34         10.255467   0.000000
     35         10.899469   0.000000
     36         11.082332   0.000000
     37         11.269395   0.000000
     38         11.703627   0.000000
     39         12.184252   0.000000
     40         12.508286   0.000000
     41         13.079752   0.000000
     42         13.139498   0.000000
     43         14.060289   0.000000
     44         14.848624   0.000000
     45         15.737583   0.000000
     46         15.815406   0.000000
     47         16.221542   0.000000
     48         16.529074   0.000000
 
  0.2105263E+00  0.3703704E-01  0.0000000E+00  0.4586630E-03
      1        -12.633569   1.000000
      2        -11.731148   1.000000
      3         -8.611702   1.000000
      4         -8.398760   1.000000
      5         -5.966757   1.000000
      6         -5.676078   1.000000
      7         -4.791960   1.000000
      8         -3.942908   1.000000
      9         -3.482036   1.000000
     10         -2.933050   1.000000
     11         -2.750675   1.000000
     12         -2.278076   1.000000
     13         -1.966978   1.000000
     14         -1.691377   1.000000
     15         -0.116533   1.000000
     16          0.004064   1.000000
     17          0.119569   1.000000
     18          0.195006   1.000000
     19          0.424029   1.000000
     20          1.846864   0.819375
     21          1.925495   0.094923
     22          1.971128   0.004638
     23          5.624118   0.000000
     24          5.734348   0.000000
     25          6.023644   0.000000
     26          6.583407   0.000000
     27          6.656833   0.000000
     28          7.009407   0.000000
     29          8.186390   0.000000
     30          8.771966   0.000000
     31          9.037766   0.000000
     32          9.397899   0.000000
     33          9.464339   0.000000
     34         10.373921   0.000000
     35         10.582402   0.000000
     36         10.770122   0.000000
     37         11.333705   0.000000
     38         11.756386   0.000000
     39         12.323650   0.000000
     40         12.633820   0.000000
     41         12.800318   0.000000
     42         13.086493   0.000000
     43         14.403271   0.000000
     44         14.809144   0.000000
     45         15.454983   0.000000
     46         15.925885   0.000000
     47         16.146073   0.000000
     48         16.503374   0.000000
 
  0.2631579E+00  0.3703704E-01  0.0000000E+00  0.4586630E-03
      1        -12.580762   1.000000
      2        -11.810039   1.000000
      3         -8.584588   1.000000
      4         -8.391991   1.000000
      5         -5.978231   1.000000
      6         -5.832957   1.000000
      7         -4.711726   1.000000
      8         -3.869314   1.000000
      9         -3.212420   1.000000
     10         -2.861732   1.000000
     11         -2.655017   1.000000
     12         -2.254349   1.000000
     13         -2.026835   1.000000
     14         -1.975824   1.000000
     15         -0.253922   1.000000
     16          0.002692   1.000000
     17          0.134639   1.000000
     18          0.169333   1.000000
     19          0.458887   1.000000
     20          1.760569   0.999601
     21          1.834439   0.896961
     22          1.849200   0.801478
     23          5.685598   0.000000
     24          5.712810   0.000000
     25          6.233411   0.000000
     26          6.590028   0.000000
     27          6.791602   0.000000
     28          6.948578   0.000000
     29          8.259790   0.000000
     30          8.821140   0.000000
     31          8.988858   0.000000
     32          9.639697   0.000000
     33          9.717578   0.000000
     34         10.189100   0.000000
     35         10.462925   0.000000
     36         10.654705   0.000000
     37         11.393724   0.000000
     38         11.882454   0.000000
     39         12.414834   0.000000
     40         12.485580   0.000000
     41         12.849127   0.000000
     42         12.856692   0.000000
     43         14.697619   0.000000
     44         14.984063   0.000000
     45         15.151875   0.000000
     46         15.939357   0.000000
     47         15.951564   0.000000
     48         16.252630   0.000000
 
  0.3157895E+00  0.3703704E-01  0.0000000E+00  0.4586630E-03
      1        -12.517634   1.000000
      2        -11.898117   1.000000
      3         -8.552587   1.000000
      4         -8.389024   1.000000
      5         -6.018888   1.000000
      6         -5.962082   1.000000
      7         -4.551538   1.000000
      8         -3.783071   1.000000