       N       E                     dE             d eps       ncg     rms          rms(c)
DAV:   1     0.356327859178E+02    0.35633E+02   -0.15902E+04120960   0.627E+02
DAV:   2    -0.936678453630E+02   -0.12930E+03   -0.12205E+03170064   0.136E+02
DAV:   3    -0.975908568182E+02   -0.39230E+01   -0.39064E+01174432   0.215E+01
DAV:   4    -0.976134264102E+02   -0.22570E-01   -0.22568E-01153384   0.183E+00
DAV:   5    -0.976136908338E+02   -0.26442E-03   -0.26442E-03172752   0.194E-01    0.123E+01
