 running   24 mpi-ranks, with    1 threads/rank, on    1 nodes
 distrk:  each k-point on   24 cores,    1 groups
 distr:  one band on    1 cores,   24 groups
 vasp.6.4.3 19Mar24 (build May 31 2024 16:31:43) complex                        
  
 POSCAR found type information on POSCAR B 
 POSCAR found :  1 types and      14 ions
 Reading from existing POTCAR
 scaLAPACK will be used
 Reading from existing POTCAR
 LDA part: xc-table for (Slater+PW92), standard interpolation
 POSCAR, INCAR and KPOINTS ok, starting setup
 FFT: planning ... GRIDC
 FFT: planning ... GRID_SOFT
 FFT: planning ... GRID
 WAVECAR not read
 entering main loop
       N       E                     dE             d eps       ncg     rms          rms(c)
DAV:   1     0.356327859178E+02    0.35633E+02   -0.15902E+04120960   0.627E+02
DAV:   2    -0.936678453630E+02   -0.12930E+03   -0.12205E+03170064   0.136E+02
DAV:   3    -0.975908568182E+02   -0.39230E+01   -0.39064E+01174432   0.215E+01
DAV:   4    -0.976134264102E+02   -0.22570E-01   -0.22568E-01153384   0.183E+00
