 running   24 mpi-ranks, with    1 threads/rank, on    1 nodes
 distrk:  each k-point on   24 cores,    1 groups
 distr:  one band on    1 cores,   24 groups
 vasp.6.4.3 19Mar24 (build May 31 2024 16:31:43) complex                        
  
 POSCAR found type information on POSCAR B 
 POSCAR found :  1 types and      14 ions
 Reading from existing POTCAR
 scaLAPACK will be used
 Reading from existing POTCAR
 LDA part: xc-table for (Slater+PW92), standard interpolation
 POSCAR, INCAR and KPOINTS ok, starting setup
 FFT: planning ... GRIDC
 FFT: planning ... GRID_SOFT
 FFT: planning ... GRID
 WAVECAR not read
 entering main loop
       N       E                     dE             d eps       ncg     rms          rms(c)
DAV:   1     0.356327859178E+02    0.35633E+02   -0.15902E+04120960   0.627E+02
DAV:   2    -0.936678453630E+02   -0.12930E+03   -0.12205E+03170064   0.136E+02
DAV:   3    -0.975908568182E+02   -0.39230E+01   -0.39064E+01174432   0.215E+01
DAV:   4    -0.976134264102E+02   -0.22570E-01   -0.22568E-01153384   0.183E+00
DAV:   5    -0.976136908338E+02   -0.26442E-03   -0.26442E-03172752   0.194E-01    0.123E+01
DAV:   6    -0.922008287906E+02    0.54129E+01   -0.39480E+00174624   0.655E+00    0.677E+00
DAV:   7    -0.905506824075E+02    0.16501E+01   -0.32007E+00180528   0.583E+00    0.171E+00
DAV:   8    -0.905615171019E+02   -0.10835E-01   -0.22610E-01133152   0.160E+00    0.755E-01
DAV:   9    -0.905762106884E+02   -0.14694E-01   -0.17525E-02170448   0.452E-01    0.206E-01
DAV:  10    -0.905805516632E+02   -0.43410E-02   -0.25773E-03134040   0.177E-01    0.665E-02
DAV:  11    -0.905817461303E+02   -0.11945E-02   -0.69743E-04158304   0.899E-02    0.339E-02
DAV:  12    -0.905818444738E+02   -0.98343E-04   -0.66242E-05153072   0.304E-02    0.664E-03
DAV:  13    -0.905818541141E+02   -0.96404E-05   -0.73125E-06165384   0.101E-02    0.205E-03
DAV:  14    -0.905818551168E+02   -0.10027E-05   -0.58960E-07154680   0.312E-03    0.710E-04
DAV:  15    -0.905818552951E+02   -0.17836E-06   -0.11180E-07142176   0.136E-03
