  14  14   0   0
  0.1021960E+02  0.5697000E-09  0.4047900E-09  0.6204200E-09  0.5000000E-15
  1.000000000000000E-004
  CAR 
 Kpoints                                 
     17.94097445    -14.18112819  301      1.91779768      1.00000000
    -14.181  0.0000E+00  0.0000E+00
    -14.074  0.0000E+00  0.0000E+00
    -13.967  0.0000E+00  0.0000E+00
    -13.860  0.0000E+00  0.0000E+00
    -13.753  0.0000E+00  0.0000E+00
    -13.646  0.0000E+00  0.0000E+00
    -13.539  0.0000E+00  0.0000E+00
    -13.432  0.0000E+00  0.0000E+00
    -13.325  0.0000E+00  0.0000E+00
    -13.217  0.0000E+00  0.0000E+00
    -13.110  0.0000E+00  0.0000E+00
    -13.003  0.1284E-15  0.1375E-16
    -12.896  0.6429E-07  0.6883E-08
    -12.789  0.5330E-02  0.5707E-03
    -12.682  0.5542E+00  0.5991E-01
    -12.575  0.2411E+01  0.3180E+00
    -12.468  0.3746E+01  0.7191E+00
    -12.361  0.4076E+01  0.1156E+01
    -12.254  0.3898E+01  0.1573E+01
    -12.147  0.2239E+01  0.1813E+01
    -12.040  0.3321E+01  0.2168E+01
    -11.933  0.1929E+01  0.2375E+01
    -11.826  0.3327E+01  0.2731E+01
    -11.718  0.2916E+01  0.3043E+01
    -11.611  0.3917E+01  0.3463E+01
    -11.504  0.2896E+01  0.3773E+01
    -11.397  0.1723E+01  0.3957E+01
    -11.290  0.3918E+00  0.3999E+01
    -11.183  0.8398E-02  0.4000E+01
    -11.076  0.2133E-06  0.4000E+01
    -10.969  0.8493E-15  0.4000E+01
    -10.862  0.0000E+00  0.4000E+01
    -10.755  0.0000E+00  0.4000E+01
    -10.648  0.0000E+00  0.4000E+01
    -10.541  0.0000E+00  0.4000E+01
    -10.434  0.0000E+00  0.4000E+01
    -10.326  0.0000E+00  0.4000E+01
    -10.219  0.0000E+00  0.4000E+01
    -10.112  0.0000E+00  0.4000E+01
    -10.005  0.0000E+00  0.4000E+01
     -9.898  0.0000E+00  0.4000E+01
     -9.791  0.0000E+00  0.4000E+01
     -9.684  0.0000E+00  0.4000E+01
     -9.577  0.0000E+00  0.4000E+01
     -9.470  0.0000E+00  0.4000E+01
     -9.363  0.0000E+00  0.4000E+01
     -9.256  0.0000E+00  0.4000E+01
     -9.149  0.0000E+00  0.4000E+01
     -9.042  0.1753E-09  0.4000E+01
     -8.935  0.4086E-03  0.4000E+01
     -8.827  0.3205E+00  0.4034E+01
     -8.720  0.2097E+01  0.4259E+01
     -8.613  0.5517E+01  0.4850E+01
     -8.506  0.6982E+01  0.5597E+01
     -8.399  0.6129E+01  0.6253E+01
     -8.292  0.5370E+01  0.6828E+01
     -8.185  0.4783E+01  0.7341E+01
     -8.078  0.3833E+01  0.7751E+01
     -7.971  0.1701E+01  0.7933E+01
     -7.864  0.5778E+00  0.7995E+01
     -7.757  0.4712E-01  0.8000E+01
     -7.650  0.1569E-04  0.8000E+01
     -7.543  0.1069E-11  0.8000E+01
     -7.435  0.0000E+00  0.8000E+01
     -7.328  0.0000E+00  0.8000E+01
     -7.221  0.0000E+00  0.8000E+01
     -7.114  0.9246E-09  0.8000E+01
     -7.007  0.6274E-03  0.8000E+01
     -6.900  0.1336E+00  0.8014E+01
     -6.793  0.2603E+00  0.8042E+01
     -6.686  0.2803E+00  0.8072E+01
     -6.579  0.8575E+00  0.8164E+01
     -6.472  0.8952E+00  0.8260E+01
     -6.365  0.1674E+01  0.8439E+01
     -6.258  0.1639E+01  0.8615E+01
     -6.151  0.2597E+01  0.8893E+01
     -6.044  0.3873E+01  0.9307E+01
     -5.936  0.4472E+01  0.9786E+01
     -5.829  0.4185E+01  0.1023E+02
     -5.722  0.4247E+01  0.1069E+02
     -5.615  0.3285E+01  0.1104E+02
     -5.508  0.3735E+01  0.1144E+02
     -5.401  0.4665E+01  0.1194E+02
     -5.294  0.5606E+01  0.1254E+02
     -5.187  0.4218E+01  0.1299E+02
     -5.080  0.4219E+01  0.1344E+02
     -4.973  0.2554E+01  0.1372E+02
     -4.866  0.2286E+01  0.1396E+02
     -4.759  0.2363E+01  0.1422E+02
     -4.652  0.4135E+01  0.1466E+02
     -4.544  0.4401E+01  0.1513E+02
     -4.437  0.3115E+01  0.1546E+02
     -4.330  0.1784E+01  0.1565E+02
     -4.223  0.2331E+01  0.1590E+02
     -4.116  0.3132E+01  0.1624E+02
     -4.009  0.3617E+01  0.1663E+02
     -3.902  0.3904E+01  0.1704E+02
     -3.795  0.2983E+01  0.1736E+02
     -3.688  0.2889E+01  0.1767E+02
     -3.581  0.2284E+01  0.1792E+02
     -3.474  0.2990E+01  0.1824E+02
     -3.367  0.1918E+01  0.1844E+02
     -3.260  0.2659E+01  0.1873E+02
     -3.153  0.2311E+01  0.1897E+02
     -3.045  0.4131E+01  0.1942E+02
     -2.938  0.4048E+01  0.1985E+02
     -2.831  0.3106E+01  0.2018E+02
     -2.724  0.2133E+01  0.2041E+02
     -2.617  0.1734E+01  0.2060E+02
     -2.510  0.2419E+01  0.2086E+02
     -2.403  0.2878E+01  0.2116E+02
     -2.296  0.2711E+01  0.2145E+02
     -2.189  0.3712E+01  0.2185E+02
     -2.082  0.4878E+01  0.2237E+02
     -1.975  0.4825E+01  0.2289E+02
     -1.868  0.4129E+01  0.2333E+02
     -1.761  0.5969E+01  0.2397E+02
     -1.654  0.4297E+01  0.2443E+02
     -1.546  0.5544E+01  0.2503E+02
     -1.439  0.5739E+01  0.2564E+02
     -1.332  0.7185E+01  0.2641E+02
     -1.225  0.5567E+01  0.2701E+02
     -1.118  0.4448E+01  0.2748E+02
     -1.011  0.4502E+01  0.2796E+02
     -0.904  0.2359E+01  0.2822E+02
     -0.797  0.2588E+01  0.2849E+02
     -0.690  0.4511E+01  0.2898E+02
     -0.583  0.4240E+01  0.2943E+02
     -0.476  0.4722E+01  0.2994E+02
     -0.369  0.7447E+01  0.3073E+02
     -0.262  0.6577E+01  0.3144E+02
     -0.154  0.5597E+01  0.3204E+02
     -0.047  0.7394E+01  0.3283E+02
      0.060  0.4554E+01  0.3332E+02
      0.167  0.7637E+01  0.3413E+02
      0.274  0.8767E+01  0.3507E+02
      0.381  0.8332E+01  0.3597E+02
      0.488  0.9012E+01  0.3693E+02
      0.595  0.5571E+01  0.3753E+02
      0.702  0.2513E+01  0.3780E+02
      0.809  0.3398E+01  0.3816E+02
      0.916  0.2983E+01  0.3848E+02
      1.023  0.3402E+01  0.3884E+02
      1.130  0.4403E+01  0.3931E+02
      1.237  0.3478E+01  0.3969E+02
      1.345  0.3813E+01  0.4010E+02
      1.452  0.3004E+01  0.4042E+02
      1.559  0.4170E+01  0.4086E+02
      1.666  0.3632E+01  0.4125E+02
      1.773  0.2623E+01  0.4153E+02
      1.880  0.3076E+01  0.4186E+02
      1.987  0.4006E+01  0.4229E+02
      2.094  0.3278E+01  0.4264E+02
      2.201  0.2252E+01  0.4288E+02
      2.308  0.2201E+01  0.4312E+02
      2.415  0.1590E+01  0.4329E+02
      2.522  0.8547E+00  0.4338E+02
      2.629  0.4090E+00  0.4343E+02
      2.737  0.4493E-01  0.4343E+02
      2.844  0.4896E+00  0.4348E+02
      2.951  0.8568E+00  0.4357E+02
      3.058  0.5376E+00  0.4363E+02
      3.165  0.7112E+00  0.4371E+02
      3.272  0.1097E+01  0.4383E+02
      3.379  0.6163E+00  0.4389E+02
      3.486  0.1259E+00  0.4390E+02
      3.593  0.1615E-03  0.4390E+02
      3.700  0.2389E-04  0.4390E+02
      3.807  0.5963E-01  0.4391E+02
      3.914  0.4844E+00  0.4396E+02
      4.021  0.3403E+00  0.4400E+02
      4.128  0.5183E-02  0.4400E+02
      4.236  0.1242E-01  0.4400E+02
      4.343  0.1602E+00  0.4402E+02
      4.450  0.4100E+00  0.4406E+02
      4.557  0.3313E+00  0.4410E+02
      4.664  0.9004E+00  0.4419E+02
      4.771  0.5692E+00  0.4426E+02
      4.878  0.7747E+00  0.4434E+02
      4.985  0.1161E+01  0.4446E+02
      5.092  0.9228E+00  0.4456E+02
      5.199  0.1501E+01  0.4472E+02
      5.306  0.1575E+01  0.4489E+02
      5.413  0.1756E+01  0.4508E+02
      5.520  0.2445E+01  0.4534E+02
      5.628  0.2958E+01  0.4566E+02
      5.735  0.2661E+01  0.4594E+02
      5.842  0.3965E+01  0.4637E+02
      5.949  0.4100E+01  0.4681E+02
      6.056  0.3746E+01  0.4721E+02
      6.163  0.5090E+01  0.4775E+02
      6.270  0.4662E+01  0.4825E+02
      6.377  0.3438E+01  0.4862E+02
      6.484  0.5043E+01  0.4916E+02
      6.591  0.4779E+01  0.4967E+02
      6.698  0.2213E+01  0.4991E+02
      6.805  0.3562E+01  0.5029E+02
      6.912  0.5094E+01  0.5083E+02
      7.019  0.3971E+01  0.5126E+02
      7.127  0.5298E+01  0.5183E+02
      7.234  0.5658E+01  0.5243E+02
      7.341  0.4306E+01  0.5289E+02
      7.448  0.4186E+01  0.5334E+02
      7.555  0.3597E+01  0.5373E+02
      7.662  0.4765E+01  0.5424E+02
      7.769  0.3525E+01  0.5461E+02
      7.876  0.3666E+01  0.5501E+02
      7.983  0.2811E+01  0.5531E+02
      8.090  0.3815E+01  0.5572E+02
      8.197  0.3062E+01  0.5604E+02
      8.304  0.3176E+01  0.5638E+02
      8.411  0.3850E+01  0.5680E+02
      8.518  0.4380E+01  0.5727E+02
      8.626  0.4242E+01  0.5772E+02
      8.733  0.5421E+01  0.5830E+02
      8.840  0.5127E+01  0.5885E+02
      8.947  0.6304E+01  0.5952E+02
      9.054  0.4363E+01  0.5999E+02
      9.161  0.3928E+01  0.6041E+02
      9.268  0.5347E+01  0.6098E+02
      9.375  0.4235E+01  0.6144E+02
      9.482  0.4404E+01  0.6191E+02
      9.589  0.5927E+01  0.6254E+02
      9.696  0.4708E+01  0.6305E+02
      9.803  0.4604E+01  0.6354E+02
      9.910  0.5753E+01  0.6416E+02
     10.018  0.4219E+01  0.6461E+02
     10.125  0.4393E+01  0.6508E+02
     10.232  0.3367E+01  0.6544E+02
     10.339  0.5555E+01  0.6604E+02
     10.446  0.5042E+01  0.6657E+02
     10.553  0.4341E+01  0.6704E+02
     10.660  0.5768E+01  0.6766E+02
     10.767  0.5337E+01  0.6823E+02
     10.874  0.3309E+01  0.6858E+02
     10.981  0.3305E+01  0.6894E+02
     11.088  0.4872E+01  0.6946E+02
     11.195  0.5218E+01  0.7002E+02
     11.302  0.5912E+01  0.7065E+02
     11.409  0.5768E+01  0.7127E+02
     11.517  0.5228E+01  0.7183E+02
     11.624  0.4826E+01  0.7234E+02
     11.731  0.4112E+01  0.7278E+02
     11.838  0.4569E+01  0.7327E+02
     11.945  0.6153E+01  0.7393E+02
     12.052  0.6085E+01  0.7458E+02
     12.159  0.7256E+01  0.7536E+02
     12.266  0.4557E+01  0.7585E+02
     12.373  0.4863E+01  0.7637E+02
     12.480  0.5761E+01  0.7699E+02
     12.587  0.6895E+01  0.7773E+02
     12.694  0.4466E+01  0.7820E+02
     12.801  0.5921E+01  0.7884E+02
     12.909  0.6271E+01  0.7951E+02
     13.016  0.5325E+01  0.8008E+02
     13.123  0.5712E+01  0.8069E+02
     13.230  0.7019E+01  0.8144E+02
     13.337  0.5935E+01  0.8208E+02
     13.444  0.5737E+01  0.8269E+02
     13.551  0.5147E+01  0.8324E+02
     13.658  0.5712E+01  0.8385E+02
     13.765  0.5331E+01  0.8443E+02
     13.872  0.6589E+01  0.8513E+02
     13.979  0.5479E+01  0.8572E+02
     14.086  0.4253E+01  0.8617E+02
     14.193  0.5015E+01  0.8671E+02
     14.300  0.5475E+01  0.8730E+02
     14.408  0.5048E+01  0.8784E+02
     14.515  0.4755E+01  0.8835E+02
     14.622  0.4875E+01  0.8887E+02
     14.729  0.4274E+01  0.8933E+02
     14.836  0.4233E+01  0.8978E+02
     14.943  0.5954E+01  0.9042E+02
     15.050  0.6653E+01  0.9113E+02
     15.157  0.5266E+01  0.9169E+02
     15.264  0.5769E+01  0.9231E+02
     15.371  0.5609E+01  0.9291E+02
     15.478  0.5412E+01  0.9349E+02
     15.585  0.5999E+01  0.9413E+02
     15.692  0.4425E+01  0.9461E+02
     15.800  0.4393E+01  0.9508E+02
     15.907  0.2719E+01  0.9537E+02
     16.014  0.8813E+00  0.9546E+02
     16.121  0.1836E+01  0.9566E+02
     16.228  0.1517E+01  0.9582E+02
     16.335  0.7405E+00  0.9590E+02
     16.442  0.5821E+00  0.9596E+02
     16.549  0.3408E+00  0.9600E+02
     16.656  0.9600E-02  0.9600E+02
     16.763  0.1282E-06  0.9600E+02
     16.870  0.2370E-15  0.9600E+02
     16.977  0.0000E+00  0.9600E+02
     17.084  0.0000E+00  0.9600E+02
     17.191  0.0000E+00  0.9600E+02
     17.299  0.0000E+00  0.9600E+02
     17.406  0.0000E+00  0.9600E+02
     17.513  0.0000E+00  0.9600E+02
     17.620  0.0000E+00  0.9600E+02
     17.727  0.0000E+00  0.9600E+02
     17.834  0.0000E+00  0.9600E+02
     17.941  0.0000E+00  0.9600E+02
