Automatically generated mesh
      60
Reciprocal lattice
    0.00000000000000    0.05000000000000    0.08333333333334             4
    0.14285714285715    0.05000000000000    0.08333333333334             8
    0.28571428571428    0.05000000000000    0.08333333333334             8
    0.42857142857143    0.05000000000000    0.08333333333334             8
    0.00000000000000    0.15000000000000    0.08333333333334             4
    0.14285714285715    0.15000000000000    0.08333333333334             8
    0.28571428571428    0.15000000000000    0.08333333333334             8
    0.42857142857143    0.15000000000000    0.08333333333334             8
    0.00000000000000    0.25000000000000    0.08333333333334             4
    0.14285714285715    0.25000000000000    0.08333333333334             8
    0.28571428571428    0.25000000000000    0.08333333333334             8
    0.42857142857143    0.25000000000000    0.08333333333334             8
    0.00000000000000    0.35000000000000    0.08333333333334             4
    0.14285714285715    0.35000000000000    0.08333333333334             8
    0.28571428571428    0.35000000000000    0.08333333333334             8
    0.42857142857143    0.35000000000000    0.08333333333334             8
    0.00000000000000    0.45000000000000    0.08333333333334             4
    0.14285714285715    0.45000000000000    0.08333333333334             8
    0.28571428571428    0.45000000000000    0.08333333333334             8
    0.42857142857143    0.45000000000000    0.08333333333334             8
    0.00000000000000    0.05000000000000    0.25000000000000             4
    0.14285714285715    0.05000000000000    0.25000000000000             8
    0.28571428571428    0.05000000000000    0.25000000000000             8
    0.42857142857143    0.05000000000000    0.25000000000000             8
    0.00000000000000    0.15000000000000    0.25000000000000             4
    0.14285714285715    0.15000000000000    0.25000000000000             8
    0.28571428571428    0.15000000000000    0.25000000000000             8
    0.42857142857143    0.15000000000000    0.25000000000000             8
    0.00000000000000    0.25000000000000    0.25000000000000             4
    0.14285714285715    0.25000000000000    0.25000000000000             8
    0.28571428571428    0.25000000000000    0.25000000000000             8
    0.42857142857143    0.25000000000000    0.25000000000000             8
    0.00000000000000    0.35000000000000    0.25000000000000             4
    0.14285714285715    0.35000000000000    0.25000000000000             8
    0.28571428571428    0.35000000000000    0.25000000000000             8
    0.42857142857143    0.35000000000000    0.25000000000000             8
    0.00000000000000    0.45000000000000    0.25000000000000             4
    0.14285714285715    0.45000000000000    0.25000000000000             8
    0.28571428571428    0.45000000000000    0.25000000000000             8
    0.42857142857143    0.45000000000000    0.25000000000000             8
    0.00000000000000    0.05000000000000    0.41666666666666             4
    0.14285714285715    0.05000000000000    0.41666666666666             8
    0.28571428571428    0.05000000000000    0.41666666666666             8
    0.42857142857143    0.05000000000000    0.41666666666666             8
    0.00000000000000    0.15000000000000    0.41666666666666             4
    0.14285714285715    0.15000000000000    0.41666666666666             8
    0.28571428571428    0.15000000000000    0.41666666666666             8
    0.42857142857143    0.15000000000000    0.41666666666666             8
    0.00000000000000    0.25000000000000    0.41666666666666             4
    0.14285714285715    0.25000000000000    0.41666666666666             8
    0.28571428571428    0.25000000000000    0.41666666666666             8
    0.42857142857143    0.25000000000000    0.41666666666666             8
    0.00000000000000    0.35000000000000    0.41666666666666             4
    0.14285714285715    0.35000000000000    0.41666666666666             8
    0.28571428571428    0.35000000000000    0.41666666666666             8
    0.42857142857143    0.35000000000000    0.41666666666666             8
    0.00000000000000    0.45000000000000    0.41666666666666             4
    0.14285714285715    0.45000000000000    0.41666666666666             8
    0.28571428571428    0.45000000000000    0.41666666666666             8
    0.42857142857143    0.45000000000000    0.41666666666666             8
