   1   1   0   0
  0.3382092E+04  0.1501050E-08  0.1250875E-08  0.1801260E-08  0.5000000E-15
  1.000000000000000E-004
  CAR 
 Convergence                             
      2.49083811     -9.97669786  301     -3.60728388      1.00000000
     -9.977  0.0000E+00  0.0000E+00
     -9.935  0.0000E+00  0.0000E+00
     -9.894  0.0000E+00  0.0000E+00
     -9.852  0.0000E+00  0.0000E+00
     -9.810  0.0000E+00  0.0000E+00
     -9.769  0.0000E+00  0.0000E+00
     -9.727  0.0000E+00  0.0000E+00
     -9.686  0.1469E-12  0.6106E-14
     -9.644  0.8338E-09  0.3466E-10
     -9.603  0.1212E-05  0.5042E-07
     -9.561  0.4600E-03  0.1917E-04
     -9.520  0.4627E-01  0.1942E-02
     -9.478  0.1263E+01  0.5442E-01
     -9.436  0.9626E+01  0.4544E+00
     -9.395  0.2109E+02  0.1331E+01
     -9.353  0.1348E+02  0.1891E+01
     -9.312  0.2490E+01  0.1995E+01
     -9.270  0.1296E+00  0.2000E+01
     -9.229  0.1844E-02  0.2000E+01
     -9.187  0.6994E-05  0.2000E+01
     -9.146  0.6947E-08  0.2000E+01
     -9.104  0.1785E-11  0.2000E+01
     -9.062  0.0000E+00  0.2000E+01
     -9.021  0.0000E+00  0.2000E+01
     -8.979  0.0000E+00  0.2000E+01
     -8.938  0.0000E+00  0.2000E+01
     -8.896  0.0000E+00  0.2000E+01
     -8.855  0.0000E+00  0.2000E+01
     -8.813  0.0000E+00  0.2000E+01
     -8.772  0.0000E+00  0.2000E+01
     -8.730  0.0000E+00  0.2000E+01
     -8.688  0.0000E+00  0.2000E+01
     -8.647  0.0000E+00  0.2000E+01
     -8.605  0.0000E+00  0.2000E+01
     -8.564  0.0000E+00  0.2000E+01
     -8.522  0.0000E+00  0.2000E+01
     -8.481  0.0000E+00  0.2000E+01
     -8.439  0.0000E+00  0.2000E+01
     -8.397  0.0000E+00  0.2000E+01
     -8.356  0.0000E+00  0.2000E+01
     -8.314  0.0000E+00  0.2000E+01
     -8.273  0.0000E+00  0.2000E+01
     -8.231  0.0000E+00  0.2000E+01
     -8.190  0.0000E+00  0.2000E+01
     -8.148  0.0000E+00  0.2000E+01
     -8.107  0.0000E+00  0.2000E+01
     -8.065  0.0000E+00  0.2000E+01
     -8.023  0.0000E+00  0.2000E+01
     -7.982  0.0000E+00  0.2000E+01
     -7.940  0.0000E+00  0.2000E+01
     -7.899  0.0000E+00  0.2000E+01
     -7.857  0.0000E+00  0.2000E+01
     -7.816  0.0000E+00  0.2000E+01
     -7.774  0.0000E+00  0.2000E+01
     -7.733  0.0000E+00  0.2000E+01
     -7.691  0.0000E+00  0.2000E+01
     -7.649  0.0000E+00  0.2000E+01
     -7.608  0.0000E+00  0.2000E+01
     -7.566  0.0000E+00  0.2000E+01
     -7.525  0.0000E+00  0.2000E+01
     -7.483  0.0000E+00  0.2000E+01
     -7.442  0.0000E+00  0.2000E+01
     -7.400  0.0000E+00  0.2000E+01
     -7.359  0.0000E+00  0.2000E+01
     -7.317  0.0000E+00  0.2000E+01
     -7.275  0.0000E+00  0.2000E+01
     -7.234  0.0000E+00  0.2000E+01
     -7.192  0.0000E+00  0.2000E+01
     -7.151  0.0000E+00  0.2000E+01
     -7.109  0.0000E+00  0.2000E+01
     -7.068  0.0000E+00  0.2000E+01
     -7.026  0.0000E+00  0.2000E+01
     -6.984  0.0000E+00  0.2000E+01
     -6.943  0.0000E+00  0.2000E+01
     -6.901  0.0000E+00  0.2000E+01
     -6.860  0.0000E+00  0.2000E+01
     -6.818  0.0000E+00  0.2000E+01
     -6.777  0.0000E+00  0.2000E+01
     -6.735  0.0000E+00  0.2000E+01
     -6.694  0.0000E+00  0.2000E+01
     -6.652  0.0000E+00  0.2000E+01
     -6.610  0.0000E+00  0.2000E+01
     -6.569  0.0000E+00  0.2000E+01
     -6.527  0.0000E+00  0.2000E+01
     -6.486  0.0000E+00  0.2000E+01
     -6.444  0.0000E+00  0.2000E+01
     -6.403  0.0000E+00  0.2000E+01
     -6.361  0.0000E+00  0.2000E+01
     -6.320  0.0000E+00  0.2000E+01
     -6.278  0.0000E+00  0.2000E+01
     -6.236  0.0000E+00  0.2000E+01
     -6.195  0.0000E+00  0.2000E+01
     -6.153  0.0000E+00  0.2000E+01
     -6.112  0.0000E+00  0.2000E+01
     -6.070  0.0000E+00  0.2000E+01
     -6.029  0.0000E+00  0.2000E+01
     -5.987  0.0000E+00  0.2000E+01
     -5.946  0.0000E+00  0.2000E+01
     -5.904  0.0000E+00  0.2000E+01
     -5.862  0.0000E+00  0.2000E+01
     -5.821  0.0000E+00  0.2000E+01
     -5.779  0.0000E+00  0.2000E+01
     -5.738  0.0000E+00  0.2000E+01
     -5.696  0.0000E+00  0.2000E+01
     -5.655  0.0000E+00  0.2000E+01
     -5.613  0.0000E+00  0.2000E+01
     -5.572  0.0000E+00  0.2000E+01
     -5.530  0.0000E+00  0.2000E+01
     -5.488  0.0000E+00  0.2000E+01
     -5.447  0.0000E+00  0.2000E+01
     -5.405  0.0000E+00  0.2000E+01
     -5.364  0.0000E+00  0.2000E+01
     -5.322  0.0000E+00  0.2000E+01
     -5.281  0.0000E+00  0.2000E+01
     -5.239  0.0000E+00  0.2000E+01
     -5.197  0.0000E+00  0.2000E+01
     -5.156  0.0000E+00  0.2000E+01
     -5.114  0.0000E+00  0.2000E+01
     -5.073  0.0000E+00  0.2000E+01
     -5.031  0.0000E+00  0.2000E+01
     -4.990  0.0000E+00  0.2000E+01
     -4.948  0.0000E+00  0.2000E+01
     -4.907  0.0000E+00  0.2000E+01
     -4.865  0.0000E+00  0.2000E+01
     -4.823  0.0000E+00  0.2000E+01
     -4.782  0.0000E+00  0.2000E+01
     -4.740  0.0000E+00  0.2000E+01
     -4.699  0.0000E+00  0.2000E+01
     -4.657  0.0000E+00  0.2000E+01
     -4.616  0.0000E+00  0.2000E+01
     -4.574  0.0000E+00  0.2000E+01
     -4.533  0.0000E+00  0.2000E+01
     -4.491  0.0000E+00  0.2000E+01
     -4.449  0.0000E+00  0.2000E+01
     -4.408  0.0000E+00  0.2000E+01
     -4.366  0.0000E+00  0.2000E+01
     -4.325  0.0000E+00  0.2000E+01
     -4.283  0.0000E+00  0.2000E+01
     -4.242  0.0000E+00  0.2000E+01
     -4.200  0.0000E+00  0.2000E+01
     -4.159  0.0000E+00  0.2000E+01
     -4.117  0.0000E+00  0.2000E+01
     -4.075  0.0000E+00  0.2000E+01
     -4.034  0.0000E+00  0.2000E+01
     -3.992  0.0000E+00  0.2000E+01
     -3.951  0.0000E+00  0.2000E+01
     -3.909  0.0000E+00  0.2000E+01
     -3.868  0.8014E-14  0.2000E+01
     -3.826  0.6041E-10  0.2000E+01
     -3.784  0.1615E-06  0.2000E+01
     -3.743  0.1121E-03  0.2000E+01
     -3.701  0.2046E-01  0.2001E+01
     -3.660  0.1002E+01  0.2042E+01
     -3.618  0.1351E+02  0.2604E+01
     -3.577  0.5177E+02  0.4756E+01
     -3.535  0.5762E+02  0.7150E+01
     -3.494  0.1867E+02  0.7926E+01
     -3.452  0.1727E+01  0.7998E+01
     -3.410  0.4423E-01  0.8000E+01
     -3.369  0.3051E-03  0.8000E+01
     -3.327  0.5553E-06  0.8000E+01
     -3.286  0.2629E-09  0.8000E+01
     -3.244  0.3206E-13  0.8000E+01
     -3.203  0.0000E+00  0.8000E+01
     -3.161  0.0000E+00  0.8000E+01
     -3.120  0.0000E+00  0.8000E+01
     -3.078  0.0000E+00  0.8000E+01
     -3.036  0.0000E+00  0.8000E+01
     -2.995  0.0000E+00  0.8000E+01
     -2.953  0.0000E+00  0.8000E+01
     -2.912  0.0000E+00  0.8000E+01
     -2.870  0.0000E+00  0.8000E+01
     -2.829  0.0000E+00  0.8000E+01
     -2.787  0.0000E+00  0.8000E+01
     -2.746  0.0000E+00  0.8000E+01
     -2.704  0.0000E+00  0.8000E+01
     -2.662  0.0000E+00  0.8000E+01
     -2.621  0.0000E+00  0.8000E+01
     -2.579  0.0000E+00  0.8000E+01
     -2.538  0.0000E+00  0.8000E+01
     -2.496  0.0000E+00  0.8000E+01
     -2.455  0.0000E+00  0.8000E+01
     -2.413  0.0000E+00  0.8000E+01
     -2.372  0.0000E+00  0.8000E+01
     -2.330  0.0000E+00  0.8000E+01
     -2.288  0.0000E+00  0.8000E+01
     -2.247  0.0000E+00  0.8000E+01
     -2.205  0.0000E+00  0.8000E+01
     -2.164  0.0000E+00  0.8000E+01
     -2.122  0.0000E+00  0.8000E+01
     -2.081  0.0000E+00  0.8000E+01
     -2.039  0.0000E+00  0.8000E+01
     -1.997  0.0000E+00  0.8000E+01
     -1.956  0.0000E+00  0.8000E+01
     -1.914  0.0000E+00  0.8000E+01
     -1.873  0.0000E+00  0.8000E+01
     -1.831  0.0000E+00  0.8000E+01
     -1.790  0.0000E+00  0.8000E+01
     -1.748  0.0000E+00  0.8000E+01
     -1.707  0.0000E+00  0.8000E+01
     -1.665  0.0000E+00  0.8000E+01
     -1.623  0.0000E+00  0.8000E+01
     -1.582  0.0000E+00  0.8000E+01
     -1.540  0.0000E+00  0.8000E+01
     -1.499  0.0000E+00  0.8000E+01
     -1.457  0.0000E+00  0.8000E+01
     -1.416  0.0000E+00  0.8000E+01
     -1.374  0.0000E+00  0.8000E+01
     -1.333  0.0000E+00  0.8000E+01
     -1.291  0.0000E+00  0.8000E+01
     -1.249  0.0000E+00  0.8000E+01
     -1.208  0.0000E+00  0.8000E+01
     -1.166  0.0000E+00  0.8000E+01
     -1.125  0.0000E+00  0.8000E+01
     -1.083  0.0000E+00  0.8000E+01
     -1.042  0.0000E+00  0.8000E+01
     -1.000  0.0000E+00  0.8000E+01
     -0.959  0.0000E+00  0.8000E+01
     -0.917  0.0000E+00  0.8000E+01
     -0.875  0.0000E+00  0.8000E+01
     -0.834  0.0000E+00  0.8000E+01
     -0.792  0.0000E+00  0.8000E+01
     -0.751  0.0000E+00  0.8000E+01
     -0.709  0.0000E+00  0.8000E+01
     -0.668  0.0000E+00  0.8000E+01
     -0.626  0.0000E+00  0.8000E+01
     -0.584  0.0000E+00  0.8000E+01
     -0.543  0.3562E-15  0.8000E+01
     -0.501  0.2905E-11  0.8000E+01
     -0.460  0.6100E-08  0.8000E+01
     -0.418  0.3524E-05  0.8000E+01
     -0.377  0.5809E-03  0.8000E+01
     -0.335  0.2888E-01  0.8001E+01
     -0.294  0.4702E+00  0.8021E+01
     -0.252  0.2827E+01  0.8138E+01
     -0.210  0.7451E+01  0.8448E+01
     -0.169  0.1066E+02  0.8891E+01
     -0.127  0.1051E+02  0.9328E+01
     -0.086  0.8649E+01  0.9687E+01
     -0.044  0.5346E+01  0.9909E+01
     -0.003  0.1902E+01  0.9988E+01
      0.039  0.6507E+00  0.1002E+02
      0.080  0.1954E+01  0.1010E+02
      0.122  0.5510E+01  0.1033E+02
      0.164  0.1014E+02  0.1075E+02
      0.205  0.1387E+02  0.1132E+02
      0.247  0.1561E+02  0.1197E+02
      0.288  0.1581E+02  0.1263E+02
      0.330  0.1593E+02  0.1329E+02
      0.371  0.1622E+02  0.1396E+02
      0.413  0.1651E+02  0.1465E+02
      0.454  0.1754E+02  0.1538E+02
      0.496  0.1850E+02  0.1615E+02
      0.538  0.1851E+02  0.1692E+02
      0.579  0.1897E+02  0.1771E+02
      0.621  0.1989E+02  0.1853E+02
      0.662  0.2038E+02  0.1938E+02
      0.704  0.2100E+02  0.2025E+02
      0.745  0.2240E+02  0.2118E+02
      0.787  0.2247E+02  0.2212E+02
      0.828  0.2189E+02  0.2303E+02
      0.870  0.2330E+02  0.2400E+02
      0.912  0.2456E+02  0.2502E+02
      0.953  0.2427E+02  0.2602E+02
      0.995  0.2486E+02  0.2706E+02
      1.036  0.2593E+02  0.2814E+02
      1.078  0.2605E+02  0.2922E+02
      1.119  0.2610E+02  0.3030E+02
      1.161  0.2684E+02  0.3142E+02
      1.203  0.2774E+02  0.3257E+02
      1.244  0.2738E+02  0.3371E+02
      1.286  0.2751E+02  0.3485E+02
      1.327  0.2859E+02  0.3604E+02
      1.369  0.2867E+02  0.3723E+02
      1.410  0.2836E+02  0.3841E+02
      1.452  0.2935E+02  0.3963E+02
      1.493  0.3093E+02  0.4091E+02
      1.535  0.3010E+02  0.4217E+02
      1.577  0.2961E+02  0.4340E+02
      1.618  0.3013E+02  0.4465E+02
      1.660  0.2780E+02  0.4580E+02
      1.701  0.2134E+02  0.4669E+02
      1.743  0.1416E+02  0.4728E+02
      1.784  0.8394E+01  0.4763E+02
      1.826  0.4833E+01  0.4783E+02
      1.867  0.2589E+01  0.4794E+02
      1.909  0.1098E+01  0.4798E+02
      1.951  0.3491E+00  0.4800E+02
      1.992  0.7363E-01  0.4800E+02
      2.034  0.7116E-02  0.4800E+02
      2.075  0.2276E-03  0.4800E+02
      2.117  0.2082E-05  0.4800E+02
      2.158  0.5152E-08  0.4800E+02
      2.200  0.3365E-11  0.4800E+02
      2.241  0.5767E-15  0.4800E+02
      2.283  0.0000E+00  0.4800E+02
      2.325  0.0000E+00  0.4800E+02
      2.366  0.0000E+00  0.4800E+02
      2.408  0.0000E+00  0.4800E+02
      2.449  0.0000E+00  0.4800E+02
      2.491  0.0000E+00  0.4800E+02
