  14  14   0   0
  0.1021318E+02  0.5700971E-09  0.4044058E-09  0.6201871E-09  0.5000000E-15
  1.000000000000000E-004
  CAR 
 Dielectric                              
     46.61990497    -15.52434138 4000      1.91594069      1.00000000
    -15.524  0.0000E+00  0.0000E+00
    -15.509  0.0000E+00  0.0000E+00
    -15.493  0.0000E+00  0.0000E+00
    -15.478  0.0000E+00  0.0000E+00
    -15.462  0.0000E+00  0.0000E+00
    -15.447  0.0000E+00  0.0000E+00
    -15.431  0.0000E+00  0.0000E+00
    -15.416  0.0000E+00  0.0000E+00
    -15.400  0.0000E+00  0.0000E+00
    -15.384  0.0000E+00  0.0000E+00
    -15.369  0.0000E+00  0.0000E+00
    -15.353  0.0000E+00  0.0000E+00
    -15.338  0.0000E+00  0.0000E+00
    -15.322  0.0000E+00  0.0000E+00
    -15.307  0.0000E+00  0.0000E+00
    -15.291  0.0000E+00  0.0000E+00
    -15.276  0.0000E+00  0.0000E+00
    -15.260  0.0000E+00  0.0000E+00
    -15.245  0.0000E+00  0.0000E+00
    -15.229  0.0000E+00  0.0000E+00
    -15.214  0.0000E+00  0.0000E+00
    -15.198  0.0000E+00  0.0000E+00
    -15.182  0.0000E+00  0.0000E+00
    -15.167  0.0000E+00  0.0000E+00
    -15.151  0.0000E+00  0.0000E+00
    -15.136  0.0000E+00  0.0000E+00
    -15.120  0.0000E+00  0.0000E+00
    -15.105  0.0000E+00  0.0000E+00
    -15.089  0.0000E+00  0.0000E+00
    -15.074  0.0000E+00  0.0000E+00
    -15.058  0.0000E+00  0.0000E+00
    -15.043  0.0000E+00  0.0000E+00
    -15.027  0.0000E+00  0.0000E+00
    -15.012  0.0000E+00  0.0000E+00
    -14.996  0.0000E+00  0.0000E+00
    -14.980  0.0000E+00  0.0000E+00
    -14.965  0.0000E+00  0.0000E+00
    -14.949  0.0000E+00  0.0000E+00
    -14.934  0.0000E+00  0.0000E+00
    -14.918  0.0000E+00  0.0000E+00
    -14.903  0.0000E+00  0.0000E+00
    -14.887  0.0000E+00  0.0000E+00
    -14.872  0.0000E+00  0.0000E+00
    -14.856  0.0000E+00  0.0000E+00
    -14.841  0.0000E+00  0.0000E+00
    -14.825  0.0000E+00  0.0000E+00
    -14.810  0.0000E+00  0.0000E+00
    -14.794  0.0000E+00  0.0000E+00
    -14.778  0.0000E+00  0.0000E+00
    -14.763  0.0000E+00  0.0000E+00
    -14.747  0.0000E+00  0.0000E+00
    -14.732  0.0000E+00  0.0000E+00
    -14.716  0.0000E+00  0.0000E+00
    -14.701  0.0000E+00  0.0000E+00
    -14.685  0.0000E+00  0.0000E+00
    -14.670  0.0000E+00  0.0000E+00
    -14.654  0.0000E+00  0.0000E+00
    -14.639  0.0000E+00  0.0000E+00
    -14.623  0.0000E+00  0.0000E+00
    -14.607  0.0000E+00  0.0000E+00
    -14.592  0.0000E+00  0.0000E+00
    -14.576  0.0000E+00  0.0000E+00
    -14.561  0.0000E+00  0.0000E+00
    -14.545  0.0000E+00  0.0000E+00
    -14.530  0.0000E+00  0.0000E+00
    -14.514  0.0000E+00  0.0000E+00
    -14.499  0.0000E+00  0.0000E+00
    -14.483  0.0000E+00  0.0000E+00
    -14.468  0.0000E+00  0.0000E+00
    -14.452  0.0000E+00  0.0000E+00
    -14.437  0.0000E+00  0.0000E+00
    -14.421  0.0000E+00  0.0000E+00
    -14.405  0.0000E+00  0.0000E+00
    -14.390  0.0000E+00  0.0000E+00
    -14.374  0.0000E+00  0.0000E+00
    -14.359  0.0000E+00  0.0000E+00
    -14.343  0.0000E+00  0.0000E+00
    -14.328  0.0000E+00  0.0000E+00
    -14.312  0.0000E+00  0.0000E+00
    -14.297  0.0000E+00  0.0000E+00
    -14.281  0.0000E+00  0.0000E+00
    -14.266  0.0000E+00  0.0000E+00
    -14.250  0.0000E+00  0.0000E+00
    -14.235  0.0000E+00  0.0000E+00
    -14.219  0.0000E+00  0.0000E+00
    -14.203  0.0000E+00  0.0000E+00
    -14.188  0.0000E+00  0.0000E+00
    -14.172  0.0000E+00  0.0000E+00
    -14.157  0.0000E+00  0.0000E+00
    -14.141  0.0000E+00  0.0000E+00
    -14.126  0.0000E+00  0.0000E+00
    -14.110  0.0000E+00  0.0000E+00
    -14.095  0.0000E+00  0.0000E+00
    -14.079  0.0000E+00  0.0000E+00
    -14.064  0.0000E+00  0.0000E+00
    -14.048  0.0000E+00  0.0000E+00
    -14.033  0.0000E+00  0.0000E+00
    -14.017  0.0000E+00  0.0000E+00
    -14.001  0.0000E+00  0.0000E+00
    -13.986  0.0000E+00  0.0000E+00
    -13.970  0.0000E+00  0.0000E+00
    -13.955  0.0000E+00  0.0000E+00
    -13.939  0.0000E+00  0.0000E+00
    -13.924  0.0000E+00  0.0000E+00
    -13.908  0.0000E+00  0.0000E+00
    -13.893  0.0000E+00  0.0000E+00
    -13.877  0.0000E+00  0.0000E+00
    -13.862  0.0000E+00  0.0000E+00
    -13.846  0.0000E+00  0.0000E+00
    -13.830  0.0000E+00  0.0000E+00
    -13.815  0.0000E+00  0.0000E+00
    -13.799  0.0000E+00  0.0000E+00
    -13.784  0.0000E+00  0.0000E+00
    -13.768  0.0000E+00  0.0000E+00
    -13.753  0.0000E+00  0.0000E+00
    -13.737  0.0000E+00  0.0000E+00
    -13.722  0.0000E+00  0.0000E+00
    -13.706  0.0000E+00  0.0000E+00
    -13.691  0.0000E+00  0.0000E+00
    -13.675  0.0000E+00  0.0000E+00
    -13.660  0.0000E+00  0.0000E+00
    -13.644  0.0000E+00  0.0000E+00
    -13.628  0.0000E+00  0.0000E+00
    -13.613  0.0000E+00  0.0000E+00
    -13.597  0.0000E+00  0.0000E+00
    -13.582  0.0000E+00  0.0000E+00
    -13.566  0.0000E+00  0.0000E+00
    -13.551  0.0000E+00  0.0000E+00
    -13.535  0.0000E+00  0.0000E+00
    -13.520  0.0000E+00  0.0000E+00
    -13.504  0.0000E+00  0.0000E+00
    -13.489  0.0000E+00  0.0000E+00
    -13.473  0.0000E+00  0.0000E+00
    -13.458  0.0000E+00  0.0000E+00
    -13.442  0.0000E+00  0.0000E+00
    -13.426  0.0000E+00  0.0000E+00
    -13.411  0.0000E+00  0.0000E+00
    -13.395  0.0000E+00  0.0000E+00
    -13.380  0.0000E+00  0.0000E+00
    -13.364  0.0000E+00  0.0000E+00
    -13.349  0.0000E+00  0.0000E+00
    -13.333  0.0000E+00  0.0000E+00
    -13.318  0.0000E+00  0.0000E+00
    -13.302  0.0000E+00  0.0000E+00
    -13.287  0.0000E+00  0.0000E+00
    -13.271  0.0000E+00  0.0000E+00
    -13.256  0.0000E+00  0.0000E+00
    -13.240  0.0000E+00  0.0000E+00
    -13.224  0.0000E+00  0.0000E+00
    -13.209  0.0000E+00  0.0000E+00
    -13.193  0.0000E+00  0.0000E+00
    -13.178  0.0000E+00  0.0000E+00
    -13.162  0.0000E+00  0.0000E+00
    -13.147  0.0000E+00  0.0000E+00
    -13.131  0.0000E+00  0.0000E+00
    -13.116  0.0000E+00  0.0000E+00
    -13.100  0.0000E+00  0.0000E+00
    -13.085  0.0000E+00  0.0000E+00
    -13.069  0.0000E+00  0.0000E+00
    -13.053  0.0000E+00  0.0000E+00
    -13.038  0.0000E+00  0.0000E+00
    -13.022  0.0000E+00  0.0000E+00
    -13.007  0.0000E+00  0.0000E+00
    -12.991  0.0000E+00  0.0000E+00
    -12.976  0.0000E+00  0.0000E+00
    -12.960  0.0000E+00  0.0000E+00
    -12.945  0.0000E+00  0.0000E+00
    -12.929  0.0000E+00  0.0000E+00
    -12.914  0.0000E+00  0.0000E+00
    -12.898  0.0000E+00  0.0000E+00
    -12.883  0.0000E+00  0.0000E+00
    -12.867  0.0000E+00  0.0000E+00
    -12.851  0.0000E+00  0.0000E+00
    -12.836  0.0000E+00  0.0000E+00
    -12.820  0.0000E+00  0.0000E+00
    -12.805  0.0000E+00  0.0000E+00
    -12.789  0.0000E+00  0.0000E+00
    -12.774  0.0000E+00  0.0000E+00
    -12.758  0.5649E-18  0.8778E-20
    -12.743  0.1277E-10  0.1984E-12
    -12.727  0.1632E-05  0.2536E-07
    -12.712  0.2849E-02  0.4430E-04
    -12.696  0.1333E+00  0.2116E-02
    -12.681  0.5940E+00  0.1135E-01
    -12.665  0.9846E+00  0.2665E-01
    -12.649  0.1289E+01  0.4669E-01
    -12.634  0.1577E+01  0.7120E-01
    -12.618  0.1867E+01  0.1002E+00
    -12.603  0.2238E+01  0.1350E+00
    -12.587  0.2709E+01  0.1771E+00
    -12.572  0.2973E+01  0.2233E+00
    -12.556  0.3041E+01  0.2706E+00
    -12.541  0.3108E+01  0.3189E+00
    -12.525  0.3166E+01  0.3681E+00
    -12.510  0.3278E+01  0.4190E+00
    -12.494  0.3325E+01  0.4707E+00
    -12.479  0.3482E+01  0.5248E+00
    -12.463  0.3573E+01  0.5803E+00
    -12.447  0.3745E+01  0.6385E+00
    -12.432  0.4050E+01  0.7014E+00
    -12.416  0.4351E+01  0.7690E+00
    -12.401  0.4605E+01  0.8406E+00
    -12.385  0.4531E+01  0.9110E+00
    -12.370  0.4479E+01  0.9806E+00
    -12.354  0.4489E+01  0.1050E+01
    -12.339  0.4489E+01  0.1120E+01
    -12.323  0.4207E+01  0.1186E+01
    -12.308  0.3923E+01  0.1246E+01
    -12.292  0.3644E+01  0.1303E+01
    -12.276  0.3315E+01  0.1355E+01
    -12.261  0.3332E+01  0.1406E+01
    -12.245  0.3201E+01  0.1456E+01
    -12.230  0.2976E+01  0.1502E+01
    -12.214  0.3036E+01  0.1550E+01
    -12.199  0.2910E+01  0.1595E+01
    -12.183  0.2893E+01  0.1640E+01
    -12.168  0.2717E+01  0.1682E+01
    -12.152  0.2770E+01  0.1725E+01
    -12.137  0.2842E+01  0.1769E+01
    -12.121  0.2535E+01  0.1809E+01
    -12.106  0.2575E+01  0.1849E+01
    -12.090  0.2888E+01  0.1893E+01
    -12.074  0.2415E+01  0.1931E+01
    -12.059  0.2403E+01  0.1968E+01
    -12.043  0.2926E+01  0.2014E+01
    -12.028  0.2345E+01  0.2050E+01
    -12.012  0.2373E+01  0.2087E+01
    -11.997  0.2799E+01  0.2131E+01
    -11.981  0.2403E+01  0.2168E+01
    -11.966  0.2421E+01  0.2206E+01
    -11.950  0.2590E+01  0.2246E+01
    -11.935  0.2570E+01  0.2286E+01
    -11.919  0.2442E+01  0.2324E+01
    -11.904  0.2466E+01  0.2362E+01
    -11.888  0.2742E+01  0.2405E+01
    -11.872  0.2427E+01  0.2442E+01
    -11.857  0.2498E+01  0.2481E+01
    -11.841  0.2830E+01  0.2525E+01
    -11.826  0.2529E+01  0.2564E+01
    -11.810  0.2542E+01  0.2604E+01
    -11.795  0.2994E+01  0.2651E+01
    -11.779  0.2668E+01  0.2692E+01
    -11.764  0.2724E+01  0.2734E+01
    -11.748  0.3148E+01  0.2783E+01
    -11.733  0.3001E+01  0.2830E+01
    -11.717  0.3126E+01  0.2878E+01
    -11.702  0.3611E+01  0.2935E+01
    -11.686  0.3685E+01  0.2992E+01
    -11.670  0.3548E+01  0.3047E+01
    -11.655  0.3613E+01  0.3103E+01
    -11.639  0.3682E+01  0.3160E+01
    -11.624  0.3486E+01  0.3214E+01
    -11.608  0.3537E+01  0.3269E+01
    -11.593  0.3580E+01  0.3325E+01
    -11.577  0.3491E+01  0.3379E+01
    -11.562  0.3447E+01  0.3433E+01
    -11.546  0.3514E+01  0.3488E+01
    -11.531  0.3464E+01  0.3541E+01
    -11.515  0.3336E+01  0.3593E+01
    -11.499  0.3148E+01  0.3642E+01
    -11.484  0.2928E+01  0.3688E+01
    -11.468  0.2742E+01  0.3730E+01
    -11.453  0.2697E+01  0.3772E+01
    -11.437  0.2492E+01  0.3811E+01
    -11.422  0.2108E+01  0.3844E+01
    -11.406  0.1854E+01  0.3872E+01
    -11.391  0.1579E+01  0.3897E+01
    -11.375  0.1425E+01  0.3919E+01
    -11.360  0.1235E+01  0.3938E+01
    -11.344  0.1081E+01  0.3955E+01
    -11.329  0.9225E+00  0.3969E+01
    -11.313  0.7744E+00  0.3981E+01
    -11.297  0.6063E+00  0.3991E+01
    -11.282  0.4192E+00  0.3997E+01
    -11.266  0.1575E+00  0.4000E+01
    -11.251  0.9827E-02  0.4000E+01
    -11.235  0.2522E-04  0.4000E+01
    -11.220  0.1029E-08  0.4000E+01
    -11.204  0.4541E-15  0.4000E+01
    -11.189  0.0000E+00  0.4000E+01
    -11.173  0.0000E+00  0.4000E+01
    -11.158  0.0000E+00  0.4000E+01
    -11.142  0.0000E+00  0.4000E+01
    -11.127  0.0000E+00  0.4000E+01
    -11.111  0.0000E+00  0.4000E+01
    -11.095  0.0000E+00  0.4000E+01
    -11.080  0.0000E+00  0.4000E+01
    -11.064  0.0000E+00  0.4000E+01
    -11.049  0.0000E+00  0.4000E+01
    -11.033  0.0000E+00  0.4000E+01
    -11.018  0.0000E+00  0.4000E+01
    -11.002  0.0000E+00  0.4000E+01
    -10.987  0.0000E+00  0.4000E+01
    -10.971  0.0000E+00  0.4000E+01
    -10.956  0.0000E+00  0.4000E+01
    -10.940  0.0000E+00  0.4000E+01
    -10.925  0.0000E+00  0.4000E+01
    -10.909  0.0000E+00  0.4000E+01
    -10.893  0.0000E+00  0.4000E+01
    -10.878  0.0000E+00  0.4000E+01
    -10.862  0.0000E+00  0.4000E+01
    -10.847  0.0000E+00  0.4000E+01
    -10.831  0.0000E+00  0.4000E+01
    -10.816  0.0000E+00  0.4000E+01
    -10.800  0.0000E+00  0.4000E+01
    -10.785  0.0000E+00  0.4000E+01
    -10.769  0.0000E+00  0.4000E+01
    -10.754  0.0000E+00  0.4000E+01
    -10.738  0.0000E+00  0.4000E+01
    -10.722  0.0000E+00  0.4000E+01
    -10.707  0.0000E+00  0.4000E+01
    -10.691  0.0000E+00  0.4000E+01
    -10.676  0.0000E+00  0.4000E+01
    -10.660  0.0000E+00  0.4000E+01
    -10.645  0.0000E+00  0.4000E+01
    -10.629  0.0000E+00  0.4000E+01
    -10.614  0.0000E+00  0.4000E+01
    -10.598  0.0000E+00  0.4000E+01
    -10.583  0.0000E+00  0.4000E+01
    -10.567  0.0000E+00  0.4000E+01
    -10.552  0.0000E+00  0.4000E+01
    -10.536  0.0000E+00  0.4000E+01
    -10.520  0.0000E+00  0.4000E+01
    -10.505  0.0000E+00  0.4000E+01
    -10.489  0.0000E+00  0.4000E+01
    -10.474  0.0000E+00  0.4000E+01
    -10.458  0.0000E+00  0.4000E+01
    -10.443  0.0000E+00  0.4000E+01
    -10.427  0.0000E+00  0.4000E+01
    -10.412  0.0000E+00  0.4000E+01
    -10.396  0.0000E+00  0.4000E+01
    -10.381  0.0000E+00  0.4000E+01
    -10.365  0.0000E+00  0.4000E+01
    -10.350  0.0000E+00  0.4000E+01
    -10.334  0.0000E+00  0.4000E+01
    -10.318  0.0000E+00  0.4000E+01
    -10.303  0.0000E+00  0.4000E+01
    -10.287  0.0000E+00  0.4000E+01
    -10.272  0.0000E+00  0.4000E+01
    -10.256  0.0000E+00  0.4000E+01
    -10.241  0.0000E+00  0.4000E+01
    -10.225  0.0000E+00  0.4000E+01
    -10.210  0.0000E+00  0.4000E+01
    -10.194  0.0000E+00  0.4000E+01
    -10.179  0.0000E+00  0.4000E+01
    -10.163  0.0000E+00  0.4000E+01
    -10.148  0.0000E+00  0.4000E+01
    -10.132  0.0000E+00  0.4000E+01
    -10.116  0.0000E+00  0.4000E+01
    -10.101  0.0000E+00  0.4000E+01
    -10.085  0.0000E+00  0.4000E+01
    -10.070  0.0000E+00  0.4000E+01
    -10.054  0.0000E+00  0.4000E+01
    -10.039  0.0000E+00  0.4000E+01
    -10.023  0.0000E+00  0.4000E+01
    -10.008  0.0000E+00  0.4000E+01
     -9.992  0.0000E+00  0.4000E+01
     -9.977  0.0000E+00  0.4000E+01
     -9.961  0.0000E+00  0.4000E+01
     -9.946  0.0000E+00  0.4000E+01
     -9.930  0.0000E+00  0.4000E+01
     -9.914  0.0000E+00  0.4000E+01
     -9.899  0.0000E+00  0.4000E+01
     -9.883  0.0000E+00  0.4000E+01
     -9.868  0.0000E+00  0.4000E+01
     -9.852  0.0000E+00  0.4000E+01
     -9.837  0.0000E+00  0.4000E+01
     -9.821  0.0000E+00  0.4000E+01
     -9.806  0.0000E+00  0.4000E+01
     -9.790  0.0000E+00  0.4000E+01
     -9.775  0.0000E+00  0.4000E+01
     -9.759  0.0000E+00  0.4000E+01
     -9.743  0.0000E+00  0.4000E+01
     -9.728  0.0000E+00  0.4000E+01
     -9.712  0.0000E+00  0.4000E+01
     -9.697  0.0000E+00  0.4000E+01
     -9.681  0.0000E+00  0.4000E+01
     -9.666  0.0000E+00  0.4000E+01
     -9.650  0.0000E+00  0.4000E+01
     -9.635  0.0000E+00  0.4000E+01
     -9.619  0.0000E+00  0.4000E+01
     -9.604  0.0000E+00  0.4000E+01
     -9.588  0.0000E+00  0.4000E+01
     -9.573  0.0000E+00  0.4000E+01
     -9.557  0.0000E+00  0.4000E+01
     -9.541  0.0000E+00  0.4000E+01
     -9.526  0.0000E+00  0.4000E+01
     -9.510  0.0000E+00  0.4000E+01
     -9.495  0.0000E+00  0.4000E+01
     -9.479  0.0000E+00  0.4000E+01
     -9.464  0.0000E+00  0.4000E+01
     -9.448  0.0000E+00  0.4000E+01
     -9.433  0.0000E+00  0.4000E+01
     -9.417  0.0000E+00  0.4000E+01
     -9.402  0.0000E+00  0.4000E+01
     -9.386  0.0000E+00  0.4000E+01
     -9.371  0.0000E+00  0.4000E+01
     -9.355  0.0000E+00  0.4000E+01
     -9.339  0.0000E+00  0.4000E+01
     -9.324  0.0000E+00  0.4000E+01
     -9.308  0.0000E+00  0.4000E+01
     -9.293  0.0000E+00  0.4000E+01
     -9.277  0.0000E+00  0.4000E+01
     -9.262  0.0000E+00  0.4000E+01
     -9.246  0.0000E+00  0.4000E+01
     -9.231  0.0000E+00  0.4000E+01
     -9.215  0.0000E+00  0.4000E+01
     -9.200  0.0000E+00  0.4000E+01
     -9.184  0.0000E+00  0.4000E+01
     -9.169  0.0000E+00  0.4000E+01
     -9.153  0.0000E+00  0.4000E+01
     -9.137  0.0000E+00  0.4000E+01
     -9.122  0.0000E+00  0.4000E+01
     -9.106  0.0000E+00  0.4000E+01
     -9.091  0.0000E+00  0.4000E+01
     -9.075  0.0000E+00  0.4000E+01
     -9.060  0.0000E+00  0.4000E+01
     -9.044  0.0000E+00  0.4000E+01
     -9.029  0.0000E+00  0.4000E+01
     -9.013  0.0000E+00  0.4000E+01
     -8.998  0.0000E+00  0.4000E+01
     -8.982  0.0000E+00  0.4000E+01
     -8.966  0.0000E+00  0.4000E+01
     -8.951  0.0000E+00  0.4000E+01
     -8.935  0.0000E+00  0.4000E+01
     -8.920  0.0000E+00  0.4000E+01
     -8.904  0.0000E+00  0.4000E+01
     -8.889  0.0000E+00  0.4000E+01
     -8.873  0.6320E-11  0.4000E+01
     -8.858  0.1005E-05  0.4000E+01
     -8.842  0.2238E-02  0.4000E+01
     -8.827  0.1277E+00  0.4002E+01
     -8.811  0.6329E+00  0.4012E+01
     -8.796  0.1078E+01  0.4029E+01
     -8.780  0.1406E+01  0.4050E+01
     -8.764  0.1729E+01  0.4077E+01
     -8.749  0.1989E+01  0.4108E+01
     -8.733  0.2323E+01  0.4144E+01
     -8.718  0.2608E+01  0.4185E+01
     -8.702  0.2945E+01  0.4231E+01
     -8.687  0.3394E+01  0.4283E+01
     -8.671  0.3782E+01  0.4342E+01
     -8.656  0.4988E+01  0.4420E+01
     -8.640  0.6338E+01  0.4518E+01
     -8.625  0.6592E+01  0.4621E+01
     -8.609  0.6666E+01  0.4724E+01
     -8.594  0.6636E+01  0.4827E+01
     -8.578  0.6665E+01  0.4931E+01
     -8.562  0.6901E+01  0.5038E+01
     -8.547  0.6867E+01  0.5145E+01
     -8.531  0.6711E+01  0.5249E+01
     -8.516  0.6703E+01  0.5353E+01
     -8.500  0.6677E+01  0.5457E+01
     -8.485  0.6741E+01  0.5562E+01
     -8.469  0.6777E+01  0.5667E+01
     -8.454  0.7174E+01  0.5779E+01
     -8.438  0.6871E+01  0.5885E+01
     -8.423  0.5242E+01  0.5967E+01
     -8.407  0.4257E+01  0.6033E+01
     -8.392  0.3752E+01  0.6091E+01
     -8.376  0.3615E+01  0.6147E+01
     -8.360  0.3754E+01  0.6206E+01
     -8.345  0.4361E+01  0.6274E+01
     -8.329  0.4984E+01  0.6351E+01
     -8.314  0.5234E+01  0.6432E+01
     -8.298  0.5086E+01  0.6511E+01
     -8.283  0.5043E+01  0.6590E+01
     -8.267  0.4984E+01  0.6667E+01
     -8.252  0.4911E+01  0.6744E+01
     -8.236  0.4710E+01  0.6817E+01
     -8.221  0.4815E+01  0.6892E+01
     -8.205  0.4659E+01  0.6964E+01
     -8.189  0.4555E+01  0.7035E+01
     -8.174  0.4570E+01  0.7106E+01
     -8.158  0.4521E+01  0.7176E+01
     -8.143  0.4471E+01  0.7245E+01
     -8.127  0.4503E+01  0.7315E+01
     -8.112  0.4579E+01  0.7387E+01
     -8.096  0.4845E+01  0.7462E+01
     -8.081  0.4740E+01  0.7536E+01
     -8.065  0.3808E+01  0.7595E+01
     -8.050  0.3373E+01  0.7647E+01
     -8.034  0.3000E+01  0.7694E+01
     -8.019  0.2659E+01  0.7735E+01
     -8.003  0.2410E+01  0.7773E+01
     -7.987  0.2279E+01  0.7808E+01
     -7.972  0.1831E+01  0.7836E+01
     -7.956  0.1647E+01  0.7862E+01
     -7.941  0.1494E+01  0.7885E+01
     -7.925  0.1222E+01  0.7904E+01
     -7.910  0.1136E+01  0.7922E+01
     -7.894  0.9998E+00  0.7937E+01
     -7.879  0.8422E+00  0.7950E+01
     -7.863  0.7653E+00  0.7962E+01
     -7.848  0.6437E+00  0.7972E+01
     -7.832  0.5492E+00  0.7981E+01
     -7.817  0.4585E+00  0.7988E+01
     -7.801  0.3644E+00  0.7994E+01
     -7.785  0.2586E+00  0.7998E+01
     -7.770  0.1297E+00  0.8000E+01
     -7.754  0.1618E-01  0.8000E+01
     -7.739  0.1251E-03  0.8000E+01
     -7.723  0.1637E-07  0.8000E+01
     -7.708  0.2242E-13  0.8000E+01
     -7.692  0.0000E+00  0.8000E+01
     -7.677  0.0000E+00  0.8000E+01
     -7.661  0.0000E+00  0.8000E+01
     -7.646  0.0000E+00  0.8000E+01
     -7.630  0.0000E+00  0.8000E+01
     -7.615  0.0000E+00  0.8000E+01
     -7.599  0.0000E+00  0.8000E+01
     -7.583  0.0000E+00  0.8000E+01
     -7.568  0.0000E+00  0.8000E+01
     -7.552  0.0000E+00  0.8000E+01
     -7.537  0.0000E+00  0.8000E+01
     -7.521  0.0000E+00  0.8000E+01
     -7.506  0.0000E+00  0.8000E+01
     -7.490  0.0000E+00  0.8000E+01
     -7.475  0.0000E+00  0.8000E+01
     -7.459  0.0000E+00  0.8000E+01
     -7.444  0.0000E+00  0.8000E+01
     -7.428  0.0000E+00  0.8000E+01
     -7.412  0.0000E+00  0.8000E+01
     -7.397  0.0000E+00  0.8000E+01
     -7.381  0.0000E+00  0.8000E+01
     -7.366  0.0000E+00  0.8000E+01
     -7.350  0.0000E+00  0.8000E+01
     -7.335  0.0000E+00  0.8000E+01
     -7.319  0.0000E+00  0.8000E+01
     -7.304  0.0000E+00  0.8000E+01
     -7.288  0.0000E+00  0.8000E+01
     -7.273  0.0000E+00  0.8000E+01
     -7.257  0.0000E+00  0.8000E+01
     -7.242  0.0000E+00  0.8000E+01
     -7.226  0.0000E+00  0.8000E+01
     -7.210  0.0000E+00  0.8000E+01
     -7.195  0.0000E+00  0.8000E+01
     -7.179  0.0000E+00  0.8000E+01
     -7.164  0.0000E+00  0.8000E+01
     -7.148  0.0000E+00  0.8000E+01
     -7.133  0.0000E+00  0.8000E+01
     -7.117  0.0000E+00  0.8000E+01
     -7.102  0.0000E+00  0.8000E+01
     -7.086  0.0000E+00  0.8000E+01
     -7.071  0.0000E+00  0.8000E+01
     -7.055  0.0000E+00  0.8000E+01
     -7.040  0.0000E+00  0.8000E+01
     -7.024  0.1356E-16  0.8000E+01
     -7.008  0.7371E-10  0.8000E+01
     -6.993  0.3977E-05  0.8000E+01
     -6.977  0.2571E-02  0.8000E+01
     -6.962  0.3829E-01  0.8001E+01
     -6.946  0.7956E-01  0.8002E+01
     -6.931  0.1303E+00  0.8004E+01
     -6.915  0.1474E+00  0.8006E+01
     -6.900  0.1661E+00  0.8009E+01
     -6.884  0.2003E+00  0.8012E+01
     -6.869  0.2354E+00  0.8016E+01
     -6.853  0.2414E+00  0.8019E+01
     -6.838  0.2772E+00  0.8024E+01
     -6.822  0.2726E+00  0.8028E+01
     -6.806  0.2871E+00  0.8032E+01
     -6.791  0.3754E+00  0.8038E+01
     -6.775  0.4012E+00  0.8044E+01
     -6.760  0.3756E+00  0.8050E+01
     -6.744  0.3701E+00  0.8056E+01
     -6.729  0.4075E+00  0.8062E+01
     -6.713  0.4748E+00  0.8070E+01
     -6.698  0.5547E+00  0.8078E+01
     -6.682  0.5681E+00  0.8087E+01
     -6.667  0.5575E+00  0.8096E+01
     -6.651  0.5486E+00  0.8104E+01
     -6.635  0.6532E+00  0.8114E+01
     -6.620  0.7097E+00  0.8125E+01
     -6.604  0.7377E+00  0.8137E+01
     -6.589  0.7885E+00  0.8149E+01
     -6.573  0.7916E+00  0.8161E+01
     -6.558  0.7757E+00  0.8174E+01
     -6.542  0.8031E+00  0.8186E+01
     -6.527  0.8233E+00  0.8199E+01
     -6.511  0.7818E+00  0.8211E+01
     -6.496  0.7473E+00  0.8223E+01
     -6.480  0.9373E+00  0.8237E+01
     -6.465  0.1008E+01  0.8253E+01
     -6.449  0.1065E+01  0.8269E+01
     -6.433  0.1186E+01  0.8288E+01
     -6.418  0.1256E+01  0.8307E+01
     -6.402  0.1320E+01  0.8328E+01
     -6.387  0.1331E+01  0.8349E+01
     -6.371  0.1541E+01  0.8372E+01
     -6.356  0.1774E+01  0.8400E+01
     -6.340  0.1798E+01  0.8428E+01
     -6.325  0.1818E+01  0.8456E+01
     -6.309  0.1848E+01  0.8485E+01
     -6.294  0.2002E+01  0.8516E+01
     -6.278  0.2117E+01  0.8549E+01
     -6.263  0.2152E+01  0.8582E+01
     -6.247  0.2397E+01  0.8620E+01
     -6.231  0.2485E+01  0.8658E+01
     -6.216  0.2622E+01  0.8699E+01
     -6.200  0.2788E+01  0.8742E+01
     -6.185  0.3133E+01  0.8791E+01
     -6.169  0.3562E+01  0.8846E+01
     -6.154  0.3696E+01  0.8904E+01
     -6.138  0.3657E+01  0.8961E+01
     -6.123  0.3591E+01  0.9016E+01
     -6.107  0.3694E+01  0.9074E+01
     -6.092  0.3977E+01  0.9136E+01
     -6.076  0.3819E+01  0.9195E+01
     -6.061  0.3906E+01  0.9256E+01
     -6.045  0.4215E+01  0.9321E+01
     -6.029  0.4177E+01  0.9386E+01
     -6.014  0.3901E+01  0.9447E+01
     -5.998  0.3927E+01  0.9508E+01
     -5.983  0.4059E+01  0.9571E+01
     -5.967  0.4241E+01  0.9637E+01
     -5.952  0.4096E+01  0.9700E+01
     -5.936  0.4008E+01  0.9763E+01
     -5.921  0.3976E+01  0.9824E+01
     -5.905  0.4042E+01  0.9887E+01
     -5.890  0.3985E+01  0.9949E+01
     -5.874  0.4036E+01  0.1001E+02
     -5.858  0.3767E+01  0.1007E+02
     -5.843  0.3819E+01  0.1013E+02
     -5.827  0.3930E+01  0.1019E+02
     -5.812  0.4353E+01  0.1026E+02
     -5.796  0.4370E+01  0.1033E+02
     -5.781  0.4580E+01  0.1040E+02
     -5.765  0.4380E+01  0.1047E+02
     -5.750  0.4217E+01  0.1053E+02
     -5.734  0.4059E+01  0.1059E+02
     -5.719  0.4057E+01  0.1066E+02
     -5.703  0.4030E+01  0.1072E+02
     -5.688  0.3924E+01  0.1078E+02
     -5.672  0.3884E+01  0.1084E+02
     -5.656  0.3931E+01  0.1090E+02
     -5.641  0.3712E+01  0.1096E+02
     -5.625  0.3931E+01  0.1102E+02
     -5.610  0.4208E+01  0.1109E+02
     -5.594  0.4336E+01  0.1115E+02
     -5.579  0.3911E+01  0.1121E+02
     -5.563  0.3924E+01  0.1128E+02
     -5.548  0.4240E+01  0.1134E+02
     -5.532  0.4215E+01  0.1141E+02
     -5.517  0.4169E+01  0.1147E+02
     -5.501  0.4249E+01  0.1154E+02
     -5.486  0.4220E+01  0.1160E+02
     -5.470  0.4319E+01  0.1167E+02
     -5.454  0.4549E+01  0.1174E+02
     -5.439  0.4497E+01  0.1181E+02
     -5.423  0.4573E+01  0.1188E+02
     -5.408  0.4706E+01  0.1196E+02
     -5.392  0.4975E+01  0.1203E+02
     -5.377  0.4968E+01  0.1211E+02
     -5.361  0.4823E+01  0.1218E+02
     -5.346  0.4818E+01  0.1226E+02
     -5.330  0.4857E+01  0.1234E+02
     -5.315  0.4731E+01  0.1241E+02
     -5.299  0.4890E+01  0.1248E+02
     -5.284  0.4626E+01  0.1256E+02
     -5.268  0.4458E+01  0.1263E+02
     -5.252  0.4541E+01  0.1270E+02
     -5.237  0.4516E+01  0.1277E+02
     -5.221  0.4291E+01  0.1283E+02
     -5.206  0.4057E+01  0.1290E+02
     -5.190  0.4192E+01  0.1296E+02
     -5.175  0.4151E+01  0.1303E+02
     -5.159  0.4190E+01  0.1309E+02
     -5.144  0.4183E+01  0.1316E+02
     -5.128  0.3930E+01  0.1322E+02
     -5.113  0.3714E+01  0.1327E+02
     -5.097  0.3631E+01  0.1333E+02
     -5.081  0.3756E+01  0.1339E+02
     -5.066  0.3853E+01  0.1345E+02
     -5.050  0.3549E+01  0.1350E+02
     -5.035  0.3453E+01  0.1356E+02
     -5.019  0.3396E+01  0.1361E+02
     -5.004  0.3292E+01  0.1366E+02
     -4.988  0.3066E+01  0.1371E+02
     -4.973  0.2931E+01  0.1376E+02
     -4.957  0.2894E+01  0.1380E+02
     -4.942  0.2633E+01  0.1384E+02
     -4.926  0.2493E+01  0.1388E+02
     -4.911  0.2373E+01  0.1392E+02
     -4.895  0.2261E+01  0.1395E+02
     -4.879  0.2158E+01  0.1399E+02
     -4.864  0.2373E+01  0.1402E+02
     -4.848  0.2113E+01  0.1406E+02
     -4.833  0.2140E+01  0.1409E+02
     -4.817  0.2581E+01  0.1413E+02
     -4.802  0.2667E+01  0.1417E+02
     -4.786  0.2709E+01  0.1421E+02
     -4.771  0.2806E+01  0.1426E+02
     -4.755  0.2948E+01  0.1430E+02
     -4.740  0.2990E+01  0.1435E+02
     -4.724  0.3004E+01  0.1439E+02
     -4.709  0.2929E+01  0.1444E+02
     -4.693  0.2999E+01  0.1449E+02
     -4.677  0.3464E+01  0.1454E+02
     -4.662  0.3354E+01  0.1459E+02
     -4.646  0.3200E+01  0.1464E+02
     -4.631  0.3363E+01  0.1469E+02
     -4.615  0.4167E+01  0.1476E+02
     -4.600  0.4387E+01  0.1483E+02
     -4.584  0.3584E+01  0.1488E+02
     -4.569  0.3485E+01  0.1494E+02
     -4.553  0.3399E+01  0.1499E+02
     -4.538  0.3446E+01  0.1504E+02
     -4.522  0.3673E+01  0.1510E+02
     -4.507  0.3605E+01  0.1516E+02
     -4.491  0.3381E+01  0.1521E+02
     -4.475  0.3384E+01  0.1526E+02
     -4.460  0.3448E+01  0.1532E+02
     -4.444  0.3143E+01  0.1536E+02
     -4.429  0.3080E+01  0.1541E+02
     -4.413  0.3175E+01  0.1546E+02
     -4.398  0.3056E+01  0.1551E+02
     -4.382  0.2829E+01  0.1555E+02
     -4.367  0.3100E+01  0.1560E+02
     -4.351  0.3427E+01  0.1565E+02
     -4.336  0.3226E+01  0.1570E+02
     -4.320  0.2847E+01  0.1575E+02
     -4.304  0.2747E+01  0.1579E+02
     -4.289  0.2679E+01  0.1583E+02
     -4.273  0.2770E+01  0.1588E+02
     -4.258  0.2931E+01  0.1592E+02
     -4.242  0.2761E+01  0.1596E+02
     -4.227  0.2757E+01  0.1601E+02
     -4.211  0.2926E+01  0.1605E+02
     -4.196  0.3164E+01  0.1610E+02
     -4.180  0.3148E+01  0.1615E+02
     -4.165  0.3074E+01  0.1620E+02
     -4.149  0.2675E+01  0.1624E+02
     -4.134  0.2611E+01  0.1628E+02
     -4.118  0.2885E+01  0.1633E+02
     -4.102  0.2953E+01  0.1637E+02
     -4.087  0.2881E+01  0.1642E+02
     -4.071  0.2961E+01  0.1646E+02
     -4.056  0.3126E+01  0.1651E+02
     -4.040  0.3006E+01  0.1656E+02
     -4.025  0.2824E+01  0.1660E+02
     -4.009  0.2973E+01  0.1665E+02
     -3.994  0.2840E+01  0.1669E+02
     -3.978  0.2928E+01  0.1674E+02
     -3.963  0.2994E+01  0.1678E+02
     -3.947  0.2989E+01  0.1683E+02
     -3.932  0.3102E+01  0.1688E+02
     -3.916  0.2845E+01  0.1692E+02
     -3.900  0.3022E+01  0.1697E+02
     -3.885  0.3231E+01  0.1702E+02
     -3.869  0.3118E+01  0.1707E+02
     -3.854  0.2972E+01  0.1712E+02
     -3.838  0.3075E+01  0.1716E+02
     -3.823  0.2967E+01  0.1721E+02
     -3.807  0.2884E+01  0.1725E+02
     -3.792  0.2916E+01  0.1730E+02
     -3.776  0.3160E+01  0.1735E+02
     -3.761  0.3021E+01  0.1740E+02
     -3.745  0.2893E+01  0.1744E+02
     -3.730  0.2958E+01  0.1749E+02
     -3.714  0.3052E+01  0.1753E+02
     -3.698  0.2976E+01  0.1758E+02
     -3.683  0.2912E+01  0.1762E+02
     -3.667  0.2764E+01  0.1767E+02
     -3.652  0.2977E+01  0.1771E+02
     -3.636  0.2760E+01  0.1776E+02
     -3.621  0.2736E+01  0.1780E+02
     -3.605  0.2794E+01  0.1784E+02
     -3.590  0.2941E+01  0.1789E+02
     -3.574  0.2806E+01  0.1793E+02
     -3.559  0.2864E+01  0.1798E+02
     -3.543  0.2868E+01  0.1802E+02
     -3.528  0.2633E+01  0.1806E+02
     -3.512  0.2553E+01  0.1810E+02
     -3.496  0.2508E+01  0.1814E+02
     -3.481  0.2655E+01  0.1818E+02
     -3.465  0.2924E+01  0.1823E+02
     -3.450  0.2627E+01  0.1827E+02
     -3.434  0.2537E+01  0.1831E+02
     -3.419  0.2737E+01  0.1835E+02
     -3.403  0.2912E+01  0.1840E+02
     -3.388  0.2677E+01  0.1844E+02
     -3.372  0.2531E+01  0.1848E+02
     -3.357  0.2446E+01  0.1851E+02
     -3.341  0.2489E+01  0.1855E+02
     -3.325  0.2640E+01  0.1859E+02
     -3.310  0.2822E+01  0.1864E+02
     -3.294  0.2725E+01  0.1868E+02
     -3.279  0.2693E+01  0.1872E+02
     -3.263  0.2653E+01  0.1876E+02
     -3.248  0.2758E+01  0.1881E+02
     -3.232  0.2746E+01  0.1885E+02
     -3.217  0.2605E+01  0.1889E+02
     -3.201  0.2345E+01  0.1893E+02
     -3.186  0.2463E+01  0.1896E+02
     -3.170  0.2900E+01  0.1901E+02
     -3.155  0.3020E+01  0.1906E+02
     -3.139  0.2812E+01  0.1910E+02
     -3.123  0.2904E+01  0.1915E+02
     -3.108  0.2771E+01  0.1919E+02
     -3.092  0.2720E+01  0.1923E+02
     -3.077  0.3030E+01  0.1928E+02
     -3.061  0.3094E+01  0.1933E+02
     -3.046  0.3041E+01  0.1937E+02
     -3.030  0.2889E+01  0.1942E+02
     -3.015  0.3064E+01  0.1947E+02
     -2.999  0.3408E+01  0.1952E+02
     -2.984  0.3230E+01  0.1957E+02
     -2.968  0.2914E+01  0.1961E+02
     -2.953  0.2958E+01  0.1966E+02
     -2.937  0.3080E+01  0.1971E+02
     -2.921  0.3116E+01  0.1976E+02
     -2.906  0.2912E+01  0.1980E+02
     -2.890  0.2752E+01  0.1984E+02
     -2.875  0.2808E+01  0.1989E+02
     -2.859  0.2868E+01  0.1993E+02
     -2.844  0.2743E+01  0.1997E+02
     -2.828  0.2534E+01  0.2001E+02
     -2.813  0.2377E+01  0.2005E+02
     -2.797  0.2333E+01  0.2009E+02
     -2.782  0.2247E+01  0.2012E+02
     -2.766  0.2149E+01  0.2016E+02
     -2.751  0.2109E+01  0.2019E+02
     -2.735  0.2278E+01  0.2022E+02
     -2.719  0.2397E+01  0.2026E+02
     -2.704  0.2276E+01  0.2030E+02