       N       E                     dE             d eps       ncg     rms          rms(c)
DAV:   1    -0.969252936284E+02   -0.96925E+02   -0.34558E+00******   0.443E+00    0.116E+01
DAV:   2    -0.924998004489E+02    0.44255E+01   -0.38441E+00******   0.517E+00    0.705E+00
DAV:   3    -0.906372231397E+02    0.18626E+01   -0.15205E+00******   0.324E+00    0.156E+00
DAV:   4    -0.906102712891E+02    0.26952E-01   -0.33501E-01******   0.100E+00    0.102E+00
DAV:   5    -0.906260441553E+02   -0.15773E-01   -0.14865E-02******   0.247E-01    0.205E-01
DAV:   6    -0.906302482045E+02   -0.42040E-02   -0.20481E-03******   0.807E-02    0.995E-02
DAV:   7    -0.906323513330E+02   -0.21031E-02   -0.67642E-04******   0.501E-02    0.426E-02
DAV:   8    -0.906323530959E+02   -0.17629E-05   -0.39420E-05******   0.164E-02    0.125E-02
DAV:   9    -0.906323662492E+02   -0.13153E-04   -0.70434E-06******   0.568E-03    0.315E-03
DAV:  10    -0.906323666164E+02   -0.36723E-06   -0.42143E-07******   0.141E-03
   1 F= -.90632367E+02 E0= -.90632296E+02  d E =-.141095E-03
 imaginary and real dielectric function
