   14   14    1    1
  0.1021318E+02  0.5700971E-09  0.4044058E-09  0.6201871E-09  0.5000000E-15
  1.000000000000000E-004
  CAR 
 PDoS                                    
     42    616     48
 
  0.0000000E+00  0.0000000E+00  0.3571429E-01  0.4535147E-03
      1        -12.698806   1.000000
      2        -11.520587   1.000000
      3         -8.659484   1.000000
      4         -8.363783   1.000000
      5         -6.068934   1.000000
      6         -5.121159   1.000000
      7         -4.648421   1.000000
      8         -4.362088   1.000000
      9         -3.932578   1.000000
     10         -3.515809   1.000000
     11         -2.403679   1.000000
     12         -2.222895   1.000000
     13         -2.112049   1.000000
     14         -1.072302   1.000000
     15         -0.017368   1.000000
     16          0.016026   1.000000
     17          0.051369   1.000000
     18          0.066510   1.000000
     19          0.643196   1.000000
     20          2.109560   0.002925
     21          2.148200   0.000479
     22          2.280116   0.000000
     23          5.503784   0.000000
     24          5.714945   0.000000
     25          5.744713   0.000000
     26          5.970536   0.000000
     27          6.738719   0.000000
     28          7.684533   0.000000
     29          7.721523   0.000000
     30          8.634031   0.000000
     31          8.800931   0.000000
     32          8.929457   0.000000
     33          9.057038   0.000000
     34         10.037027   0.000000
     35         11.193493   0.000000
     36         11.401654   0.000000
     37         11.523702   0.000000
     38         11.728219   0.000000
     39         11.949215   0.000000
     40         12.301328   0.000000
     41         12.941551   0.000000
     42         13.320337   0.000000
     43         13.574940   0.000000
     44         15.533162   0.000000
     45         15.551852   0.000000
     46         15.867918   0.000000
     47         16.312697   0.000000
     48         16.508034   0.000000
 
  0.6666667E-01  0.0000000E+00  0.3571429E-01  0.9070295E-03
      1        -12.688909   1.000000
      2        -11.538110   1.000000
      3         -8.654568   1.000000
      4         -8.360375   1.000000
      5         -6.050338   1.000000
      6         -5.227114   1.000000
      7         -4.708174   1.000000
      8         -4.217367   1.000000
      9         -3.918761   1.000000
     10         -3.425511   1.000000
     11         -2.399559   1.000000
     12         -2.225697   1.000000
     13         -2.145138   1.000000
     14         -1.145458   1.000000
     15         -0.015524   1.000000
     16         -0.011155   1.000000
     17          0.073760   1.000000
     18          0.081584   1.000000
     19          0.620572   1.000000
     20          2.068368   0.014868
     21          2.148718   0.000467
     22          2.250831   0.000001
     23          5.518665   0.000000
     24          5.710444   0.000000
     25          5.754076   0.000000
     26          6.058820   0.000000
     27          6.718307   0.000000
     28          7.460339   0.000000
     29          7.905857   0.000000
     30          8.667582   0.000000
     31          8.865692   0.000000
     32          8.987004   0.000000
     33          9.080707   0.000000
     34         10.054993   0.000000
     35         11.209182   0.000000
     36         11.305094   0.000000
     37         11.507124   0.000000
     38         11.564898   0.000000
     39         11.999983   0.000000
     40         12.321653   0.000000
     41         13.026705   0.000000
     42         13.428449   0.000000
     43         13.547249   0.000000
     44         15.262676   0.000000
     45         15.584627   0.000000
     46         16.070599   0.000000
     47         16.245353   0.000000
     48         16.346361   0.000000
 
  0.1333333E+00  0.0000000E+00  0.3571429E-01  0.9070295E-03
      1        -12.659396   1.000000
      2        -11.588952   1.000000
      3         -8.639262   1.000000
      4         -8.351436   1.000000
      5         -6.009699   1.000000
      6         -5.434398   1.000000
      7         -4.802834   1.000000
      8         -3.923148   1.000000
      9         -3.877526   1.000000
     10         -3.199067   1.000000
     11         -2.386988   1.000000
     12         -2.238815   1.000000
     13         -2.234036   1.000000
     14         -1.351103   1.000000
     15         -0.102054   1.000000
     16          0.012651   1.000000
     17          0.116816   1.000000
     18          0.130589   1.000000
     19          0.553024   1.000000
     20          1.982549   0.168550
     21          2.118357   0.001985
     22          2.163206   0.000220
     23          5.551388   0.000000
     24          5.706949   0.000000
     25          5.827930   0.000000
     26          6.272835   0.000000
     27          6.662045   0.000000
     28          7.217869   0.000000
     29          8.054417   0.000000
     30          8.760314   0.000000
     31          9.024165   0.000000
     32          9.060968   0.000000
     33          9.231980   0.000000
     34         10.119581   0.000000
     35         11.034259   0.000000
     36         11.202921   0.000000
     37         11.257847   0.000000
     38         11.506822   0.000000
     39         12.139513   0.000000
     40         12.384748   0.000000
     41         13.192711   0.000000
     42         13.225241   0.000000
     43         13.896600   0.000000
     44         14.884734   0.000000
     45         15.717253   0.000000
     46         15.884549   0.000000
     47         16.238705   0.000000
     48         16.438356   0.000000
 
  0.2000000E+00  0.0000000E+00  0.3571429E-01  0.9070295E-03
      1        -12.610798   1.000000
      2        -11.668386   1.000000
      3         -8.612588   1.000000
      4         -8.340551   1.000000
      5         -5.990138   1.000000
      6         -5.640105   1.000000
      7         -4.833736   1.000000
      8         -3.809400   1.000000
      9         -3.585010   1.000000
     10         -2.903032   1.000000
     11         -2.379365   1.000000
     12         -2.365197   1.000000
     13         -2.247664   1.000000
     14         -1.655349   1.000000
     15         -0.236950   1.000000
     16          0.056882   1.000000
     17          0.147020   1.000000
     18          0.205584   1.000000
     19          0.460390   1.000000
     20          1.875613   0.709663
     21          2.019550   0.069013
     22          2.050856   0.027058
     23          5.573521   0.000000
     24          5.727540   0.000000
     25          5.999583   0.000000
     26          6.564810   0.000000
     27          6.583654   0.000000
     28          7.004248   0.000000
     29          8.166978   0.000000
     30          8.882886   0.000000
     31          9.018686   0.000000
     32          9.292991   0.000000
     33          9.510093   0.000000
     34         10.266591   0.000000
     35         10.631021   0.000000
     36         10.803136   0.000000
     37         11.336694   0.000000
     38         11.590967   0.000000
     39         12.284035   0.000000
     40         12.543698   0.000000
     41         12.888765   0.000000
     42         13.220679   0.000000
     43         14.359326   0.000000
     44         14.690573   0.000000
     45         15.500353   0.000000
     46         15.895144   0.000000
     47         16.171643   0.000000
     48         16.420240   0.000000
 
  0.2666667E+00  0.0000000E+00  0.3571429E-01  0.9070295E-03
      1        -12.544071   1.000000
      2        -11.769733   1.000000
      3         -8.574555   1.000000
      4         -8.332877   1.000000
      5         -6.029622   1.000000
      6         -5.812338   1.000000
      7         -4.736867   1.000000
      8         -3.715346   1.000000
      9         -3.246383   1.000000
     10         -2.582884   1.000000
     11         -2.550692   1.000000
     12         -2.335156   1.000000
     13         -2.265842   1.000000
     14         -2.010375   1.000000
     15         -0.410300   1.000000
     16          0.075567   1.000000
     17          0.118742   1.000000
     18          0.283508   1.000000
     19          0.441993   1.000000
     20          1.764986   0.982866
     21          1.827641   0.890804
     22          1.955588   0.281423
     23          5.581996   0.000000
     24          5.766770   0.000000
     25          6.269421   0.000000
     26          6.503529   0.000000
     27          6.830518   0.000000
     28          6.912480   0.000000
     29          8.258262   0.000000
     30          8.935862   0.000000
     31          8.959341   0.000000
     32          9.575000   0.000000
     33          9.845594   0.000000
     34         10.149617   0.000000
     35         10.479646   0.000000
     36         10.536534   0.000000
     37         11.417298   0.000000
     38         11.776317   0.000000
     39         12.348353   0.000000
     40         12.494779   0.000000
     41         12.815599   0.000000
     42         13.003418   0.000000
     43         14.744543   0.000000
     44         14.843424   0.000000
     45         15.137409   0.000000
     46         15.876846   0.000000
     47         15.988363   0.000000
     48         16.094002   0.000000
 
  0.3333333E+00  0.0000000E+00  0.3571429E-01  0.9070295E-03
      1        -12.460595   1.000000
      2        -11.885533   1.000000
      3         -8.527140   1.000000
      4         -8.334126   1.000000
      5         -6.104402   1.000000
      6         -5.952148   1.000000
      7         -4.512122   1.000000
      8         -3.596796   1.000000
      9         -2.974220   1.000000
     10         -2.738264   1.000000
     11         -2.430755   1.000000
     12         -2.324276   1.000000
     13         -2.269885   1.000000
     14         -2.172180   1.000000
     15         -0.602595   1.000000
     16         -0.130655   1.000000
     17          0.192576   1.000000
     18          0.348520   1.000000
     19          0.542449   1.000000
     20          1.601774   0.999995
     21          1.670426   0.999724
     22          1.846528   0.832405
     23          5.598593   0.000000
     24          5.790631   0.000000
     25          6.445767   0.000000
     26          6.625512   0.000000
     27          6.694431   0.000000
     28          7.301570   0.000000
     29          8.335448   0.000000
     30          8.815328   0.000000
     31          8.847925   0.000000
     32          9.642912   0.000000
     33          9.869472   0.000000
     34         10.195610   0.000000
     35         10.372499   0.000000
     36         10.940860   0.000000
     37         11.442300   0.000000
     38         12.042307   0.000000
     39         12.072668   0.000000
     40         12.339292   0.000000
     41         12.616058   0.000000
     42         13.199166   0.000000
     43         14.668639   0.000000
     44         15.003622   0.000000
     45         15.319564   0.000000
     46         15.362111   0.000000
     47         15.517097   0.000000
     48         16.289193   0.000000
 
  0.4000000E+00  0.0000000E+00  0.3571429E-01  0.9070295E-03
      1        -12.362300   1.000000
      2        -12.008567   1.000000
      3         -8.474603   1.000000
      4         -8.349022   1.000000
      5         -6.162806   1.000000
      6         -6.064853   1.000000
      7         -4.196581   1.000000
      8         -3.455757   1.000000
      9         -3.048163   1.000000
     10         -2.930405   1.000000
     11         -2.520790   1.000000
     12         -2.332734   1.000000
     13         -2.136546   1.000000
     14         -1.961180   1.000000
     15         -0.767739   1.000000
     16         -0.390861   1.000000
     17          0.269726   1.000000
     18          0.384489   1.000000
     19          0.701626   1.000000
     20          1.360139   1.000000
     21          1.612732   0.999990
     22          1.739936   0.993266
     23          5.632943   0.000000
     24          5.779211   0.000000
     25          6.428680   0.000000
     26          6.589055   0.000000
     27          7.050415   0.000000
     28          7.719102   0.000000
     29          8.406706   0.000000
     30          8.504928   0.000000
     31          8.688769   0.000000
     32          9.141405   0.000000
     33         10.170201   0.000000
     34         10.495691   0.000000
     35         10.528462   0.000000
     36         11.378002   0.000000
     37         11.463944   0.000000
     38         11.643040   0.000000
     39         12.043501   0.000000
     40         12.340629   0.000000
     41         12.551706   0.000000
     42         13.370947   0.000000
     43         14.491409   0.000000
     44         14.813144   0.000000
     45         15.010748   0.000000
     46         15.144190   0.000000
     47         15.765722   0.000000
     48         16.428433   0.000000
 
  0.4666667E+00  0.0000000E+00  0.3571429E-01  0.9070295E-03
      1        -12.251800   1.000000
      2        -12.132453   1.000000
      3         -8.423096   1.000000
      4         -8.379410   1.000000
      5         -6.177745   1.000000
      6         -6.143389   1.000000
      7         -3.824327   1.000000
      8         -3.423868   1.000000
      9         -3.294988   1.000000
     10         -3.118216   1.000000
     11         -2.434255   1.000000
     12         -2.373423   1.000000
     13         -1.959986   1.000000
     14         -1.858457   1.000000
     15         -0.802883   1.000000
     16         -0.645238   1.000000
     17          0.337585   1.000000
     18          0.380291   1.000000
     19          0.897538   1.000000
     20          1.120566   1.000000
     21          1.606996   0.999993
     22          1.653869   0.999887
     23          5.682520   0.000000
     24          5.736963   0.000000
     25          6.453095   0.000000
     26          6.508788   0.000000
     27          7.521546   0.000000
     28          7.980013   0.000000
     29          8.224370   0.000000
     30          8.483416   0.000000
     31          8.576042   0.000000
     32          8.657361   0.000000
     33         10.450165   0.000000
     34         10.610424   0.000000
     35         10.839961   0.000000
     36         11.224528   0.000000
     37         11.419880   0.000000
     38         11.670638   0.000000
     39         11.973387   0.000000
     40         12.333423   0.000000
     41         12.792519   0.000000
     42         13.170733   0.000000
     43         14.526521   0.000000
     44         14.597037   0.000000
     45         14.843138   0.000000
     46         14.915862   0.000000
     47         16.150633   0.000000
     48         16.402305   0.000000
 
  0.0000000E+00  0.4761905E-01  0.3571429E-01  0.9070295E-03
      1        -12.693262   1.000000
      2        -11.515577   1.000000
      3         -8.655144   1.000000
      4         -8.358422   1.000000
      5         -6.062904   1.000000
      6         -5.112899   1.000000
      7         -4.643264   1.000000
      8         -4.374763   1.000000
      9         -4.058935   1.000000
     10         -3.509720   1.000000
     11         -2.667117   1.000000
     12         -2.244728   1.000000
     13         -1.643327   1.000000
     14         -1.071222   1.000000
     15         -0.113201   1.000000
     16         -0.017599   1.000000
     17          0.070601   1.000000
     18          0.072693   1.000000
     19          0.671481   1.000000
     20          2.048531   0.029177
     21          2.066443   0.015923
     22          2.309090   0.000000
     23          5.561850   0.000000
     24          5.671026   0.000000
     25          5.790730   0.000000
     26          5.914962   0.000000
     27          6.807991   0.000000
     28          7.768662   0.000000
     29          7.777036   0.000000
     30          8.453999   0.000000
     31          8.837865   0.000000
     32          8.981669   0.000000
     33          9.069537   0.000000
     34         10.175947   0.000000
     35         11.246525   0.000000
     36         11.385318   0.000000
     37         11.543834   0.000000
     38         11.715121   0.000000
     39         11.971511   0.000000
     40         12.366168   0.000000
     41         12.937389   0.000000
     42         13.256524   0.000000
     43         13.499786   0.000000
     44         15.485725   0.000000
     45         15.543317   0.000000
     46         15.878236   0.000000
     47         16.271773   0.000000
     48         16.397328   0.000000
 
  0.6666667E-01  0.4761905E-01  0.3571429E-01  0.1814059E-02
      1        -12.683372   1.000000
      2        -11.533094   1.000000
      3         -8.650214   1.000000
      4         -8.355035   1.000000
      5         -6.044224   1.000000
      6         -5.219516   1.000000
      7         -4.703367   1.000000
      8         -4.240472   1.000000
      9         -4.034239   1.000000
     10         -3.419530   1.000000
     11         -2.682112   1.000000
     12         -2.240244   1.000000
     13         -1.665743   1.000000
     14         -1.144348   1.000000
     15         -0.112027   1.000000
     16         -0.011359   1.000000
     17          0.059913   1.000000
     18          0.089397   1.000000
     19          0.648865   1.000000
     20          2.002025   0.108352
     21          2.072627   0.012748
     22          2.279211   0.000000
     23          5.575816   0.000000
     24          5.680636   0.000000
     25          5.784373   0.000000
     26          6.005820   0.000000
     27          6.787670   0.000000
     28          7.533829   0.000000
     29          7.971956   0.000000
     30          8.489185   0.000000
     31          8.903529   0.000000
     32          9.043463   0.000000
     33          9.091763   0.000000
     34         10.183502   0.000000
     35         11.252368   0.000000
     36         11.296674   0.000000
     37         11.531407   0.000000
     38         11.550203   0.000000
     39         12.022533   0.000000
     40         12.385803   0.000000
     41         13.025360   0.000000
     42         13.356721   0.000000
     43         13.479475   0.000000
     44         15.274853   0.000000
     45         15.533551   0.000000
     46         16.027863   0.000000
     47         16.214132   0.000000
     48         16.322039   0.000000
 
  0.1333333E+00  0.4761905E-01  0.3571429E-01  0.1814059E-02
      1        -12.653870   1.000000
      2        -11.583919   1.000000
      3         -8.634871   1.000000
      4         -8.346167   1.000000
      5         -6.003293   1.000000
      6         -5.427329   1.000000
      7         -4.798264   1.000000
      8         -4.062908   1.000000
      9         -3.877145   1.000000
     10         -3.193682   1.000000
     11         -2.727134   1.000000
     12         -2.226668   1.000000
     13         -1.726018   1.000000
     14         -1.349731   1.000000
     15         -0.134576   1.000000
     16         -0.022653   1.000000
     17          0.088479   1.000000
     18          0.126873   1.000000
     19          0.581537   1.000000
     20          1.916007   0.492477
     21          2.042954   0.034826
     22          2.190536   0.000048
     23          5.604737   0.000000
     24          5.728054   0.000000
     25          5.811519   0.000000
     26          6.218817   0.000000
     27          6.731760   0.000000
     28          7.296267   0.000000
     29          8.117341   0.000000
     30          8.585451   0.000000
     31          9.034038   0.000000
     32          9.150916   0.000000
     33          9.250042   0.000000
     34         10.216197   0.000000
     35         11.010722   0.000000
     36         11.184487   0.000000
     37         11.310722   0.000000
     38         11.548006   0.000000
     39         12.163025   0.000000
     40         12.447021   0.000000
     41         13.151445   0.000000
     42         13.196111   0.000000
     43         13.822883   0.000000
     44         14.914457   0.000000
     45         15.647477   0.000000
     46         15.892279   0.000000
     47         16.134287   0.000000
     48         16.449422   0.000000
 
  0.2000000E+00  0.4761905E-01  0.3571429E-01  0.1814059E-02
      1        -12.605297   1.000000
      2        -11.663319   1.000000
      3         -8.608154   1.000000
      4         -8.335388   1.000000
      5         -5.983297   1.000000
      6         -5.633161   1.000000
      7         -4.829621   1.000000
      8         -3.977335   1.000000
      9         -3.558094   1.000000
     10         -2.906976   1.000000
     11         -2.794054   1.000000
     12         -2.203710   1.000000
     13         -1.808523   1.000000
     14         -1.653279   1.000000
     15         -0.241605   1.000000
     16         -0.005275   1.000000
     17          0.142556   1.000000
     18          0.181870   1.000000
     19          0.487264   1.000000
     20          1.809671   0.931221
     21          1.971044   0.212667
     22          2.049937   0.027879
     23          5.621702   0.000000
     24          5.777046   0.000000
     25          5.961833   0.000000
     26          6.502622   0.000000
     27          6.654727   0.000000
     28          7.093805   0.000000
     29          8.227151   0.000000
     30          8.711711   0.000000
     31          9.061083   0.000000
     32          9.362609   0.000000
     33          9.536800   0.000000
     34         10.306883   0.000000
     35         10.609381   0.000000
     36         10.791826   0.000000
     37         11.383390   0.000000
     38         11.650093   0.000000
     39         12.316268   0.000000
     40         12.594241   0.000000
     41         12.820569   0.000000
     42         13.227453   0.000000
     43         14.247010   0.000000
     44         14.763302   0.000000
     45         15.510774   0.000000
     46         15.814502   0.000000
     47         16.090702   0.000000
     48         16.476056   0.000000
 
  0.2666667E+00  0.4761905E-01  0.3571429E-01  0.1814059E-02
      1        -12.538603   1.000000
      2        -11.764624   1.000000
      3         -8.570080   1.000000
      4         -8.327843   1.000000
      5         -6.022462   1.000000
      6         -5.805301   1.000000
      7         -4.733203   1.000000
      8         -3.885355   1.000000
      9         -3.218681   1.000000
     10         -2.918544   1.000000
     11         -2.565908   1.000000
     12         -2.175761   1.000000
     13         -2.008766   1.000000
     14         -1.894558   1.000000
     15         -0.406835   1.000000
     16          0.003623   1.000000
     17          0.141081   1.000000
     18          0.251174   1.000000
     19          0.455100   1.000000
     20          1.698677   0.998873
     21          1.830232   0.883796
     22          1.903212   0.564382
     23          5.628361   0.000000
     24          5.824047   0.000000
     25          6.227388   0.000000
     26          6.573739   0.000000
     27          6.786541   0.000000
     28          6.989299   0.000000
     29          8.316143   0.000000
     30          8.795662   0.000000
     31          9.008360   0.000000
     32          9.624133   0.000000
     33          9.877817   0.000000
     34         10.111559   0.000000
     35         10.399915   0.000000
     36         10.619534   0.000000
     37         11.453338   0.000000
     38         11.849851   0.000000
     39         12.386028   0.000000
     40         12.429604   0.000000
     41         12.861835   0.000000
     42         13.015161   0.000000
     43         14.601888   0.000000
     44         14.954272   0.000000
     45         15.170066   0.000000
     46         15.772075   0.000000
     47         15.906046   0.000000
     48         16.200468   0.000000
 
  0.3333333E+00  0.4761905E-01  0.3571429E-01  0.1814059E-02
      1        -12.455163   1.000000
      2        -11.880372   1.000000
      3         -8.522620   1.000000
      4         -8.329230   1.000000
      5         -6.097127   1.000000
      6         -5.944962   1.000000
      7         -4.508746   1.000000
      8         -3.774666   1.000000
      9         -3.048328   1.000000
     10         -2.942615   1.000000
     11         -2.393879   1.000000
     12         -2.235377   1.000000
     13         -2.094789   1.000000
     14         -1.980798   1.000000
     15         -0.595719   1.000000
     16         -0.146423   1.000000
     17          0.168656   1.000000
     18          0.313699   1.000000
     19          0.546880   1.000000
     20          1.585225   0.999998
     21          1.629739   0.999972
     22          1.787127   0.964367
     23          5.645658   0.000000
     24          5.849091   0.000000
     25          6.518257   0.000000
     26          6.581898   0.000000
     27          6.752700   0.000000
     28          7.278513   0.000000
     29          8.390723   0.000000
     30          8.735771   0.000000
     31          8.877324   0.000000
     32          9.598525   0.000000
     33          9.900211   0.000000
     34         10.207532   0.000000
     35         10.343592   0.000000
     36         10.965051   0.000000
     37         11.457979   0.000000
     38         12.012488   0.000000
     39         12.126981   0.000000
     40         12.378705   0.000000
     41         12.641841   0.000000
     42         13.242604   0.000000
     43         14.688654   0.000000
     44         14.966284   0.000000
     45         15.307771   0.000000
     46         15.335078   0.000000
     47         15.547408   0.000000
     48         16.298214   0.000000
 
  0.4000000E+00  0.4761905E-01  0.3571429E-01  0.1814059E-02
      1        -12.356918   1.000000
      2        -12.003348   1.000000
      3         -8.470048   1.000000
      4         -8.344253   1.000000
      5         -6.155483   1.000000
      6         -6.057567   1.000000
      7         -4.193439   1.000000
      8         -3.646251   1.000000
      9         -3.195753   1.000000
     10         -3.038732   1.000000
     11         -2.419315   1.000000
     12         -2.063711   1.000000
     13         -2.041113   1.000000
     14         -1.946900   1.000000
     15         -0.759614   1.000000
     16         -0.394005   1.000000
     17          0.236530   1.000000
     18          0.348516   1.000000
     19          0.704100   1.000000
     20          1.361691   1.000000
     21          1.554224   1.000000
     22          1.679882   0.999551
     23          5.681845   0.000000
     24          5.835944   0.000000
     25          6.503128   0.000000
     26          6.658478   0.000000
     27          7.006557   0.000000
     28          7.685508   0.000000
     29          8.445571   0.000000
     30          8.459086   0.000000
     31          8.725974   0.000000
     32          9.102100   0.000000
     33         10.177754   0.000000
     34         10.424080   0.000000
     35         10.578777   0.000000
     36         11.353600   0.000000
     37         11.465930   0.000000
     38         11.629258   0.000000
     39         12.070547   0.000000
     40         12.415704   0.000000
     41         12.604985   0.000000
     42         13.422338   0.000000
     43         14.531535   0.000000
     44         14.795794   0.000000
     45         14.982060   0.000000
     46         15.150155   0.000000
     47         15.791525   0.000000
     48         16.420917   0.000000
 
  0.4666667E+00  0.4761905E-01  0.3571429E-01  0.1814059E-02
      1        -12.246468   1.000000
      2        -12.127172   1.000000
      3         -8.418493   1.000000
      4         -8.374733   1.000000
      5         -6.170392   1.000000
      6         -6.136053   1.000000
      7         -3.821548   1.000000
      8         -3.506441   1.000000
      9         -3.416209   1.000000
     10         -3.349531   1.000000
     11         -2.261295   1.000000
     12         -2.149070   1.000000
     13         -1.910221   1.000000
     14         -1.836392   1.000000
     15         -0.796747   1.000000
     16         -0.643203   1.000000
     17          0.301765   1.000000
     18          0.343909   1.000000
     19          0.899706   1.000000
     20          1.122778   1.000000
     21          1.547425   1.000000
     22          1.593983   0.999997
     23          5.733846   0.000000
     24          5.791017   0.000000
     25          6.528165   0.000000
     26          6.582474   0.000000
     27          7.476594   0.000000
     28          7.933791   0.000000
     29          8.184836   0.000000
     30          8.531636   0.000000
     31          8.593443   0.000000
     32          8.643504   0.000000
     33         10.454140   0.000000
     34         10.610767   0.000000
     35         10.794860   0.000000
     36         11.120408   0.000000
     37         11.476628   0.000000
     38         11.702962   0.000000
     39         11.995926   0.000000
     40         12.373492   0.000000
     41         12.868006   0.000000
     42         13.234155   0.000000
     43         14.537159   0.000000
     44         14.599747   0.000000
     45         14.845041   0.000000
     46         14.943404   0.000000
     47         16.150116   0.000000
     48         16.391230   0.000000
 
  0.0000000E+00  0.9523810E-01  0.3571429E-01  0.9070295E-03
      1        -12.676991   1.000000
      2        -11.500892   1.000000
      3         -8.642446   1.000000
      4         -8.342686   1.000000
      5         -6.045228   1.000000
      6         -5.088546   1.000000
      7         -4.628007   1.000000
      8         -4.500167   1.000000