    1    1    1    1
  0.3375000E+04  0.1500000E-08  0.1250000E-08  0.1800000E-08  0.5000000E-15
  1.000000000000000E-004
  CAR 
 Convergence                             
      3    175      8
 
  0.5000000E-01  0.3571429E-01  0.0000000E+00  0.3174603E-02
      1         -9.409943   1.000000
      2         -3.572400   0.166658
      3         -3.572395   0.166622
      4         -3.572290   0.165888
      5         -0.261393   0.000000
      6          0.294657   0.000000
      7          0.310474   0.000000
      8          0.440315   0.000000
 
  0.1500000E+00  0.3571429E-01  0.0000000E+00  0.3174603E-02
      1         -9.409943   1.000000
      2         -3.572405   0.166697
      3         -3.572397   0.166640
      4         -3.572291   0.165892
      5         -0.251540   0.000000
      6          0.268789   0.000000
      7          0.321710   0.000000
      8          0.375715   0.000000
 
  0.2500000E+00  0.3571429E-01  0.0000000E+00  0.3174603E-02
      1         -9.409942   1.000000
      2         -3.572400   0.166661
      3         -3.572398   0.166646
      4         -3.572289   0.165875
      5         -0.233391   0.000000
      6          0.199227   0.000000
      7          0.343343   0.000000
      8          0.377720   0.000000
 
  0.3500000E+00  0.3571429E-01  0.0000000E+00  0.3174603E-02
      1         -9.409944   1.000000
      2         -3.572424   0.166831
      3         -3.572405   0.166696
      4         -3.572299   0.165945
      5         -0.211197   0.000000
      6          0.131612   0.000000
      7          0.372479   0.000000
      8          0.409143   0.000000
 
  0.4500000E+00  0.3571429E-01  0.0000000E+00  0.3174603E-02
      1         -9.409944   1.000000
      2         -3.572426   0.166847
      3         -3.572406   0.166703
      4         -3.572299   0.165950
      5         -0.194163   0.000000
      6          0.090539   0.000000
      7          0.399001   0.000000
      8          0.448214   0.000000
 
  0.5000000E-01  0.1071429E+00  0.0000000E+00  0.3174603E-02
      1         -9.409943   1.000000
      2         -3.572402   0.166672
      3         -3.572396   0.166632
      4         -3.572311   0.166032
      5         -0.252267   0.000000
      6          0.302735   0.000000
      7          0.319446   0.000000
      8          0.449182   0.000000
 
  0.1500000E+00  0.1071429E+00  0.0000000E+00  0.3174603E-02
      1         -9.409942   1.000000
      2         -3.572399   0.166654
      3         -3.572393   0.166611
      4         -3.572303   0.165980
      5         -0.242428   0.000000
      6          0.277258   0.000000
      7          0.330660   0.000000
      8          0.384663   0.000000
 
  0.2500000E+00  0.1071429E+00  0.0000000E+00  0.3174603E-02
      1         -9.409943   1.000000
      2         -3.572404   0.166690
      3         -3.572395   0.166628
      4         -3.572311   0.166034
      5         -0.224311   0.000000
      6          0.208270   0.000000
      7          0.352237   0.000000
      8          0.386294   0.000000
 
  0.3500000E+00  0.1071429E+00  0.0000000E+00  0.3174603E-02
      1         -9.409943   1.000000
      2         -3.572417   0.166783
      3         -3.572401   0.166671
      4         -3.572310   0.166027
      5         -0.202168   0.000000
      6          0.140900   0.000000
      7          0.381267   0.000000
      8          0.417579   0.000000
 
  0.4500000E+00  0.1071429E+00  0.0000000E+00  0.3174603E-02
      1         -9.409944   1.000000
      2         -3.572422   0.166817
      3         -3.572405   0.166696
      4         -3.572319   0.166092
      5         -0.185184   0.000000
      6          0.099943   0.000000
      7          0.407626   0.000000
      8          0.456527   0.000000
 
  0.5000000E-01  0.1785714E+00  0.0000000E+00  0.3174603E-02
      1         -9.409943   1.000000
      2         -3.572402   0.166679
      3         -3.572389   0.166587
      4         -3.572348   0.166294
      5         -0.234329   0.000000
      6          0.315486   0.000000
      7          0.337280   0.000000
      8          0.462676   0.000000
 
  0.1500000E+00  0.1785714E+00  0.0000000E+00  0.3174603E-02
      1         -9.409943   1.000000
      2         -3.572397   0.166640
      3         -3.572396   0.166632
      4         -3.572350   0.166306
      5         -0.224526   0.000000
      6          0.292348   0.000000
      7          0.348443   0.000000
      8          0.400992   0.000000
 
  0.2500000E+00  0.1785714E+00  0.0000000E+00  0.3174603E-02
      1         -9.409943   1.000000
      2         -3.572404   0.166686
      3         -3.572396   0.166635
      4         -3.572352   0.166320
      5         -0.206487   0.000000
      6          0.225895   0.000000
      7          0.369903   0.000000
      8          0.400122   0.000000
 
  0.3500000E+00  0.1785714E+00  0.0000000E+00  0.3174603E-02
      1         -9.409943   1.000000
      2         -3.572413   0.166752
      3         -3.572398   0.166650
      4         -3.572353   0.166327
      5         -0.184468   0.000000
      6          0.159324   0.000000
      7          0.398704   0.000000
      8          0.430199   0.000000
 
  0.4500000E+00  0.1785714E+00  0.0000000E+00  0.3174603E-02
      1         -9.409944   1.000000
      2         -3.572419   0.166793
      3         -3.572406   0.166706
      4         -3.572352   0.166319
      5         -0.167611   0.000000
      6          0.118692   0.000000
      7          0.424719   0.000000
      8          0.467218   0.000000
 
  0.5000000E-01  0.2500000E+00  0.0000000E+00  0.3174603E-02
      1         -9.409943   1.000000
      2         -3.572401   0.166668
      3         -3.572399   0.166655
      4         -3.572385   0.166555
      5         -0.208376   0.000000
      6          0.307239   0.000000
      7          0.363672   0.000000
      8          0.400783   0.000000
 
  0.1500000E+00  0.2500000E+00  0.0000000E+00  0.3174603E-02
      1         -9.409944   1.000000
      2         -3.572405   0.166698
      3         -3.572404   0.166690
      4         -3.572397   0.166640
      5         -0.198645   0.000000
      6          0.300210   0.000000
      7          0.374748   0.000000
      8          0.385097   0.000000
 
  0.2500000E+00  0.2500000E+00  0.0000000E+00  0.3174603E-02
      1         -9.409943   1.000000
      2         -3.572408   0.166715
      3         -3.572401   0.166667
      4         -3.572393   0.166613
      5         -0.180763   0.000000
      6          0.249883   0.000000
      7          0.375072   0.000000
      8          0.396004   0.000000
 
  0.3500000E+00  0.2500000E+00  0.0000000E+00  0.3174603E-02
      1         -9.409943   1.000000
      2         -3.572410   0.166733
      3         -3.572397   0.166641
      4         -3.572395   0.166628
      5         -0.158997   0.000000
      6          0.186398   0.000000
      7          0.397549   0.000000
      8          0.424414   0.000000
 
  0.4500000E+00  0.2500000E+00  0.0000000E+00  0.3174603E-02
      1         -9.409943   1.000000
      2         -3.572411   0.166737
      3         -3.572400   0.166661
      4         -3.572395   0.166625
      5         -0.142400   0.000000
      6          0.146619   0.000000
      7          0.422256   0.000000
      8          0.449852   0.000000
 
  0.5000000E-01  0.3214286E+00  0.0000000E+00  0.3174603E-02
      1         -9.409944   1.000000
      2         -3.572459   0.167078
      3         -3.572404   0.166692
      4         -3.572385   0.166555
      5         -0.176219   0.000000
      6          0.243264   0.000000
      7          0.397837   0.000000
      8          0.414777   0.000000
 
  0.1500000E+00  0.3214286E+00  0.0000000E+00  0.3174603E-02
      1         -9.409944   1.000000
      2         -3.572455   0.167049
      3         -3.572403   0.166681
      4         -3.572394   0.166619
      5         -0.166621   0.000000
      6          0.252067   0.000000
      7          0.384622   0.000000
      8          0.408765   0.000000
 
  0.2500000E+00  0.3214286E+00  0.0000000E+00  0.3174603E-02
      1         -9.409943   1.000000
      2         -3.572450   0.167018
      3         -3.572397   0.166643
      4         -3.572395   0.166626
      5         -0.149036   0.000000
      6          0.258425   0.000000
      7          0.322079   0.000000
      8          0.429677   0.000000
 
  0.3500000E+00  0.3214286E+00  0.0000000E+00  0.3174603E-02
      1         -9.409942   1.000000
      2         -3.572438   0.166928
      3         -3.572397   0.166638
      4         -3.572393   0.166612
      5         -0.127750   0.000000
      6          0.219990   0.000000
      7          0.319988   0.000000
      8          0.457439   0.000000
 
  0.4500000E+00  0.3214286E+00  0.0000000E+00  0.3174603E-02
      1         -9.409942   1.000000
      2         -3.572436   0.166912
      3         -3.572406   0.166701
      4         -3.572396   0.166631
      5         -0.111647   0.000000
      6          0.183256   0.000000
      7          0.340997   0.000000
      8          0.481946   0.000000
 
  0.5000000E-01  0.3928571E+00  0.0000000E+00  0.3174603E-02
      1         -9.409943   1.000000
      2         -3.572494   0.167328
      3         -3.572401   0.166665
      4         -3.572387   0.166567
      5         -0.142217   0.000000
      6          0.176345   0.000000
      7          0.437348   0.000000
      8          0.457133   0.000000
 
  0.1500000E+00  0.3928571E+00  0.0000000E+00  0.3174603E-02
      1         -9.409943   1.000000
      2         -3.572491   0.167303
      3         -3.572401   0.166666
      4         -3.572387   0.166567
      5         -0.132849   0.000000
      6          0.187398   0.000000
      7          0.422060   0.000000
      8          0.448010   0.000000
 
  0.2500000E+00  0.3928571E+00  0.0000000E+00  0.3174603E-02
      1         -9.409944   1.000000
      2         -3.572497   0.167345
      3         -3.572398   0.166644
      4         -3.572397   0.166637
      5         -0.115774   0.000000
      6          0.208196   0.000000
      7          0.345116   0.000000
      8          0.468313   0.000000
 
  0.3500000E+00  0.3928571E+00  0.0000000E+00  0.3174603E-02
      1         -9.409943   1.000000
      2         -3.572492   0.167315
      3         -3.572398   0.166648
      4         -3.572397   0.166643
      5         -0.095311   0.000000
      6          0.232249   0.000000
      7          0.282022   0.000000
      8          0.496892   0.000000
 
  0.4500000E+00  0.3928571E+00  0.0000000E+00  0.3174603E-02
      1         -9.409943   1.000000
      2         -3.572490   0.167298
      3         -3.572402   0.166679
      4         -3.572395   0.166625
      5         -0.080042   0.000000
      6          0.226590   0.000000
      7          0.273852   0.000000
      8          0.447213   0.000000
 
  0.5000000E-01  0.4642857E+00  0.0000000E+00  0.3174603E-02
      1         -9.409942   1.000000
      2         -3.572506   0.167412
      3         -3.572394   0.166618
      4         -3.572385   0.166555
      5         -0.117004   0.000000
      6          0.133547   0.000000
      7          0.472372   0.000000
      8          0.505628   0.000000
 
  0.1500000E+00  0.4642857E+00  0.0000000E+00  0.3174603E-02
      1         -9.409943   1.000000
      2         -3.572511   0.167446
      3         -3.572393   0.166612
      4         -3.572387   0.166568
      5         -0.107910   0.000000
      6          0.145247   0.000000
      7          0.462253   0.000000
      8          0.482586   0.000000
 
  0.2500000E+00  0.4642857E+00  0.0000000E+00  0.3174603E-02
      1         -9.409943   1.000000
      2         -3.572512   0.167454
      3         -3.572397   0.166636
      4         -3.572394   0.166619
      5         -0.091439   0.000000
      6          0.167959   0.000000
      7          0.382079   0.000000
      8          0.501935   0.000000
 
  0.3500000E+00  0.4642857E+00  0.0000000E+00  0.3174603E-02
      1         -9.409943   1.000000
      2         -3.572516   0.167483
      3         -3.572396   0.166630
      4         -3.572394   0.166616
      5         -0.071931   0.000000
      6          0.199276   0.000000
      7          0.314251   0.000000
      8          0.438136   0.000000
 
  0.4500000E+00  0.4642857E+00  0.0000000E+00  0.3174603E-02
      1         -9.409944   1.000000
      2         -3.572520   0.167514
      3         -3.572405   0.166696
      4         -3.572398   0.166646
      5         -0.057601   0.000000
      6          0.229979   0.000000
      7          0.273863   0.000000
      8          0.384743   0.000000
 
  0.5000000E-01  0.3571429E-01  0.1111111E+00  0.6349206E-02
      1         -9.409944   1.000000
      2         -3.572404   0.166687
      3         -3.572398   0.166646
      4         -3.572293   0.165909
      5         -0.258361   0.000000
      6          0.218233   0.000000
      7          0.388101   0.000000
      8          0.453592   0.000000
 
  0.1500000E+00  0.3571429E-01  0.1111111E+00  0.6349206E-02
      1         -9.409943   1.000000
      2         -3.572404   0.166687
      3         -3.572397   0.166638
      4         -3.572292   0.165902
      5         -0.248557   0.000000
      6          0.223360   0.000000
      7          0.319714   0.000000
      8          0.439678   0.000000
 
  0.2500000E+00  0.3571429E-01  0.1111111E+00  0.6349206E-02
      1         -9.409943   1.000000
      2         -3.572405   0.166698
      3         -3.572400   0.166660
      4         -3.572287   0.165866
      5         -0.230518   0.000000
      6          0.197138   0.000000
      7          0.280210   0.000000
      8          0.459461   0.000000
 
  0.3500000E+00  0.3571429E-01  0.1111111E+00  0.6349206E-02
      1         -9.409944   1.000000
      2         -3.572421   0.166812
      3         -3.572406   0.166705
      4         -3.572293   0.165909
      5         -0.208506   0.000000
      6          0.135606   0.000000
      7          0.302733   0.000000
      8          0.488040   0.000000
 
  0.4500000E+00  0.3571429E-01  0.1111111E+00  0.6349206E-02
      1         -9.409945   1.000000
      2         -3.572430   0.166871
      3         -3.572409   0.166722
      4         -3.572297   0.165932
      5         -0.191662   0.000000
      6          0.095432   0.000000
      7          0.333432   0.000000
      8          0.471610   0.000000
 
  0.5000000E-01  0.1071429E+00  0.1111111E+00  0.6349206E-02
      1         -9.409943   1.000000
      2         -3.572399   0.166655
      3         -3.572391   0.166601
      4         -3.572307   0.166007
      5         -0.249245   0.000000
      6          0.227230   0.000000
      7          0.395580   0.000000
      8          0.462327   0.000000
 
  0.1500000E+00  0.1071429E+00  0.1111111E+00  0.6349206E-02
      1         -9.409943   1.000000
      2         -3.572406   0.166705
      3         -3.572397   0.166640
      4         -3.572308   0.166013
      5         -0.239456   0.000000
      6          0.232313   0.000000
      7          0.328559   0.000000
      8          0.447616   0.000000
 
  0.2500000E+00  0.1071429E+00  0.1111111E+00  0.6349206E-02
      1         -9.409944   1.000000
      2         -3.572408   0.166719
      3         -3.572404   0.166691
      4         -3.572314   0.166056
      5         -0.221448   0.000000
      6          0.206191   0.000000
      7          0.289344   0.000000
      8          0.467188   0.000000
 
  0.3500000E+00  0.1071429E+00  0.1111111E+00  0.6349206E-02
      1         -9.409944   1.000000
      2         -3.572417   0.166783
      3         -3.572404   0.166687
      4         -3.572315   0.166063
      5         -0.199485   0.000000
      6          0.144889   0.000000
      7          0.311766   0.000000
      8          0.495818   0.000000
 
  0.4500000E+00  0.1071429E+00  0.1111111E+00  0.6349206E-02
      1         -9.409944   1.000000
      2         -3.572424   0.166828
      3         -3.572405   0.166698
      4         -3.572320   0.166096
      5         -0.182691   0.000000
      6          0.104830   0.000000
      7          0.342341   0.000000
      8          0.480884   0.000000
 
  0.5000000E-01  0.1785714E+00  0.1111111E+00  0.6349206E-02
      1         -9.409943   1.000000
      2         -3.572396   0.166634
      3         -3.572390   0.166587
      4         -3.572348   0.166291
      5         -0.231331   0.000000
      6          0.244548   0.000000
      7          0.402221   0.000000
      8          0.471819   0.000000
 
  0.1500000E+00  0.1785714E+00  0.1111111E+00  0.6349206E-02
      1         -9.409943   1.000000
      2         -3.572400   0.166663
      3         -3.572399   0.166657
      4         -3.572352   0.166321
      5         -0.221578   0.000000
      6          0.249478   0.000000
      7          0.345503   0.000000
      8          0.449965   0.000000
 
  0.2500000E+00  0.1785714E+00  0.1111111E+00  0.6349206E-02
      1         -9.409943   1.000000
      2         -3.572403   0.166683
      3         -3.572402   0.166673
      4         -3.572352   0.166324
      5         -0.203648   0.000000
      6          0.223828   0.000000
      7          0.307450   0.000000
      8          0.467348   0.000000
 
  0.3500000E+00  0.1785714E+00  0.1111111E+00  0.6349206E-02
      1         -9.409944   1.000000
      2         -3.572413   0.166752
      3         -3.572404   0.166686
      4         -3.572352   0.166325
      5         -0.181807   0.000000
      6          0.163302   0.000000
      7          0.329476   0.000000
      8          0.495713   0.000000
 
  0.4500000E+00  0.1785714E+00  0.1111111E+00  0.6349206E-02
      1         -9.409943   1.000000
      2         -3.572415   0.166768
      3         -3.572400   0.166660
      4         -3.572348   0.166294
      5         -0.165138   0.000000
      6          0.123563   0.000000
      7          0.359727   0.000000
      8          0.499055   0.000000
 
  0.5000000E-01  0.2500000E+00  0.1111111E+00  0.6349206E-02
      1         -9.409943   1.000000
      2         -3.572407   0.166711
      3         -3.572395   0.166625
      4         -3.572386   0.166564
      5         -0.205427   0.000000
      6          0.265595   0.000000
      7          0.352285   0.000000
      8          0.458521   0.000000
 
  0.1500000E+00  0.2500000E+00  0.1111111E+00  0.6349206E-02
      1         -9.409944   1.000000
      2         -3.572407   0.166713
      3         -3.572403   0.166682
      4         -3.572392   0.166607
      5         -0.195744   0.000000
      6          0.270164   0.000000
      7          0.356265   0.000000
      8          0.390789   0.000000
 
  0.2500000E+00  0.2500000E+00  0.1111111E+00  0.6349206E-02
      1         -9.409943   1.000000
      2         -3.572404   0.166693
      3         -3.572400   0.166661
      4         -3.572393   0.166608
      5         -0.177970   0.000000
      6          0.247867   0.000000
      7          0.333552   0.000000
      8          0.389856   0.000000
 
  0.3500000E+00  0.2500000E+00  0.1111111E+00  0.6349206E-02
      1         -9.409943   1.000000
      2         -3.572407   0.166713
      3         -3.572397   0.166637
      4         -3.572393   0.166613
      5         -0.156380   0.000000
      6          0.190349   0.000000
      7          0.353060   0.000000
      8          0.416102   0.000000
 
  0.4500000E+00  0.2500000E+00  0.1111111E+00  0.6349206E-02
      1         -9.409943   1.000000
      2         -3.572411   0.166736
      3         -3.572398   0.166647
      4         -3.572394   0.166620
      5         -0.139966   0.000000
      6          0.151462   0.000000
      7          0.381913   0.000000
      8          0.439987   0.000000
 
  0.5000000E-01  0.3214286E+00  0.1111111E+00  0.6349206E-02
      1         -9.409943   1.000000
      2         -3.572454   0.167041
      3         -3.572396   0.166635
      4         -3.572385   0.166554
      5         -0.173359   0.000000
      6          0.243329   0.000000
      7          0.327490   0.000000
      8          0.489478   0.000000
 
  0.1500000E+00  0.3214286E+00  0.1111111E+00  0.6349206E-02
      1         -9.409944   1.000000
      2         -3.572454   0.167041
      3         -3.572397   0.166642
      4         -3.572393   0.166612
      5         -0.163809   0.000000
      6          0.252035   0.000000
      7          0.336674   0.000000
      8          0.412953   0.000000
 
  0.2500000E+00  0.3214286E+00  0.1111111E+00  0.6349206E-02
      1         -9.409943   1.000000
      2         -3.572447   0.166995
      3         -3.572400   0.166662
      4         -3.572394   0.166620
      5         -0.146330   0.000000
      6          0.258839   0.000000
      7          0.325301   0.000000
      8          0.372075   0.000000
 
  0.3500000E+00  0.3214286E+00  0.1111111E+00  0.6349206E-02
      1         -9.409942   1.000000
      2         -3.572445   0.166979
      3         -3.572398   0.166646
      4         -3.572393   0.166611
      5         -0.125214   0.000000
      6          0.223862   0.000000
      7          0.322589   0.000000
      8          0.398413   0.000000
 
  0.4500000E+00  0.3214286E+00  0.1111111E+00  0.6349206E-02
      1         -9.409942   1.000000
      2         -3.572441   0.166948
      3         -3.572406   0.166706
      4         -3.572394   0.166617
      5         -0.109284   0.000000
      6          0.188051   0.000000
      7          0.343031   0.000000
      8          0.427810   0.000000
 
  0.5000000E-01  0.3928571E+00  0.1111111E+00  0.6349206E-02
      1         -9.409943   1.000000
      2         -3.572493   0.167316
      3         -3.572395   0.166628
      4         -3.572382   0.166535
      5         -0.139513   0.000000
      6          0.180236   0.000000
      7          0.363719   0.000000
      8          0.529417   0.000000
 
  0.1500000E+00  0.3928571E+00  0.1111111E+00  0.6349206E-02
      1         -9.409943   1.000000
      2         -3.572489   0.167292
      3         -3.572396   0.166634
      4         -3.572385   0.166552
      5         -0.130191   0.000000
      6          0.191263   0.000000
      7          0.371055   0.000000
      8          0.452450   0.000000
 
  0.2500000E+00  0.3928571E+00  0.1111111E+00  0.6349206E-02
      1         -9.409944   1.000000
      2         -3.572492   0.167315
      3         -3.572400   0.166658
      4         -3.572395   0.166628
      5         -0.113216   0.000000
      6          0.212006   0.000000
      7          0.345182   0.000000
      8          0.412787   0.000000
 
  0.3500000E+00  0.3928571E+00  0.1111111E+00  0.6349206E-02
      1         -9.409943   1.000000
      2         -3.572489   0.167291
      3         -3.572398   0.166650
      4         -3.572392   0.166607
      5         -0.092910   0.000000
      6          0.236078   0.000000
      7          0.286104   0.000000
      8          0.437349   0.000000
 
  0.4500000E+00  0.3928571E+00  0.1111111E+00  0.6349206E-02
      1         -9.409943   1.000000
      2         -3.572489   0.167293
      3         -3.572401   0.166669
      4         -3.572389   0.166583
      5         -0.077796   0.000000
      6          0.231265   0.000000
      7          0.277430   0.000000
      8          0.451705   0.000000
 
  0.5000000E-01  0.4642857E+00  0.1111111E+00  0.6349206E-02
      1         -9.409943   1.000000
      2         -3.572514   0.167471
      3         -3.572396   0.166631
      4         -3.572381   0.166529
      5         -0.114488   0.000000
      6          0.138010   0.000000
      7          0.404552   0.000000
      8          0.524184   0.000000
 
  0.1500000E+00  0.4642857E+00  0.1111111E+00  0.6349206E-02
      1         -9.409943   1.000000
      2         -3.572511   0.167445
      3         -3.572395   0.166629
      4         -3.572383   0.166542
      5         -0.105436   0.000000
      6          0.149677   0.000000
      7          0.411401   0.000000
      8          0.488702   0.000000
 
  0.2500000E+00  0.4642857E+00  0.1111111E+00  0.6349206E-02
      1         -9.409943   1.000000
      2         -3.572514   0.167466
      3         -3.572399   0.166651
      4         -3.572393   0.166610
      5         -0.089054   0.000000
      6          0.172310   0.000000
      7          0.381999   0.000000
      8          0.451446   0.000000
 
  0.3500000E+00  0.4642857E+00  0.1111111E+00  0.6349206E-02
      1         -9.409943   1.000000
      2         -3.572517   0.167492
      3         -3.572397   0.166638
      4         -3.572389   0.166584
      5         -0.069683   0.000000
      6          0.203463   0.000000
      7          0.318102   0.000000
      8          0.442368   0.000000
 
  0.4500000E+00  0.4642857E+00  0.1111111E+00  0.6349206E-02
      1         -9.409943   1.000000
      2         -3.572518   0.167494
      3         -3.572403   0.166682
      4         -3.572389   0.166584
      5         -0.055482   0.000000
      6          0.233863   0.000000
      7          0.278298   0.000000
      8          0.389916   0.000000
 
  0.5000000E-01  0.3571429E-01  0.2222222E+00  0.6349206E-02
      1         -9.409944   1.000000
      2         -3.572411   0.166738
      3         -3.572400   0.166663
      4         -3.572294   0.165915
      5         -0.250133   0.000000
      6          0.147150   0.000000
      7          0.433358   0.000000
      8          0.516030   0.000000
 
  0.1500000E+00  0.3571429E-01  0.2222222E+00  0.6349206E-02
      1         -9.409943   1.000000
      2         -3.572409   0.166725
      3         -3.572398   0.166645
      4         -3.572290   0.165886
      5         -0.240475   0.000000
      6          0.157641   0.000000
      7          0.330438   0.000000
      8          0.540797   0.000000
 
  0.2500000E+00  0.3571429E-01  0.2222222E+00  0.6349206E-02
      1         -9.409944   1.000000
      2         -3.572410   0.166733
      3         -3.572405   0.166694
      4         -3.572290   0.165886
      5         -0.222760   0.000000
      6          0.171818   0.000000
      7          0.247369   0.000000
      8          0.528839   0.000000
 
  0.3500000E+00  0.3571429E-01  0.2222222E+00  0.6349206E-02
      1         -9.409944   1.000000
      2         -3.572423   0.166824
      3         -3.572410   0.166729
      4         -3.572292   0.165902
      5         -0.201276   0.000000
      6          0.145976   0.000000
      7          0.234626   0.000000
      8          0.451967   0.000000
 
  0.4500000E+00  0.3571429E-01  0.2222222E+00  0.6349206E-02
      1         -9.409945   1.000000
      2         -3.572427   0.166854
      3         -3.572412   0.166746
      4         -3.572299   0.165948
      5         -0.184982   0.000000
      6          0.109691   0.000000
      7          0.263715   0.000000
      8          0.392346   0.000000
 
  0.5000000E-01  0.1071429E+00  0.2222222E+00  0.6349206E-02
      1         -9.409943   1.000000
      2         -3.572404   0.166691
      3         -3.572394   0.166617
      4         -3.572308   0.166009
      5         -0.241046   0.000000
      6          0.156430   0.000000
      7          0.440949   0.000000
      8          0.519884   0.000000
 
  0.1500000E+00  0.1071429E+00  0.2222222E+00  0.6349206E-02
      1         -9.409943   1.000000
      2         -3.572408   0.166715
      3         -3.572395   0.166624
      4         -3.572308   0.166014
      5         -0.231403   0.000000
      6          0.166910   0.000000
      7          0.339205   0.000000
      8          0.543800   0.000000
 
  0.2500000E+00  0.1071429E+00  0.2222222E+00  0.6349206E-02
      1         -9.409944   1.000000
      2         -3.572412   0.166748
      3         -3.572404   0.166687
      4         -3.572317   0.166073
      5         -0.213718   0.000000
      6          0.181051   0.000000
      7          0.256502   0.000000
      8          0.537217   0.000000
 
  0.3500000E+00  0.1071429E+00  0.2222222E+00  0.6349206E-02
      1         -9.409945   1.000000
      2         -3.572421   0.166808
      3         -3.572409   0.166728
      4         -3.572320   0.166094
      5         -0.192282   0.000000
      6          0.155253   0.000000
      7          0.243846   0.000000
      8          0.461279   0.000000
 
  0.4500000E+00  0.1071429E+00  0.2222222E+00  0.6349206E-02
      1         -9.409945   1.000000
      2         -3.572425   0.166839
      3         -3.572409   0.166728
      4         -3.572319   0.166090
      5         -0.176035   0.000000
      6          0.119064   0.000000
      7          0.272842   0.000000
      8          0.401821   0.000000
 
  0.5000000E-01  0.1785714E+00  0.2222222E+00  0.6349206E-02
      1         -9.409943   1.000000
      2         -3.572404   0.166692
      3         -3.572391   0.166595
      4         -3.572352   0.166320
      5         -0.223203   0.000000
      6          0.174747   0.000000
      7          0.440118   0.000000
      8          0.482366   0.000000
 
  0.1500000E+00  0.1785714E+00  0.2222222E+00  0.6349206E-02
      1         -9.409943   1.000000
      2         -3.572403   0.166685
      3         -3.572393   0.166613
      4         -3.572354   0.166334
      5         -0.213594   0.000000
      6          0.185190   0.000000
      7          0.355751   0.000000
      8          0.476605   0.000000
 
  0.2500000E+00  0.1785714E+00  0.2222222E+00  0.6349206E-02
      1         -9.409944   1.000000
      2         -3.572407   0.166713
      3         -3.572404   0.166690
      4         -3.572354   0.166335
      5         -0.195985   0.000000
      6          0.199224   0.000000
      7          0.274621   0.000000
      8          0.495895   0.000000
 