<?xml version="1.0" encoding="ISO-8859-1"?>
<modeling>
 <generator>
  <i name="program" type="string">vasp </i>
  <i name="version" type="string">6.4.3  </i>
  <i name="subversion" type="string">19Mar24 (build May 31 2024 16:31:43) complex                          parallel </i>
  <i name="platform" type="string">LinuxIFC </i>
  <i name="date" type="string">2024 11 01 </i>
  <i name="time" type="string">16:32:24 </i>
 </generator>
 <incar>
  <i type="string" name="SYSTEM">Convergence</i>
  <i type="int" name="ISTART">     0</i>
  <i type="string" name="PREC">Accurate</i>
  <i type="string" name="ALGO">Normal</i>
  <i type="int" name="ISPIN">     1</i>
  <i type="int" name="ICHARG">     2</i>
  <i type="int" name="NELM">   100</i>
  <i type="int" name="IBRION">    -1</i>
  <i name="EDIFF">      0.00000100</i>
  <i name="EDIFFG">     -0.00100000</i>
  <i type="int" name="NSW">     0</i>
  <i type="int" name="ISIF">     2</i>
  <i name="ENCUT">    360.00000000</i>
  <i name="POTIM">      0.50000000</i>
  <i type="int" name="ISMEAR">     0</i>
  <i name="SIGMA">      0.05000000</i>
  <i type="logical" name="LWAVE"> F  </i>
  <i type="logical" name="LCHARG"> F  </i>
  <i type="string" name="GGA">PE</i>
 </incar>
 <primitive_cell>
  <structure name="primitive_cell" >
   <crystal>
    <varray name="basis" >
     <v>      15.00000000       0.00000000       0.00000000 </v>
     <v>       0.00000000      12.50000000       0.00000000 </v>
     <v>       0.00000000       0.00000000      18.00000000 </v>
    </varray>
    <i name="volume">   3375.00000000 </i>
    <varray name="rec_basis" >
     <v>       0.06666667       0.00000000       0.00000000 </v>
     <v>       0.00000000       0.08000000       0.00000000 </v>
     <v>       0.00000000       0.00000000       0.05555556 </v>
    </varray>
   </crystal>
   <varray name="positions" >
    <v>       0.52123000       0.54500000       0.63796000 </v>
   </varray>
  </structure>
  <varray name="primitive_index" >
   <v type="int" >        1 </v>
  </varray>
 </primitive_cell>
 <kpoints>
  <generation param="Monkhorst-Pack">
   <v type="int" name="divisions">      10       14        9 </v>
   <v name="usershift">      0.00000000       0.00000000       0.00000000 </v>
   <v name="genvec1">      0.10000000       0.00000000       0.00000000 </v>
   <v name="genvec2">      0.00000000       0.07142857       0.00000000 </v>
   <v name="genvec3">      0.00000000       0.00000000       0.11111111 </v>
   <v name="shift">      0.50000000       0.50000000       0.00000000 </v>
  </generation>
  <varray name="kpointlist" >
   <v>       0.05000000       0.03571429       0.00000000 </v>
   <v>       0.15000000       0.03571429       0.00000000 </v>
   <v>       0.25000000       0.03571429       0.00000000 </v>
   <v>       0.35000000       0.03571429       0.00000000 </v>
   <v>       0.45000000       0.03571429       0.00000000 </v>
   <v>       0.05000000       0.10714286       0.00000000 </v>
   <v>       0.15000000       0.10714286       0.00000000 </v>
   <v>       0.25000000       0.10714286       0.00000000 </v>
   <v>       0.35000000       0.10714286       0.00000000 </v>
   <v>       0.45000000       0.10714286       0.00000000 </v>
   <v>       0.05000000       0.17857143       0.00000000 </v>
   <v>       0.15000000       0.17857143       0.00000000 </v>
   <v>       0.25000000       0.17857143       0.00000000 </v>
   <v>       0.35000000       0.17857143       0.00000000 </v>
   <v>       0.45000000       0.17857143       0.00000000 </v>
   <v>       0.05000000       0.25000000       0.00000000 </v>
   <v>       0.15000000       0.25000000       0.00000000 </v>
   <v>       0.25000000       0.25000000       0.00000000 </v>
   <v>       0.35000000       0.25000000       0.00000000 </v>
   <v>       0.45000000       0.25000000       0.00000000 </v>
   <v>       0.05000000       0.32142857       0.00000000 </v>
   <v>       0.15000000       0.32142857       0.00000000 </v>
   <v>       0.25000000       0.32142857       0.00000000 </v>
   <v>       0.35000000       0.32142857       0.00000000 </v>
   <v>       0.45000000       0.32142857       0.00000000 </v>
   <v>       0.05000000       0.39285714       0.00000000 </v>
   <v>       0.15000000       0.39285714       0.00000000 </v>
   <v>       0.25000000       0.39285714       0.00000000 </v>
   <v>       0.35000000       0.39285714       0.00000000 </v>
   <v>       0.45000000       0.39285714       0.00000000 </v>
   <v>       0.05000000       0.46428571       0.00000000 </v>
   <v>       0.15000000       0.46428571       0.00000000 </v>
   <v>       0.25000000       0.46428571       0.00000000 </v>
   <v>       0.35000000       0.46428571       0.00000000 </v>
   <v>       0.45000000       0.46428571       0.00000000 </v>
   <v>       0.05000000       0.03571429       0.11111111 </v>
   <v>       0.15000000       0.03571429       0.11111111 </v>
   <v>       0.25000000       0.03571429       0.11111111 </v>
   <v>       0.35000000       0.03571429       0.11111111 </v>
   <v>       0.45000000       0.03571429       0.11111111 </v>
   <v>       0.05000000       0.10714286       0.11111111 </v>
   <v>       0.15000000       0.10714286       0.11111111 </v>
   <v>       0.25000000       0.10714286       0.11111111 </v>
   <v>       0.35000000       0.10714286       0.11111111 </v>
   <v>       0.45000000       0.10714286       0.11111111 </v>
   <v>       0.05000000       0.17857143       0.11111111 </v>
   <v>       0.15000000       0.17857143       0.11111111 </v>
   <v>       0.25000000       0.17857143       0.11111111 </v>
   <v>       0.35000000       0.17857143       0.11111111 </v>
   <v>       0.45000000       0.17857143       0.11111111 </v>
   <v>       0.05000000       0.25000000       0.11111111 </v>
   <v>       0.15000000       0.25000000       0.11111111 </v>
   <v>       0.25000000       0.25000000       0.11111111 </v>
   <v>       0.35000000       0.25000000       0.11111111 </v>
   <v>       0.45000000       0.25000000       0.11111111 </v>
   <v>       0.05000000       0.32142857       0.11111111 </v>
   <v>       0.15000000       0.32142857       0.11111111 </v>
   <v>       0.25000000       0.32142857       0.11111111 </v>
   <v>       0.35000000       0.32142857       0.11111111 </v>
   <v>       0.45000000       0.32142857       0.11111111 </v>
   <v>       0.05000000       0.39285714       0.11111111 </v>
   <v>       0.15000000       0.39285714       0.11111111 </v>
   <v>       0.25000000       0.39285714       0.11111111 </v>
   <v>       0.35000000       0.39285714       0.11111111 </v>
   <v>       0.45000000       0.39285714       0.11111111 </v>
   <v>       0.05000000       0.46428571       0.11111111 </v>
   <v>       0.15000000       0.46428571       0.11111111 </v>
   <v>       0.25000000       0.46428571       0.11111111 </v>
   <v>       0.35000000       0.46428571       0.11111111 </v>
   <v>       0.45000000       0.46428571       0.11111111 </v>
   <v>       0.05000000       0.03571429       0.22222222 </v>
   <v>       0.15000000       0.03571429       0.22222222 </v>
   <v>       0.25000000       0.03571429       0.22222222 </v>
   <v>       0.35000000       0.03571429       0.22222222 </v>
   <v>       0.45000000       0.03571429       0.22222222 </v>
   <v>       0.05000000       0.10714286       0.22222222 </v>
   <v>       0.15000000       0.10714286       0.22222222 </v>
   <v>       0.25000000       0.10714286       0.22222222 </v>
   <v>       0.35000000       0.10714286       0.22222222 </v>
   <v>       0.45000000       0.10714286       0.22222222 </v>
   <v>       0.05000000       0.17857143       0.22222222 </v>
   <v>       0.15000000       0.17857143       0.22222222 </v>
   <v>       0.25000000       0.17857143       0.22222222 </v>
   <v>       0.35000000       0.17857143       0.22222222 </v>
   <v>       0.45000000       0.17857143       0.22222222 </v>
   <v>       0.05000000       0.25000000       0.22222222 </v>
   <v>       0.15000000       0.25000000       0.22222222 </v>
   <v>       0.25000000       0.25000000       0.22222222 </v>
   <v>       0.35000000       0.25000000       0.22222222 </v>
   <v>       0.45000000       0.25000000       0.22222222 </v>
   <v>       0.05000000       0.32142857       0.22222222 </v>
   <v>       0.15000000       0.32142857       0.22222222 </v>
   <v>       0.25000000       0.32142857       0.22222222 </v>
   <v>       0.35000000       0.32142857       0.22222222 </v>
   <v>       0.45000000       0.32142857       0.22222222 </v>
   <v>       0.05000000       0.39285714       0.22222222 </v>
   <v>       0.15000000       0.39285714       0.22222222 </v>
   <v>       0.25000000       0.39285714       0.22222222 </v>
   <v>       0.35000000       0.39285714       0.22222222 </v>
   <v>       0.45000000       0.39285714       0.22222222 </v>
   <v>       0.05000000       0.46428571       0.22222222 </v>
   <v>       0.15000000       0.46428571       0.22222222 </v>
   <v>       0.25000000       0.46428571       0.22222222 </v>
   <v>       0.35000000       0.46428571       0.22222222 </v>
   <v>       0.45000000       0.46428571       0.22222222 </v>
   <v>       0.05000000       0.03571429       0.33333333 </v>
   <v>       0.15000000       0.03571429       0.33333333 </v>
   <v>       0.25000000       0.03571429       0.33333333 </v>
   <v>       0.35000000       0.03571429       0.33333333 </v>
   <v>       0.45000000       0.03571429       0.33333333 </v>
   <v>       0.05000000       0.10714286       0.33333333 </v>
   <v>       0.15000000       0.10714286       0.33333333 </v>
   <v>       0.25000000       0.10714286       0.33333333 </v>
   <v>       0.35000000       0.10714286       0.33333333 </v>
   <v>       0.45000000       0.10714286       0.33333333 </v>
   <v>       0.05000000       0.17857143       0.33333333 </v>
   <v>       0.15000000       0.17857143       0.33333333 </v>
   <v>       0.25000000       0.17857143       0.33333333 </v>
   <v>       0.35000000       0.17857143       0.33333333 </v>
   <v>       0.45000000       0.17857143       0.33333333 </v>
   <v>       0.05000000       0.25000000       0.33333333 </v>
   <v>       0.15000000       0.25000000       0.33333333 </v>
   <v>       0.25000000       0.25000000       0.33333333 </v>
   <v>       0.35000000       0.25000000       0.33333333 </v>
   <v>       0.45000000       0.25000000       0.33333333 </v>
   <v>       0.05000000       0.32142857       0.33333333 </v>
   <v>       0.15000000       0.32142857       0.33333333 </v>
   <v>       0.25000000       0.32142857       0.33333333 </v>
   <v>       0.35000000       0.32142857       0.33333333 </v>
   <v>       0.45000000       0.32142857       0.33333333 </v>
   <v>       0.05000000       0.39285714       0.33333333 </v>
   <v>       0.15000000       0.39285714       0.33333333 </v>
   <v>       0.25000000       0.39285714       0.33333333 </v>
   <v>       0.35000000       0.39285714       0.33333333 </v>
   <v>       0.45000000       0.39285714       0.33333333 </v>
   <v>       0.05000000       0.46428571       0.33333333 </v>
   <v>       0.15000000       0.46428571       0.33333333 </v>
   <v>       0.25000000       0.46428571       0.33333333 </v>
   <v>       0.35000000       0.46428571       0.33333333 </v>
   <v>       0.45000000       0.46428571       0.33333333 </v>
   <v>       0.05000000       0.03571429       0.44444444 </v>
   <v>       0.15000000       0.03571429       0.44444444 </v>
   <v>       0.25000000       0.03571429       0.44444444 </v>
   <v>       0.35000000       0.03571429       0.44444444 </v>
   <v>       0.45000000       0.03571429       0.44444444 </v>
   <v>       0.05000000       0.10714286       0.44444444 </v>
   <v>       0.15000000       0.10714286       0.44444444 </v>
   <v>       0.25000000       0.10714286       0.44444444 </v>
   <v>       0.35000000       0.10714286       0.44444444 </v>
   <v>       0.45000000       0.10714286       0.44444444 </v>
   <v>       0.05000000       0.17857143       0.44444444 </v>
   <v>       0.15000000       0.17857143       0.44444444 </v>
   <v>       0.25000000       0.17857143       0.44444444 </v>
   <v>       0.35000000       0.17857143       0.44444444 </v>
   <v>       0.45000000       0.17857143       0.44444444 </v>
   <v>       0.05000000       0.25000000       0.44444444 </v>
   <v>       0.15000000       0.25000000       0.44444444 </v>
   <v>       0.25000000       0.25000000       0.44444444 </v>
   <v>       0.35000000       0.25000000       0.44444444 </v>
   <v>       0.45000000       0.25000000       0.44444444 </v>
   <v>       0.05000000       0.32142857       0.44444444 </v>
   <v>       0.15000000       0.32142857       0.44444444 </v>
   <v>       0.25000000       0.32142857       0.44444444 </v>
   <v>       0.35000000       0.32142857       0.44444444 </v>
   <v>       0.45000000       0.32142857       0.44444444 </v>
   <v>       0.05000000       0.39285714       0.44444444 </v>
   <v>       0.15000000       0.39285714       0.44444444 </v>
   <v>       0.25000000       0.39285714       0.44444444 </v>
   <v>       0.35000000       0.39285714       0.44444444 </v>
   <v>       0.45000000       0.39285714       0.44444444 </v>
   <v>       0.05000000       0.46428571       0.44444444 </v>
   <v>       0.15000000       0.46428571       0.44444444 </v>
   <v>       0.25000000       0.46428571       0.44444444 </v>
   <v>       0.35000000       0.46428571       0.44444444 </v>
   <v>       0.45000000       0.46428571       0.44444444 </v>
  </varray>
  <varray name="weights" >
   <v>       0.00317460 </v>
   <v>       0.00317460 </v>
   <v>       0.00317460 </v>
   <v>       0.00317460 </v>
   <v>       0.00317460 </v>
   <v>       0.00317460 </v>
   <v>       0.00317460 </v>
   <v>       0.00317460 </v>
   <v>       0.00317460 </v>
   <v>       0.00317460 </v>
   <v>       0.00317460 </v>
   <v>       0.00317460 </v>
   <v>       0.00317460 </v>
   <v>       0.00317460 </v>
   <v>       0.00317460 </v>
   <v>       0.00317460 </v>
   <v>       0.00317460 </v>
   <v>       0.00317460 </v>
   <v>       0.00317460 </v>
   <v>       0.00317460 </v>
   <v>       0.00317460 </v>
   <v>       0.00317460 </v>
   <v>       0.00317460 </v>
   <v>       0.00317460 </v>
   <v>       0.00317460 </v>
   <v>       0.00317460 </v>
   <v>       0.00317460 </v>
   <v>       0.00317460 </v>
   <v>       0.00317460 </v>
   <v>       0.00317460 </v>
   <v>       0.00317460 </v>
   <v>       0.00317460 </v>
   <v>       0.00317460 </v>
   <v>       0.00317460 </v>
   <v>       0.00317460 </v>
   <v>       0.00634921 </v>
   <v>       0.00634921 </v>
   <v>       0.00634921 </v>
   <v>       0.00634921 </v>
   <v>       0.00634921 </v>
   <v>       0.00634921 </v>
   <v>       0.00634921 </v>
   <v>       0.00634921 </v>
   <v>       0.00634921 </v>
   <v>       0.00634921 </v>
   <v>       0.00634921 </v>
   <v>       0.00634921 </v>
   <v>       0.00634921 </v>
   <v>       0.00634921 </v>
   <v>       0.00634921 </v>
   <v>       0.00634921 </v>
   <v>       0.00634921 </v>
   <v>       0.00634921 </v>
   <v>       0.00634921 </v>
   <v>       0.00634921 </v>
   <v>       0.00634921 </v>
   <v>       0.00634921 </v>
   <v>       0.00634921 </v>
   <v>       0.00634921 </v>
   <v>       0.00634921 </v>
   <v>       0.00634921 </v>
   <v>       0.00634921 </v>
   <v>       0.00634921 </v>
   <v>       0.00634921 </v>
   <v>       0.00634921 </v>
   <v>       0.00634921 </v>
   <v>       0.00634921 </v>
   <v>       0.00634921 </v>
   <v>       0.00634921 </v>
   <v>       0.00634921 </v>
   <v>       0.00634921 </v>
   <v>       0.00634921 </v>
   <v>       0.00634921 </v>
   <v>       0.00634921 </v>
   <v>       0.00634921 </v>
   <v>       0.00634921 </v>
   <v>       0.00634921 </v>
   <v>       0.00634921 </v>
   <v>       0.00634921 </v>
   <v>       0.00634921 </v>
   <v>       0.00634921 </v>
   <v>       0.00634921 </v>
   <v>       0.00634921 </v>
   <v>       0.00634921 </v>
   <v>       0.00634921 </v>
   <v>       0.00634921 </v>
   <v>       0.00634921 </v>
   <v>       0.00634921 </v>
   <v>       0.00634921 </v>
   <v>       0.00634921 </v>
   <v>       0.00634921 </v>
   <v>       0.00634921 </v>
   <v>       0.00634921 </v>
   <v>       0.00634921 </v>
   <v>       0.00634921 </v>
   <v>       0.00634921 </v>
   <v>       0.00634921 </v>
   <v>       0.00634921 </v>
   <v>       0.00634921 </v>
   <v>       0.00634921 </v>
   <v>       0.00634921 </v>
   <v>       0.00634921 </v>
   <v>       0.00634921 </v>
   <v>       0.00634921 </v>
   <v>       0.00634921 </v>
   <v>       0.00634921 </v>
   <v>       0.00634921 </v>
   <v>       0.00634921 </v>
   <v>       0.00634921 </v>
   <v>       0.00634921 </v>
   <v>       0.00634921 </v>
   <v>       0.00634921 </v>
   <v>       0.00634921 </v>
   <v>       0.00634921 </v>
   <v>       0.00634921 </v>
   <v>       0.00634921 </v>
   <v>       0.00634921 </v>
   <v>       0.00634921 </v>
   <v>       0.00634921 </v>
   <v>       0.00634921 </v>
   <v>       0.00634921 </v>
   <v>       0.00634921 </v>
   <v>       0.00634921 </v>
   <v>       0.00634921 </v>
   <v>       0.00634921 </v>
   <v>       0.00634921 </v>
   <v>       0.00634921 </v>
   <v>       0.00634921 </v>
   <v>       0.00634921 </v>
   <v>       0.00634921 </v>
   <v>       0.00634921 </v>
   <v>       0.00634921 </v>
   <v>       0.00634921 </v>
   <v>       0.00634921 </v>
   <v>       0.00634921 </v>
   <v>       0.00634921 </v>
   <v>       0.00634921 </v>
   <v>       0.00634921 </v>
   <v>       0.00634921 </v>
   <v>       0.00634921 </v>
   <v>       0.00634921 </v>
   <v>       0.00634921 </v>
   <v>       0.00634921 </v>
   <v>       0.00634921 </v>
   <v>       0.00634921 </v>
   <v>       0.00634921 </v>
   <v>       0.00634921 </v>
   <v>       0.00634921 </v>
   <v>       0.00634921 </v>
   <v>       0.00634921 </v>
   <v>       0.00634921 </v>
   <v>       0.00634921 </v>
   <v>       0.00634921 </v>
   <v>       0.00634921 </v>
   <v>       0.00634921 </v>
   <v>       0.00634921 </v>
   <v>       0.00634921 </v>
   <v>       0.00634921 </v>
   <v>       0.00634921 </v>
   <v>       0.00634921 </v>
   <v>       0.00634921 </v>
   <v>       0.00634921 </v>
   <v>       0.00634921 </v>
   <v>       0.00634921 </v>
   <v>       0.00634921 </v>
   <v>       0.00634921 </v>
   <v>       0.00634921 </v>
   <v>       0.00634921 </v>
   <v>       0.00634921 </v>
   <v>       0.00634921 </v>
   <v>       0.00634921 </v>
   <v>       0.00634921 </v>
   <v>       0.00634921 </v>
   <v>       0.00634921 </v>
   <v>       0.00634921 </v>
  </varray>
 </kpoints>
 <parameters>
  <separator name="general" >
   <i type="string" name="SYSTEM">Convergence</i>
   <i type="logical" name="LCOMPAT"> F  </i>
  </separator>
  <separator name="electronic" >
   <i type="string" name="PREC">accura</i>
   <i name="ENMAX">    360.00000000</i>
   <i name="ENAUG">    535.51400000</i>
   <i name="EDIFF">      0.00000100</i>
   <i type="int" name="IALGO">    38</i>
   <i type="int" name="IWAVPR">    10</i>
   <i type="int" name="NBANDS">     8</i>
   <i type="int" name="NBANDSLOW">    -1</i>
   <i type="int" name="NBANDSHIGH">    -1</i>
   <i name="NELECT">      3.00000000</i>
   <i type="int" name="TURBO">     0</i>
   <i type="int" name="IRESTART">     0</i>
   <i type="int" name="NREBOOT">     0</i>
   <i type="int" name="NMIN">     0</i>
   <i name="EREF">      0.00000000</i>
   <separator name="electronic smearing" >
    <i type="int" name="ISMEAR">     0</i>
    <i name="SIGMA">      0.05000000</i>
    <i name="KSPACING">      0.50000000</i>
    <i type="logical" name="KGAMMA"> T  </i>
    <i type="logical" name="KBLOWUP"> T  </i>
   </separator>
   <separator name="electronic projectors" >
    <i type="logical" name="LREAL"> F  </i>
    <v name="ROPT">      0.00000000</v>
    <i type="int" name="LMAXPAW">  -100</i>
    <i type="int" name="LMAXMIX">     2</i>
    <i type="logical" name="NLSPLINE"> F  </i>
   </separator>
   <separator name="electronic startup" >
    <i type="int" name="ISTART">     0</i>
    <i type="int" name="ICHARG">     2</i>
    <i type="int" name="INIWAV">     1</i>
   </separator>
   <separator name="electronic spin" >
    <i type="int" name="ISPIN">     1</i>
    <i type="logical" name="LNONCOLLINEAR"> F  </i>
    <v name="MAGMOM">      1.00000000</v>
    <i name="NUPDOWN">     -1.00000000</i>
    <i type="logical" name="LSORBIT"> F  </i>
    <v name="SAXIS">      0.00000000      0.00000000      1.00000000</v>
    <i type="logical" name="LSPIRAL"> F  </i>
    <v name="QSPIRAL">      0.00000000      0.00000000      0.00000000</v>
    <i type="logical" name="LZEROZ"> F  </i>
   </separator>
   <separator name="electronic exchange-correlation" >
    <i type="logical" name="LASPH"> F  </i>
   </separator>
   <separator name="electronic convergence" >
    <i type="int" name="NELM">   100</i>
    <i type="int" name="NELMDL">    -5</i>
    <i type="int" name="NELMIN">     2</i>
    <i name="ENINI">    360.00000000</i>
    <separator name="electronic convergence detail" >
     <i type="logical" name="LDIAG"> T  </i>
     <i type="logical" name="LSUBROT"> F  </i>
     <i name="WEIMIN">      0.00000000</i>
     <i name="EBREAK">      0.00000003</i>
     <i name="DEPER">      0.30000000</i>
     <i type="int" name="NRMM">     4</i>
     <i name="TIME">      0.40000000</i>
    </separator>
   </separator>
   <separator name="electronic mixer" >
    <i name="AMIX">      0.40000000</i>
    <i name="BMIX">      1.00000000</i>
    <i name="AMIN">      0.10000000</i>
    <i name="AMIX_MAG">      1.60000000</i>
    <i name="BMIX_MAG">      1.00000000</i>
    <separator name="electronic mixer details" >
     <i type="int" name="IMIX">     4</i>
     <i type="logical" name="MIXFIRST"> F  </i>
     <i type="int" name="MAXMIX">   -45</i>
     <i name="WC">    100.00000000</i>
     <i type="int" name="INIMIX">     1</i>
     <i type="int" name="MIXPRE">     1</i>
     <i type="int" name="MREMOVE">     5</i>
    </separator>
   </separator>
   <separator name="electronic dipolcorrection" >
    <i type="logical" name="LDIPOL"> F  </i>
    <i type="logical" name="LMONO"> F  </i>
    <i type="int" name="IDIPOL">     0</i>
    <i name="EPSILON">      1.00000000</i>
    <v name="DIPOL">   -100.00000000   -100.00000000   -100.00000000</v>
    <i name="EFIELD">      0.00000000</i>
    <i type="logical" name="LVACPOTAV"> F  </i>
   </separator>
  </separator>
  <separator name="grids" >
   <i type="int" name="NGX">    96</i>
   <i type="int" name="NGY">    80</i>
   <i type="int" name="NGZ">   112</i>
   <i type="int" name="NGXF">   192</i>
   <i type="int" name="NGYF">   160</i>
   <i type="int" name="NGZF">   224</i>
   <i type="logical" name="ADDGRID"> F  </i>
  </separator>
  <separator name="ionic" >
   <i type="int" name="NSW">     0</i>
   <i type="int" name="IBRION">    -1</i>
   <i type="int" name="MDALGO">     0</i>
   <i type="int" name="ISIF">     2</i>
   <i name="PSTRESS">      0.00000000</i>
   <i name="EDIFFG">     -0.00100000</i>
   <i type="int" name="NFREE">     0</i>
   <i name="POTIM">      0.50000000</i>
   <i name="SMASS">     -3.00000000</i>
   <i name="SCALEE">      1.00000000</i>
  </separator>
  <separator name="ionic md" >
   <i name="TEBEG">      0.00010000</i>
   <i name="TEEND">      0.00010000</i>
   <i type="int" name="NBLOCK">     1</i>
   <i type="int" name="KBLOCK">     1</i>
   <i type="int" name="NPACO">   256</i>
   <i name="APACO">     10.00000000</i>
  </separator>
  <separator name="symmetry" >
   <i type="int" name="ISYM">     2</i>
   <i name="SYMPREC">      0.00001000</i>
  </separator>
  <separator name="dos" >
   <i type="int" name="LORBIT">     0</i>
   <v name="RWIGS">     -1.00000000</v>
   <i type="int" name="NEDOS">   301</i>
   <i name="EMIN">     10.00000000</i>
   <i name="EMAX">    -10.00000000</i>
   <i name="EFERMI">      0.00000000</i>
  </separator>
  <separator name="writing" >
   <i type="int" name="NWRITE">     2</i>
   <i type="logical" name="LWAVE"> F  </i>
   <i type="logical" name="LDOWNSAMPLE"> F  </i>
   <i type="logical" name="LCHARG"> F  </i>
   <i type="logical" name="LPARD"> F  </i>
   <i type="logical" name="LVTOT"> F  </i>
   <i type="logical" name="LVHAR"> F  </i>
   <i type="logical" name="LELF"> F  </i>
   <i type="logical" name="LOPTICS"> F  </i>
   <v name="STM">      0.00000000      0.00000000      0.00000000      0.00000000      0.00000000      0.00000000      0.00000000</v>
  </separator>
  <separator name="performance" >
   <i type="int" name="NPAR">     8</i>
   <i type="int" name="NSIM">     4</i>
   <i type="int" name="NBLK">    -1</i>
   <i type="logical" name="LPLANE"> T  </i>
   <i type="logical" name="LSCALAPACK"> T  </i>
   <i type="logical" name="LSCAAWARE"> F  </i>
   <i type="logical" name="LSCALU"> F  </i>
   <i type="logical" name="LASYNC"> F  </i>
   <i type="logical" name="LORBITALREAL"> F  </i>
  </separator>
  <separator name="miscellaneous" >
   <i type="int" name="IDIOT">     3</i>
   <i type="int" name="PHON_NSTRUCT">    -1</i>
   <i type="logical" name="LMUSIC"> F  </i>
   <v name="POMASS">     10.81100000</v>
   <v name="DARWINR">      0.00000000</v>
   <v name="DARWINV">      1.00000000</v>
   <i type="logical" name="LCORR"> T  </i>
  </separator>
  <i type="logical" name="GGA_COMPAT"> T  </i>
  <i type="logical" name="LBERRY"> F  </i>
  <i type="int" name="ICORELEVEL">     0</i>
  <i type="logical" name="LDAU"> F  </i>
  <i type="int" name="I_CONSTRAINED_M">     0</i>
  <separator name="electronic exchange-correlation" >
   <i type="string" name="GGA    ">PE</i>
   <i type="string" name="XC_C">1</i>
   <i type="int" name="VOSKOWN">     0</i>
   <i type="logical" name="LHFCALC"> F  </i>
   <i type="string" name="PRECFOCK"></i>
   <i type="logical" name="LSYMGRAD"> F  </i>
   <i type="logical" name="LHFONE"> F  </i>
   <i type="logical" name="LRHFCALC"> F  </i>
   <i type="logical" name="LTHOMAS"> F  </i>
   <i type="logical" name="LMODELHF"> F  </i>
   <i type="logical" name="LFOCKACE"> F  </i>
   <i name="ENCUT4O">     -1.00000000</i>
   <i type="int" name="EXXOEP">     0</i>
   <i type="int" name="FOURORBIT">     0</i>
   <i name="AEXX">      0.00000000</i>
   <i name="HFALPHA">      0.00000000</i>
   <i name="MCALPHA">      0.00000000</i>
   <i name="ALDAX">      1.00000000</i>
   <i name="AGGAX">      1.00000000</i>
   <i name="AMGGAX">      1.00000000</i>
   <i name="ALDAC">      1.00000000</i>
   <i name="AGGAC">      1.00000000</i>
   <i name="AMGGAC">      1.00000000</i>
   <i type="int" name="NKREDX">     1</i>
   <i type="int" name="NKREDY">     1</i>
   <i type="int" name="NKREDZ">     1</i>
   <i type="logical" name="SHIFTRED"> F  </i>
   <i type="logical" name="ODDONLY"> F  </i>
   <i type="logical" name="EVENONLY"> F  </i>
   <i type="int" name="LMAXFOCK">     0</i>
   <i type="int" name="NMAXFOCKAE">     0</i>
   <i type="logical" name="LFOCKAEDFT"> F  </i>
   <i name="HFSCREEN">      0.00000000</i>
   <i name="HFSCREENC">      0.00000000</i>
   <i type="int" name="NBANDSGWLOW">     0</i>
  </separator>
  <separator name="vdW DFT" >
   <i type="logical" name="LUSE_VDW"> F  </i>
   <i type="int" name="IVDW_NL">    -1</i>
   <i type="logical" name="LSPIN_VDW"> F  </i>
   <i name="ZAB_VDW">     -0.84910000</i>
   <i name="GAMMA_VDW">      1.39626340</i>
   <i name="ALPHA_VDW">      0.00000000</i>
   <i name="PARAM1">      0.12340000</i>
   <i name="PARAM2">      1.00000000</i>
   <i name="BPARAM">      6.30000000</i>
   <i name="CPARAM">      0.00930000</i>
  </separator>
  <separator name="model GW" >
   <i type="int" name="MODEL_GW">     0</i>
   <i name="MODEL_EPS0">   2025.00000000</i>
   <i name="MODEL_ALPHA">      1.00000000</i>
  </separator>
  <separator name="linear response parameters" >
   <i type="logical" name="LEPSILON"> F  </i>
   <i type="logical" name="LRPA"> F  </i>
   <i type="logical" name="LNABLA"> F  </i>
   <i type="logical" name="LVEL"> F  </i>
   <i name="CSHIFT">      0.10000000</i>
   <i name="OMEGAMAX">     -1.00000000</i>
   <i name="DEG_THRESHOLD">      0.00200000</i>
   <i name="RTIME">     -0.10000000</i>
   <i name="WPLASMAI">      0.00000000</i>
   <v name="DFIELD">      0.00000000      0.00000000      0.00000000</v>
   <v name="WPLASMA">      0.00000000      0.00000000      0.00000000      0.00000000      0.00000000      0.00000000      0.00000000      0.00000000      0.00000000</v>
  </separator>
  <separator name="orbital magnetization" >
   <i type="logical" name="NUCIND"> F  </i>
   <v name="MAGPOS">      0.00000000      0.00000000      0.00000000</v>
   <i type="logical" name="LNICSALL"> T  </i>
   <i type="logical" name="ORBITALMAG"> F  </i>
   <i type="logical" name="LMAGBLOCH"> F  </i>
   <i type="logical" name="LCHIMAG"> F  </i>
   <i type="logical" name="LGAUGE"> T  </i>
   <i type="int" name="MAGATOM">     0</i>
   <v name="MAGDIPOL">      0.00000000      0.00000000      0.00000000</v>
   <v name="AVECCONST">      0.00000000      0.00000000      0.00000000</v>
  </separator>
  <separator name="response functions" >
   <i type="logical" name="LALL_IN_ONE"> F  </i>
   <i type="int" name="IALL_IN_ONE">    -1</i>
   <i type="int" name="NBANDS_WAVE">    -1</i>
   <i type="logical" name="LFINITE_TEMPERATURE"> F  </i>
   <i type="logical" name="LADDER"> F  </i>
   <i type="logical" name="LRPAFORCE"> F  </i>
   <i type="logical" name="LFXC"> F  </i>
   <i type="logical" name="LHARTREE"> T  </i>
   <i type="int" name="IBSE">     0</i>
   <v type="int" name="KPOINT">    -1     0     0     0</v>
   <i type="logical" name="LTCTC"> F  </i>
   <i type="logical" name="LTCTE"> F  </i>
   <i type="logical" name="LTETE"> F  </i>
   <i type="logical" name="LTRIPLET"> F  </i>
   <i type="logical" name="LFXCEPS"> F  </i>
   <i type="logical" name="LFXHEG"> F  </i>
   <i type="int" name="NATURALO">     2</i>
   <i type="logical" name="LHOLEGF"> F  </i>
   <i type="logical" name="L2ORDER"> F  </i>
   <i type="logical" name="LDMP1"> F  </i>
   <i type="logical" name="LMP2LT"> F  </i>
   <i type="logical" name="LSMP2LT"> F  </i>
   <i type="logical" name="LGWLF"> F  </i>
   <i name="ENCUTGW">     -1.60000002</i>
   <i name="ENCUTGWSOFT">     -1.60000002</i>
   <i name="ENCUTLF">     -1.00000000</i>
   <i type="logical" name="ESF_SPLINES"> F  </i>
   <i name="ESF_CONV">      0.01000000</i>
   <i type="int" name="ESF_NINTER">    15</i>
   <i type="int" name="LMAXMP2">    -1</i>
   <i name="SCISSOR">      0.00000000</i>
   <i type="int" name="NOMEGA">     0</i>
   <i type="int" name="NOMEGAR">     0</i>
   <i type="int" name="NBANDSGW">    -1</i>
   <i type="int" name="NBANDSO">    -1</i>
   <i type="int" name="NBANDSV">    -1</i>
   <i type="int" name="NELMGW">     1</i>
   <i type="int" name="NELMHF">     1</i>
   <i type="int" name="DIM">     3</i>
   <i type="int" name="IESPILON">     4</i>
   <i type="int" name="ANTIRES">     0</i>
   <i name="OMEGAMAX">    -30.00000000</i>
   <i name="OMEGAMIN">    -30.00000000</i>
   <i name="OMEGATL">   -200.00000000</i>
   <i type="int" name="OMEGAGRID">     0</i>
   <i name="CSHIFT">     -0.10000000</i>
   <i type="logical" name="LSELFENERGY"> F  </i>
   <i type="logical" name="LSPECTRAL"> F  </i>
   <i type="logical" name="LSPECTRALGW"> F  </i>
   <i type="logical" name="LSINGLES"> F  </i>
   <i type="logical" name="LFERMIGW"> F  </i>
   <i type="logical" name="ODDONLYGW"> F  </i>
   <i type="logical" name="EVENONLYGW"> F  </i>
   <i type="int" name="NKREDLFX">     1</i>
   <i type="int" name="NKREDLFY">     1</i>
   <i type="int" name="NKREDLFZ">     1</i>
   <i type="int" name="MAXMEM">  2800</i>
   <i type="int" name="TELESCOPE">     0</i>
   <i type="int" name="NTAUPAR">    -1</i>
   <i type="int" name="NOMEGAPAR">    -1</i>
   <i name="DAMP_NEWTON">      0.80000001</i>
   <i name="LAMBDA">      1.00000000</i>
  </separator>
  <separator name="External order field" >
   <i name="OFIELD_KAPPA">      0.00000000</i>
   <v name="OFIELD_K">      0.00000000      0.00000000      0.00000000</v>
   <i name="OFIELD_Q6_NEAR">      0.00000000</i>
   <i name="OFIELD_Q6_FAR">      0.00000000</i>
   <i name="OFIELD_A">      0.00000000</i>
  </separator>
  <separator name="optional k-points parameters" >
   <i type="int" name="KPOINTS_OPT_MODE">     1</i>
   <i type="logical" name="LKPOINTS_OPT"> F  </i>
  </separator>
 </parameters>
 <atominfo>
  <atoms>       1 </atoms>
  <types>       1 </types>
  <array name="atoms" >
   <dimension dim="1">ion</dimension>
   <field type="string">element</field>
   <field type="int">atomtype</field>
   <set>
    <rc><c>B </c><c>   1</c></rc>
   </set>
  </array>
  <array name="atomtypes" >
   <dimension dim="1">type</dimension>
   <field type="int">atomspertype</field>
   <field type="string">element</field>
   <field>mass</field>
   <field>valence</field>
   <field type="string">pseudopotential</field>
   <set>
    <rc><c>   1</c><c>B </c><c>     10.81100000</c><c>      3.00000000</c><c>  PAW_PBE B 06Sep2000                   </c></rc>
   </set>
  </array>
 </atominfo>
 <structure name="initialpos" >
  <crystal>
   <varray name="basis" >
    <v>      15.00000000       0.00000000       0.00000000 </v>
    <v>       0.00000000      12.50000000       0.00000000 </v>
    <v>       0.00000000       0.00000000      18.00000000 </v>
   </varray>
   <i name="volume">   3375.00000000 </i>
   <varray name="rec_basis" >
    <v>       0.06666667       0.00000000       0.00000000 </v>
    <v>       0.00000000       0.08000000       0.00000000 </v>
    <v>       0.00000000       0.00000000       0.05555556 </v>
   </varray>
  </crystal>
  <varray name="positions" >
   <v>       0.52123000       0.54500000       0.63796000 </v>
  </varray>
 </structure>
 <calculation>
  <scstep>
   <time name="dav">   18.23   18.33</time>
   <time name="total">   18.63   18.73</time>
   <energy>
    <i name="alphaZ">      0.02038373 </i>
    <i name="ewald">    -11.82901664 </i>
    <i name="hartreedc">    -42.58396533 </i>
    <i name="XCdc">      4.75549668 </i>
    <i name="pawpsdc">     43.49986551 </i>
    <i name="pawaedc">    -42.64454556 </i>
    <i name="eentropy">     -0.00920367 </i>
    <i name="bandstr">    -15.85119017 </i>
    <i name="atom">     71.16717558 </i>
    <i name="e_fr_energy">      6.52500013 </i>
    <i name="e_wo_entrp">      6.53420380 </i>
    <i name="e_0_energy">      6.52960197 </i>
   </energy>
  </scstep>
  <scstep>
   <time name="dav">   23.73   23.85</time>
   <time name="total">   23.73   23.85</time>
   <energy>
    <i name="e_fr_energy">      0.35597366 </i>
    <i name="e_wo_entrp">      0.36307636 </i>
    <i name="e_0_energy">      0.35952501 </i>
   </energy>
  </scstep>
  <scstep>
   <time name="dav">   17.29   17.40</time>
   <time name="total">   17.29   17.40</time>
   <energy>
    <i name="e_fr_energy">     -0.03785356 </i>
    <i name="e_wo_entrp">      0.00761172 </i>
    <i name="e_0_energy">     -0.01512092 </i>
   </energy>
  </scstep>
  <scstep>
   <time name="dav">   15.29   15.43</time>
   <time name="total">   15.30   15.43</time>
   <energy>
    <i name="e_fr_energy">     -0.05723969 </i>
    <i name="e_wo_entrp">     -0.00426092 </i>
    <i name="e_0_energy">     -0.03075031 </i>
   </energy>
  </scstep>
  <scstep>
   <time name="dav">   18.12   18.24</time>
   <time name="total">   19.93   20.05</time>
   <energy>
    <i name="e_fr_energy">     -0.05808072 </i>
    <i name="e_wo_entrp">     -0.00507945 </i>
    <i name="e_0_energy">     -0.03158009 </i>
   </energy>
  </scstep>
  <scstep>
   <time name="dav">   19.10   19.20</time>
   <time name="total">   21.31   21.41</time>
   <energy>
    <i name="e_fr_energy">     -0.05811357 </i>
    <i name="e_wo_entrp">     -0.00511223 </i>
    <i name="e_0_energy">     -0.03161290 </i>
   </energy>
  </scstep>
  <scstep>
   <time name="dav">   17.52   17.59</time>
   <time name="total">   19.74   19.81</time>
   <energy>
    <i name="e_fr_energy">     -0.05812972 </i>
    <i name="e_wo_entrp">     -0.00512838 </i>
    <i name="e_0_energy">     -0.03162905 </i>
   </energy>
  </scstep>
  <scstep>
   <time name="dav">   19.67   19.78</time>
   <time name="total">   21.85   21.97</time>
   <energy>
    <i name="e_fr_energy">     -0.05813191 </i>
    <i name="e_wo_entrp">     -0.00513057 </i>
    <i name="e_0_energy">     -0.03163124 </i>
   </energy>
  </scstep>
  <scstep>
   <time name="dav">   19.72   19.80</time>
   <time name="total">   20.08   20.16</time>
   <energy>
    <i name="alphaZ">      0.02038373 </i>
    <i name="ewald">    -11.82901664 </i>
    <i name="hartreedc">    -42.58221673 </i>
    <i name="XCdc">      4.75580544 </i>
    <i name="pawpsdc">     44.12950167 </i>
    <i name="pawaedc">    -43.27447614 </i>
    <i name="eentropy">     -0.05300134 </i>
    <i name="bandstr">    -22.39228751 </i>
    <i name="atom">     71.16717558 </i>
    <i name="e_fr_energy">     -0.05813193 </i>
    <i name="e_wo_entrp">     -0.00513059 </i>
    <i name="e_0_energy">     -0.03163126 </i>
   </energy>
  </scstep>
  <structure>
   <crystal>
    <varray name="basis" >
     <v>      15.00000000       0.00000000       0.00000000 </v>
     <v>       0.00000000      12.50000000       0.00000000 </v>
     <v>       0.00000000       0.00000000      18.00000000 </v>
    </varray>
    <i name="volume">   3375.00000000 </i>
    <varray name="rec_basis" >
     <v>       0.06666667       0.00000000       0.00000000 </v>
     <v>       0.00000000       0.08000000       0.00000000 </v>
     <v>       0.00000000       0.00000000       0.05555556 </v>
    </varray>
   </crystal>
   <varray name="positions" >
    <v>       0.52123000       0.54500000       0.63796000 </v>
   </varray>
  </structure>
  <varray name="forces" >
   <v>       0.00000000       0.00000000       0.00000000 </v>
  </varray>
  <varray name="stress" >
   <v>      -0.00595812       0.00000000       0.00000000 </v>
   <v>       0.00000000      -0.00597217       0.00000000 </v>
   <v>       0.00000000       0.00000000      -0.00603967 </v>
  </varray>
  <energy>
   <i name="e_fr_energy">     -0.05813193 </i>
   <i name="e_wo_entrp">     -0.00513059 </i>
   <i name="e_0_energy">     -0.03163126 </i>
  </energy>
  <time name="totalsc">  201.50  202.46</time>
  <eigenvalues>
   <array>
    <dimension dim="1">band</dimension>
    <dimension dim="2">kpoint</dimension>
    <dimension dim="3">spin</dimension>
    <field>eigene</field>
    <field>occ</field>
    <set>
     <set comment="spin 1">
      <set comment="kpoint 1">
       <r>   -9.4099    1.0000 </r>
       <r>   -3.5724    0.1667 </r>
       <r>   -3.5724    0.1666 </r>
       <r>   -3.5723    0.1659 </r>
       <r>   -0.2614    0.0000 </r>
       <r>    0.2947    0.0000 </r>
       <r>    0.3105    0.0000 </r>
       <r>    0.4403    0.0000 </r>
      </set>
      <set comment="kpoint 2">
       <r>   -9.4099    1.0000 </r>
       <r>   -3.5724    0.1667 </r>
       <r>   -3.5724    0.1666 </r>
       <r>   -3.5723    0.1659 </r>
       <r>   -0.2515    0.0000 </r>
       <r>    0.2688    0.0000 </r>
       <r>    0.3217    0.0000 </r>
       <r>    0.3757    0.0000 </r>
      </set>
      <set comment="kpoint 3">
       <r>   -9.4099    1.0000 </r>
       <r>   -3.5724    0.1667 </r>
       <r>   -3.5724    0.1666 </r>
       <r>   -3.5723    0.1659 </r>
       <r>   -0.2334    0.0000 </r>
       <r>    0.1992    0.0000 </r>
       <r>    0.3433    0.0000 </r>
       <r>    0.3777    0.0000 </r>
      </set>
      <set comment="kpoint 4">
       <r>   -9.4099    1.0000 </r>
       <r>   -3.5724    0.1668 </r>
       <r>   -3.5724    0.1667 </r>
       <r>   -3.5723    0.1659 </r>
       <r>   -0.2112    0.0000 </r>
       <r>    0.1316    0.0000 </r>
       <r>    0.3725    0.0000 </r>
       <r>    0.4091    0.0000 </r>
      </set>
      <set comment="kpoint 5">
       <r>   -9.4099    1.0000 </r>
       <r>   -3.5724    0.1668 </r>
       <r>   -3.5724    0.1667 </r>
       <r>   -3.5723    0.1659 </r>
       <r>   -0.1942    0.0000 </r>
       <r>    0.0905    0.0000 </r>
       <r>    0.3990    0.0000 </r>
       <r>    0.4482    0.0000 </r>
      </set>
      <set comment="kpoint 6">
       <r>   -9.4099    1.0000 </r>
       <r>   -3.5724    0.1667 </r>
       <r>   -3.5724    0.1666 </r>
       <r>   -3.5723    0.1660 </r>
       <r>   -0.2523    0.0000 </r>
       <r>    0.3027    0.0000 </r>
       <r>    0.3194    0.0000 </r>
       <r>    0.4492    0.0000 </r>
      </set>
      <set comment="kpoint 7">
       <r>   -9.4099    1.0000 </r>
       <r>   -3.5724    0.1667 </r>
       <r>   -3.5724    0.1666 </r>
       <r>   -3.5723    0.1660 </r>
       <r>   -0.2424    0.0000 </r>
       <r>    0.2773    0.0000 </r>
       <r>    0.3307    0.0000 </r>
       <r>    0.3847    0.0000 </r>
      </set>
      <set comment="kpoint 8">
       <r>   -9.4099    1.0000 </r>
       <r>   -3.5724    0.1667 </r>
       <r>   -3.5724    0.1666 </r>
       <r>   -3.5723    0.1660 </r>
       <r>   -0.2243    0.0000 </r>
       <r>    0.2083    0.0000 </r>
       <r>    0.3522    0.0000 </r>
       <r>    0.3863    0.0000 </r>
      </set>
      <set comment="kpoint 9">
       <r>   -9.4099    1.0000 </r>
       <r>   -3.5724    0.1668 </r>
       <r>   -3.5724    0.1667 </r>
       <r>   -3.5723    0.1660 </r>
       <r>   -0.2022    0.0000 </r>
       <r>    0.1409    0.0000 </r>
       <r>    0.3813    0.0000 </r>
       <r>    0.4176    0.0000 </r>
      </set>
      <set comment="kpoint 10">
       <r>   -9.4099    1.0000 </r>
       <r>   -3.5724    0.1668 </r>
       <r>   -3.5724    0.1667 </r>
       <r>   -3.5723    0.1661 </r>
       <r>   -0.1852    0.0000 </r>
       <r>    0.0999    0.0000 </r>
       <r>    0.4076    0.0000 </r>
       <r>    0.4565    0.0000 </r>
      </set>
      <set comment="kpoint 11">
       <r>   -9.4099    1.0000 </r>
       <r>   -3.5724    0.1667 </r>
       <r>   -3.5724    0.1666 </r>
       <r>   -3.5723    0.1663 </r>
       <r>   -0.2343    0.0000 </r>
       <r>    0.3155    0.0000 </r>
       <r>    0.3373    0.0000 </r>
       <r>    0.4627    0.0000 </r>
      </set>
      <set comment="kpoint 12">
       <r>   -9.4099    1.0000 </r>
       <r>   -3.5724    0.1666 </r>
       <r>   -3.5724    0.1666 </r>
       <r>   -3.5723    0.1663 </r>
       <r>   -0.2245    0.0000 </r>
       <r>    0.2923    0.0000 </r>
       <r>    0.3484    0.0000 </r>
       <r>    0.4010    0.0000 </r>
      </set>
      <set comment="kpoint 13">
       <r>   -9.4099    1.0000 </r>
       <r>   -3.5724    0.1667 </r>
       <r>   -3.5724    0.1666 </r>
       <r>   -3.5724    0.1663 </r>
       <r>   -0.2065    0.0000 </r>
       <r>    0.2259    0.0000 </r>
       <r>    0.3699    0.0000 </r>
       <r>    0.4001    0.0000 </r>
      </set>
      <set comment="kpoint 14">
       <r>   -9.4099    1.0000 </r>
       <r>   -3.5724    0.1668 </r>
       <r>   -3.5724    0.1667 </r>
       <r>   -3.5724    0.1663 </r>
       <r>   -0.1845    0.0000 </r>
       <r>    0.1593    0.0000 </r>
       <r>    0.3987    0.0000 </r>
       <r>    0.4302    0.0000 </r>
      </set>
      <set comment="kpoint 15">
       <r>   -9.4099    1.0000 </r>
       <r>   -3.5724    0.1668 </r>
       <r>   -3.5724    0.1667 </r>
       <r>   -3.5724    0.1663 </r>
       <r>   -0.1676    0.0000 </r>
       <r>    0.1187    0.0000 </r>
       <r>    0.4247    0.0000 </r>
       <r>    0.4672    0.0000 </r>
      </set>
      <set comment="kpoint 16">
       <r>   -9.4099    1.0000 </r>
       <r>   -3.5724    0.1667 </r>
       <r>   -3.5724    0.1667 </r>
       <r>   -3.5724    0.1666 </r>
       <r>   -0.2084    0.0000 </r>
       <r>    0.3072    0.0000 </r>
       <r>    0.3637    0.0000 </r>
       <r>    0.4008    0.0000 </r>
      </set>
      <set comment="kpoint 17">
       <r>   -9.4099    1.0000 </r>
       <r>   -3.5724    0.1667 </r>
       <r>   -3.5724    0.1667 </r>
       <r>   -3.5724    0.1666 </r>
       <r>   -0.1986    0.0000 </r>
       <r>    0.3002    0.0000 </r>
       <r>    0.3747    0.0000 </r>
       <r>    0.3851    0.0000 </r>
      </set>
      <set comment="kpoint 18">
       <r>   -9.4099    1.0000 </r>
       <r>   -3.5724    0.1667 </r>
       <r>   -3.5724    0.1667 </r>
       <r>   -3.5724    0.1666 </r>
       <r>   -0.1808    0.0000 </r>
       <r>    0.2499    0.0000 </r>
       <r>    0.3751    0.0000 </r>
       <r>    0.3960    0.0000 </r>
      </set>
      <set comment="kpoint 19">
       <r>   -9.4099    1.0000 </r>
       <r>   -3.5724    0.1667 </r>
       <r>   -3.5724    0.1666 </r>
       <r>   -3.5724    0.1666 </r>
       <r>   -0.1590    0.0000 </r>
       <r>    0.1864    0.0000 </r>
       <r>    0.3975    0.0000 </r>
       <r>    0.4244    0.0000 </r>
      </set>
      <set comment="kpoint 20">
       <r>   -9.4099    1.0000 </r>
       <r>   -3.5724    0.1667 </r>
       <r>   -3.5724    0.1667 </r>
       <r>   -3.5724    0.1666 </r>
       <r>   -0.1424    0.0000 </r>
       <r>    0.1466    0.0000 </r>
       <r>    0.4223    0.0000 </r>
       <r>    0.4499    0.0000 </r>
      </set>
      <set comment="kpoint 21">
       <r>   -9.4099    1.0000 </r>
       <r>   -3.5725    0.1671 </r>
       <r>   -3.5724    0.1667 </r>
       <r>   -3.5724    0.1666 </r>
       <r>   -0.1762    0.0000 </r>
       <r>    0.2433    0.0000 </r>
       <r>    0.3978    0.0000 </r>
       <r>    0.4148    0.0000 </r>
      </set>
      <set comment="kpoint 22">
       <r>   -9.4099    1.0000 </r>
       <r>   -3.5725    0.1670 </r>
       <r>   -3.5724    0.1667 </r>
       <r>   -3.5724    0.1666 </r>
       <r>   -0.1666    0.0000 </r>
       <r>    0.2521    0.0000 </r>
       <r>    0.3846    0.0000 </r>
       <r>    0.4088    0.0000 </r>
      </set>
      <set comment="kpoint 23">
       <r>   -9.4099    1.0000 </r>
       <r>   -3.5725    0.1670 </r>
       <r>   -3.5724    0.1666 </r>
       <r>   -3.5724    0.1666 </r>
       <r>   -0.1490    0.0000 </r>
       <r>    0.2584    0.0000 </r>
       <r>    0.3221    0.0000 </r>
       <r>    0.4297    0.0000 </r>
      </set>
      <set comment="kpoint 24">
       <r>   -9.4099    1.0000 </r>
       <r>   -3.5724    0.1669 </r>
       <r>   -3.5724    0.1666 </r>
       <r>   -3.5724    0.1666 </r>
       <r>   -0.1277    0.0000 </r>
       <r>    0.2200    0.0000 </r>
       <r>    0.3200    0.0000 </r>
       <r>    0.4574    0.0000 </r>
      </set>
      <set comment="kpoint 25">
       <r>   -9.4099    1.0000 </r>
       <r>   -3.5724    0.1669 </r>
       <r>   -3.5724    0.1667 </r>
       <r>   -3.5724    0.1666 </r>
       <r>   -0.1116    0.0000 </r>
       <r>    0.1833    0.0000 </r>
       <r>    0.3410    0.0000 </r>
       <r>    0.4819    0.0000 </r>
      </set>
      <set comment="kpoint 26">
       <r>   -9.4099    1.0000 </r>
       <r>   -3.5725    0.1673 </r>
       <r>   -3.5724    0.1667 </r>
       <r>   -3.5724    0.1666 </r>
       <r>   -0.1422    0.0000 </r>
       <r>    0.1763    0.0000 </r>
       <r>    0.4373    0.0000 </r>
       <r>    0.4571    0.0000 </r>
      </set>
      <set comment="kpoint 27">
       <r>   -9.4099    1.0000 </r>
       <r>   -3.5725    0.1673 </r>
       <r>   -3.5724    0.1667 </r>
       <r>   -3.5724    0.1666 </r>
       <r>   -0.1328    0.0000 </r>
       <r>    0.1874    0.0000 </r>
       <r>    0.4221    0.0000 </r>
       <r>    0.4480    0.0000 </r>
      </set>
      <set comment="kpoint 28">
       <r>   -9.4099    1.0000 </r>
       <r>   -3.5725    0.1673 </r>
       <r>   -3.5724    0.1666 </r>
       <r>   -3.5724    0.1666 </r>
       <r>   -0.1158    0.0000 </r>
       <r>    0.2082    0.0000 </r>
       <r>    0.3451    0.0000 </r>
       <r>    0.4683    0.0000 </r>
      </set>
      <set comment="kpoint 29">
       <r>   -9.4099    1.0000 </r>
       <r>   -3.5725    0.1673 </r>
       <r>   -3.5724    0.1666 </r>
       <r>   -3.5724    0.1666 </r>
       <r>   -0.0953    0.0000 </r>
       <r>    0.2322    0.0000 </r>
       <r>    0.2820    0.0000 </r>
       <r>    0.4969    0.0000 </r>
      </set>
      <set comment="kpoint 30">
       <r>   -9.4099    1.0000 </r>
       <r>   -3.5725    0.1673 </r>
       <r>   -3.5724    0.1667 </r>
       <r>   -3.5724    0.1666 </r>
       <r>   -0.0800    0.0000 </r>
       <r>    0.2266    0.0000 </r>
       <r>    0.2739    0.0000 </r>
       <r>    0.4472    0.0000 </r>
      </set>
      <set comment="kpoint 31">
       <r>   -9.4099    1.0000 </r>
       <r>   -3.5725    0.1674 </r>
       <r>   -3.5724    0.1666 </r>
       <r>   -3.5724    0.1666 </r>
       <r>   -0.1170    0.0000 </r>
       <r>    0.1335    0.0000 </r>
       <r>    0.4724    0.0000 </r>
       <r>    0.5056    0.0000 </r>
      </set>
      <set comment="kpoint 32">
       <r>   -9.4099    1.0000 </r>
       <r>   -3.5725    0.1674 </r>
       <r>   -3.5724    0.1666 </r>
       <r>   -3.5724    0.1666 </r>
       <r>   -0.1079    0.0000 </r>
       <r>    0.1452    0.0000 </r>
       <r>    0.4623    0.0000 </r>
       <r>    0.4826    0.0000 </r>
      </set>
      <set comment="kpoint 33">
       <r>   -9.4099    1.0000 </r>
       <r>   -3.5725    0.1675 </r>
       <r>   -3.5724    0.1666 </r>
       <r>   -3.5724    0.1666 </r>
       <r>   -0.0914    0.0000 </r>
       <r>    0.1680    0.0000 </r>
       <r>    0.3821    0.0000 </r>
       <r>    0.5019    0.0000 </r>
      </set>
      <set comment="kpoint 34">
       <r>   -9.4099    1.0000 </r>
       <r>   -3.5725    0.1675 </r>
       <r>   -3.5724    0.1666 </r>
       <r>   -3.5724    0.1666 </r>
       <r>   -0.0719    0.0000 </r>
       <r>    0.1993    0.0000 </r>
       <r>    0.3143    0.0000 </r>
       <r>    0.4381    0.0000 </r>
      </set>
      <set comment="kpoint 35">
       <r>   -9.4099    1.0000 </r>
       <r>   -3.5725    0.1675 </r>
       <r>   -3.5724    0.1667 </r>
       <r>   -3.5724    0.1666 </r>
       <r>   -0.0576    0.0000 </r>
       <r>    0.2300    0.0000 </r>
       <r>    0.2739    0.0000 </r>
       <r>    0.3847    0.0000 </r>
      </set>
      <set comment="kpoint 36">
       <r>   -9.4099    1.0000 </r>
       <r>   -3.5724    0.1667 </r>
       <r>   -3.5724    0.1666 </r>
       <r>   -3.5723    0.1659 </r>
       <r>   -0.2584    0.0000 </r>
       <r>    0.2182    0.0000 </r>
       <r>    0.3881    0.0000 </r>
       <r>    0.4536    0.0000 </r>
      </set>
      <set comment="kpoint 37">
       <r>   -9.4099    1.0000 </r>
       <r>   -3.5724    0.1667 </r>
       <r>   -3.5724    0.1666 </r>
       <r>   -3.5723    0.1659 </r>
       <r>   -0.2486    0.0000 </r>
       <r>    0.2234    0.0000 </r>
       <r>    0.3197    0.0000 </r>
       <r>    0.4397    0.0000 </r>
      </set>
      <set comment="kpoint 38">
       <r>   -9.4099    1.0000 </r>
       <r>   -3.5724    0.1667 </r>
       <r>   -3.5724    0.1667 </r>
       <r>   -3.5723    0.1659 </r>
       <r>   -0.2305    0.0000 </r>
       <r>    0.1971    0.0000 </r>
       <r>    0.2802    0.0000 </r>
       <r>    0.4595    0.0000 </r>
      </set>
      <set comment="kpoint 39">
       <r>   -9.4099    1.0000 </r>
       <r>   -3.5724    0.1668 </r>
       <r>   -3.5724    0.1667 </r>
       <r>   -3.5723    0.1659 </r>
       <r>   -0.2085    0.0000 </r>
       <r>    0.1356    0.0000 </r>
       <r>    0.3027    0.0000 </r>
       <r>    0.4880    0.0000 </r>
      </set>
      <set comment="kpoint 40">
       <r>   -9.4099    1.0000 </r>
       <r>   -3.5724    0.1669 </r>
       <r>   -3.5724    0.1667 </r>
       <r>   -3.5723    0.1659 </r>
       <r>   -0.1917    0.0000 </r>
       <r>    0.0954    0.0000 </r>
       <r>    0.3334    0.0000 </r>
       <r>    0.4716    0.0000 </r>
      </set>
      <set comment="kpoint 41">
       <r>   -9.4099    1.0000 </r>
       <r>   -3.5724    0.1667 </r>
       <r>   -3.5724    0.1666 </r>
       <r>   -3.5723    0.1660 </r>
       <r>   -0.2492    0.0000 </r>
       <r>    0.2272    0.0000 </r>
       <r>    0.3956    0.0000 </r>
       <r>    0.4623    0.0000 </r>
      </set>
      <set comment="kpoint 42">
       <r>   -9.4099    1.0000 </r>
       <r>   -3.5724    0.1667 </r>
       <r>   -3.5724    0.1666 </r>
       <r>   -3.5723    0.1660 </r>
       <r>   -0.2395    0.0000 </r>
       <r>    0.2323    0.0000 </r>
       <r>    0.3286    0.0000 </r>
       <r>    0.4476    0.0000 </r>
      </set>
      <set comment="kpoint 43">
       <r>   -9.4099    1.0000 </r>
       <r>   -3.5724    0.1667 </r>
       <r>   -3.5724    0.1667 </r>
       <r>   -3.5723    0.1661 </r>
       <r>   -0.2214    0.0000 </r>
       <r>    0.2062    0.0000 </r>
       <r>    0.2893    0.0000 </r>
       <r>    0.4672    0.0000 </r>
      </set>
      <set comment="kpoint 44">
       <r>   -9.4099    1.0000 </r>
       <r>   -3.5724    0.1668 </r>
       <r>   -3.5724    0.1667 </r>
       <r>   -3.5723    0.1661 </r>
       <r>   -0.1995    0.0000 </r>
       <r>    0.1449    0.0000 </r>
       <r>    0.3118    0.0000 </r>
       <r>    0.4958    0.0000 </r>
      </set>
      <set comment="kpoint 45">
       <r>   -9.4099    1.0000 </r>
       <r>   -3.5724    0.1668 </r>
       <r>   -3.5724    0.1667 </r>
       <r>   -3.5723    0.1661 </r>
       <r>   -0.1827    0.0000 </r>
       <r>    0.1048    0.0000 </r>
       <r>    0.3423    0.0000 </r>
       <r>    0.4809    0.0000 </r>
      </set>
      <set comment="kpoint 46">
       <r>   -9.4099    1.0000 </r>
       <r>   -3.5724    0.1666 </r>
       <r>   -3.5724    0.1666 </r>
       <r>   -3.5723    0.1663 </r>
       <r>   -0.2313    0.0000 </r>
       <r>    0.2445    0.0000 </r>
       <r>    0.4022    0.0000 </r>
       <r>    0.4718    0.0000 </r>
      </set>
      <set comment="kpoint 47">
       <r>   -9.4099    1.0000 </r>
       <r>   -3.5724    0.1667 </r>
       <r>   -3.5724    0.1667 </r>
       <r>   -3.5724    0.1663 </r>
       <r>   -0.2216    0.0000 </r>
       <r>    0.2495    0.0000 </r>
       <r>    0.3455    0.0000 </r>
       <r>    0.4500    0.0000 </r>
      </set>
      <set comment="kpoint 48">
       <r>   -9.4099    1.0000 </r>
       <r>   -3.5724    0.1667 </r>
       <r>   -3.5724    0.1667 </r>
       <r>   -3.5724    0.1663 </r>
       <r>   -0.2036    0.0000 </r>
       <r>    0.2238    0.0000 </r>
       <r>    0.3075    0.0000 </r>
       <r>    0.4673    0.0000 </r>
      </set>
      <set comment="kpoint 49">
       <r>   -9.4099    1.0000 </r>
       <r>   -3.5724    0.1668 </r>
       <r>   -3.5724    0.1667 </r>
       <r>   -3.5724    0.1663 </r>
       <r>   -0.1818    0.0000 </r>
       <r>    0.1633    0.0000 </r>
       <r>    0.3295    0.0000 </r>
       <r>    0.4957    0.0000 </r>
      </set>
      <set comment="kpoint 50">
       <r>   -9.4099    1.0000 </r>
       <r>   -3.5724    0.1668 </r>
       <r>   -3.5724    0.1667 </r>
       <r>   -3.5723    0.1663 </r>
       <r>   -0.1651    0.0000 </r>
       <r>    0.1236    0.0000 </r>
       <r>    0.3597    0.0000 </r>
       <r>    0.4991    0.0000 </r>
      </set>
      <set comment="kpoint 51">
       <r>   -9.4099    1.0000 </r>
       <r>   -3.5724    0.1667 </r>
       <r>   -3.5724    0.1666 </r>
       <r>   -3.5724    0.1666 </r>
       <r>   -0.2054    0.0000 </r>
       <r>    0.2656    0.0000 </r>
       <r>    0.3523    0.0000 </r>
       <r>    0.4585    0.0000 </r>
      </set>
      <set comment="kpoint 52">
       <r>   -9.4099    1.0000 </r>
       <r>   -3.5724    0.1667 </r>
       <r>   -3.5724    0.1667 </r>
       <r>   -3.5724    0.1666 </r>
       <r>   -0.1957    0.0000 </r>
       <r>    0.2702    0.0000 </r>
       <r>    0.3563    0.0000 </r>
       <r>    0.3908    0.0000 </r>
      </set>
      <set comment="kpoint 53">
       <r>   -9.4099    1.0000 </r>
       <r>   -3.5724    0.1667 </r>
       <r>   -3.5724    0.1667 </r>
       <r>   -3.5724    0.1666 </r>
       <r>   -0.1780    0.0000 </r>
       <r>    0.2479    0.0000 </r>
       <r>    0.3336    0.0000 </r>
       <r>    0.3899    0.0000 </r>
      </set>
      <set comment="kpoint 54">
       <r>   -9.4099    1.0000 </r>
       <r>   -3.5724    0.1667 </r>
       <r>   -3.5724    0.1666 </r>
       <r>   -3.5724    0.1666 </r>
       <r>   -0.1564    0.0000 </r>
       <r>    0.1903    0.0000 </r>
       <r>    0.3531    0.0000 </r>
       <r>    0.4161    0.0000 </r>
      </set>
      <set comment="kpoint 55">
       <r>   -9.4099    1.0000 </r>
       <r>   -3.5724    0.1667 </r>
       <r>   -3.5724    0.1666 </r>
       <r>   -3.5724    0.1666 </r>
       <r>   -0.1400    0.0000 </r>
       <r>    0.1515    0.0000 </r>
       <r>    0.3819    0.0000 </r>
       <r>    0.4400    0.0000 </r>
      </set>
      <set comment="kpoint 56">
       <r>   -9.4099    1.0000 </r>
       <r>   -3.5725    0.1670 </r>
       <r>   -3.5724    0.1666 </r>
       <r>   -3.5724    0.1666 </r>
       <r>   -0.1734    0.0000 </r>
       <r>    0.2433    0.0000 </r>
       <r>    0.3275    0.0000 </r>
       <r>    0.4895    0.0000 </r>
      </set>
      <set comment="kpoint 57">
       <r>   -9.4099    1.0000 </r>
       <r>   -3.5725    0.1670 </r>
       <r>   -3.5724    0.1666 </r>
       <r>   -3.5724    0.1666 </r>
       <r>   -0.1638    0.0000 </r>
       <r>    0.2520    0.0000 </r>
       <r>    0.3367    0.0000 </r>
       <r>    0.4130    0.0000 </r>
      </set>
      <set comment="kpoint 58">
       <r>   -9.4099    1.0000 </r>
       <r>   -3.5724    0.1670 </r>
       <r>   -3.5724    0.1667 </r>
       <r>   -3.5724    0.1666 </r>
       <r>   -0.1463    0.0000 </r>
       <r>    0.2588    0.0000 </r>
       <r>    0.3253    0.0000 </r>
       <r>    0.3721    0.0000 </r>
      </set>
      <set comment="kpoint 59">
       <r>   -9.4099    1.0000 </r>
       <r>   -3.5724    0.1670 </r>
       <r>   -3.5724    0.1666 </r>
       <r>   -3.5724    0.1666 </r>
       <r>   -0.1252    0.0000 </r>
       <r>    0.2239    0.0000 </r>
       <r>    0.3226    0.0000 </r>
       <r>    0.3984    0.0000 </r>
      </set>
      <set comment="kpoint 60">
       <r>   -9.4099    1.0000 </r>
       <r>   -3.5724    0.1669 </r>
       <r>   -3.5724    0.1667 </r>
       <r>   -3.5724    0.1666 </r>
       <r>   -0.1093    0.0000 </r>
       <r>    0.1881    0.0000 </r>
       <r>    0.3430    0.0000 </r>
       <r>    0.4278    0.0000 </r>
      </set>
      <set comment="kpoint 61">
       <r>   -9.4099    1.0000 </r>
       <r>   -3.5725    0.1673 </r>
       <r>   -3.5724    0.1666 </r>
       <r>   -3.5724    0.1665 </r>
       <r>   -0.1395    0.0000 </r>
       <r>    0.1802    0.0000 </r>
       <r>    0.3637    0.0000 </r>
       <r>    0.5294    0.0000 </r>
      </set>
      <set comment="kpoint 62">
       <r>   -9.4099    1.0000 </r>
       <r>   -3.5725    0.1673 </r>
       <r>   -3.5724    0.1666 </r>
       <r>   -3.5724    0.1666 </r>
       <r>   -0.1302    0.0000 </r>
       <r>    0.1913    0.0000 </r>
       <r>    0.3711    0.0000 </r>
       <r>    0.4524    0.0000 </r>
      </set>
      <set comment="kpoint 63">
       <r>   -9.4099    1.0000 </r>
       <r>   -3.5725    0.1673 </r>
       <r>   -3.5724    0.1667 </r>
       <r>   -3.5724    0.1666 </r>
       <r>   -0.1132    0.0000 </r>
       <r>    0.2120    0.0000 </r>
       <r>    0.3452    0.0000 </r>
       <r>    0.4128    0.0000 </r>
      </set>
      <set comment="kpoint 64">
       <r>   -9.4099    1.0000 </r>
       <r>   -3.5725    0.1673 </r>
       <r>   -3.5724    0.1666 </r>
       <r>   -3.5724    0.1666 </r>
       <r>   -0.0929    0.0000 </r>
       <r>    0.2361    0.0000 </r>
       <r>    0.2861    0.0000 </r>
       <r>    0.4373    0.0000 </r>
      </set>
      <set comment="kpoint 65">
       <r>   -9.4099    1.0000 </r>
       <r>   -3.5725    0.1673 </r>
       <r>   -3.5724    0.1667 </r>
       <r>   -3.5724    0.1666 </r>
       <r>   -0.0778    0.0000 </r>
       <r>    0.2313    0.0000 </r>
       <r>    0.2774    0.0000 </r>
       <r>    0.4517    0.0000 </r>
      </set>
      <set comment="kpoint 66">
       <r>   -9.4099    1.0000 </r>
       <r>   -3.5725    0.1675 </r>
       <r>   -3.5724    0.1666 </r>
       <r>   -3.5724    0.1665 </r>
       <r>   -0.1145    0.0000 </r>
       <r>    0.1380    0.0000 </r>
       <r>    0.4046    0.0000 </r>
       <r>    0.5242    0.0000 </r>
      </set>
      <set comment="kpoint 67">
       <r>   -9.4099    1.0000 </r>
       <r>   -3.5725    0.1674 </r>
       <r>   -3.5724    0.1666 </r>
       <r>   -3.5724    0.1665 </r>
       <r>   -0.1054    0.0000 </r>
       <r>    0.1497    0.0000 </r>
       <r>    0.4114    0.0000 </r>
       <r>    0.4887    0.0000 </r>
      </set>
      <set comment="kpoint 68">
       <r>   -9.4099    1.0000 </r>
       <r>   -3.5725    0.1675 </r>
       <r>   -3.5724    0.1667 </r>
       <r>   -3.5724    0.1666 </r>
       <r>   -0.0891    0.0000 </r>
       <r>    0.1723    0.0000 </r>
       <r>    0.3820    0.0000 </r>
       <r>    0.4514    0.0000 </r>
      </set>
      <set comment="kpoint 69">
       <r>   -9.4099    1.0000 </r>
       <r>   -3.5725    0.1675 </r>
       <r>   -3.5724    0.1666 </r>
       <r>   -3.5724    0.1666 </r>
       <r>   -0.0697    0.0000 </r>
       <r>    0.2035    0.0000 </r>
       <r>    0.3181    0.0000 </r>
       <r>    0.4424    0.0000 </r>
      </set>
      <set comment="kpoint 70">
       <r>   -9.4099    1.0000 </r>
       <r>   -3.5725    0.1675 </r>
       <r>   -3.5724    0.1667 </r>
       <r>   -3.5724    0.1666 </r>
       <r>   -0.0555    0.0000 </r>
       <r>    0.2339    0.0000 </r>
       <r>    0.2783    0.0000 </r>
       <r>    0.3899    0.0000 </r>
      </set>
      <set comment="kpoint 71">
       <r>   -9.4099    1.0000 </r>
       <r>   -3.5724    0.1667 </r>
       <r>   -3.5724    0.1667 </r>
       <r>   -3.5723    0.1659 </r>
       <r>   -0.2501    0.0000 </r>
       <r>    0.1471    0.0000 </r>
       <r>    0.4334    0.0000 </r>
       <r>    0.5160    0.0000 </r>
      </set>
      <set comment="kpoint 72">
       <r>   -9.4099    1.0000 </r>
       <r>   -3.5724    0.1667 </r>
       <r>   -3.5724    0.1666 </r>
       <r>   -3.5723    0.1659 </r>
       <r>   -0.2405    0.0000 </r>
       <r>    0.1576    0.0000 </r>
       <r>    0.3304    0.0000 </r>
       <r>    0.5408    0.0000 </r>
      </set>
      <set comment="kpoint 73">
       <r>   -9.4099    1.0000 </r>
       <r>   -3.5724    0.1667 </r>
       <r>   -3.5724    0.1667 </r>
       <r>   -3.5723    0.1659 </r>
       <r>   -0.2228    0.0000 </r>
       <r>    0.1718    0.0000 </r>
       <r>    0.2474    0.0000 </r>
       <r>    0.5288    0.0000 </r>
      </set>
      <set comment="kpoint 74">
       <r>   -9.4099    1.0000 </r>
       <r>   -3.5724    0.1668 </r>
       <r>   -3.5724    0.1667 </r>
       <r>   -3.5723    0.1659 </r>
       <r>   -0.2013    0.0000 </r>
       <r>    0.1460    0.0000 </r>
       <r>    0.2346    0.0000 </r>
       <r>    0.4520    0.0000 </r>
      </set>
      <set comment="kpoint 75">
       <r>   -9.4099    1.0000 </r>
       <r>   -3.5724    0.1669 </r>
       <r>   -3.5724    0.1667 </r>
       <r>   -3.5723    0.1659 </r>
       <r>   -0.1850    0.0000 </r>
       <r>    0.1097    0.0000 </r>
       <r>    0.2637    0.0000 </r>
       <r>    0.3923    0.0000 </r>
      </set>
      <set comment="kpoint 76">
       <r>   -9.4099    1.0000 </r>
       <r>   -3.5724    0.1667 </r>
       <r>   -3.5724    0.1666 </r>
       <r>   -3.5723    0.1660 </r>
       <r>   -0.2410    0.0000 </r>
       <r>    0.1564    0.0000 </r>
       <r>    0.4409    0.0000 </r>
       <r>    0.5199    0.0000 </r>
      </set>
      <set comment="kpoint 77">
       <r>   -9.4099    1.0000 </r>
       <r>   -3.5724    0.1667 </r>
       <r>   -3.5724    0.1666 </r>
       <r>   -3.5723    0.1660 </r>
       <r>   -0.2314    0.0000 </r>
       <r>    0.1669    0.0000 </r>
       <r>    0.3392    0.0000 </r>
       <r>    0.5438    0.0000 </r>
      </set>
      <set comment="kpoint 78">
       <r>   -9.4099    1.0000 </r>
       <r>   -3.5724    0.1667 </r>
       <r>   -3.5724    0.1667 </r>
       <r>   -3.5723    0.1661 </r>
       <r>   -0.2137    0.0000 </r>
       <r>    0.1811    0.0000 </r>
       <r>    0.2565    0.0000 </r>
       <r>    0.5372    0.0000 </r>
      </set>
      <set comment="kpoint 79">
       <r>   -9.4099    1.0000 </r>
       <r>   -3.5724    0.1668 </r>
       <r>   -3.5724    0.1667 </r>
       <r>   -3.5723    0.1661 </r>
       <r>   -0.1923    0.0000 </r>
       <r>    0.1553    0.0000 </r>
       <r>    0.2438    0.0000 </r>
       <r>    0.4613    0.0000 </r>
      </set>
      <set comment="kpoint 80">
       <r>   -9.4099    1.0000 </r>
       <r>   -3.5724    0.1668 </r>
       <r>   -3.5724    0.1667 </r>
       <r>   -3.5723    0.1661 </r>
       <r>   -0.1760    0.0000 </r>
       <r>    0.1191    0.0000 </r>
       <r>    0.2728    0.0000 </r>
       <r>    0.4018    0.0000 </r>
      </set>
      <set comment="kpoint 81">
       <r>   -9.4099    1.0000 </r>
       <r>   -3.5724    0.1667 </r>
       <r>   -3.5724    0.1666 </r>
       <r>   -3.5724    0.1663 </r>
       <r>   -0.2232    0.0000 </r>
       <r>    0.1747    0.0000 </r>
       <r>    0.4401    0.0000 </r>
       <r>    0.4824    0.0000 </r>
      </set>
      <set comment="kpoint 82">
       <r>   -9.4099    1.0000 </r>
       <r>   -3.5724    0.1667 </r>
       <r>   -3.5724    0.1666 </r>
       <r>   -3.5724    0.1663 </r>
       <r>   -0.2136    0.0000 </r>
       <r>    0.1852    0.0000 </r>
       <r>    0.3558    0.0000 </r>
       <r>    0.4766    0.0000 </r>
      </set>
      <set comment="kpoint 83">
       <r>   -9.4099    1.0000 </r>
       <r>   -3.5724    0.1667 </r>
       <r>   -3.5724    0.1667 </r>
       <r>   -3.5724    0.1663 </r>
       <r>   -0.1960    0.0000 </r>
       <r>    0.1992    0.0000 </r>
       <r>    0.2746    0.0000 </r>
       <r>    0.4959    0.0000 </r>
      </set>
      <set comment="kpoint 84">
       <r>   -9.4099    1.0000 </r>
       <r>   -3.5724    0.1668 </r>
       <r>   -3.5724    0.1667 </r>
       <r>   -3.5723    0.1663 </r>
       <r>   -0.1747    0.0000 </r>
       <r>    0.1736    0.0000 </r>
       <r>    0.2622    0.0000 </r>
       <r>    0.4797    0.0000 </r>
      </set>
      <set comment="kpoint 85">
       <r>   -9.4099    1.0000 </r>
       <r>   -3.5724    0.1668 </r>
       <r>   -3.5724    0.1667 </r>
       <r>   -3.5723    0.1663 </r>
       <r>   -0.1585    0.0000 </r>
       <r>    0.1377    0.0000 </r>
       <r>    0.2909    0.0000 </r>
       <r>    0.4207    0.0000 </r>
      </set>
      <set comment="kpoint 86">
       <r>   -9.4099    1.0000 </r>
       <r>   -3.5724    0.1667 </r>
       <r>   -3.5724    0.1666 </r>
       <r>   -3.5724    0.1666 </r>
       <r>   -0.1974    0.0000 </r>
       <r>    0.2011    0.0000 </r>
       <r>    0.3603    0.0000 </r>
       <r>    0.4932    0.0000 </r>
      </set>
      <set comment="kpoint 87">
       <r>   -9.4099    1.0000 </r>
       <r>   -3.5724    0.1667 </r>
       <r>   -3.5724    0.1666 </r>
       <r>   -3.5724    0.1666 </r>
       <r>   -0.1879    0.0000 </r>
       <r>    0.2114    0.0000 </r>
       <r>    0.3602    0.0000 </r>
       <r>    0.4022    0.0000 </r>
      </set>
      <set comment="kpoint 88">
       <r>   -9.4099    1.0000 </r>
       <r>   -3.5724    0.1667 </r>
       <r>   -3.5724    0.1667 </r>
       <r>   -3.5724    0.1666 </r>
       <r>   -0.1704    0.0000 </r>
       <r>    0.2252    0.0000 </r>
       <r>    0.3011    0.0000 </r>
       <r>    0.3996    0.0000 </r>
      </set>
      <set comment="kpoint 89">
       <r>   -9.4099    1.0000 </r>
       <r>   -3.5724    0.1667 </r>
       <r>   -3.5724    0.1667 </r>
       <r>   -3.5724    0.1666 </r>
       <r>   -0.1494    0.0000 </r>
       <r>    0.2006    0.0000 </r>
       <r>    0.2890    0.0000 </r>
       <r>    0.4248    0.0000 </r>
      </set>
      <set comment="kpoint 90">
       <r>   -9.4099    1.0000 </r>
       <r>   -3.5724    0.1667 </r>
       <r>   -3.5724    0.1666 </r>
       <r>   -3.5724    0.1666 </r>
       <r>   -0.1335    0.0000 </r>
       <r>    0.1656    0.0000 </r>
       <r>    0.3170    0.0000 </r>
       <r>    0.4472    0.0000 </r>
      </set>
      <set comment="kpoint 91">
       <r>   -9.4099    1.0000 </r>
       <r>   -3.5724    0.1670 </r>
       <r>   -3.5724    0.1666 </r>
       <r>   -3.5724    0.1666 </r>
       <r>   -0.1656    0.0000 </r>
       <r>    0.2264    0.0000 </r>
       <r>    0.2856    0.0000 </r>
       <r>    0.5257    0.0000 </r>
      </set>
      <set comment="kpoint 92">
       <r>   -9.4099    1.0000 </r>
       <r>   -3.5724    0.1670 </r>
       <r>   -3.5724    0.1666 </r>
       <r>   -3.5724    0.1666 </r>
       <r>   -0.1562    0.0000 </r>
       <r>    0.2363    0.0000 </r>
       <r>    0.2968    0.0000 </r>
       <r>    0.4245    0.0000 </r>
      </set>
      <set comment="kpoint 93">
       <r>   -9.4099    1.0000 </r>
       <r>   -3.5724    0.1670 </r>
       <r>   -3.5724    0.1667 </r>
       <r>   -3.5724    0.1666 </r>
       <r>   -0.1391    0.0000 </r>
       <r>    0.2502    0.0000 </r>
       <r>    0.3179    0.0000 </r>
       <r>    0.3421    0.0000 </r>
      </set>
      <set comment="kpoint 94">
       <r>   -9.4099    1.0000 </r>
       <r>   -3.5724    0.1670 </r>
       <r>   -3.5724    0.1667 </r>
       <r>   -3.5724    0.1666 </r>
       <r>   -0.1184    0.0000 </r>
       <r>    0.2340    0.0000 </r>
       <r>    0.3179    0.0000 </r>
       <r>    0.3475    0.0000 </r>
      </set>
      <set comment="kpoint 95">
       <r>   -9.4099    1.0000 </r>
       <r>   -3.5724    0.1669 </r>
       <r>   -3.5724    0.1667 </r>
       <r>   -3.5724    0.1666 </r>
       <r>   -0.1030    0.0000 </r>
       <r>    0.2020    0.0000 </r>
       <r>    0.3386    0.0000 </r>
       <r>    0.3749    0.0000 </r>
      </set>
      <set comment="kpoint 96">
       <r>   -9.4099    1.0000 </r>
       <r>   -3.5725    0.1673 </r>
       <r>   -3.5724    0.1666 </r>
       <r>   -3.5724    0.1665 </r>
       <r>   -0.1322    0.0000 </r>
       <r>    0.1910    0.0000 </r>
       <r>    0.2947    0.0000 </r>
       <r>    0.5108    0.0000 </r>
      </set>
      <set comment="kpoint 97">
       <r>   -9.4099    1.0000 </r>
       <r>   -3.5725    0.1673 </r>
       <r>   -3.5724    0.1666 </r>
       <r>   -3.5724    0.1666 </r>
       <r>   -0.1231    0.0000 </r>
       <r>    0.2019    0.0000 </r>
       <r>    0.3057    0.0000 </r>
       <r>    0.4637    0.0000 </r>
      </set>
      <set comment="kpoint 98">
       <r>   -9.4099    1.0000 </r>
       <r>   -3.5725    0.1673 </r>
       <r>   -3.5724    0.1666 </r>
       <r>   -3.5724    0.1666 </r>
       <r>   -0.1064    0.0000 </r>
       <r>    0.2225    0.0000 </r>
       <r>    0.3226    0.0000 </r>
       <r>    0.3796    0.0000 </r>
      </set>
      <set comment="kpoint 99">
       <r>   -9.4099    1.0000 </r>
       <r>   -3.5725    0.1673 </r>
       <r>   -3.5724    0.1667 </r>
       <r>   -3.5724    0.1666 </r>
       <r>   -0.0865    0.0000 </r>
       <r>    0.2468    0.0000 </r>
       <r>    0.2974    0.0000 </r>
       <r>    0.3710    0.0000 </r>
      </set>
      <set comment="kpoint 100">
       <r>   -9.4099    1.0000 </r>
       <r>   -3.5725    0.1673 </r>
       <r>   -3.5724    0.1667 </r>
       <r>   -3.5724    0.1666 </r>
       <r>   -0.0718    0.0000 </r>
       <r>    0.2448    0.0000 </r>
       <r>    0.2874    0.0000 </r>
       <r>    0.4001    0.0000 </r>
      </set>
      <set comment="kpoint 101">
       <r>   -9.4099    1.0000 </r>
       <r>   -3.5725    0.1674 </r>
       <r>   -3.5724    0.1666 </r>
       <r>   -3.5724    0.1665 </r>
       <r>   -0.1078    0.0000 </r>
       <r>    0.1508    0.0000 </r>
       <r>    0.3356    0.0000 </r>
       <r>    0.4490    0.0000 </r>
      </set>
      <set comment="kpoint 102">
       <r>   -9.4099    1.0000 </r>
       <r>   -3.5725    0.1675 </r>
       <r>   -3.5724    0.1666 </r>
       <r>   -3.5724    0.1666 </r>
       <r>   -0.0988    0.0000 </r>
       <r>    0.1624    0.0000 </r>
       <r>    0.3461    0.0000 </r>
       <r>    0.4602    0.0000 </r>
      </set>
      <set comment="kpoint 103">
       <r>   -9.4099    1.0000 </r>
       <r>   -3.5725    0.1675 </r>
       <r>   -3.5724    0.1666 </r>
       <r>   -3.5724    0.1666 </r>
       <r>   -0.0827    0.0000 </r>
       <r>    0.1848    0.0000 </r>
       <r>    0.3608    0.0000 </r>
       <r>    0.4173    0.0000 </r>
      </set>
      <set comment="kpoint 104">
       <r>   -9.4099    1.0000 </r>
       <r>   -3.5725    0.1675 </r>
       <r>   -3.5724    0.1667 </r>
       <r>   -3.5724    0.1666 </r>
       <r>   -0.0637    0.0000 </r>
       <r>    0.2154    0.0000 </r>
       <r>    0.3285    0.0000 </r>
       <r>    0.4110    0.0000 </r>
      </set>
      <set comment="kpoint 105">
       <r>   -9.4099    1.0000 </r>
       <r>   -3.5725    0.1675 </r>
       <r>   -3.5724    0.1666 </r>
       <r>   -3.5724    0.1666 </r>
       <r>   -0.0499    0.0000 </r>
       <r>    0.2448    0.0000 </r>
       <r>    0.2910    0.0000 </r>
       <r>    0.4051    0.0000 </r>
      </set>
      <set comment="kpoint 106">
       <r>   -9.4099    1.0000 </r>
       <r>   -3.5724    0.1668 </r>
       <r>   -3.5724    0.1666 </r>
       <r>   -3.5723    0.1659 </r>
       <r>   -0.2396    0.0000 </r>
       <r>    0.0939    0.0000 </r>
       <r>    0.4547    0.0000 </r>
       <r>    0.5758    0.0000 </r>
      </set>
      <set comment="kpoint 107">
       <r>   -9.4099    1.0000 </r>
       <r>   -3.5724    0.1667 </r>
       <r>   -3.5724    0.1666 </r>
       <r>   -3.5723    0.1659 </r>
       <r>   -0.2301    0.0000 </r>
       <r>    0.1060    0.0000 </r>
       <r>    0.3472    0.0000 </r>
       <r>    0.5722    0.0000 </r>
      </set>
      <set comment="kpoint 108">
       <r>   -9.4099    1.0000 </r>
       <r>   -3.5724    0.1668 </r>
       <r>   -3.5724    0.1667 </r>
       <r>   -3.5723    0.1659 </r>
       <r>   -0.2129    0.0000 </r>
       <r>    0.1289    0.0000 </r>
       <r>    0.2553    0.0000 </r>
       <r>    0.4760    0.0000 </r>
      </set>
      <set comment="kpoint 109">
       <r>   -9.4099    1.0000 </r>
       <r>   -3.5724    0.1668 </r>
       <r>   -3.5724    0.1667 </r>
       <r>   -3.5723    0.1659 </r>
       <r>   -0.1922    0.0000 </r>
       <r>    0.1515    0.0000 </r>
       <r>    0.1957    0.0000 </r>
       <r>    0.3902    0.0000 </r>
      </set>
      <set comment="kpoint 110">
       <r>   -9.4099    1.0000 </r>
       <r>   -3.5724    0.1668 </r>
       <r>   -3.5724    0.1667 </r>
       <r>   -3.5723    0.1659 </r>
       <r>   -0.1767    0.0000 </r>
       <r>    0.1314    0.0000 </r>
       <r>    0.2120    0.0000 </r>
       <r>    0.3269    0.0000 </r>
      </set>
      <set comment="kpoint 111">
       <r>   -9.4099    1.0000 </r>
       <r>   -3.5724    0.1668 </r>
       <r>   -3.5724    0.1666 </r>
       <r>   -3.5723    0.1661 </r>
       <r>   -0.2305    0.0000 </r>
       <r>    0.1034    0.0000 </r>
       <r>    0.4625    0.0000 </r>
       <r>    0.5687    0.0000 </r>
      </set>
      <set comment="kpoint 112">
       <r>   -9.4099    1.0000 </r>
       <r>   -3.5724    0.1668 </r>
       <r>   -3.5724    0.1667 </r>
       <r>   -3.5723    0.1661 </r>
       <r>   -0.2211    0.0000 </r>
       <r>    0.1154    0.0000 </r>
       <r>    0.3559    0.0000 </r>
       <r>    0.5800    0.0000 </r>
      </set>
      <set comment="kpoint 113">
       <r>   -9.4099    1.0000 </r>
       <r>   -3.5724    0.1667 </r>
       <r>   -3.5724    0.1667 </r>
       <r>   -3.5723    0.1661 </r>
       <r>   -0.2039    0.0000 </r>
       <r>    0.1384    0.0000 </r>
       <r>    0.2643    0.0000 </r>
       <r>    0.4853    0.0000 </r>
      </set>
      <set comment="kpoint 114">
       <r>   -9.4099    1.0000 </r>
       <r>   -3.5724    0.1668 </r>
       <r>   -3.5724    0.1667 </r>
       <r>   -3.5723    0.1661 </r>
       <r>   -0.1832    0.0000 </r>
       <r>    0.1609    0.0000 </r>
       <r>    0.2049    0.0000 </r>
       <r>    0.3996    0.0000 </r>
      </set>
      <set comment="kpoint 115">
       <r>   -9.4099    1.0000 </r>
       <r>   -3.5724    0.1668 </r>
       <r>   -3.5724    0.1668 </r>
       <r>   -3.5723    0.1661 </r>
       <r>   -0.1678    0.0000 </r>
       <r>    0.1407    0.0000 </r>
       <r>    0.2213    0.0000 </r>
       <r>    0.3365    0.0000 </r>
      </set>
      <set comment="kpoint 116">
       <r>   -9.4099    1.0000 </r>
       <r>   -3.5724    0.1668 </r>
       <r>   -3.5724    0.1666 </r>
       <r>   -3.5724    0.1663 </r>
       <r>   -0.2128    0.0000 </r>
       <r>    0.1222    0.0000 </r>
       <r>    0.4617    0.0000 </r>
       <r>    0.4967    0.0000 </r>
      </set>
      <set comment="kpoint 117">
       <r>   -9.4099    1.0000 </r>
       <r>   -3.5724    0.1667 </r>
       <r>   -3.5724    0.1666 </r>
       <r>   -3.5724    0.1663 </r>
       <r>   -0.2034    0.0000 </r>
       <r>    0.1342    0.0000 </r>
       <r>    0.3723    0.0000 </r>
       <r>    0.4927    0.0000 </r>
      </set>
      <set comment="kpoint 118">
       <r>   -9.4099    1.0000 </r>
       <r>   -3.5724    0.1667 </r>
       <r>   -3.5724    0.1667 </r>
       <r>   -3.5724    0.1663 </r>
       <r>   -0.1863    0.0000 </r>
       <r>    0.1571    0.0000 </r>
       <r>    0.2821    0.0000 </r>
       <r>    0.5037    0.0000 </r>
      </set>
      <set comment="kpoint 119">
       <r>   -9.4099    1.0000 </r>
       <r>   -3.5724    0.1667 </r>
       <r>   -3.5724    0.1667 </r>
       <r>   -3.5724    0.1663 </r>
       <r>   -0.1657    0.0000 </r>
       <r>    0.1794    0.0000 </r>
       <r>    0.2233    0.0000 </r>
       <r>    0.4185    0.0000 </r>
      </set>
      <set comment="kpoint 120">
       <r>   -9.4099    1.0000 </r>
       <r>   -3.5724    0.1668 </r>
       <r>   -3.5724    0.1667 </r>
       <r>   -3.5724    0.1663 </r>
       <r>   -0.1503    0.0000 </r>
       <r>    0.1593    0.0000 </r>
       <r>    0.2397    0.0000 </r>
       <r>    0.3557    0.0000 </r>
      </set>
      <set comment="kpoint 121">
       <r>   -9.4099    1.0000 </r>
       <r>   -3.5724    0.1667 </r>
       <r>   -3.5724    0.1667 </r>
       <r>   -3.5724    0.1666 </r>
       <r>   -0.1872    0.0000 </r>
       <r>    0.1500    0.0000 </r>
       <r>    0.3746    0.0000 </r>
       <r>    0.5111    0.0000 </r>
      </set>
      <set comment="kpoint 122">
       <r>   -9.4099    1.0000 </r>
       <r>   -3.5724    0.1667 </r>
       <r>   -3.5724    0.1667 </r>
       <r>   -3.5724    0.1666 </r>
       <r>   -0.1779    0.0000 </r>
       <r>    0.1620    0.0000 </r>
       <r>    0.3739    0.0000 </r>
       <r>    0.4179    0.0000 </r>
      </set>
      <set comment="kpoint 123">
       <r>   -9.4099    1.0000 </r>
       <r>   -3.5724    0.1667 </r>
       <r>   -3.5724    0.1667 </r>
       <r>   -3.5724    0.1666 </r>
       <r>   -0.1609    0.0000 </r>
       <r>    0.1848    0.0000 </r>
       <r>    0.3074    0.0000 </r>
       <r>    0.4136    0.0000 </r>
      </set>
      <set comment="kpoint 124">
       <r>   -9.4099    1.0000 </r>
       <r>   -3.5724    0.1667 </r>
       <r>   -3.5724    0.1667 </r>
       <r>   -3.5724    0.1666 </r>
       <r>   -0.1406    0.0000 </r>
       <r>    0.2068    0.0000 </r>
       <r>    0.2506    0.0000 </r>
       <r>    0.4381    0.0000 </r>
      </set>
[...]
      <set comment="kpoint 164">
       <r>   -9.4099    1.0000 </r>
       <r>   -3.5724    0.1670 </r>
       <r>   -3.5724    0.1667 </r>
       <r>   -3.5724    0.1667 </r>
       <r>   -0.1039    0.0000 </r>
       <r>    0.2318    0.0000 </r>
       <r>    0.2844    0.0000 </r>
       <r>    0.3631    0.0000 </r>
      </set>
      <set comment="kpoint 165">
       <r>   -9.4099    1.0000 </r>
       <r>   -3.5724    0.1670 </r>
       <r>   -3.5724    0.1667 </r>
       <r>   -3.5724    0.1667 </r>
       <r>   -0.0897    0.0000 </r>
       <r>    0.2440    0.0000 </r>
       <r>    0.2747    0.0000 </r>
       <r>    0.3806    0.0000 </r>
      </set>
      <set comment="kpoint 166">
       <r>   -9.4099    1.0000 </r>
       <r>   -3.5725    0.1673 </r>
       <r>   -3.5724    0.1666 </r>
       <r>   -3.5724    0.1666 </r>
       <r>   -0.1165    0.0000 </r>
       <r>    0.2036    0.0000 </r>
       <r>    0.2314    0.0000 </r>
       <r>    0.4186    0.0000 </r>
      </set>
      <set comment="kpoint 167">
       <r>   -9.4099    1.0000 </r>
       <r>   -3.5725    0.1673 </r>
       <r>   -3.5724    0.1666 </r>
       <r>   -3.5724    0.1665 </r>
       <r>   -0.1077    0.0000 </r>
       <r>    0.2159    0.0000 </r>
       <r>    0.2421    0.0000 </r>
       <r>    0.4311    0.0000 </r>
      </set>
      <set comment="kpoint 168">
       <r>   -9.4099    1.0000 </r>
       <r>   -3.5725    0.1672 </r>
       <r>   -3.5724    0.1666 </r>
       <r>   -3.5724    0.1666 </r>
       <r>   -0.0917    0.0000 </r>
       <r>    0.2401    0.0000 </r>
       <r>    0.2626    0.0000 </r>
       <r>    0.4015    0.0000 </r>
      </set>
      <set comment="kpoint 169">
       <r>   -9.4099    1.0000 </r>
       <r>   -3.5725    0.1673 </r>
       <r>   -3.5724    0.1667 </r>
       <r>   -3.5724    0.1666 </r>
       <r>   -0.0730    0.0000 </r>
       <r>    0.2730    0.0000 </r>
       <r>    0.2898    0.0000 </r>
       <r>    0.3337    0.0000 </r>
      </set>
      <set comment="kpoint 170">
       <r>   -9.4099    1.0000 </r>
       <r>   -3.5725    0.1673 </r>
       <r>   -3.5724    0.1667 </r>
       <r>   -3.5724    0.1667 </r>
       <r>   -0.0594    0.0000 </r>
       <r>    0.2849    0.0000 </r>
       <r>    0.3124    0.0000 </r>
       <r>    0.3211    0.0000 </r>
      </set>
      <set comment="kpoint 171">
       <r>   -9.4099    1.0000 </r>
       <r>   -3.5725    0.1674 </r>
       <r>   -3.5724    0.1666 </r>
       <r>   -3.5724    0.1665 </r>
       <r>   -0.0934    0.0000 </r>
       <r>    0.1868    0.0000 </r>
       <r>    0.2551    0.0000 </r>
       <r>    0.3509    0.0000 </r>
      </set>
      <set comment="kpoint 172">
       <r>   -9.4099    1.0000 </r>
       <r>   -3.5725    0.1674 </r>
       <r>   -3.5724    0.1666 </r>
       <r>   -3.5724    0.1665 </r>
       <r>   -0.0848    0.0000 </r>
       <r>    0.1978    0.0000 </r>
       <r>    0.2673    0.0000 </r>
       <r>    0.3639    0.0000 </r>
      </set>
      <set comment="kpoint 173">
       <r>   -9.4099    1.0000 </r>
       <r>   -3.5725    0.1675 </r>
       <r>   -3.5724    0.1666 </r>
       <r>   -3.5724    0.1666 </r>
       <r>   -0.0693    0.0000 </r>
       <r>    0.2190    0.0000 </r>
       <r>    0.2913    0.0000 </r>
       <r>    0.3895    0.0000 </r>
      </set>
      <set comment="kpoint 174">
       <r>   -9.4099    1.0000 </r>
       <r>   -3.5725    0.1674 </r>
       <r>   -3.5724    0.1667 </r>
       <r>   -3.5724    0.1666 </r>
       <r>   -0.0513    0.0000 </r>
       <r>    0.2472    0.0000 </r>
       <r>    0.3249    0.0000 </r>
       <r>    0.3671    0.0000 </r>
      </set>
      <set comment="kpoint 175">
       <r>   -9.4099    1.0000 </r>
       <r>   -3.5725    0.1675 </r>
       <r>   -3.5724    0.1667 </r>
       <r>   -3.5724    0.1666 </r>
       <r>   -0.0383    0.0000 </r>
       <r>    0.2725    0.0000 </r>
       <r>    0.3265    0.0000 </r>
       <r>    0.3619    0.0000 </r>
      </set>
     </set>
    </set>
   </array>
  </eigenvalues>
  <separator name="orbital magnetization" >
   <v name="MAGDIPOLOUT">      0.00000000      0.00000000      0.00000000</v>
  </separator>
  <dos>
   <i name="efermi">     -3.60660430 </i>
   <total>
    <array>
     <dimension dim="1">gridpoints</dimension>
     <dimension dim="2">spin</dimension>
     <field>energy</field>
     <field>total</field>
     <field>integrated</field>
     <set>
      <set comment="spin 1">
       <r>    -9.9107     0.0000     0.0000 </r>
       <r>    -9.8740     0.0000     0.0000 </r>
       <r>    -9.8372     0.0000     0.0000 </r>
       <r>    -9.8005     0.0000     0.0000 </r>
       <r>    -9.7638     0.0000     0.0000 </r>
       <r>    -9.7271     0.0000     0.0000 </r>
       <r>    -9.6904     0.0000     0.0000 </r>
       <r>    -9.6536     0.0000     0.0000 </r>
       <r>    -9.6169     0.0000     0.0000 </r>
       <r>    -9.5802     0.0000     0.0000 </r>
       <r>    -9.5435     0.0043     0.0002 </r>
       <r>    -9.5068     0.1639     0.0062 </r>
       <r>    -9.4700     2.2610     0.0892 </r>
       <r>    -9.4333    11.4217     0.5086 </r>
       <r>    -9.3966    21.3960     1.2943 </r>
       <r>    -9.3599    14.9507     1.8433 </r>
       <r>    -9.3232     3.8836     1.9859 </r>
       <r>    -9.2864     0.3708     1.9995 </r>
       <r>    -9.2497     0.0128     2.0000 </r>
       <r>    -9.2130     0.0002     2.0000 </r>
       <r>    -9.1763     0.0000     2.0000 </r>
       <r>    -9.1395     0.0000     2.0000 </r>
       <r>    -9.1028     0.0000     2.0000 </r>
       <r>    -9.0661     0.0000     2.0000 </r>
       <r>    -9.0294     0.0000     2.0000 </r>
       <r>    -8.9927     0.0000     2.0000 </r>
       <r>    -8.9559     0.0000     2.0000 </r>
       <r>    -8.9192     0.0000     2.0000 </r>
       <r>    -8.8825     0.0000     2.0000 </r>
       <r>    -8.8458     0.0000     2.0000 </r>
       <r>    -8.8091     0.0000     2.0000 </r>
       <r>    -8.7723     0.0000     2.0000 </r>
       <r>    -8.7356     0.0000     2.0000 </r>
       <r>    -8.6989     0.0000     2.0000 </r>
       <r>    -8.6622     0.0000     2.0000 </r>
       <r>    -8.6255     0.0000     2.0000 </r>
       <r>    -8.5887     0.0000     2.0000 </r>
       <r>    -8.5520     0.0000     2.0000 </r>
       <r>    -8.5153     0.0000     2.0000 </r>
       <r>    -8.4786     0.0000     2.0000 </r>
       <r>    -8.4419     0.0000     2.0000 </r>
       <r>    -8.4051     0.0000     2.0000 </r>
       <r>    -8.3684     0.0000     2.0000 </r>
       <r>    -8.3317     0.0000     2.0000 </r>
       <r>    -8.2950     0.0000     2.0000 </r>
       <r>    -8.2582     0.0000     2.0000 </r>
       <r>    -8.2215     0.0000     2.0000 </r>
       <r>    -8.1848     0.0000     2.0000 </r>
       <r>    -8.1481     0.0000     2.0000 </r>
       <r>    -8.1114     0.0000     2.0000 </r>
       <r>    -8.0746     0.0000     2.0000 </r>
       <r>    -8.0379     0.0000     2.0000 </r>
       <r>    -8.0012     0.0000     2.0000 </r>
       <r>    -7.9645     0.0000     2.0000 </r>
       <r>    -7.9278     0.0000     2.0000 </r>
       <r>    -7.8910     0.0000     2.0000 </r>
       <r>    -7.8543     0.0000     2.0000 </r>
       <r>    -7.8176     0.0000     2.0000 </r>
       <r>    -7.7809     0.0000     2.0000 </r>
       <r>    -7.7442     0.0000     2.0000 </r>
       <r>    -7.7074     0.0000     2.0000 </r>
       <r>    -7.6707     0.0000     2.0000 </r>
       <r>    -7.6340     0.0000     2.0000 </r>
       <r>    -7.5973     0.0000     2.0000 </r>
       <r>    -7.5606     0.0000     2.0000 </r>
       <r>    -7.5238     0.0000     2.0000 </r>
       <r>    -7.4871     0.0000     2.0000 </r>
       <r>    -7.4504     0.0000     2.0000 </r>
       <r>    -7.4137     0.0000     2.0000 </r>
       <r>    -7.3769     0.0000     2.0000 </r>
       <r>    -7.3402     0.0000     2.0000 </r>
       <r>    -7.3035     0.0000     2.0000 </r>
       <r>    -7.2668     0.0000     2.0000 </r>
       <r>    -7.2301     0.0000     2.0000 </r>
       <r>    -7.1933     0.0000     2.0000 </r>
       <r>    -7.1566     0.0000     2.0000 </r>
       <r>    -7.1199     0.0000     2.0000 </r>
       <r>    -7.0832     0.0000     2.0000 </r>
       <r>    -7.0465     0.0000     2.0000 </r>
       <r>    -7.0097     0.0000     2.0000 </r>
       <r>    -6.9730     0.0000     2.0000 </r>
       <r>    -6.9363     0.0000     2.0000 </r>
       <r>    -6.8996     0.0000     2.0000 </r>
       <r>    -6.8629     0.0000     2.0000 </r>
       <r>    -6.8261     0.0000     2.0000 </r>
       <r>    -6.7894     0.0000     2.0000 </r>
       <r>    -6.7527     0.0000     2.0000 </r>
       <r>    -6.7160     0.0000     2.0000 </r>
       <r>    -6.6793     0.0000     2.0000 </r>
       <r>    -6.6425     0.0000     2.0000 </r>
       <r>    -6.6058     0.0000     2.0000 </r>
       <r>    -6.5691     0.0000     2.0000 </r>
       <r>    -6.5324     0.0000     2.0000 </r>
       <r>    -6.4956     0.0000     2.0000 </r>
       <r>    -6.4589     0.0000     2.0000 </r>
       <r>    -6.4222     0.0000     2.0000 </r>
       <r>    -6.3855     0.0000     2.0000 </r>
       <r>    -6.3488     0.0000     2.0000 </r>
       <r>    -6.3120     0.0000     2.0000 </r>
       <r>    -6.2753     0.0000     2.0000 </r>
       <r>    -6.2386     0.0000     2.0000 </r>
       <r>    -6.2019     0.0000     2.0000 </r>
       <r>    -6.1652     0.0000     2.0000 </r>
       <r>    -6.1284     0.0000     2.0000 </r>
       <r>    -6.0917     0.0000     2.0000 </r>
       <r>    -6.0550     0.0000     2.0000 </r>
       <r>    -6.0183     0.0000     2.0000 </r>
       <r>    -5.9816     0.0000     2.0000 </r>
       <r>    -5.9448     0.0000     2.0000 </r>
       <r>    -5.9081     0.0000     2.0000 </r>
       <r>    -5.8714     0.0000     2.0000 </r>
       <r>    -5.8347     0.0000     2.0000 </r>
       <r>    -5.7980     0.0000     2.0000 </r>
       <r>    -5.7612     0.0000     2.0000 </r>
       <r>    -5.7245     0.0000     2.0000 </r>
       <r>    -5.6878     0.0000     2.0000 </r>
       <r>    -5.6511     0.0000     2.0000 </r>
       <r>    -5.6143     0.0000     2.0000 </r>
       <r>    -5.5776     0.0000     2.0000 </r>
       <r>    -5.5409     0.0000     2.0000 </r>
       <r>    -5.5042     0.0000     2.0000 </r>
       <r>    -5.4675     0.0000     2.0000 </r>
       <r>    -5.4307     0.0000     2.0000 </r>
       <r>    -5.3940     0.0000     2.0000 </r>
       <r>    -5.3573     0.0000     2.0000 </r>
       <r>    -5.3206     0.0000     2.0000 </r>
       <r>    -5.2839     0.0000     2.0000 </r>
       <r>    -5.2471     0.0000     2.0000 </r>
       <r>    -5.2104     0.0000     2.0000 </r>
       <r>    -5.1737     0.0000     2.0000 </r>
       <r>    -5.1370     0.0000     2.0000 </r>
       <r>    -5.1003     0.0000     2.0000 </r>
       <r>    -5.0635     0.0000     2.0000 </r>
       <r>    -5.0268     0.0000     2.0000 </r>
       <r>    -4.9901     0.0000     2.0000 </r>
       <r>    -4.9534     0.0000     2.0000 </r>
       <r>    -4.9167     0.0000     2.0000 </r>
       <r>    -4.8799     0.0000     2.0000 </r>
       <r>    -4.8432     0.0000     2.0000 </r>
       <r>    -4.8065     0.0000     2.0000 </r>
       <r>    -4.7698     0.0000     2.0000 </r>
       <r>    -4.7330     0.0000     2.0000 </r>
       <r>    -4.6963     0.0000     2.0000 </r>
       <r>    -4.6596     0.0000     2.0000 </r>
       <r>    -4.6229     0.0000     2.0000 </r>
       <r>    -4.5862     0.0000     2.0000 </r>
       <r>    -4.5494     0.0000     2.0000 </r>
       <r>    -4.5127     0.0000     2.0000 </r>
       <r>    -4.4760     0.0000     2.0000 </r>
       <r>    -4.4393     0.0000     2.0000 </r>
       <r>    -4.4026     0.0000     2.0000 </r>
       <r>    -4.3658     0.0000     2.0000 </r>
       <r>    -4.3291     0.0000     2.0000 </r>
       <r>    -4.2924     0.0000     2.0000 </r>
       <r>    -4.2557     0.0000     2.0000 </r>
       <r>    -4.2190     0.0000     2.0000 </r>
       <r>    -4.1822     0.0000     2.0000 </r>
       <r>    -4.1455     0.0000     2.0000 </r>
       <r>    -4.1088     0.0000     2.0000 </r>
       <r>    -4.0721     0.0000     2.0000 </r>
       <r>    -4.0354     0.0000     2.0000 </r>
       <r>    -3.9986     0.0000     2.0000 </r>
       <r>    -3.9619     0.0000     2.0000 </r>
       <r>    -3.9252     0.0000     2.0000 </r>
       <r>    -3.8885     0.0000     2.0000 </r>
       <r>    -3.8517     0.0000     2.0000 </r>
       <r>    -3.8150     0.0000     2.0000 </r>
       <r>    -3.7783     0.0000     2.0000 </r>
       <r>    -3.7416     0.0001     2.0000 </r>
       <r>    -3.7049     0.0145     2.0005 </r>
       <r>    -3.6681     0.5384     2.0203 </r>
       <r>    -3.6314     7.2122     2.2851 </r>
       <r>    -3.5947    35.3892     3.5847 </r>
       <r>    -3.5580    64.4128     5.9500 </r>
       <r>    -3.5213    43.7340     7.5559 </r>
       <r>    -3.4845    11.0358     7.9612 </r>
       <r>    -3.4478     1.0232     7.9987 </r>
       <r>    -3.4111     0.0343     8.0000 </r>
       <r>    -3.3744     0.0004     8.0000 </r>
       <r>    -3.3377     0.0000     8.0000 </r>
       <r>    -3.3009     0.0000     8.0000 </r>
       <r>    -3.2642     0.0000     8.0000 </r>
       <r>    -3.2275     0.0000     8.0000 </r>
       <r>    -3.1908     0.0000     8.0000 </r>
       <r>    -3.1541     0.0000     8.0000 </r>
       <r>    -3.1173     0.0000     8.0000 </r>
       <r>    -3.0806     0.0000     8.0000 </r>
       <r>    -3.0439     0.0000     8.0000 </r>
       <r>    -3.0072     0.0000     8.0000 </r>
       <r>    -2.9704     0.0000     8.0000 </r>
       <r>    -2.9337     0.0000     8.0000 </r>
       <r>    -2.8970     0.0000     8.0000 </r>
       <r>    -2.8603     0.0000     8.0000 </r>
       <r>    -2.8236     0.0000     8.0000 </r>
       <r>    -2.7868     0.0000     8.0000 </r>
       <r>    -2.7501     0.0000     8.0000 </r>
       <r>    -2.7134     0.0000     8.0000 </r>
       <r>    -2.6767     0.0000     8.0000 </r>
       <r>    -2.6400     0.0000     8.0000 </r>
       <r>    -2.6032     0.0000     8.0000 </r>
       <r>    -2.5665     0.0000     8.0000 </r>
       <r>    -2.5298     0.0000     8.0000 </r>
       <r>    -2.4931     0.0000     8.0000 </r>
       <r>    -2.4564     0.0000     8.0000 </r>
       <r>    -2.4196     0.0000     8.0000 </r>
       <r>    -2.3829     0.0000     8.0000 </r>
       <r>    -2.3462     0.0000     8.0000 </r>
       <r>    -2.3095     0.0000     8.0000 </r>
       <r>    -2.2728     0.0000     8.0000 </r>
       <r>    -2.2360     0.0000     8.0000 </r>
       <r>    -2.1993     0.0000     8.0000 </r>
       <r>    -2.1626     0.0000     8.0000 </r>
       <r>    -2.1259     0.0000     8.0000 </r>
       <r>    -2.0891     0.0000     8.0000 </r>
       <r>    -2.0524     0.0000     8.0000 </r>
       <r>    -2.0157     0.0000     8.0000 </r>
       <r>    -1.9790     0.0000     8.0000 </r>
       <r>    -1.9423     0.0000     8.0000 </r>
       <r>    -1.9055     0.0000     8.0000 </r>
       <r>    -1.8688     0.0000     8.0000 </r>
       <r>    -1.8321     0.0000     8.0000 </r>
       <r>    -1.7954     0.0000     8.0000 </r>
       <r>    -1.7587     0.0000     8.0000 </r>
       <r>    -1.7219     0.0000     8.0000 </r>
       <r>    -1.6852     0.0000     8.0000 </r>
       <r>    -1.6485     0.0000     8.0000 </r>
       <r>    -1.6118     0.0000     8.0000 </r>
       <r>    -1.5751     0.0000     8.0000 </r>
       <r>    -1.5383     0.0000     8.0000 </r>
       <r>    -1.5016     0.0000     8.0000 </r>
       <r>    -1.4649     0.0000     8.0000 </r>
       <r>    -1.4282     0.0000     8.0000 </r>
       <r>    -1.3915     0.0000     8.0000 </r>
       <r>    -1.3547     0.0000     8.0000 </r>
       <r>    -1.3180     0.0000     8.0000 </r>
       <r>    -1.2813     0.0000     8.0000 </r>
       <r>    -1.2446     0.0000     8.0000 </r>
       <r>    -1.2078     0.0000     8.0000 </r>
       <r>    -1.1711     0.0000     8.0000 </r>
       <r>    -1.1344     0.0000     8.0000 </r>
       <r>    -1.0977     0.0000     8.0000 </r>
       <r>    -1.0610     0.0000     8.0000 </r>
       <r>    -1.0242     0.0000     8.0000 </r>
       <r>    -0.9875     0.0000     8.0000 </r>
       <r>    -0.9508     0.0000     8.0000 </r>
       <r>    -0.9141     0.0000     8.0000 </r>
       <r>    -0.8774     0.0000     8.0000 </r>
       <r>    -0.8406     0.0000     8.0000 </r>
       <r>    -0.8039     0.0000     8.0000 </r>
       <r>    -0.7672     0.0000     8.0000 </r>
       <r>    -0.7305     0.0000     8.0000 </r>
       <r>    -0.6938     0.0000     8.0000 </r>
       <r>    -0.6570     0.0000     8.0000 </r>
       <r>    -0.6203     0.0000     8.0000 </r>
       <r>    -0.5836     0.0000     8.0000 </r>
       <r>    -0.5469     0.0000     8.0000 </r>
       <r>    -0.5102     0.0000     8.0000 </r>
       <r>    -0.4734     0.0000     8.0000 </r>
       <r>    -0.4367     0.0000     8.0000 </r>
       <r>    -0.4000     0.0000     8.0000 </r>
       <r>    -0.3633     0.0025     8.0001 </r>
       <r>    -0.3265     0.0609     8.0023 </r>
       <r>    -0.2898     0.6186     8.0250 </r>
       <r>    -0.2531     2.8909     8.1312 </r>
       <r>    -0.2164     7.0197     8.3890 </r>
       <r>    -0.1797    10.3143     8.7677 </r>
       <r>    -0.1429    10.8376     9.1657 </r>
       <r>    -0.1062     9.6282     9.5192 </r>
       <r>    -0.0695     7.3886     9.7906 </r>
       <r>    -0.0328     4.1050     9.9413 </r>
       <r>     0.0039     1.4000     9.9927 </r>
       <r>     0.0407     0.6260    10.0157 </r>
       <r>     0.0774     1.8189    10.0825 </r>
       <r>     0.1141     4.8098    10.2591 </r>
       <r>     0.1508     8.8727    10.5849 </r>
       <r>     0.1875    12.6088    11.0479 </r>
       <r>     0.2243    14.9602    11.5973 </r>
       <r>     0.2610    15.7320    12.1750 </r>
       <r>     0.2977    15.7582    12.7536 </r>
       <r>     0.3344    15.9253    13.3384 </r>
       <r>     0.3712    15.9798    13.9252 </r>
       <r>     0.4079    15.2701    14.4859 </r>
       <r>     0.4446    13.7803    14.9920 </r>
       <r>     0.4813    11.5733    15.4169 </r>
       <r>     0.5180     8.0880    15.7139 </r>
       <r>     0.5548     4.5375    15.8806 </r>
       <r>     0.5915     2.1585    15.9598 </r>
       <r>     0.6282     0.8479    15.9910 </r>
       <r>     0.6649     0.2169    15.9989 </r>
       <r>     0.7016     0.0279    15.9999 </r>
       <r>     0.7384     0.0016    16.0000 </r>
       <r>     0.7751     0.0000    16.0000 </r>
       <r>     0.8118     0.0000    16.0000 </r>
       <r>     0.8485     0.0000    16.0000 </r>
       <r>     0.8852     0.0000    16.0000 </r>
       <r>     0.9220     0.0000    16.0000 </r>
       <r>     0.9587     0.0000    16.0000 </r>
       <r>     0.9954     0.0000    16.0000 </r>
       <r>     1.0321     0.0000    16.0000 </r>
       <r>     1.0688     0.0000    16.0000 </r>
       <r>     1.1056     0.0000    16.0000 </r>
      </set>
     </set>
    </array>
   </total>
  </dos>
 </calculation>
 <structure name="finalpos" >
  <crystal>
   <varray name="basis" >
    <v>      15.00000000       0.00000000       0.00000000 </v>
    <v>       0.00000000      12.50000000       0.00000000 </v>
    <v>       0.00000000       0.00000000      18.00000000 </v>
   </varray>
   <i name="volume">   3375.00000000 </i>
   <varray name="rec_basis" >
    <v>       0.06666667       0.00000000       0.00000000 </v>
    <v>       0.00000000       0.08000000       0.00000000 </v>
    <v>       0.00000000       0.00000000       0.05555556 </v>
   </varray>
  </crystal>
  <varray name="positions" >
   <v>       0.52123000       0.54500000       0.63796000 </v>
  </varray>
 </structure>
</modeling>
