 running    8 mpi-ranks, with    1 threads/rank, on    1 nodes
 distrk:  each k-point on    8 cores,    1 groups
 distr:  one band on    1 cores,    8 groups
 vasp.6.4.3 19Mar24 (build May 31 2024 16:31:43) complex                        
  
 POSCAR found type information on POSCAR B 
 POSCAR found :  1 types and       1 ions
 Reading from existing POTCAR
 scaLAPACK will be used
 Reading from existing POTCAR
 LDA part: xc-table for (Slater+PW92), standard interpolation
 POSCAR, INCAR and KPOINTS ok, starting setup
 FFT: planning ... GRIDC
 FFT: planning ... GRID_SOFT
 FFT: planning ... GRID
 WAVECAR not read
 entering main loop
       N       E                     dE             d eps       ncg     rms          rms(c)
DAV:   1     0.652500013220E+01    0.65250E+01   -0.30890E+02  3752   0.798E+01
DAV:   2     0.355973664675E+00   -0.61690E+01   -0.61314E+01  5376   0.159E+01
DAV:   3    -0.378535569957E-01   -0.39383E+00   -0.36305E+00  3400   0.474E+00
DAV:   4    -0.572396947480E-01   -0.19386E-01   -0.12366E-01  2800   0.752E-01
DAV:   5    -0.580807248615E-01   -0.84103E-03   -0.82093E-03  3696   0.175E-01    0.179E-02
DAV:   6    -0.581135713849E-01   -0.32847E-04   -0.30688E-04  4072   0.391E-02    0.101E-02
DAV:   7    -0.581297200144E-01   -0.16149E-04   -0.81643E-06  3512   0.162E-02    0.226E-03
DAV:   8    -0.581319089196E-01   -0.21889E-05   -0.45032E-07  4344   0.405E-03    0.256E-04
DAV:   9    -0.581319328029E-01   -0.23883E-07   -0.13768E-08  4440   0.377E-04
   1 F= -.58131933E-01 E0= -.31631262E-01  d E =-.530013E-01
