       N       E                     dE             d eps       ncg     rms          rms(c)
DAV:   1     0.595038810868E+02    0.59504E+02   -0.17700E+04   192   0.726E+02
DAV:   2    -0.924734718110E+02   -0.15198E+03   -0.14223E+03   240   0.152E+02
DAV:   3    -0.973835799203E+02   -0.49101E+01   -0.48861E+01   288   0.247E+01
DAV:   4    -0.974115374909E+02   -0.27958E-01   -0.27957E-01   216   0.213E+00
DAV:   5    -0.974118345239E+02   -0.29703E-03   -0.29703E-03   288   0.212E-01    0.123E+01
DAV:   6    -0.919411969075E+02    0.54706E+01   -0.40573E+00   288   0.667E+00    0.686E+00
DAV:   7    -0.902414903595E+02    0.16997E+01   -0.32940E+00   288   0.591E+00    0.170E+00
DAV:   8    -0.902501103720E+02   -0.86200E-02   -0.24792E-01   192   0.173E+00    0.646E-01
DAV:   9    -0.902636937561E+02   -0.13583E-01   -0.17148E-02   288   0.433E-01    0.213E-01
DAV:  10    -0.902684996548E+02   -0.48059E-02   -0.23832E-03   192   0.171E-01    0.625E-02
DAV:  11    -0.902695647666E+02   -0.10651E-02   -0.66978E-04   288   0.908E-02    0.306E-02
DAV:  12    -0.902696328502E+02   -0.68084E-04   -0.46948E-05   216   0.262E-02    0.957E-03
DAV:  13    -0.902696481505E+02   -0.15300E-04   -0.12661E-05   288   0.140E-02    0.183E-03
DAV:  14    -0.902696486544E+02   -0.50385E-06   -0.50156E-07   168   0.292E-03
   1 F= -.90269649E+02 E0= -.90267272E+02  d E =-.475270E-02
