  14  14   1   0
  0.1021318E+02  0.4044058E-09  0.5700971E-09  0.6201871E-09  0.5000000E-15
  1.000000000000000E-004
  CAR 
 BS                                      
     18.01907572    -14.16197225  301      2.12309967      1.00000000
    -14.162  0.0000E+00  0.0000E+00
    -14.055  0.0000E+00  0.0000E+00
    -13.947  0.0000E+00  0.0000E+00
    -13.840  0.0000E+00  0.0000E+00
    -13.733  0.0000E+00  0.0000E+00
    -13.626  0.0000E+00  0.0000E+00
    -13.518  0.0000E+00  0.0000E+00
    -13.411  0.0000E+00  0.0000E+00
    -13.304  0.0000E+00  0.0000E+00
    -13.197  0.3444E-12  0.3695E-13
    -13.089  0.6513E-08  0.6987E-09
    -12.982  0.1354E-04  0.1453E-05
    -12.875  0.3310E-02  0.3565E-03
    -12.767  0.1117E+00  0.1234E-01
    -12.660  0.7735E+00  0.9531E-01
    -12.553  0.1947E+01  0.3041E+00
    -12.446  0.2727E+01  0.5967E+00
    -12.338  0.3100E+01  0.9292E+00
    -12.231  0.3180E+01  0.1270E+01
    -12.124  0.4872E+01  0.1793E+01
    -12.017  0.3580E+01  0.2177E+01
    -11.909  0.4326E+01  0.2641E+01
    -11.802  0.3336E+01  0.2999E+01
    -11.695  0.1485E+01  0.3158E+01
    -11.587  0.1219E+01  0.3289E+01
    -11.480  0.1600E+01  0.3460E+01
    -11.373  0.2253E+01  0.3702E+01
    -11.266  0.1926E+01  0.3909E+01
    -11.158  0.7782E+00  0.3992E+01
    -11.051  0.7165E-01  0.4000E+01
    -10.944  0.9933E-03  0.4000E+01
    -10.837  0.1716E-05  0.4000E+01
    -10.729  0.3364E-09  0.4000E+01
    -10.622  0.7146E-14  0.4000E+01
    -10.515  0.0000E+00  0.4000E+01
    -10.408  0.0000E+00  0.4000E+01
    -10.300  0.0000E+00  0.4000E+01
    -10.193  0.0000E+00  0.4000E+01
    -10.086  0.0000E+00  0.4000E+01
     -9.978  0.0000E+00  0.4000E+01
     -9.871  0.0000E+00  0.4000E+01
     -9.764  0.0000E+00  0.4000E+01
     -9.657  0.0000E+00  0.4000E+01
     -9.549  0.0000E+00  0.4000E+01
     -9.442  0.0000E+00  0.4000E+01
     -9.335  0.1668E-12  0.4000E+01
     -9.228  0.3919E-08  0.4000E+01
     -9.120  0.1011E-04  0.4000E+01
     -9.013  0.3042E-02  0.4000E+01
     -8.906  0.1231E+00  0.4014E+01
     -8.798  0.9382E+00  0.4114E+01
     -8.691  0.2486E+01  0.4381E+01
     -8.584  0.3760E+01  0.4784E+01
     -8.477  0.5090E+01  0.5330E+01
     -8.369  0.7071E+01  0.6089E+01
     -8.262  0.5510E+01  0.6680E+01
     -8.155  0.4217E+01  0.7132E+01
     -8.048  0.2882E+01  0.7441E+01
     -7.940  0.1993E+01  0.7655E+01
     -7.833  0.1651E+01  0.7832E+01
     -7.726  0.1222E+01  0.7963E+01
     -7.618  0.3263E+00  0.7998E+01
     -7.511  0.1599E-01  0.8000E+01
     -7.404  0.1080E-03  0.8000E+01
     -7.297  0.1267E-05  0.8000E+01
     -7.189  0.6607E-03  0.8000E+01
     -7.082  0.4576E-01  0.8005E+01
     -6.975  0.4652E+00  0.8055E+01
     -6.868  0.9585E+00  0.8158E+01
     -6.760  0.8458E+00  0.8248E+01
     -6.653  0.9452E+00  0.8350E+01
     -6.546  0.9958E+00  0.8457E+01
     -6.439  0.1282E+01  0.8594E+01
     -6.331  0.1629E+01  0.8769E+01
     -6.224  0.1923E+01  0.8975E+01
     -6.117  0.2855E+01  0.9282E+01
     -6.009  0.3411E+01  0.9647E+01
     -5.902  0.5570E+01  0.1024E+02
     -5.795  0.6915E+01  0.1099E+02
     -5.688  0.4719E+01  0.1149E+02
     -5.580  0.3225E+01  0.1184E+02
     -5.473  0.3049E+01  0.1217E+02
     -5.366  0.3065E+01  0.1249E+02
     -5.259  0.2844E+01  0.1280E+02
     -5.151  0.2460E+01  0.1306E+02
     -5.044  0.2442E+01  0.1333E+02
     -4.937  0.2449E+01  0.1359E+02
     -4.829  0.1812E+01  0.1378E+02
     -4.722  0.1746E+01  0.1397E+02
     -4.615  0.2555E+01  0.1424E+02
     -4.508  0.2653E+01  0.1453E+02
     -4.400  0.2462E+01  0.1479E+02
     -4.293  0.2545E+01  0.1507E+02
     -4.186  0.2731E+01  0.1536E+02
     -4.079  0.2594E+01  0.1564E+02
     -3.971  0.2086E+01  0.1586E+02
     -3.864  0.2006E+01  0.1608E+02
     -3.757  0.2320E+01  0.1632E+02
     -3.649  0.3792E+01  0.1673E+02
     -3.542  0.5925E+01  0.1737E+02
     -3.435  0.5863E+01  0.1800E+02
     -3.328  0.3540E+01  0.1838E+02
     -3.220  0.3953E+01  0.1880E+02
     -3.113  0.4769E+01  0.1931E+02
     -3.006  0.2378E+01  0.1957E+02
     -2.899  0.1753E+01  0.1975E+02
     -2.791  0.2541E+01  0.2003E+02
     -2.684  0.2850E+01  0.2033E+02
     -2.577  0.2222E+01  0.2057E+02
     -2.470  0.2079E+01  0.2079E+02
     -2.362  0.5357E+01  0.2137E+02
     -2.255  0.5187E+01  0.2193E+02
     -2.148  0.3686E+01  0.2232E+02
     -2.040  0.4859E+01  0.2284E+02
     -1.933  0.5738E+01  0.2346E+02
     -1.826  0.6746E+01  0.2418E+02
     -1.719  0.6546E+01  0.2488E+02
     -1.611  0.6591E+01  0.2559E+02
     -1.504  0.6570E+01  0.2630E+02
     -1.397  0.5092E+01  0.2684E+02
     -1.290  0.3461E+01  0.2721E+02
     -1.182  0.3504E+01  0.2759E+02
     -1.075  0.4320E+01  0.2805E+02
     -0.968  0.4433E+01  0.2853E+02
     -0.860  0.2780E+01  0.2883E+02
     -0.753  0.3473E+01  0.2920E+02
     -0.646  0.5009E+01  0.2974E+02
     -0.539  0.4562E+01  0.3022E+02
     -0.431  0.4640E+01  0.3072E+02
     -0.324  0.5232E+01  0.3128E+02
     -0.217  0.6001E+01  0.3193E+02
     -0.110  0.6171E+01  0.3259E+02
     -0.002  0.5643E+01  0.3319E+02
      0.105  0.6624E+01  0.3391E+02
      0.212  0.9239E+01  0.3490E+02
      0.319  0.8882E+01  0.3585E+02
      0.427  0.5607E+01  0.3645E+02
      0.534  0.2868E+01  0.3676E+02
      0.641  0.2862E+01  0.3706E+02
      0.749  0.3342E+01  0.3742E+02
      0.856  0.3593E+01  0.3781E+02
      0.963  0.4287E+01  0.3827E+02
      1.070  0.6105E+01  0.3892E+02
      1.178  0.4990E+01  0.3946E+02
      1.285  0.2549E+01  0.3973E+02
      1.392  0.2181E+01  0.3997E+02
      1.499  0.1962E+01  0.4018E+02
      1.607  0.2172E+01  0.4041E+02
      1.714  0.2729E+01  0.4070E+02
      1.821  0.3256E+01  0.4105E+02
      1.929  0.3429E+01  0.4142E+02
      2.036  0.3365E+01  0.4178E+02
      2.143  0.2427E+01  0.4204E+02
      2.250  0.2091E+01  0.4227E+02
      2.358  0.2780E+01  0.4256E+02
      2.465  0.3493E+01  0.4294E+02
      2.572  0.2772E+01  0.4324E+02
      2.679  0.1156E+01  0.4336E+02
      2.787  0.2868E+00  0.4339E+02
      2.894  0.1794E+00  0.4341E+02
      3.001  0.1694E+00  0.4343E+02
      3.109  0.1738E+00  0.4345E+02
      3.216  0.1667E+00  0.4346E+02
      3.323  0.1756E+00  0.4348E+02
      3.430  0.1748E+00  0.4350E+02
      3.538  0.1818E+00  0.4352E+02
      3.645  0.1925E+00  0.4354E+02
      3.752  0.2026E+00  0.4356E+02
      3.859  0.2297E+00  0.4359E+02
      3.967  0.3741E+00  0.4363E+02
      4.074  0.1151E+01  0.4375E+02
      4.181  0.1752E+01  0.4394E+02
      4.288  0.1234E+01  0.4407E+02
      4.396  0.1066E+01  0.4419E+02
      4.503  0.1218E+01  0.4432E+02
      4.610  0.1541E+01  0.4448E+02
      4.718  0.1292E+01  0.4462E+02
      4.825  0.1054E+01  0.4473E+02
      4.932  0.1078E+01  0.4485E+02
      5.039  0.9173E+00  0.4495E+02
      5.147  0.8711E+00  0.4504E+02
      5.254  0.1149E+01  0.4516E+02
      5.361  0.1510E+01  0.4533E+02
      5.468  0.1602E+01  0.4550E+02
      5.576  0.2068E+01  0.4572E+02
      5.683  0.2622E+01  0.4600E+02
      5.790  0.3452E+01  0.4637E+02
      5.898  0.4542E+01  0.4686E+02
      6.005  0.5354E+01  0.4743E+02
      6.112  0.3668E+01  0.4783E+02
      6.219  0.2796E+01  0.4813E+02
      6.327  0.2764E+01  0.4842E+02
      6.434  0.2675E+01  0.4871E+02
      6.541  0.3642E+01  0.4910E+02
      6.648  0.3204E+01  0.4944E+02
      6.756  0.3246E+01  0.4979E+02
      6.863  0.4962E+01  0.5032E+02
      6.970  0.7627E+01  0.5114E+02
      7.078  0.8002E+01  0.5200E+02
      7.185  0.6600E+01  0.5271E+02
      7.292  0.4940E+01  0.5324E+02
      7.399  0.4456E+01  0.5372E+02
      7.507  0.4293E+01  0.5418E+02
      7.614  0.3828E+01  0.5459E+02
      7.721  0.3254E+01  0.5494E+02
      7.828  0.3342E+01  0.5530E+02
      7.936  0.3272E+01  0.5565E+02
      8.043  0.2890E+01  0.5596E+02
      8.150  0.3273E+01  0.5631E+02
      8.257  0.3900E+01  0.5673E+02
      8.365  0.5650E+01  0.5733E+02
      8.472  0.5948E+01  0.5797E+02
      8.579  0.4435E+01  0.5845E+02
      8.687  0.2915E+01  0.5876E+02
      8.794  0.2456E+01  0.5902E+02
      8.901  0.2660E+01  0.5931E+02
      9.008  0.2809E+01  0.5961E+02
      9.116  0.2903E+01  0.5992E+02
      9.223  0.2471E+01  0.6019E+02
      9.330  0.2940E+01  0.6050E+02
      9.437  0.5226E+01  0.6106E+02
      9.545  0.6506E+01  0.6176E+02
      9.652  0.5817E+01  0.6238E+02
      9.759  0.4564E+01  0.6287E+02
      9.867  0.4969E+01  0.6341E+02
      9.974  0.4449E+01  0.6388E+02
     10.081  0.3808E+01  0.6429E+02
     10.188  0.4081E+01  0.6473E+02
     10.296  0.4156E+01  0.6518E+02
     10.403  0.3824E+01  0.6559E+02
     10.510  0.3733E+01  0.6599E+02
     10.617  0.4639E+01  0.6648E+02
     10.725  0.4572E+01  0.6697E+02
     10.832  0.3986E+01  0.6740E+02
     10.939  0.4479E+01  0.6788E+02
     11.047  0.5462E+01  0.6847E+02
     11.154  0.5206E+01  0.6903E+02
     11.261  0.5532E+01  0.6962E+02
     11.368  0.4841E+01  0.7014E+02
     11.476  0.4640E+01  0.7064E+02
     11.583  0.5427E+01  0.7122E+02
     11.690  0.5828E+01  0.7184E+02
     11.797  0.6891E+01  0.7258E+02
     11.905  0.8591E+01  0.7350E+02
     12.012  0.9238E+01  0.7450E+02
     12.119  0.8519E+01  0.7541E+02
     12.226  0.6809E+01  0.7614E+02
     12.334  0.5438E+01  0.7672E+02
     12.441  0.5466E+01  0.7731E+02
     12.548  0.6250E+01  0.7798E+02
     12.656  0.6360E+01  0.7866E+02
     12.763  0.5475E+01  0.7925E+02
     12.870  0.4466E+01  0.7973E+02
     12.977  0.4759E+01  0.8024E+02
     13.085  0.7156E+01  0.8101E+02
     13.192  0.8330E+01  0.8190E+02
     13.299  0.5705E+01  0.8251E+02
     13.406  0.5080E+01  0.8306E+02
     13.514  0.4880E+01  0.8358E+02
     13.621  0.3955E+01  0.8401E+02
     13.728  0.4091E+01  0.8444E+02
     13.836  0.4451E+01  0.8492E+02
     13.943  0.5311E+01  0.8549E+02
     14.050  0.7552E+01  0.8630E+02
     14.157  0.6710E+01  0.8702E+02
     14.265  0.4353E+01  0.8749E+02
     14.372  0.4106E+01  0.8793E+02
     14.479  0.4181E+01  0.8838E+02
     14.586  0.3983E+01  0.8880E+02
     14.694  0.4636E+01  0.8930E+02
     14.801  0.4933E+01  0.8983E+02
     14.908  0.4507E+01  0.9031E+02
     15.016  0.4897E+01  0.9084E+02
     15.123  0.4923E+01  0.9137E+02
     15.230  0.4606E+01  0.9186E+02
     15.337  0.6234E+01  0.9253E+02
     15.445  0.7473E+01  0.9333E+02
     15.552  0.6561E+01  0.9404E+02
     15.659  0.4702E+01  0.9454E+02
     15.766  0.2927E+01  0.9485E+02
     15.874  0.2296E+01  0.9510E+02
     15.981  0.2129E+01  0.9533E+02
     16.088  0.1656E+01  0.9551E+02
     16.195  0.1184E+01  0.9563E+02
     16.303  0.1392E+01  0.9578E+02
     16.410  0.1369E+01  0.9593E+02
     16.517  0.4484E+00  0.9598E+02
     16.625  0.1709E+00  0.9600E+02
     16.732  0.3586E-01  0.9600E+02
     16.839  0.1220E-02  0.9600E+02
     16.946  0.5317E-05  0.9600E+02
     17.054  0.2663E-08  0.9600E+02
     17.161  0.1452E-12  0.9600E+02
     17.268  0.0000E+00  0.9600E+02
     17.375  0.0000E+00  0.9600E+02
     17.483  0.0000E+00  0.9600E+02
     17.590  0.0000E+00  0.9600E+02
     17.697  0.0000E+00  0.9600E+02
     17.805  0.0000E+00  0.9600E+02
     17.912  0.0000E+00  0.9600E+02
     18.019  0.0000E+00  0.9600E+02
     18.01907572    -14.16197225  301      2.12309967      1.00000000
    -14.162  0.0000E+00  0.0000E+00  0.0000E+00  0.0000E+00  0.0000E+00  0.0000E+00  0.0000E+00  0.0000E+00  0.0000E+00
    -14.055  0.0000E+00  0.0000E+00  0.0000E+00  0.0000E+00  0.0000E+00  0.0000E+00  0.0000E+00  0.0000E+00  0.0000E+00
    -13.947  0.0000E+00  0.0000E+00  0.0000E+00  0.0000E+00  0.0000E+00  0.0000E+00  0.0000E+00  0.0000E+00  0.0000E+00
    -13.840  0.0000E+00  0.0000E+00  0.0000E+00  0.0000E+00  0.0000E+00  0.0000E+00  0.0000E+00  0.0000E+00  0.0000E+00
    -13.733  0.0000E+00  0.0000E+00  0.0000E+00  0.0000E+00  0.0000E+00  0.0000E+00  0.0000E+00  0.0000E+00  0.0000E+00
    -13.626  0.0000E+00  0.0000E+00  0.0000E+00  0.0000E+00  0.0000E+00  0.0000E+00  0.0000E+00  0.0000E+00  0.0000E+00
    -13.518  0.0000E+00  0.0000E+00  0.0000E+00  0.0000E+00  0.0000E+00  0.0000E+00  0.0000E+00  0.0000E+00  0.0000E+00
    -13.411  0.0000E+00  0.0000E+00  0.0000E+00  0.0000E+00  0.0000E+00  0.0000E+00  0.0000E+00  0.0000E+00  0.0000E+00
    -13.304  0.0000E+00  0.0000E+00  0.0000E+00  0.0000E+00  0.0000E+00  0.0000E+00  0.0000E+00  0.0000E+00  0.0000E+00
    -13.197  0.2175E-13  0.1676E-14  0.4456E-15  0.4354E-18  0.0000E+00  0.0000E+00  0.0000E+00  0.0000E+00  0.0000E+00
    -13.089  0.4115E-09  0.3169E-10  0.8430E-11  0.1033E-13  0.0000E+00  0.0000E+00  0.0000E+00  0.0000E+00  0.0000E+00
    -12.982  0.8558E-06  0.6593E-07  0.1755E-07  0.2829E-10  0.0000E+00  0.0000E+00  0.0000E+00  0.0000E+00  0.0000E+00
    -12.875  0.2094E-03  0.1614E-04  0.4307E-05  0.9726E-08  0.0000E+00  0.0000E+00  0.0000E+00  0.0000E+00  0.0000E+00
    -12.767  0.7088E-02  0.5475E-03  0.1487E-03  0.4929E-06  0.0000E+00  0.0000E+00  0.0000E+00  0.0000E+00  0.0000E+00
    -12.660  0.4962E-01  0.3874E-02  0.1122E-02  0.4996E-05  0.0000E+00  0.0000E+00  0.0000E+00  0.0000E+00  0.0000E+00
    -12.553  0.1267E+00  0.1017E-01  0.3145E-02  0.1588E-04  0.0000E+00  0.0000E+00  0.0000E+00  0.0000E+00  0.0000E+00
    -12.446  0.1794E+00  0.1499E-01  0.4554E-02  0.2189E-04  0.0000E+00  0.0000E+00  0.0000E+00  0.0000E+00  0.0000E+00
    -12.338  0.2049E+00  0.1829E-01  0.5379E-02  0.1368E-04  0.0000E+00  0.0000E+00  0.0000E+00  0.0000E+00  0.0000E+00
    -12.231  0.1866E+00  0.2766E-01  0.6135E-02  0.5112E-05  0.0000E+00  0.0000E+00  0.0000E+00  0.0000E+00  0.0000E+00
    -12.124  0.2545E+00  0.5326E-01  0.9884E-02  0.1112E-04  0.0000E+00  0.0000E+00  0.0000E+00  0.0000E+00  0.0000E+00
    -12.017  0.1862E+00  0.4101E-01  0.7480E-02  0.1963E-04  0.0000E+00  0.0000E+00  0.0000E+00  0.0000E+00  0.0000E+00
    -11.909  0.2288E+00  0.5206E-01  0.9635E-02  0.1307E-04  0.0000E+00  0.0000E+00  0.0000E+00  0.0000E+00  0.0000E+00
    -11.802  0.1683E+00  0.4217E-01  0.8175E-02  0.2819E-05  0.0000E+00  0.0000E+00  0.0000E+00  0.0000E+00  0.0000E+00
    -11.695  0.5077E-01  0.2345E-01  0.5273E-02  0.1682E-05  0.0000E+00  0.0000E+00  0.0000E+00  0.0000E+00  0.0000E+00
    -11.587  0.3293E-01  0.2151E-01  0.4980E-02  0.5371E-05  0.0000E+00  0.0000E+00  0.0000E+00  0.0000E+00  0.0000E+00
    -11.480  0.4346E-01  0.3056E-01  0.6568E-02  0.8196E-05  0.0000E+00  0.0000E+00  0.0000E+00  0.0000E+00  0.0000E+00
    -11.373  0.6213E-01  0.4459E-01  0.9296E-02  0.8185E-05  0.0000E+00  0.0000E+00  0.0000E+00  0.0000E+00  0.0000E+00
    -11.266  0.5384E-01  0.3995E-01  0.7850E-02  0.4976E-05  0.0000E+00  0.0000E+00  0.0000E+00  0.0000E+00  0.0000E+00
    -11.158  0.2188E-01  0.1661E-01  0.3131E-02  0.1203E-05  0.0000E+00  0.0000E+00  0.0000E+00  0.0000E+00  0.0000E+00
    -11.051  0.2017E-02  0.1542E-02  0.2870E-03  0.6837E-07  0.0000E+00  0.0000E+00  0.0000E+00  0.0000E+00  0.0000E+00
    -10.944  0.2797E-04  0.2146E-04  0.3971E-05  0.6436E-09  0.0000E+00  0.0000E+00  0.0000E+00  0.0000E+00  0.0000E+00
    -10.837  0.4832E-07  0.3712E-07  0.6852E-08  0.8176E-12  0.0000E+00  0.0000E+00  0.0000E+00  0.0000E+00  0.0000E+00
    -10.729  0.9475E-11  0.7286E-11  0.1343E-11  0.1249E-15  0.0000E+00  0.0000E+00  0.0000E+00  0.0000E+00  0.0000E+00
    -10.622  0.2013E-15  0.1549E-15  0.2851E-16  0.2112E-20  0.0000E+00  0.0000E+00  0.0000E+00  0.0000E+00  0.0000E+00
    -10.515  0.0000E+00  0.0000E+00  0.0000E+00  0.0000E+00  0.0000E+00  0.0000E+00  0.0000E+00  0.0000E+00  0.0000E+00
    -10.408  0.0000E+00  0.0000E+00  0.0000E+00  0.0000E+00  0.0000E+00  0.0000E+00  0.0000E+00  0.0000E+00  0.0000E+00
    -10.300  0.0000E+00  0.0000E+00  0.0000E+00  0.0000E+00  0.0000E+00  0.0000E+00  0.0000E+00  0.0000E+00  0.0000E+00
    -10.193  0.0000E+00  0.0000E+00  0.0000E+00  0.0000E+00  0.0000E+00  0.0000E+00  0.0000E+00  0.0000E+00  0.0000E+00
    -10.086  0.0000E+00  0.0000E+00  0.0000E+00  0.0000E+00  0.0000E+00  0.0000E+00  0.0000E+00  0.0000E+00  0.0000E+00
     -9.978  0.0000E+00  0.0000E+00  0.0000E+00  0.0000E+00  0.0000E+00  0.0000E+00  0.0000E+00  0.0000E+00  0.0000E+00
     -9.871  0.0000E+00  0.0000E+00  0.0000E+00  0.0000E+00  0.0000E+00  0.0000E+00  0.0000E+00  0.0000E+00  0.0000E+00
     -9.764  0.0000E+00  0.0000E+00  0.0000E+00  0.0000E+00  0.0000E+00  0.0000E+00  0.0000E+00  0.0000E+00  0.0000E+00
     -9.657  0.0000E+00  0.0000E+00  0.0000E+00  0.0000E+00  0.0000E+00  0.0000E+00  0.0000E+00  0.0000E+00  0.0000E+00
     -9.549  0.0000E+00  0.0000E+00  0.0000E+00  0.0000E+00  0.0000E+00  0.0000E+00  0.0000E+00  0.0000E+00  0.0000E+00
     -9.442  0.0000E+00  0.0000E+00  0.0000E+00  0.0000E+00  0.0000E+00  0.0000E+00  0.0000E+00  0.0000E+00  0.0000E+00
     -9.335  0.1169E-13  0.7587E-16  0.3478E-14  0.2540E-27  0.0000E+00  0.0000E+00  0.0000E+00  0.0000E+00  0.0000E+00
     -9.228  0.2748E-09  0.1807E-11  0.8176E-10  0.2574E-21  0.0000E+00  0.0000E+00  0.0000E+00  0.0000E+00  0.0000E+00
     -9.120  0.7090E-06  0.4762E-08  0.2109E-06  0.2772E-16  0.0000E+00  0.0000E+00  0.0000E+00  0.0000E+00  0.0000E+00
     -9.013  0.2134E-03  0.1502E-05  0.6360E-04  0.3199E-12  0.0000E+00  0.0000E+00  0.0000E+00  0.0000E+00  0.0000E+00
     -8.906  0.8575E-02  0.6944E-04  0.2591E-02  0.4411E-09  0.0000E+00  0.0000E+00  0.0000E+00  0.0000E+00  0.0000E+00
     -8.798  0.6368E-01  0.7309E-03  0.2023E-01  0.8170E-07  0.0000E+00  0.0000E+00  0.0000E+00  0.0000E+00  0.0000E+00
     -8.691  0.1726E+00  0.2521E-02  0.5473E-01  0.2486E-05  0.0000E+00  0.0000E+00  0.0000E+00  0.0000E+00  0.0000E+00
     -8.584  0.3021E+00  0.3475E-02  0.8156E-01  0.1636E-04  0.0000E+00  0.0000E+00  0.0000E+00  0.0000E+00  0.0000E+00
     -8.477  0.4260E+00  0.5238E-02  0.1177E+00  0.3012E-04  0.0000E+00  0.0000E+00  0.0000E+00  0.0000E+00  0.0000E+00
     -8.369  0.5218E+00  0.1051E-01  0.1857E+00  0.2065E-04  0.0000E+00  0.0000E+00  0.0000E+00  0.0000E+00  0.0000E+00
     -8.262  0.3040E+00  0.1266E-01  0.1701E+00  0.1426E-04  0.0000E+00  0.0000E+00  0.0000E+00  0.0000E+00  0.0000E+00
     -8.155  0.1824E+00  0.1278E-01  0.1463E+00  0.1025E-04  0.0000E+00  0.0000E+00  0.0000E+00  0.0000E+00  0.0000E+00
     -8.048  0.8903E-01  0.1109E-01  0.1090E+00  0.2833E-05  0.0000E+00  0.0000E+00  0.0000E+00  0.0000E+00  0.0000E+00
     -7.940  0.3361E-01  0.1125E-01  0.8034E-01  0.2392E-06  0.0000E+00  0.0000E+00  0.0000E+00  0.0000E+00  0.0000E+00
     -7.833  0.2417E-01  0.1121E-01  0.6798E-01  0.4994E-07  0.0000E+00  0.0000E+00  0.0000E+00  0.0000E+00  0.0000E+00
     -7.726  0.1785E-01  0.8915E-02  0.5127E-01  0.6369E-07  0.0000E+00  0.0000E+00  0.0000E+00  0.0000E+00  0.0000E+00
     -7.618  0.4773E-02  0.2427E-02  0.1378E-01  0.1700E-07  0.0000E+00  0.0000E+00  0.0000E+00  0.0000E+00  0.0000E+00
     -7.511  0.2341E-03  0.1196E-03  0.6772E-03  0.7077E-09  0.0000E+00  0.0000E+00  0.0000E+00  0.0000E+00  0.0000E+00
     -7.404  0.1582E-05  0.8100E-06  0.4579E-05  0.3949E-11  0.0000E+00  0.0000E+00  0.0000E+00  0.0000E+00  0.0000E+00
     -7.297  0.1513E-08  0.4000E-07  0.9336E-08  0.3180E-12  0.0000E+00  0.0000E+00  0.0000E+00  0.0000E+00  0.0000E+00
     -7.189  0.1525E-06  0.2204E-04  0.3160E-05  0.2549E-09  0.0000E+00  0.0000E+00  0.0000E+00  0.0000E+00  0.0000E+00
     -7.082  0.1318E-04  0.1527E-02  0.2191E-03  0.2881E-07  0.0000E+00  0.0000E+00  0.0000E+00  0.0000E+00  0.0000E+00
     -6.975  0.1934E-03  0.1555E-01  0.2235E-02  0.5804E-06  0.0000E+00  0.0000E+00  0.0000E+00  0.0000E+00  0.0000E+00
     -6.868  0.7223E-03  0.3218E-01  0.4650E-02  0.3113E-05  0.0000E+00  0.0000E+00  0.0000E+00  0.0000E+00  0.0000E+00
     -6.760  0.1233E-02  0.2878E-01  0.4243E-02  0.7418E-05  0.0000E+00  0.0000E+00  0.0000E+00  0.0000E+00  0.0000E+00
     -6.653  0.1652E-02  0.3262E-01  0.5025E-02  0.7602E-04  0.0000E+00  0.0000E+00  0.0000E+00  0.0000E+00  0.0000E+00
     -6.546  0.1915E-02  0.3042E-01  0.4910E-02  0.2768E-02  0.0000E+00  0.0000E+00  0.0000E+00  0.0000E+00  0.0000E+00
     -6.439  0.1985E-02  0.1709E-01  0.2979E-02  0.1786E-01  0.0000E+00  0.0000E+00  0.0000E+00  0.0000E+00  0.0000E+00
     -6.331  0.2623E-02  0.1286E-01  0.2602E-02  0.2858E-01  0.0000E+00  0.0000E+00  0.0000E+00  0.0000E+00  0.0000E+00
     -6.224  0.1386E-01  0.1618E-01  0.7821E-02  0.2685E-01  0.0000E+00  0.0000E+00  0.0000E+00  0.0000E+00  0.0000E+00
     -6.117  0.4674E-01  0.3203E-01  0.2442E-01  0.1665E-01  0.0000E+00  0.0000E+00  0.0000E+00  0.0000E+00  0.0000E+00
     -6.009  0.5172E-01  0.4944E-01  0.3040E-01  0.1456E-01  0.0000E+00  0.0000E+00  0.0000E+00  0.0000E+00  0.0000E+00
     -5.902  0.5296E-01  0.5515E-01  0.3214E-01  0.5225E-01  0.0000E+00  0.0000E+00  0.0000E+00  0.0000E+00  0.0000E+00
     -5.795  0.8815E-01  0.6218E-01  0.4742E-01  0.5973E-01  0.0000E+00  0.0000E+00  0.0000E+00  0.0000E+00  0.0000E+00
     -5.688  0.9209E-01  0.5466E-01  0.4958E-01  0.2080E-01  0.0000E+00  0.0000E+00  0.0000E+00  0.0000E+00  0.0000E+00
     -5.580  0.6204E-01  0.2455E-01  0.3375E-01  0.1684E-01  0.0000E+00  0.0000E+00  0.0000E+00  0.0000E+00  0.0000E+00
     -5.473  0.5977E-01  0.1649E-01  0.3231E-01  0.1802E-01  0.0000E+00  0.0000E+00  0.0000E+00  0.0000E+00  0.0000E+00
     -5.366  0.6758E-01  0.1675E-01  0.3643E-01  0.1681E-01  0.0000E+00  0.0000E+00  0.0000E+00  0.0000E+00  0.0000E+00
     -5.259  0.5083E-01  0.1605E-01  0.3159E-01  0.1839E-01  0.0000E+00  0.0000E+00  0.0000E+00  0.0000E+00  0.0000E+00
     -5.151  0.4510E-01  0.1676E-01  0.3031E-01  0.1573E-01  0.0000E+00  0.0000E+00  0.0000E+00  0.0000E+00  0.0000E+00
     -5.044  0.6580E-01  0.2127E-01  0.3813E-01  0.1135E-01  0.0000E+00  0.0000E+00  0.0000E+00  0.0000E+00  0.0000E+00
     -4.937  0.7209E-01  0.2352E-01  0.4033E-01  0.1019E-01  0.0000E+00  0.0000E+00  0.0000E+00  0.0000E+00  0.0000E+00
     -4.829  0.5300E-01  0.1523E-01  0.2896E-01  0.9785E-02  0.0000E+00  0.0000E+00  0.0000E+00  0.0000E+00  0.0000E+00
     -4.722  0.4986E-01  0.1217E-01  0.3636E-01  0.9495E-02  0.0000E+00  0.0000E+00  0.0000E+00  0.0000E+00  0.0000E+00
     -4.615  0.5505E-01  0.2099E-01  0.7873E-01  0.9553E-02  0.0000E+00  0.0000E+00  0.0000E+00  0.0000E+00  0.0000E+00
     -4.508  0.3230E-01  0.3037E-01  0.9128E-01  0.9235E-02  0.0000E+00  0.0000E+00  0.0000E+00  0.0000E+00  0.0000E+00
     -4.400  0.1531E-01  0.3487E-01  0.8184E-01  0.9082E-02  0.0000E+00  0.0000E+00  0.0000E+00  0.0000E+00  0.0000E+00
     -4.293  0.1593E-01  0.4886E-01  0.6628E-01  0.9323E-02  0.0000E+00  0.0000E+00  0.0000E+00  0.0000E+00  0.0000E+00
     -4.186  0.1920E-01  0.6521E-01  0.4767E-01  0.1074E-01  0.0000E+00  0.0000E+00  0.0000E+00  0.0000E+00  0.0000E+00
     -4.079  0.1955E-01  0.6248E-01  0.4457E-01  0.1228E-01  0.0000E+00  0.0000E+00  0.0000E+00  0.0000E+00  0.0000E+00
     -3.971  0.1884E-01  0.4633E-01  0.4551E-01  0.1418E-01  0.0000E+00  0.0000E+00  0.0000E+00  0.0000E+00  0.0000E+00
     -3.864  0.2003E-01  0.4590E-01  0.4905E-01  0.1473E-01  0.0000E+00  0.0000E+00  0.0000E+00  0.0000E+00  0.0000E+00
     -3.757  0.2416E-01  0.5792E-01  0.5736E-01  0.1966E-01  0.0000E+00  0.0000E+00  0.0000E+00  0.0000E+00  0.0000E+00
     -3.649  0.4260E-01  0.1081E+00  0.8989E-01  0.3907E-01  0.0000E+00  0.0000E+00  0.0000E+00  0.0000E+00  0.0000E+00
     -3.542  0.7943E-01  0.1890E+00  0.1607E+00  0.3543E-01  0.0000E+00  0.0000E+00  0.0000E+00  0.0000E+00  0.0000E+00
     -3.435  0.8597E-01  0.1730E+00  0.1652E+00  0.2544E-01  0.0000E+00  0.0000E+00  0.0000E+00  0.0000E+00  0.0000E+00
     -3.328  0.4721E-01  0.6372E-01  0.9921E-01  0.2753E-01  0.0000E+00  0.0000E+00  0.0000E+00  0.0000E+00  0.0000E+00
     -3.220  0.3513E-01  0.1751E-01  0.8188E-01  0.7577E-01  0.0000E+00  0.0000E+00  0.0000E+00  0.0000E+00  0.0000E+00
     -3.113  0.2924E-01  0.1155E-01  0.4197E-01  0.1340E+00  0.0000E+00  0.0000E+00  0.0000E+00  0.0000E+00  0.0000E+00
     -3.006  0.1825E-01  0.9650E-02  0.6599E-02  0.6426E-01  0.0000E+00  0.0000E+00  0.0000E+00  0.0000E+00  0.0000E+00
     -2.899  0.3823E-01  0.1525E-01  0.4706E-02  0.1809E-01  0.0000E+00  0.0000E+00  0.0000E+00  0.0000E+00  0.0000E+00
     -2.791  0.6303E-01  0.2282E-01  0.7038E-02  0.1747E-01  0.0000E+00  0.0000E+00  0.0000E+00  0.0000E+00  0.0000E+00
     -2.684  0.5803E-01  0.2562E-01  0.6465E-02  0.2251E-01  0.0000E+00  0.0000E+00  0.0000E+00  0.0000E+00  0.0000E+00
     -2.577  0.3511E-01  0.2745E-01  0.4681E-02  0.1345E-01  0.0000E+00  0.0000E+00  0.0000E+00  0.0000E+00  0.0000E+00
     -2.470  0.2040E-01  0.2387E-01  0.4278E-02  0.2481E-02  0.0000E+00  0.0000E+00  0.0000E+00  0.0000E+00  0.0000E+00
     -2.362  0.3478E-01  0.3665E-01  0.9179E-02  0.2053E-02  0.0000E+00  0.0000E+00  0.0000E+00  0.0000E+00  0.0000E+00
     -2.255  0.2715E-01  0.4648E-01  0.9601E-02  0.8970E-02  0.0000E+00  0.0000E+00  0.0000E+00  0.0000E+00  0.0000E+00
     -2.148  0.2173E-01  0.6059E-01  0.1049E-01  0.3119E-01  0.0000E+00  0.0000E+00  0.0000E+00  0.0000E+00  0.0000E+00
     -2.040  0.4670E-01  0.1104E+00  0.2618E-01  0.3591E-01  0.0000E+00  0.0000E+00  0.0000E+00  0.0000E+00  0.0000E+00
     -1.933  0.5702E-01  0.1361E+00  0.5286E-01  0.3090E-01  0.0000E+00  0.0000E+00  0.0000E+00  0.0000E+00  0.0000E+00
     -1.826  0.5348E-01  0.1415E+00  0.7932E-01  0.5109E-01  0.0000E+00  0.0000E+00  0.0000E+00  0.0000E+00  0.0000E+00
     -1.719  0.3220E-01  0.1040E+00  0.7570E-01  0.9552E-01  0.0000E+00  0.0000E+00  0.0000E+00  0.0000E+00  0.0000E+00
     -1.611  0.1867E-01  0.1119E+00  0.8448E-01  0.1055E+00  0.0000E+00  0.0000E+00  0.0000E+00  0.0000E+00  0.0000E+00
     -1.504  0.1542E-01  0.1746E+00  0.8000E-01  0.8498E-01  0.0000E+00  0.0000E+00  0.0000E+00  0.0000E+00  0.0000E+00
     -1.397  0.1003E-01  0.1472E+00  0.4928E-01  0.7319E-01  0.0000E+00  0.0000E+00  0.0000E+00  0.0000E+00  0.0000E+00
     -1.290  0.7957E-02  0.7985E-01  0.2701E-01  0.5317E-01  0.0000E+00  0.0000E+00  0.0000E+00  0.0000E+00  0.0000E+00
     -1.182  0.1308E-01  0.6633E-01  0.2142E-01  0.4528E-01  0.0000E+00  0.0000E+00  0.0000E+00  0.0000E+00  0.0000E+00
     -1.075  0.1878E-01  0.1284E+00  0.2129E-01  0.4241E-01  0.0000E+00  0.0000E+00  0.0000E+00  0.0000E+00  0.0000E+00
     -0.968  0.1818E-01  0.1857E+00  0.2321E-01  0.3935E-01  0.0000E+00  0.0000E+00  0.0000E+00  0.0000E+00  0.0000E+00
     -0.860  0.1288E-01  0.5968E-01  0.1596E-01  0.4133E-01  0.0000E+00  0.0000E+00  0.0000E+00  0.0000E+00  0.0000E+00
     -0.753  0.3618E-01  0.8503E-02  0.1749E-01  0.3485E-01  0.0000E+00  0.0000E+00  0.0000E+00  0.0000E+00  0.0000E+00
     -0.646  0.6335E-01  0.6355E-02  0.2470E-01  0.2883E-01  0.0000E+00  0.0000E+00  0.0000E+00  0.0000E+00  0.0000E+00
     -0.539  0.4652E-01  0.7472E-02  0.2560E-01  0.3756E-01  0.0000E+00  0.0000E+00  0.0000E+00  0.0000E+00  0.0000E+00
     -0.431  0.2555E-01  0.9416E-02  0.2632E-01  0.5797E-01  0.0000E+00  0.0000E+00  0.0000E+00  0.0000E+00  0.0000E+00
     -0.324  0.1690E-01  0.1105E-01  0.3162E-01  0.9097E-01  0.0000E+00  0.0000E+00  0.0000E+00  0.0000E+00  0.0000E+00
     -0.217  0.1516E-01  0.1221E-01  0.4732E-01  0.1180E+00  0.0000E+00  0.0000E+00  0.0000E+00  0.0000E+00  0.0000E+00
     -0.110  0.1566E-01  0.1219E-01  0.7146E-01  0.1046E+00  0.0000E+00  0.0000E+00  0.0000E+00  0.0000E+00  0.0000E+00
     -0.002  0.1526E-01  0.1447E-01  0.6719E-01  0.9860E-01  0.0000E+00  0.0000E+00  0.0000E+00  0.0000E+00  0.0000E+00
      0.105  0.3074E-01  0.4689E-01  0.6244E-01  0.1085E+00  0.0000E+00  0.0000E+00  0.0000E+00  0.0000E+00  0.0000E+00
      0.212  0.6220E-01  0.1035E+00  0.9332E-01  0.1177E+00  0.0000E+00  0.0000E+00  0.0000E+00  0.0000E+00  0.0000E+00
      0.319  0.7162E-01  0.1108E+00  0.9518E-01  0.1196E+00  0.0000E+00  0.0000E+00  0.0000E+00  0.0000E+00  0.0000E+00
      0.427  0.4198E-01  0.6364E-01  0.4798E-01  0.8861E-01  0.0000E+00  0.0000E+00  0.0000E+00  0.0000E+00  0.0000E+00
      0.534  0.1149E-01  0.3557E-01  0.2280E-01  0.3972E-01  0.0000E+00  0.0000E+00  0.0000E+00  0.0000E+00  0.0000E+00
      0.641  0.1171E-01  0.5867E-01  0.3740E-01  0.1932E-01  0.0000E+00  0.0000E+00  0.0000E+00  0.0000E+00  0.0000E+00
      0.749  0.1243E-01  0.5337E-01  0.5483E-01  0.2227E-01  0.0000E+00  0.0000E+00  0.0000E+00  0.0000E+00  0.0000E+00
      0.856  0.1125E-01  0.3954E-01  0.6346E-01  0.3246E-01  0.0000E+00  0.0000E+00  0.0000E+00  0.0000E+00  0.0000E+00
      0.963  0.1423E-01  0.5073E-01  0.9953E-01  0.3023E-01  0.0000E+00  0.0000E+00  0.0000E+00  0.0000E+00  0.0000E+00
      1.070  0.2287E-01  0.9121E-01  0.1636E+00  0.2906E-01  0.0000E+00  0.0000E+00  0.0000E+00  0.0000E+00  0.0000E+00
      1.178  0.1839E-01  0.7727E-01  0.1221E+00  0.3013E-01  0.0000E+00  0.0000E+00  0.0000E+00  0.0000E+00  0.0000E+00
      1.285  0.4820E-02  0.1922E-01  0.2732E-01  0.3889E-01  0.0000E+00  0.0000E+00  0.0000E+00  0.0000E+00  0.0000E+00
      1.392  0.1025E-02  0.3220E-02  0.2730E-02  0.4666E-01  0.0000E+00  0.0000E+00  0.0000E+00  0.0000E+00  0.0000E+00
      1.499  0.7112E-03  0.2356E-02  0.1520E-02  0.4204E-01  0.0000E+00  0.0000E+00  0.0000E+00  0.0000E+00  0.0000E+00
      1.607  0.6425E-03  0.2527E-02  0.1607E-02  0.5195E-01  0.0000E+00  0.0000E+00  0.0000E+00  0.0000E+00  0.0000E+00
      1.714  0.5236E-03  0.2231E-02  0.1425E-02  0.6564E-01  0.0000E+00  0.0000E+00  0.0000E+00  0.0000E+00  0.0000E+00
      1.821  0.5008E-03  0.2414E-02  0.1573E-02  0.7285E-01  0.0000E+00  0.0000E+00  0.0000E+00  0.0000E+00  0.0000E+00
      1.929  0.4355E-03  0.2243E-02  0.1530E-02  0.7744E-01  0.0000E+00  0.0000E+00  0.0000E+00  0.0000E+00  0.0000E+00
      2.036  0.4073E-03  0.2231E-02  0.1609E-02  0.8085E-01  0.0000E+00  0.0000E+00  0.0000E+00  0.0000E+00  0.0000E+00
      2.143  0.4879E-03  0.2307E-02  0.1997E-02  0.6063E-01  0.0000E+00  0.0000E+00  0.0000E+00  0.0000E+00  0.0000E+00
      2.250  0.1761E-02  0.2599E-02  0.5275E-02  0.4318E-01  0.0000E+00  0.0000E+00  0.0000E+00  0.0000E+00  0.0000E+00
      2.358  0.5447E-02  0.4082E-02  0.1486E-01  0.4563E-01  0.0000E+00  0.0000E+00  0.0000E+00  0.0000E+00  0.0000E+00
      2.465  0.8434E-02  0.4619E-02  0.2239E-01  0.5716E-01  0.0000E+00  0.0000E+00  0.0000E+00  0.0000E+00  0.0000E+00
      2.572  0.5146E-02  0.3716E-02  0.1460E-01  0.5754E-01  0.0000E+00  0.0000E+00  0.0000E+00  0.0000E+00  0.0000E+00