   14   14    1    1
  0.1021318E+02  0.4044058E-09  0.5700971E-09  0.6201871E-09  0.5000000E-15
  1.000000000000000E-004
  CAR 
 BS                                      
     42    168     48
 
  0.0000000E+00  0.0000000E+00  0.0000000E+00  0.5952381E-02
      1        -12.699197   1.000000
      2        -11.517762   1.000000
      3         -8.658646   1.000000
      4         -8.365932   1.000000
      5         -6.052365   1.000000
      6         -5.090766   1.000000
      7         -4.678057   1.000000
      8         -4.374100   1.000000
      9         -3.935916   1.000000
     10         -3.524278   1.000000
     11         -2.408204   1.000000
     12         -2.225919   1.000000
     13         -2.106083   1.000000
     14         -1.062664   1.000000
     15         -0.021050   1.000000
     16          0.016137   1.000000
     17          0.040311   1.000000
     18          0.093724   1.000000
     19          0.675701   1.000000
     20          2.118477   0.526061
     21          2.152062   0.341053
     22          2.246480   0.040504
     23          5.504733   0.000000
     24          5.727162   0.000000
     25          5.737353   0.000000
     26          5.972675   0.000000
     27          6.724569   0.000000
     28          7.696039   0.000000
     29          7.719551   0.000000
     30          8.621897   0.000000
     31          8.851113   0.000000
     32          8.857794   0.000000
     33          9.052309   0.000000
     34         10.025576   0.000000
     35         11.192100   0.000000
     36         11.406908   0.000000
     37         11.520125   0.000000
     38         11.782543   0.000000
     39         11.960908   0.000000
     40         12.292981   0.000000
     41         12.923962   0.000000
     42         13.340665   0.000000
     43         13.525658   0.000000
     44         15.524589   0.000000
     45         15.583502   0.000000
     46         15.920796   0.000000
     47         16.309491   0.000000
     48         16.544459   0.000000
 
  0.2173913E-01  0.0000000E+00  0.0000000E+00  0.5952381E-02
      1        -12.698039   1.000000
      2        -11.516715   1.000000
      3         -8.657738   1.000000
      4         -8.364807   1.000000
      5         -6.051099   1.000000
      6         -5.089004   1.000000
      7         -4.677014   1.000000
      8         -4.376027   1.000000
      9         -3.965439   1.000000
     10         -3.523031   1.000000
     11         -2.403893   1.000000
     12         -2.372508   1.000000
     13         -1.922923   1.000000
     14         -1.062443   1.000000
     15         -0.051780   1.000000
     16          0.024858   1.000000
     17          0.038157   1.000000
     18          0.095592   1.000000
     19          0.681941   1.000000
     20          2.105529   0.598123
     21          2.130115   0.460486
     22          2.257210   0.028940
     23          5.516994   0.000000
     24          5.703732   0.000000
     25          5.761411   0.000000
     26          5.960772   0.000000
     27          6.739193   0.000000
     28          7.715716   0.000000
     29          7.729263   0.000000
     30          8.573244   0.000000
     31          8.857763   0.000000
     32          8.879236   0.000000
     33          9.054939   0.000000
     34         10.056213   0.000000
     35         11.204295   0.000000
     36         11.402801   0.000000
     37         11.524452   0.000000
     38         11.779998   0.000000
     39         11.965387   0.000000
     40         12.306586   0.000000
     41         12.923571   0.000000
     42         13.326268   0.000000
     43         13.509284   0.000000
     44         15.515090   0.000000
     45         15.581148   0.000000
     46         15.923913   0.000000
     47         16.301241   0.000000
     48         16.556301   0.000000
 
  0.4347826E-01  0.0000000E+00  0.0000000E+00  0.5952381E-02
      1        -12.694566   1.000000
      2        -11.513581   1.000000
      3         -8.655019   1.000000
      4         -8.361447   1.000000
      5         -6.047315   1.000000
      6         -5.083716   1.000000
      7         -4.673893   1.000000
      8         -4.383755   1.000000
      9         -4.044074   1.000000
     10         -3.519300   1.000000
     11         -2.624774   1.000000
     12         -2.273588   1.000000
     13         -1.686490   1.000000
     14         -1.061748   1.000000
     15         -0.104998   1.000000
     16         -0.017236   1.000000
     17          0.065619   1.000000
     18          0.098987   1.000000
     19          0.699037   1.000000
     20          2.067313   0.784926
     21          2.077982   0.738283
     22          2.276269   0.015150
     23          5.553345   0.000000
     24          5.671450   0.000000
     25          5.795224   0.000000
     26          5.925893   0.000000
     27          6.782251   0.000000
     28          7.758624   0.000000
     29          7.773831   0.000000
     30          8.465020   0.000000
     31          8.857654   0.000000
     32          8.931247   0.000000
     33          9.062879   0.000000
     34         10.142530   0.000000
     35         11.240070   0.000000
     36         11.390712   0.000000
     37         11.537308   0.000000
     38         11.772682   0.000000
     39         11.978914   0.000000
     40         12.347027   0.000000
     41         12.921747   0.000000
     42         13.285376   0.000000
     43         13.461800   0.000000
     44         15.486589   0.000000
     45         15.573732   0.000000
     46         15.930260   0.000000
     47         16.276909   0.000000
     48         16.498901   0.000000
 
  0.6521739E-01  0.0000000E+00  0.0000000E+00  0.5952381E-02
      1        -12.688837   1.000000
      2        -11.508404   1.000000
      3         -8.650533   1.000000
      4         -8.355894   1.000000
      5         -6.041071   1.000000
      6         -5.074974   1.000000
      7         -4.668724   1.000000
      8         -4.406302   1.000000
      9         -4.145852   1.000000
     10         -3.513154   1.000000
     11         -2.841959   1.000000
     12         -2.128976   1.000000
     13         -1.443467   1.000000
     14         -1.060643   1.000000
     15         -0.170036   1.000000
     16         -0.079728   1.000000
     17          0.088782   1.000000
     18          0.102698   1.000000
     19          0.723271   1.000000
     20          2.005753   0.951495
     21          2.006870   0.949885
     22          2.293925   0.007850
     23          5.612415   0.000000
     24          5.631172   0.000000
     25          5.837006   0.000000
     26          5.870250   0.000000
     27          6.851414   0.000000
     28          7.808101   0.000000
     29          7.867783   0.000000
     30          8.332237   0.000000
     31          8.857427   0.000000
     32          8.984469   0.000000
     33          9.076222   0.000000
     34         10.271162   0.000000
     35         11.297044   0.000000
     36         11.371627   0.000000
     37         11.558119   0.000000
     38         11.761328   0.000000
     39         12.001815   0.000000
     40         12.413277   0.000000
     41         12.916216   0.000000
     42         13.224819   0.000000
     43         13.387595   0.000000
     44         15.438898   0.000000
     45         15.560057   0.000000
     46         15.930853   0.000000
     47         16.239984   0.000000
     48         16.297101   0.000000
 
  0.8695652E-01  0.0000000E+00  0.0000000E+00  0.5952381E-02
      1        -12.680920   1.000000
      2        -11.501270   1.000000
      3         -8.644354   1.000000
      4         -8.348238   1.000000
      5         -6.032452   1.000000
      6         -5.062879   1.000000
      7         -4.661547   1.000000
      8         -4.468377   1.000000
      9         -4.230248   1.000000
     10         -3.504709   1.000000
     11         -3.053090   1.000000
     12         -1.955455   1.000000
     13         -1.196435   1.000000
     14         -1.059125   1.000000
     15         -0.245926   1.000000
     16         -0.156902   1.000000
     17          0.106907   1.000000
     18          0.108181   1.000000
     19          0.750960   1.000000
     20          1.920374   0.997928
     21          1.923731   0.997595
     22          2.308971   0.004287
     23          5.581703   0.000000
     24          5.692123   0.000000
     25          5.796877   0.000000
     26          5.886623   0.000000
     27          6.943180   0.000000
     28          7.878384   0.000000
     29          7.994086   0.000000
     30          8.189069   0.000000
     31          8.856992   0.000000
     32          9.037796   0.000000
     33          9.095143   0.000000
     34         10.427051   0.000000
     35         11.347625   0.000000
     36         11.371501   0.000000
     37         11.585058   0.000000
     38         11.748312   0.000000
     39         12.034610   0.000000
     40         12.503631   0.000000
     41         12.901545   0.000000
     42         13.156094   0.000000
     43         13.292843   0.000000
     44         15.370660   0.000000
     45         15.538279   0.000000
     46         15.912965   0.000000
     47         16.098146   0.000000
     48         16.195292   0.000000
 
  0.1086957E+00  0.0000000E+00  0.0000000E+00  0.5952381E-02
      1        -12.670935   1.000000
      2        -11.492280   1.000000
      3         -8.636587   1.000000
      4         -8.338578   1.000000
      5         -6.021583   1.000000
      6         -5.047557   1.000000
      7         -4.652447   1.000000
      8         -4.586604   1.000000
      9         -4.269633   1.000000
     10         -3.494328   1.000000
     11         -3.257109   1.000000
     12         -1.765961   1.000000
     13         -1.057219   1.000000
     14         -0.946392   1.000000
     15         -0.331773   1.000000
     16         -0.242967   1.000000
     17          0.111803   1.000000
     18          0.124855   1.000000
     19          0.779514   1.000000
     20          1.820732   0.999990
     21          1.824625   0.999988
     22          2.322005   0.002455
     23          5.523294   0.000000
     24          5.709142   0.000000
     25          5.789793   0.000000
     26          5.942322   0.000000
     27          7.053279   0.000000
     28          7.970163   0.000000
     29          8.043020   0.000000
     30          8.148695   0.000000
     31          8.856287   0.000000
     32          9.093921   0.000000
     33          9.119880   0.000000
     34         10.595323   0.000000
     35         11.323230   0.000000
     36         11.458752   0.000000
     37         11.611818   0.000000
     38         11.740541   0.000000
     39         12.077753   0.000000
     40         12.615249   0.000000
     41         12.867531   0.000000
     42         13.095754   0.000000
     43         13.184834   0.000000
     44         15.277096   0.000000
     45         15.506107   0.000000
     46         15.858807   0.000000
     47         15.887853   0.000000
     48         16.148232   0.000000
 
  0.1304348E+00  0.0000000E+00  0.0000000E+00  0.5952381E-02
      1        -12.659015   1.000000
      2        -11.481548   1.000000
      3         -8.627337   1.000000
      4         -8.327056   1.000000
      5         -6.008612   1.000000
      6         -5.029193   1.000000
      7         -4.736650   1.000000
      8         -4.641492   1.000000
      9         -4.281266   1.000000
     10         -3.488124   1.000000
     11         -3.447455   1.000000
     12         -1.571032   1.000000
     13         -1.054945   1.000000
     14         -0.694193   1.000000
     15         -0.426280   1.000000
     16         -0.331347   1.000000
     17          0.117475   1.000000
     18          0.139678   1.000000
     19          0.807442   1.000000
     20          1.710356   1.000000
     21          1.712040   1.000000
     22          2.333712   0.001448
     23          5.457011   0.000000
     24          5.610331   0.000000
     25          5.902344   0.000000
     26          6.001613   0.000000
     27          7.177015   0.000000
     28          7.898902   0.000000
     29          8.083867   0.000000
     30          8.327492   0.000000
     31          8.855287   0.000000
     32          9.150727   0.000000
     33          9.155172   0.000000
     34         10.757824   0.000000
     35         11.308952   0.000000
     36         11.553765   0.000000
     37         11.622312   0.000000
     38         11.754855   0.000000
     39         12.131211   0.000000
     40         12.741459   0.000000
     41         12.806470   0.000000
     42         13.057298   0.000000
     43         13.074085   0.000000
     44         15.146952   0.000000
     45         15.461550   0.000000
     46         15.693735   0.000000
     47         15.747021   0.000000
     48         16.104697   0.000000
 
  0.1521739E+00  0.0000000E+00  0.0000000E+00  0.5952381E-02
      1        -12.645348   1.000000
      2        -11.469248   1.000000
      3         -8.616765   1.000000
      4         -8.313842   1.000000
      5         -5.993731   1.000000
      6         -5.008029   1.000000
      7         -4.897368   1.000000
      8         -4.628808   1.000000
      9         -4.281846   1.000000
     10         -3.646243   1.000000
     11         -3.463678   1.000000
     12         -1.382516   1.000000
     13         -1.052387   1.000000
     14         -0.527871   1.000000
     15         -0.440874   1.000000
     16         -0.412450   1.000000
     17          0.123848   1.000000
     18          0.153242   1.000000
     19          0.833964   1.000000
     20          1.589397   1.000000
     21          1.591796   1.000000
     22          2.344669   0.000864
     23          5.384315   0.000000
     24          5.503520   0.000000
     25          6.026352   0.000000
     26          6.061896   0.000000
     27          7.309545   0.000000
     28          7.760015   0.000000
     29          8.219341   0.000000
     30          8.525965   0.000000
     31          8.854250   0.000000
     32          9.187968   0.000000
     33          9.222850   0.000000
     34         10.883585   0.000000
     35         11.329838   0.000000
     36         11.607349   0.000000
     37         11.652014   0.000000
     38         11.801213   0.000000
     39         12.193660   0.000000
     40         12.726701   0.000000
     41         12.838951   0.000000
     42         13.006803   0.000000
     43         13.037350   0.000000
     44         14.967347   0.000000
     45         15.403953   0.000000
     46         15.541586   0.000000
     47         15.567490   0.000000
     48         16.068927   0.000000
 
  0.1739130E+00  0.0000000E+00  0.0000000E+00  0.5952381E-02
      1        -12.630134   1.000000
      2        -11.455565   1.000000
      3         -8.605041   1.000000
      4         -8.299143   1.000000
      5         -5.977164   1.000000
      6         -5.059779   1.000000
      7         -4.984319   1.000000
      8         -4.614531   1.000000
      9         -4.277410   1.000000
     10         -3.826616   1.000000
     11         -3.447589   1.000000
     12         -1.219716   1.000000
     13         -1.049556   1.000000
     14         -0.634742   1.000000
     15         -0.468211   1.000000
     16         -0.187455   1.000000
     17          0.130921   1.000000
     18          0.165986   1.000000
     19          0.858799   1.000000
     20          1.459969   1.000000
     21          1.467696   1.000000
     22          2.355213   0.000514
     23          5.306857   0.000000
     24          5.391511   0.000000
     25          6.120966   0.000000
     26          6.158382   0.000000
     27          7.446210   0.000000
     28          7.628770   0.000000
     29          8.375707   0.000000
     30          8.736216   0.000000
     31          8.857004   0.000000
     32          9.231887   0.000000
     33          9.297394   0.000000
     34         10.936458   0.000000
     35         11.416816   0.000000
     36         11.577188   0.000000
     37         11.750497   0.000000
     38         11.870186   0.000000
     39         12.261727   0.000000
     40         12.643557   0.000000
     41         12.780017   0.000000
     42         13.024853   0.000000
     43         13.112898   0.000000
     44         14.741359   0.000000
     45         15.334878   0.000000
     46         15.336372   0.000000
     47         15.440617   0.000000
     48         16.042601   0.000000
 
  0.1956522E+00  0.0000000E+00  0.0000000E+00  0.5952381E-02
      1        -12.613607   1.000000
      2        -11.440714   1.000000
      3         -8.592359   1.000000
      4         -8.283174   1.000000
      5         -5.959163   1.000000
      6         -5.219640   1.000000
      7         -4.958385   1.000000
      8         -4.598820   1.000000
      9         -4.270194   1.000000
     10         -3.998793   1.000000
     11         -3.429409   1.000000
     12         -1.116611   1.000000
     13         -1.046510   1.000000
     14         -0.745030   1.000000
     15         -0.465504   1.000000
     16          0.064738   1.000000
     17          0.138706   1.000000
     18          0.178184   1.000000
     19          0.881905   1.000000
     20          1.326677   1.000000
     21          1.340700   1.000000
     22          2.365545   0.000303
     23          5.226353   0.000000
     24          5.276836   0.000000
     25          6.177211   0.000000
     26          6.294999   0.000000
     27          7.507022   0.000000
     28          7.582658   0.000000
     29          8.551152   0.000000
     30          8.836254   0.000000
     31          8.981543   0.000000
     32          9.282658   0.000000
     33          9.378305   0.000000
     34         10.925750   0.000000
     35         11.539378   0.000000
     36         11.554703   0.000000
     37         11.848337   0.000000
     38         11.954935   0.000000
     39         12.329621   0.000000
     40         12.569025   0.000000
     41         12.672022   0.000000
     42         13.011828   0.000000
     43         13.286656   0.000000
     44         14.487212   0.000000
     45         15.082191   0.000000
     46         15.257850   0.000000
     47         15.384246   0.000000
     48         16.026169   0.000000
 
  0.2173913E+00  0.0000000E+00  0.0000000E+00  0.5952381E-02
      1        -12.596029   1.000000
      2        -11.424929   1.000000
      3         -8.578935   1.000000
      4         -8.266193   1.000000
      5         -5.940007   1.000000
      6         -5.374470   1.000000
      7         -4.930593   1.000000
      8         -4.581855   1.000000
      9         -4.261218   1.000000
     10         -4.161939   1.000000
     11         -3.409808   1.000000
     12         -1.099884   1.000000
     13         -1.043286   1.000000
     14         -0.856891   1.000000
     15         -0.378492   1.000000
     16          0.147258   1.000000
     17          0.190010   1.000000
     18          0.313942   1.000000
     19          0.903394   1.000000
     20          1.192132   1.000000
     21          1.213705   1.000000
     22          2.375743   0.000177
     23          5.144462   0.000000
     24          5.161730   0.000000
     25          6.229596   0.000000
     26          6.432932   0.000000
     27          7.396268   0.000000
     28          7.715002   0.000000
     29          8.742920   0.000000
     30          8.835111   0.000000
     31          9.214725   0.000000
     32          9.340248   0.000000
     33          9.464095   0.000000
     34         10.884975   0.000000
     35         11.496985   0.000000
     36         11.702118   0.000000
     37         11.946577   0.000000
     38         12.052883   0.000000
     39         12.389835   0.000000
     40         12.512284   0.000000
     41         12.566061   0.000000
     42         12.993497   0.000000
     43         13.478428   0.000000
     44         14.221704   0.000000
     45         14.829852   0.000000
     46         15.177563   0.000000
     47         15.366456   0.000000
     48         16.017596   0.000000
 
  0.2391304E+00  0.0000000E+00  0.0000000E+00  0.5952381E-02
      1        -12.577691   1.000000
      2        -11.408482   1.000000
      3         -8.565001   1.000000
      4         -8.248487   1.000000
      5         -5.920017   1.000000
      6         -5.522611   1.000000
      7         -4.901370   1.000000
      8         -4.563870   1.000000
      9         -4.315537   1.000000
     10         -4.251062   1.000000
     11         -3.389157   1.000000
     12         -1.148055   1.000000
     13         -1.039979   1.000000
     14         -0.968547   1.000000
     15         -0.229839   1.000000
     16          0.156976   1.000000
     17          0.201490   1.000000
     18          0.556683   1.000000
     19          0.923358   1.000000
     20          1.058614   1.000000
     21          1.090858   1.000000
     22          2.385817   0.000101
     23          5.048164   0.000000
     24          5.062705   0.000000
     25          6.277592   0.000000
     26          6.569105   0.000000
     27          7.297738   0.000000
     28          7.840008   0.000000
     29          8.828657   0.000000
     30          8.947184   0.000000
     31          9.404255   0.000000
     32          9.456459   0.000000
     33          9.552009   0.000000
     34         10.833207   0.000000
     35         11.451504   0.000000
     36         11.829748   0.000000
     37         12.047278   0.000000
     38         12.162491   0.000000
     39         12.434863   0.000000
     40         12.471426   0.000000
     41         12.479276   0.000000
     42         12.969063   0.000000
     43         13.680246   0.000000
     44         13.956050   0.000000
     45         14.599303   0.000000
     46         15.099040   0.000000
     47         15.385040   0.000000
     48         16.013858   0.000000
 
  0.2608696E+00  0.0000000E+00  0.0000000E+00  0.5952381E-02
      1        -12.558916   1.000000
      2        -11.391662   1.000000
      3         -8.550815   1.000000
      4         -8.230354   1.000000
      5         -5.899525   1.000000
      6         -5.662801   1.000000
      7         -4.871184   1.000000
      8         -4.545120   1.000000
      9         -4.459132   1.000000
     10         -4.240123   1.000000
     11         -3.367804   1.000000
     12         -1.226067   1.000000
     13         -1.078322   1.000000
     14         -1.036613   1.000000
     15         -0.057574   1.000000
     16          0.169896   1.000000
     17          0.212623   1.000000
     18          0.775097   1.000000
     19          0.928190   1.000000
     20          0.942018   1.000000
     21          0.990302   1.000000
     22          2.395768   0.000058
     23          4.937910   0.000000
     24          4.982562   0.000000
     25          6.321056   0.000000
     26          6.700803   0.000000
     27          7.212503   0.000000
     28          7.955233   0.000000
     29          8.819619   0.000000
     30          9.159015   0.000000
     31          9.473864   0.000000
     32          9.637848   0.000000
     33          9.699625   0.000000
     34         10.780119   0.000000
     35         11.403996   0.000000
     36         11.920232   0.000000
     37         12.152119   0.000000
     38         12.282113   0.000000
     39         12.393938   0.000000
     40         12.459501   0.000000
     41         12.462869   0.000000
     42         12.948105   0.000000
     43         13.698516   0.000000
     44         13.888048   0.000000
     45         14.407300   0.000000
     46         15.027307   0.000000
     47         15.438141   0.000000
     48         16.016622   0.000000
 
  0.2826087E+00  0.0000000E+00  0.0000000E+00  0.5952381E-02
      1        -12.540047   1.000000
      2        -11.374778   1.000000
      3         -8.536636   1.000000
      4         -8.212127   1.000000
      5         -5.878895   1.000000
      6         -5.794036   1.000000
      7         -4.840560   1.000000
      8         -4.592278   1.000000
      9         -4.525908   1.000000
     10         -4.228726   1.000000
     11         -3.346120   1.000000
     12         -1.314642   1.000000
     13         -1.184631   1.000000
     14         -1.033266   1.000000
     15          0.100181   1.000000
     16          0.203754   1.000000
     17          0.223337   1.000000
     18          0.802666   1.000000
     19          0.805339   1.000000
     20          0.959550   1.000000
     21          1.075754   1.000000
     22          2.405491   0.000033
     23          4.832468   0.000000
     24          4.905271   0.000000
     25          6.360049   0.000000
     26          6.825272   0.000000
     27          7.141731   0.000000
     28          8.059113   0.000000
     29          8.808165   0.000000
     30          9.372353   0.000000
     31          9.547763   0.000000
     32          9.715934   0.000000
     33          9.939392   0.000000
     34         10.732262   0.000000
     35         11.355265   0.000000
     36         11.972334   0.000000
     37         12.258226   0.000000
     38         12.339336   0.000000
     39         12.409345   0.000000
     40         12.429077   0.000000
     41         12.465305   0.000000
     42         12.957556   0.000000
     43         13.456400   0.000000
     44         14.098241   0.000000
     45         14.265596   0.000000
     46         14.967458   0.000000
     47         15.520562   0.000000
     48         16.063249   0.000000
 
  0.3043478E+00  0.0000000E+00  0.0000000E+00  0.5952381E-02
      1        -12.521449   1.000000
      2        -11.358154   1.000000
      3         -8.522736   1.000000
      4         -8.194149   1.000000
      5         -5.915452   1.000000
      6         -5.858510   1.000000
      7         -4.810069   1.000000
      8         -4.714543   1.000000
      9         -4.506568   1.000000
     10         -4.217176   1.000000
     11         -3.324519   1.000000
     12         -1.404841   1.000000
     13         -1.285996   1.000000
     14         -1.029992   1.000000
     15          0.158423   1.000000
     16          0.233561   1.000000
     17          0.333246   1.000000
     18          0.683721   1.000000
     19          0.706859   1.000000
     20          0.976262   1.000000
     21          1.287188   1.000000
     22          2.414876   0.000018
     23          4.733196   0.000000
     24          4.831997   0.000000
     25          6.394781   0.000000
     26          6.938105   0.000000
     27          7.088367   0.000000
     28          8.150899   0.000000
     29          8.794290   0.000000
     30          9.579872   0.000000
     31          9.624229   0.000000
     32          9.779715   0.000000
     33         10.170944   0.000000
     34         10.694939   0.000000
     35         11.306116   0.000000
     36         11.994776   0.000000
     37         12.314125   0.000000
     38         12.333182   0.000000
     39         12.348668   0.000000
     40         12.484817   0.000000
     41         12.540716   0.000000
     42         13.018496   0.000000
     43         13.237770   0.000000
     44         14.177334   0.000000
     45         14.307234   0.000000
     46         14.924844   0.000000
     47         15.620319   0.000000
     48         16.034082   0.000000
 
  0.3260870E+00  0.0000000E+00  0.0000000E+00  0.5952381E-02
      1        -12.503479   1.000000
      2        -11.342104   1.000000
      3         -8.509378   1.000000
      4         -8.176764   1.000000
      5         -6.026283   1.000000
      6         -5.838746   1.000000
      7         -4.825485   1.000000
      8         -4.780311   1.000000
      9         -4.487475   1.000000
     10         -4.205742   1.000000
     11         -3.303419   1.000000
     12         -1.492035   1.000000
     13         -1.381012   1.000000
     14         -1.026853   1.000000
     15          0.173413   1.000000
     16          0.243189   1.000000
     17          0.495808   1.000000
     18          0.572850   1.000000
     19          0.604702   1.000000
     20          0.992667   1.000000
     21          1.498636   1.000000
     22          2.423805   0.000011
     23          4.641294   0.000000
     24          4.763797   0.000000
     25          6.425450   0.000000
     26          7.007319   0.000000
     27          7.083024   0.000000
     28          8.230592   0.000000
     29          8.778057   0.000000
     30          9.701226   0.000000
     31          9.773269   0.000000
     32          9.823484   0.000000
     33         10.389473   0.000000
     34         10.671861   0.000000
     35         11.257348   0.000000
     36         11.974785   0.000000
     37         12.256460   0.000000
     38         12.313131   0.000000
     39         12.325522   0.000000
     40         12.579120   0.000000
     41         12.671485   0.000000
     42         13.055283   0.000000
     43         13.118227   0.000000
     44         14.136649   0.000000
     45         14.511050   0.000000
     46         14.905182   0.000000
     47         15.712189   0.000000
     48         16.062857   0.000000
 
  0.3478261E+00  0.0000000E+00  0.0000000E+00  0.5952381E-02
      1        -12.486507   1.000000
      2        -11.326958   1.000000
      3         -8.496828   1.000000
      4         -8.160327   1.000000
      5         -6.125851   1.000000
      6         -5.820001   1.000000
      7         -4.924693   1.000000
      8         -4.751929   1.000000