BS                                      
           1
     4.044058    0.000000    0.000000
     0.000000    5.700971    0.000000
     0.000000    0.000000    6.201871
   B 
    14
Direct configuration=     1
   0.50000000  0.52128988  0.63795770
   0.50000000  0.47871012  0.36204230
   0.50000000  0.97871012  0.63795770
   0.50000000  0.02128988  0.36204230
   0.50000000  0.59744966  0.89986832
   0.50000000  0.40255034  0.10013168
   0.50000000  0.90255034  0.89986832
   0.50000000  0.09744966  0.10013168
   0.79156493  0.75000000  0.72957940
   0.20843507  0.25000000  0.27042060
   0.20843507  0.75000000  0.72957940
   0.79156493  0.25000000  0.27042060
   0.50000000  0.25000000  0.52399303
   0.50000000  0.75000000  0.47600697
