   14   14    1    1
  0.1021960E+02  0.5697000E-09  0.4047900E-09  0.6204200E-09  0.5000000E-15
  1.000000000000000E-004
  CAR 
 Kpoints                                 
     42   1260     48
 
  0.0000000E+00  0.0000000E+00  0.0000000E+00  0.1146657E-03
      1        -12.733197   1.000000
      2        -11.576162   1.000000
      3         -8.662198   1.000000
      4         -8.424938   1.000000
      5         -6.077623   1.000000
      6         -5.059618   1.000000
      7         -4.638531   1.000000
      8         -4.349797   1.000000
      9         -3.973732   1.000000
     10         -3.598885   1.000000
     11         -2.422182   1.000000
     12         -2.242783   1.000000
     13         -2.183580   1.000000
     14         -1.053189   1.000000
     15         -0.037686   1.000000
     16         -0.003821   1.000000
     17          0.149132   1.000000
     18          0.172617   1.000000
     19          0.564266   1.000000
     20          2.079192   0.000000
     21          2.125396   0.000000
     22          2.214210   0.000000
     23          5.410961   0.000000
     24          5.801154   0.000000
     25          5.816675   0.000000
     26          5.910111   0.000000
     27          6.785167   0.000000
     28          7.672098   0.000000
     29          7.700582   0.000000
     30          8.633560   0.000000
     31          8.752009   0.000000
     32          8.852395   0.000000
     33          9.040036   0.000000
     34         10.029037   0.000000
     35         11.143925   0.000000
     36         11.398868   0.000000
     37         11.768770   0.000000
     38         11.801223   0.000000
     39         11.898417   0.000000
     40         12.353967   0.000000
     41         12.803975   0.000000
     42         13.393871   0.000000
     43         13.572731   0.000000
     44         15.553728   0.000000
     45         15.566999   0.000000
     46         15.941280   0.000000
     47         16.357485   0.000000
     48         16.597791   0.000000
 
  0.5263158E-01  0.0000000E+00  0.0000000E+00  0.2293315E-03
      1        -12.727096   1.000000
      2        -11.586800   1.000000
      3         -8.659375   1.000000
      4         -8.423121   1.000000
      5         -6.064771   1.000000
      6         -5.141587   1.000000
      7         -4.670356   1.000000
      8         -4.253033   1.000000
      9         -3.965181   1.000000
     10         -3.539713   1.000000
     11         -2.419558   1.000000
     12         -2.244489   1.000000
     13         -2.203546   1.000000
     14         -1.099304   1.000000
     15         -0.031575   1.000000
     16          0.006370   1.000000
     17          0.153866   1.000000
     18          0.156284   1.000000
     19          0.550229   1.000000
     20          2.066242   0.000000
     21          2.113957   0.000000
     22          2.197747   0.000000
     23          5.424857   0.000000
     24          5.793208   0.000000
     25          5.796607   0.000000
     26          5.991368   0.000000
     27          6.771915   0.000000
     28          7.496528   0.000000
     29          7.846155   0.000000
     30          8.653874   0.000000
     31          8.807702   0.000000
     32          8.889280   0.000000
     33          9.042955   0.000000
     34         10.047349   0.000000
     35         11.154229   0.000000
     36         11.339081   0.000000
     37         11.664132   0.000000
     38         11.765671   0.000000
     39         11.931207   0.000000
     40         12.366149   0.000000
     41         12.873599   0.000000
     42         13.502780   0.000000
     43         13.515442   0.000000
     44         15.362179   0.000000
     45         15.601661   0.000000
     46         16.079422   0.000000
     47         16.344394   0.000000
     48         16.373413   0.000000
 
  0.1052632E+00  0.0000000E+00  0.0000000E+00  0.2293315E-03
      1        -12.708849   1.000000
      2        -11.618071   1.000000
      3         -8.650735   1.000000
      4         -8.418000   1.000000
      5         -6.031398   1.000000
      6         -5.313897   1.000000
      7         -4.739228   1.000000
      8         -4.036756   1.000000
      9         -3.939599   1.000000
     10         -3.384941   1.000000
     11         -2.411595   1.000000
     12         -2.261388   1.000000
     13         -2.249563   1.000000
     14         -1.231951   1.000000
     15         -0.013478   1.000000
     16          0.035373   1.000000
     17          0.098461   1.000000
     18          0.175673   1.000000
     19          0.508720   1.000000
     20          2.028612   0.000010
     21          2.080621   0.000000
     22          2.148222   0.000000
     23          5.463714   0.000000
     24          5.771384   0.000000
     25          5.813888   0.000000
     26          6.155665   0.000000
     27          6.734303   0.000000
     28          7.299297   0.000000
     29          7.968462   0.000000
     30          8.711770   0.000000
     31          8.956920   0.000000
     32          8.994554   0.000000
     33          9.050069   0.000000
     34         10.103581   0.000000
     35         11.168212   0.000000
     36         11.185557   0.000000
     37         11.409613   0.000000
     38         11.702871   0.000000
     39         12.026355   0.000000
     40         12.402267   0.000000
     41         13.023691   0.000000
     42         13.356301   0.000000
     43         13.770603   0.000000
     44         15.058458   0.000000
     45         15.695137   0.000000
     46         16.062848   0.000000
     47         16.245496   0.000000
     48         16.419527   0.000000
 
  0.1578947E+00  0.0000000E+00  0.0000000E+00  0.2293315E-03
      1        -12.678667   1.000000
      2        -11.668154   1.000000
      3         -8.635943   1.000000
      4         -8.410547   1.000000
      5         -5.992969   1.000000
      6         -5.502638   1.000000
      7         -4.795184   1.000000
      8         -3.897205   1.000000
      9         -3.776366   1.000000
     10         -3.172902   1.000000
     11         -2.397983   1.000000
     12         -2.351641   1.000000
     13         -2.257867   1.000000
     14         -1.436468   1.000000
     15          0.008854   1.000000
     16          0.015869   1.000000
     17          0.079027   1.000000
     18          0.195980   1.000000
     19          0.448436   1.000000
     20          1.969962   0.004490
     21          2.028196   0.000010
     22          2.065729   0.000000
     23          5.520007   0.000000
     24          5.741243   0.000000
     25          5.896586   0.000000
     26          6.369141   0.000000
     27          6.678161   0.000000
     28          7.113295   0.000000
     29          8.065385   0.000000
     30          8.796903   0.000000
     31          9.030424   0.000000
     32          9.161696   0.000000
     33          9.179556   0.000000
     34         10.203670   0.000000
     35         10.908193   0.000000
     36         11.092129   0.000000
     37         11.237687   0.000000
     38         11.677606   0.000000
     39         12.166995   0.000000
     40         12.468628   0.000000
     41         13.122383   0.000000
     42         13.133026   0.000000
     43         14.113744   0.000000
     44         14.819180   0.000000
     45         15.757207   0.000000
     46         15.826373   0.000000
     47         16.320295   0.000000
     48         16.491945   0.000000
 
  0.2105263E+00  0.0000000E+00  0.0000000E+00  0.2293315E-03
      1        -12.636909   1.000000
      2        -11.734306   1.000000
      3         -8.614818   1.000000
      4         -8.402350   1.000000
      5         -5.971704   1.000000
      6         -5.680988   1.000000
      7         -4.795266   1.000000
      8         -3.838365   1.000000
      9         -3.502218   1.000000
     10         -2.930523   1.000000
     11         -2.467039   1.000000
     12         -2.378217   1.000000
     13         -2.269025   1.000000
     14         -1.693559   1.000000
     15         -0.110995   1.000000
     16          0.055152   1.000000
     17          0.131720   1.000000
     18          0.172260   1.000000
     19          0.413684   1.000000
     20          1.896304   0.298227
     21          1.951718   0.018003
     22          1.961025   0.009136
     23          5.583793   0.000000
     24          5.710362   0.000000
     25          6.045846   0.000000
     26          6.611764   0.000000
     27          6.621568   0.000000
     28          6.949460   0.000000
     29          8.148601   0.000000
     30          8.886633   0.000000
     31          8.995269   0.000000
     32          9.391459   0.000000
     33          9.406844   0.000000
     34         10.360318   0.000000
     35         10.583309   0.000000
     36         10.773053   0.000000
     37         11.304818   0.000000
     38         11.722241   0.000000
     39         12.302494   0.000000
     40         12.600579   0.000000
     41         12.839140   0.000000
     42         13.078903   0.000000
     43         14.486879   0.000000
     44         14.746624   0.000000
     45         15.441132   0.000000
     46         15.977646   0.000000
     47         16.215681   0.000000
     48         16.489904   0.000000
 
  0.2631579E+00  0.0000000E+00  0.0000000E+00  0.2293315E-03
      1        -12.584112   1.000000
      2        -11.813216   1.000000
      3         -8.587714   1.000000
      4         -8.395523   1.000000
      5         -5.983333   1.000000
      6         -5.837879   1.000000
      7         -4.714825   1.000000
      8         -3.763620   1.000000
      9         -3.233973   1.000000
     10         -2.676017   1.000000
     11         -2.600056   1.000000
     12         -2.353416   1.000000
     13         -2.281720   1.000000
     14         -1.978800   1.000000
     15         -0.255370   1.000000
     16          0.058022   1.000000
     17          0.102314   1.000000
     18          0.187251   1.000000
     19          0.453916   1.000000
     20          1.810029   0.971981
     21          1.815625   0.960151
     22          1.884619   0.421130
     23          5.644892   0.000000
     24          5.686131   0.000000
     25          6.257491   0.000000
     26          6.544629   0.000000
     27          6.811134   0.000000
     28          6.905687   0.000000
     29          8.223147   0.000000
     30          8.929300   0.000000
     31          8.934861   0.000000
     32          9.632678   0.000000
     33          9.667448   0.000000
     34         10.212729   0.000000
     35         10.516810   0.000000
     36         10.588707   0.000000
     37         11.369437   0.000000
     38         11.840696   0.000000
     39         12.389723   0.000000
     40         12.525278   0.000000
     41         12.823441   0.000000
     42         12.840965   0.000000
     43         14.831693   0.000000
     44         14.867759   0.000000
     45         15.128448   0.000000
     46         15.966253   0.000000
     47         16.094312   0.000000
     48         16.136153   0.000000
 
  0.3157895E+00  0.0000000E+00  0.0000000E+00  0.2293315E-03
      1        -12.520967   1.000000
      2        -11.901313   1.000000
      3         -8.555733   1.000000
      4         -8.392489   1.000000
      5         -6.024067   1.000000
      6         -5.967048   1.000000
      7         -4.554501   1.000000
      8         -3.673705   1.000000
      9         -3.003028   1.000000
     10         -2.743816   1.000000
     11         -2.434750   1.000000
     12         -2.372273   1.000000
     13         -2.284911   1.000000
     14         -2.207673   1.000000
     15         -0.415439   1.000000
     16         -0.112634   1.000000
     17          0.154343   1.000000
     18          0.239123   1.000000
     19          0.541760   1.000000
     20          1.647076   1.000000
     21          1.737295   0.999964
     22          1.805416   0.979385
     23          5.673638   0.000000
     24          5.694242   0.000000
     25          6.486706   0.000000
     26          6.524567   0.000000
     27          6.697284   0.000000
     28          7.215736   0.000000
     29          8.290785   0.000000
     30          8.841214   0.000000
     31          8.869552   0.000000
     32          9.818452   0.000000
     33          9.883359   0.000000
     34          9.936015   0.000000
     35         10.397328   0.000000
     36         10.896810   0.000000
     37         11.403453   0.000000
     38         12.021591   0.000000
     39         12.194120   0.000000
     40         12.455350   0.000000
     41         12.502030   0.000000
     42         13.081967   0.000000
     43         14.839958   0.000000
     44         14.954026   0.000000
     45         15.242926   0.000000
     46         15.601478   0.000000
     47         15.658390   0.000000
     48         16.288317   0.000000
 
  0.3684211E+00  0.0000000E+00  0.0000000E+00  0.2293315E-03
      1        -12.448389   1.000000
      2        -11.995097   1.000000
      3         -8.520806   1.000000
      4         -8.395589   1.000000
      5         -6.076836   1.000000
      6         -6.064406   1.000000
      7         -4.330749   1.000000
      8         -3.569582   1.000000
      9         -2.920454   1.000000
     10         -2.892461   1.000000
     11         -2.525908   1.000000
     12         -2.349334   1.000000
     13         -2.177539   1.000000
     14         -2.154622   1.000000
     15         -0.575369   1.000000
     16         -0.308423   1.000000
     17          0.207004   1.000000
     18          0.280610   1.000000
     19          0.656732   1.000000
     20          1.471059   1.000000
     21          1.671315   1.000000
     22          1.730641   0.999984
     23          5.674599   0.000000
     24          5.724957   0.000000
     25          6.447259   0.000000
     26          6.605245   0.000000
     27          6.838460   0.000000
     28          7.547103   0.000000
     29          8.353907   0.000000
     30          8.652536   0.000000
     31          8.743817   0.000000
     32          9.418716   0.000000
     33         10.142447   0.000000
     34         10.191583   0.000000
     35         10.450471   0.000000
     36         11.275177   0.000000
     37         11.386087   0.000000
     38         11.855908   0.000000
     39         12.129203   0.000000
     40         12.252827   0.000000
     41         12.509434   0.000000
     42         13.288198   0.000000
     43         14.617435   0.000000
     44         15.012721   0.000000
     45         15.135714   0.000000
     46         15.333398   0.000000
     47         15.601379   0.000000
     48         16.411917   0.000000
 
  0.4210526E+00  0.0000000E+00  0.0000000E+00  0.2293315E-03
      1        -12.367537   1.000000
      2        -12.091315   1.000000
      3         -8.485563   1.000000
      4         -8.406552   1.000000
      5         -6.127679   1.000000
      6         -6.124356   1.000000
      7         -4.061543   1.000000
      8         -3.452486   1.000000
      9         -3.134144   1.000000
     10         -3.041170   1.000000
     11         -2.503969   1.000000
     12         -2.367900   1.000000
     13         -2.058556   1.000000
     14         -1.975414   1.000000
     15         -0.703711   1.000000
     16         -0.505642   1.000000
     17          0.254690   1.000000
     18          0.305342   1.000000
     19          0.792552   1.000000
     20          1.290595   1.000000
     21          1.627081   1.000000
     22          1.668195   1.000000
     23          5.687255   0.000000
     24          5.734278   0.000000
     25          6.432605   0.000000
     26          6.532584   0.000000
     27          7.189298   0.000000
     28          7.896127   0.000000
     29          8.327059   0.000000
     30          8.416739   0.000000
     31          8.648177   0.000000
     32          9.023230   0.000000
     33         10.394764   0.000000
     34         10.415987   0.000000
     35         10.634305   0.000000
     36         11.331091   0.000000
     37         11.519677   0.000000
     38         11.682095   0.000000
     39         11.782871   0.000000
     40         12.509147   0.000000
     41         12.513341   0.000000
     42         13.310972   0.000000
     43         14.539578   0.000000
     44         14.815092   0.000000
     45         14.971626   0.000000
     46         15.026763   0.000000
     47         15.930523   0.000000
     48         16.467211   0.000000
 
  0.4736842E+00  0.0000000E+00  0.0000000E+00  0.2293315E-03
      1        -12.279848   1.000000
      2        -12.187070   1.000000
      3         -8.452998   1.000000
      4         -8.425965   1.000000
      5         -6.156699   1.000000
      6         -6.153840   1.000000
      7         -3.761746   1.000000
      8         -3.445237   1.000000
      9         -3.323982   1.000000
     10         -3.186048   1.000000
     11         -2.444272   1.000000
     12         -2.400041   1.000000
     13         -1.935304   1.000000
     14         -1.890866   1.000000
     15         -0.747064   1.000000
     16         -0.669722   1.000000
     17          0.290769   1.000000
     18          0.308907   1.000000
     19          0.945931   1.000000
     20          1.113475   1.000000
     21          1.611364   1.000000
     22          1.626158   1.000000
     23          5.706742   0.000000
     24          5.725495   0.000000
     25          6.443935   0.000000
     26          6.478370   0.000000
     27          7.565523   0.000000
     28          7.952189   0.000000
     29          8.259927   0.000000
     30          8.484370   0.000000
     31          8.560975   0.000000
     32          8.636252   0.000000
     33         10.573267   0.000000
     34         10.576093   0.000000
     35         10.893571   0.000000
     36         11.194896   0.000000
     37         11.316307   0.000000
     38         11.469130   0.000000
     39         12.092404   0.000000
     40         12.381260   0.000000
     41         12.802149   0.000000
     42         13.101083   0.000000
     43         14.620946   0.000000
     44         14.736523   0.000000
     45         14.778971   0.000000
     46         14.851142   0.000000
     47         16.210180   0.000000
     48         16.403155   0.000000
 
  0.0000000E+00  0.3703704E-01  0.0000000E+00  0.2293315E-03
      1        -12.729883   1.000000
      2        -11.573182   1.000000
      3         -8.659593   1.000000
      4         -8.421729   1.000000
      5         -6.073949   1.000000
      6         -5.054485   1.000000
      7         -4.635482   1.000000
      8         -4.359286   1.000000
      9         -4.049671   1.000000
     10         -3.595446   1.000000
     11         -2.601225   1.000000
     12         -2.324230   1.000000
     13         -1.810125   1.000000
     14         -1.052551   1.000000
     15         -0.077955   1.000000
     16         -0.051343   1.000000
     17          0.151575   1.000000
     18          0.195219   1.000000
     19          0.580401   1.000000
     20          2.026703   0.000012
     21          2.088142   0.000000
     22          2.234982   0.000000
     23          5.446873   0.000000
     24          5.758993   0.000000
     25          5.860339   0.000000
     26          5.877089   0.000000
     27          6.827903   0.000000
     28          7.727678   0.000000
     29          7.728697   0.000000
     30          8.508501   0.000000
     31          8.751768   0.000000
     32          8.920230   0.000000
     33          9.048247   0.000000
     34         10.114866   0.000000
     35         11.177583   0.000000
     36         11.387244   0.000000
     37         11.757578   0.000000
     38         11.816590   0.000000
     39         11.912559   0.000000
     40         12.393880   0.000000
     41         12.805521   0.000000
     42         13.348121   0.000000
     43         13.525436   0.000000
     44         15.538100   0.000000
     45         15.548510   0.000000
     46         15.952730   0.000000
     47         16.331016   0.000000
     48         16.482657   0.000000
 
  0.5263158E-01  0.3703704E-01  0.0000000E+00  0.4586630E-03
      1        -12.723780   1.000000
      2        -11.583817   1.000000
      3         -8.656768   1.000000
      4         -8.419921   1.000000
      5         -6.061068   1.000000
      6         -5.136865   1.000000
      7         -4.667338   1.000000
      8         -4.266892   1.000000
      9         -4.036493   1.000000
     10         -3.536333   1.000000
     11         -2.610733   1.000000
     12         -2.321473   1.000000
     13         -1.822765   1.000000
     14         -1.098664   1.000000
     15         -0.072015   1.000000
     16         -0.042592   1.000000
     17          0.158926   1.000000
     18          0.178363   1.000000
     19          0.566318   1.000000
     20          2.014069   0.000057
     21          2.076714   0.000000
     22          2.218098   0.000000
     23          5.461022   0.000000
     24          5.746466   0.000000
     25          5.838853   0.000000
     26          5.964066   0.000000
     27          6.814690   0.000000
     28          7.540173   0.000000
     29          7.886105   0.000000
     30          8.529856   0.000000
     31          8.808165   0.000000
     32          8.956550   0.000000
     33          9.052447   0.000000
     34         10.129420   0.000000
     35         11.187514   0.000000
     36         11.327517   0.000000
     37         11.653925   0.000000
     38         11.779706   0.000000
     39         11.945439   0.000000
     40         12.405895   0.000000
     41         12.875377   0.000000
     42         13.457683   0.000000
     43         13.468419   0.000000
     44         15.367603   0.000000
     45         15.571439   0.000000
     46         16.067146   0.000000
     47         16.315605   0.000000
     48         16.355474   0.000000
 
  0.1052632E+00  0.3703704E-01  0.0000000E+00  0.4586630E-03
      1        -12.705538   1.000000
      2        -11.615079   1.000000
      3         -8.648121   1.000000
      4         -8.414821   1.000000
      5         -6.027594   1.000000
      6         -5.309555   1.000000
      7         -4.736316   1.000000
      8         -4.093521   1.000000
      9         -3.968053   1.000000
     10         -3.381796   1.000000
     11         -2.639547   1.000000
     12         -2.313144   1.000000
     13         -1.858041   1.000000
     14         -1.231276   1.000000
     15         -0.054721   1.000000
     16         -0.021917   1.000000
     17          0.132475   1.000000
     18          0.179220   1.000000
     19          0.524641   1.000000
     20          1.977223   0.002414
     21          2.043412   0.000001
     22          2.167488   0.000000
     23          5.500564   0.000000
     24          5.753627   0.000000
     25          5.828459   0.000000
     26          6.126128   0.000000
     27          6.777179   0.000000
     28          7.344749   0.000000
     29          8.006921   0.000000
     30          8.590407   0.000000
     31          8.958922   0.000000
     32          9.057137   0.000000
     33          9.067042   0.000000
     34         10.174031   0.000000
     35         11.156821   0.000000
     36         11.217755   0.000000
     37         11.397949   0.000000
     38         11.720057   0.000000
     39         12.040783   0.000000
     40         12.441536   0.000000
     41         13.026317   0.000000
     42         13.310002   0.000000
     43         13.724072   0.000000
     44         15.072986   0.000000
     45         15.660114   0.000000
     46         16.055532   0.000000
     47         16.184644   0.000000
     48         16.430536   0.000000
 
  0.1578947E+00  0.3703704E-01  0.0000000E+00  0.4586630E-03
      1        -12.675363   1.000000
      2        -11.665149   1.000000
      3         -8.633314   1.000000
      4         -8.407402   1.000000
      5         -5.988993   1.000000
      6         -5.498424   1.000000
      7         -4.792467   1.000000
      8         -4.007394   1.000000
      9         -3.751848   1.000000
     10         -3.170582   1.000000
     11         -2.687981   1.000000
     12         -2.299054   1.000000
     13         -1.909179   1.000000
     14         -1.435691   1.000000
     15         -0.027906   1.000000
     16         -0.026658   1.000000
     17          0.092790   1.000000
     18          0.203090   1.000000
     19          0.463210   1.000000
     20          1.919330   0.118849
     21          1.991054   0.000665
     22          2.083781   0.000000
     23          5.557755   0.000000
     24          5.755685   0.000000
     25          5.879744   0.000000
     26          6.336679   0.000000
     27          6.721203   0.000000
     28          7.162506   0.000000
     29          8.102263   0.000000
     30          8.678564   0.000000
     31          9.058378   0.000000
     32          9.165099   0.000000
     33          9.237317   0.000000
     34         10.253853   0.000000
     35         10.897328   0.000000
     36         11.080186   0.000000
     37         11.268042   0.000000
     38         11.701505   0.000000
     39         12.182146   0.000000
     40         12.506569   0.000000
     41         13.077313   0.000000
     42         13.137021   0.000000
     43         14.057884   0.000000
     44         14.846591   0.000000
     45         15.735367   0.000000
     46         15.813422   0.000000
     47         16.219233   0.000000
     48         16.526519   0.000000
 
  0.2105263E+00  0.3703704E-01  0.0000000E+00  0.4586630E-03
      1        -12.633618   1.000000
      2        -11.731284   1.000000
      3         -8.612174   1.000000
      4         -8.399251   1.000000
      5         -5.967518   1.000000
      6         -5.676788   1.000000
      7         -4.792796   1.000000
      8         -3.943751   1.000000
      9         -3.482943   1.000000
     10         -2.934080   1.000000
     11         -2.751672   1.000000
     12         -2.279007   1.000000
     13         -1.968039   1.000000
     14         -1.692606   1.000000
     15         -0.117791   1.000000
     16          0.002792   1.000000
     17          0.118254   1.000000
     18          0.193655   1.000000
     19          0.422647   1.000000
     20          1.845356   0.818992
     21          1.923982   0.094701
     22          1.969533   0.004651
     23          5.622347   0.000000
     24          5.732477   0.000000
     25          6.021996   0.000000
     26          6.581622   0.000000
     27          6.655039   0.000000
     28          7.007620   0.000000
     29          8.184200   0.000000
     30          8.770016   0.000000
     31          9.035553   0.000000
     32          9.395742   0.000000
     33          9.462295   0.000000
     34         10.372154   0.000000
     35         10.580289   0.000000
     36         10.768031   0.000000
     37         11.332252   0.000000
     38         11.754355   0.000000
     39         12.321560   0.000000
     40         12.632050   0.000000
     41         12.797936   0.000000
     42         13.083875   0.000000
     43         14.400934   0.000000
     44         14.807174   0.000000
     45         15.452769   0.000000
     46         15.923953   0.000000
     47         16.143746   0.000000
     48         16.500831   0.000000
 
  0.2631579E+00  0.3703704E-01  0.0000000E+00  0.4586630E-03
      1        -12.580836   1.000000
      2        -11.810168   1.000000
      3         -8.585053   1.000000
      4         -8.392483   1.000000
      5         -5.978974   1.000000
      6         -5.833646   1.000000
      7         -4.712581   1.000000
      8         -3.870161   1.000000
      9         -3.213372   1.000000
     10         -2.862712   1.000000
     11         -2.656087   1.000000
     12         -2.255294   1.000000
     13         -2.027862   1.000000
     14         -1.976996   1.000000
     15         -0.255147   1.000000
     16          0.001389   1.000000
     17          0.133319   1.000000
     18          0.168004   1.000000
     19          0.457523   1.000000
     20          1.759066   0.999599
     21          1.832879   0.896962
     22          1.847705   0.800973
     23          5.683829   0.000000
     24          5.710960   0.000000
     25          6.231755   0.000000
     26          6.588249   0.000000
     27          6.789820   0.000000
     28          6.946783   0.000000
     29          8.257614   0.000000
     30          8.819198   0.000000
     31          8.986697   0.000000
     32          9.637532   0.000000
     33          9.715465   0.000000
     34         10.186989   0.000000
     35         10.460898   0.000000
     36         10.652785   0.000000
     37         11.392119   0.000000
     38         11.880486   0.000000
     39         12.412829   0.000000
     40         12.483268   0.000000
     41         12.846512   0.000000
     42         12.854841   0.000000
     43         14.695497   0.000000
     44         14.981898   0.000000
     45         15.149737   0.000000
     46         15.937068   0.000000
     47         15.949121   0.000000
     48         16.250246   0.000000
 
  0.3157895E+00  0.3703704E-01  0.0000000E+00  0.4586630E-03
      1        -12.517710   1.000000
      2        -11.898242   1.000000
      3         -8.553057   1.000000
      4         -8.389515   1.000000
      5         -6.019612   1.000000
      6         -5.962761   1.000000
      7         -4.552418   1.000000
      8         -3.783933   1.000000