  14  14   0   0
  0.1021960E+02  0.5697000E-09  0.4047900E-09  0.6204200E-09  0.5000000E-15
  1.000000000000000E-004
  CAR 
 Kpoints                                 
     17.97945204    -14.18788698  301      1.88723350      1.00000000
    -14.188  0.0000E+00  0.0000E+00
    -14.081  0.0000E+00  0.0000E+00
    -13.973  0.0000E+00  0.0000E+00
    -13.866  0.0000E+00  0.0000E+00
    -13.759  0.0000E+00  0.0000E+00
    -13.652  0.0000E+00  0.0000E+00
    -13.545  0.0000E+00  0.0000E+00
    -13.437  0.0000E+00  0.0000E+00
    -13.330  0.0000E+00  0.0000E+00
    -13.223  0.0000E+00  0.0000E+00
    -13.116  0.0000E+00  0.0000E+00
    -13.008  0.4602E-16  0.4934E-17
    -12.901  0.2954E-07  0.3167E-08
    -12.794  0.3815E-02  0.4091E-03
    -12.687  0.5085E+00  0.5493E-01
    -12.580  0.2389E+01  0.3111E+00
    -12.472  0.3562E+01  0.6930E+00
    -12.365  0.4369E+01  0.1161E+01
    -12.258  0.3538E+01  0.1541E+01
    -12.151  0.2734E+01  0.1834E+01
    -12.043  0.2750E+01  0.2129E+01
    -11.936  0.2502E+01  0.2397E+01
    -11.829  0.2769E+01  0.2694E+01
    -11.722  0.3420E+01  0.3061E+01
    -11.614  0.3532E+01  0.3440E+01
    -11.507  0.3120E+01  0.3774E+01
    -11.400  0.1674E+01  0.3954E+01
    -11.293  0.4259E+00  0.3999E+01
    -11.186  0.7475E-02  0.4000E+01
    -11.078  0.1849E-06  0.4000E+01
    -10.971  0.9993E-15  0.4000E+01
    -10.864  0.0000E+00  0.4000E+01
    -10.757  0.0000E+00  0.4000E+01
    -10.649  0.0000E+00  0.4000E+01
    -10.542  0.0000E+00  0.4000E+01
    -10.435  0.0000E+00  0.4000E+01
    -10.328  0.0000E+00  0.4000E+01
    -10.221  0.0000E+00  0.4000E+01
    -10.113  0.0000E+00  0.4000E+01
    -10.006  0.0000E+00  0.4000E+01
     -9.899  0.0000E+00  0.4000E+01
     -9.792  0.0000E+00  0.4000E+01
     -9.684  0.0000E+00  0.4000E+01
     -9.577  0.0000E+00  0.4000E+01
     -9.470  0.0000E+00  0.4000E+01
     -9.363  0.0000E+00  0.4000E+01
     -9.256  0.0000E+00  0.4000E+01
     -9.148  0.0000E+00  0.4000E+01
     -9.041  0.8968E-09  0.4000E+01
     -8.934  0.6085E-03  0.4000E+01
     -8.827  0.2738E+00  0.4029E+01
     -8.719  0.2081E+01  0.4253E+01
     -8.612  0.5313E+01  0.4822E+01
     -8.505  0.6985E+01  0.5571E+01
     -8.398  0.6301E+01  0.6247E+01
     -8.291  0.5323E+01  0.6818E+01
     -8.183  0.4834E+01  0.7336E+01
     -8.076  0.3884E+01  0.7752E+01
     -7.969  0.1673E+01  0.7932E+01
     -7.862  0.5819E+00  0.7994E+01
     -7.754  0.5313E-01  0.8000E+01
     -7.647  0.2558E-04  0.8000E+01
     -7.540  0.2998E-11  0.8000E+01
     -7.433  0.0000E+00  0.8000E+01
     -7.326  0.0000E+00  0.8000E+01
     -7.218  0.0000E+00  0.8000E+01
     -7.111  0.4582E-09  0.8000E+01
     -7.004  0.3860E-03  0.8000E+01
     -6.897  0.1122E+00  0.8012E+01
     -6.789  0.2578E+00  0.8040E+01
     -6.682  0.4249E+00  0.8085E+01
     -6.575  0.7652E+00  0.8167E+01
     -6.468  0.8507E+00  0.8259E+01
     -6.361  0.1444E+01  0.8413E+01
     -6.253  0.1960E+01  0.8624E+01
     -6.146  0.3051E+01  0.8951E+01
     -6.039  0.3783E+01  0.9356E+01
     -5.932  0.4113E+01  0.9797E+01
     -5.824  0.4050E+01  0.1023E+02
     -5.717  0.3862E+01  0.1065E+02
     -5.610  0.4071E+01  0.1108E+02
     -5.503  0.4220E+01  0.1153E+02
     -5.395  0.4542E+01  0.1202E+02
     -5.288  0.4597E+01  0.1251E+02
     -5.181  0.4488E+01  0.1300E+02
     -5.074  0.3868E+01  0.1341E+02
     -4.967  0.3226E+01  0.1376E+02
     -4.859  0.2958E+01  0.1407E+02
     -4.752  0.2325E+01  0.1432E+02
     -4.645  0.2895E+01  0.1463E+02
     -4.538  0.3366E+01  0.1499E+02
     -4.430  0.3461E+01  0.1537E+02
     -4.323  0.3341E+01  0.1572E+02
     -4.216  0.2952E+01  0.1604E+02
     -4.109  0.2906E+01  0.1635E+02
     -4.002  0.2942E+01  0.1667E+02
     -3.894  0.2862E+01  0.1697E+02
     -3.787  0.3114E+01  0.1731E+02
     -3.680  0.2882E+01  0.1762E+02
     -3.573  0.2699E+01  0.1791E+02
     -3.465  0.3065E+01  0.1823E+02
     -3.358  0.2640E+01  0.1852E+02
     -3.251  0.2853E+01  0.1882E+02
     -3.144  0.2757E+01  0.1912E+02
     -3.037  0.2727E+01  0.1941E+02
     -2.929  0.3052E+01  0.1974E+02
     -2.822  0.2972E+01  0.2006E+02
     -2.715  0.2435E+01  0.2032E+02
     -2.608  0.2650E+01  0.2060E+02
     -2.500  0.3015E+01  0.2093E+02
     -2.393  0.2987E+01  0.2125E+02
     -2.286  0.3186E+01  0.2159E+02
     -2.179  0.4012E+01  0.2202E+02
     -2.072  0.3655E+01  0.2241E+02
     -1.964  0.3263E+01  0.2276E+02
     -1.857  0.5090E+01  0.2331E+02
     -1.750  0.5581E+01  0.2390E+02
     -1.643  0.5605E+01  0.2451E+02
     -1.535  0.6172E+01  0.2517E+02
     -1.428  0.6107E+01  0.2582E+02
     -1.321  0.5587E+01  0.2642E+02
     -1.214  0.4684E+01  0.2692E+02
     -1.107  0.6486E+01  0.2762E+02
     -0.999  0.4022E+01  0.2805E+02
     -0.892  0.2270E+01  0.2829E+02
     -0.785  0.2698E+01  0.2858E+02
     -0.678  0.2870E+01  0.2889E+02
     -0.570  0.4491E+01  0.2937E+02
     -0.463  0.6851E+01  0.3011E+02
     -0.356  0.5660E+01  0.3071E+02
     -0.249  0.6696E+01  0.3143E+02
     -0.141  0.6353E+01  0.3211E+02
     -0.034  0.6737E+01  0.3284E+02
      0.073  0.6776E+01  0.3356E+02
      0.180  0.6270E+01  0.3423E+02
      0.287  0.8780E+01  0.3518E+02
      0.395  0.7999E+01  0.3603E+02
      0.502  0.8691E+01  0.3697E+02
      0.609  0.5306E+01  0.3753E+02
      0.716  0.2956E+01  0.3785E+02
      0.824  0.3280E+01  0.3820E+02
      0.931  0.3590E+01  0.3859E+02
      1.038  0.3564E+01  0.3897E+02
      1.145  0.2790E+01  0.3927E+02
      1.252  0.3381E+01  0.3963E+02
      1.360  0.4495E+01  0.4011E+02
      1.467  0.3782E+01  0.4052E+02
      1.574  0.3711E+01  0.4092E+02
      1.681  0.4575E+01  0.4141E+02
      1.789  0.3257E+01  0.4176E+02
      1.896  0.2477E+01  0.4202E+02
      2.003  0.2664E+01  0.4231E+02
      2.110  0.2089E+01  0.4253E+02
      2.217  0.2652E+01  0.4282E+02
      2.325  0.2577E+01  0.4309E+02
      2.432  0.1946E+01  0.4330E+02
      2.539  0.8595E+00  0.4339E+02
      2.646  0.3777E+00  0.4343E+02
      2.754  0.5733E+00  0.4350E+02
      2.861  0.4182E+00  0.4354E+02
      2.968  0.3075E+00  0.4357E+02
      3.075  0.7522E+00  0.4365E+02
      3.182  0.1015E+01  0.4376E+02
      3.290  0.5447E+00  0.4382E+02
      3.397  0.1370E-01  0.4382E+02
      3.504  0.1295E+00  0.4384E+02
      3.611  0.3929E+00  0.4388E+02
      3.719  0.3329E+00  0.4391E+02
      3.826  0.3699E+00  0.4395E+02
      3.933  0.4046E+00  0.4400E+02
      4.040  0.2760E-01  0.4400E+02
      4.147  0.2787E-04  0.4400E+02
      4.255  0.3112E-01  0.4400E+02
      4.362  0.1759E+00  0.4402E+02
      4.469  0.4022E+00  0.4407E+02
      4.576  0.4703E+00  0.4412E+02
      4.684  0.6333E+00  0.4418E+02
      4.791  0.8893E+00  0.4428E+02
      4.898  0.8405E+00  0.4437E+02
      5.005  0.8561E+00  0.4446E+02
      5.113  0.1274E+01  0.4460E+02
      5.220  0.1152E+01  0.4472E+02
      5.327  0.1631E+01  0.4490E+02
      5.434  0.2189E+01  0.4513E+02
      5.541  0.2488E+01  0.4540E+02
      5.649  0.2783E+01  0.4570E+02
      5.756  0.3364E+01  0.4606E+02
      5.863  0.3222E+01  0.4640E+02
      5.970  0.4309E+01  0.4686E+02
      6.078  0.4762E+01  0.4737E+02
      6.185  0.4041E+01  0.4781E+02
      6.292  0.4618E+01  0.4830E+02
      6.399  0.4158E+01  0.4875E+02
      6.506  0.4014E+01  0.4918E+02
      6.614  0.4484E+01  0.4966E+02
      6.721  0.3224E+01  0.5001E+02
      6.828  0.4000E+01  0.5043E+02
      6.935  0.4616E+01  0.5093E+02
      7.043  0.4556E+01  0.5142E+02
      7.150  0.4341E+01  0.5188E+02
      7.257  0.5602E+01  0.5248E+02
      7.364  0.4920E+01  0.5301E+02
      7.471  0.4456E+01  0.5349E+02
      7.579  0.4187E+01  0.5394E+02
      7.686  0.3570E+01  0.5432E+02
      7.793  0.3123E+01  0.5466E+02
      7.900  0.3007E+01  0.5498E+02
      8.008  0.2983E+01  0.5530E+02
      8.115  0.4168E+01  0.5575E+02
      8.222  0.3891E+01  0.5616E+02
      8.329  0.3685E+01  0.5656E+02
      8.436  0.4003E+01  0.5699E+02
      8.544  0.4207E+01  0.5744E+02
      8.651  0.4465E+01  0.5792E+02
      8.758  0.4228E+01  0.5837E+02
      8.865  0.5285E+01  0.5894E+02
      8.973  0.4923E+01  0.5946E+02
      9.080  0.5298E+01  0.6003E+02
      9.187  0.5234E+01  0.6059E+02
      9.294  0.4966E+01  0.6113E+02
      9.401  0.4690E+01  0.6163E+02
      9.509  0.4366E+01  0.6210E+02
      9.616  0.5109E+01  0.6265E+02
      9.723  0.5020E+01  0.6318E+02
      9.830  0.5300E+01  0.6375E+02
      9.938  0.4466E+01  0.6423E+02
     10.045  0.3640E+01  0.6462E+02
     10.152  0.5197E+01  0.6518E+02
     10.259  0.4699E+01  0.6568E+02
     10.367  0.4124E+01  0.6612E+02
     10.474  0.5433E+01  0.6671E+02
     10.581  0.5779E+01  0.6733E+02
     10.688  0.4073E+01  0.6776E+02
     10.795  0.3875E+01  0.6818E+02
     10.903  0.3239E+01  0.6853E+02
     11.010  0.4695E+01  0.6903E+02
     11.117  0.5476E+01  0.6962E+02
     11.224  0.6214E+01  0.7028E+02
     11.332  0.5975E+01  0.7092E+02
     11.439  0.5273E+01  0.7149E+02
     11.546  0.4304E+01  0.7195E+02
     11.653  0.4475E+01  0.7243E+02
     11.760  0.4941E+01  0.7296E+02
     11.868  0.4815E+01  0.7348E+02
     11.975  0.6028E+01  0.7412E+02
     12.082  0.5975E+01  0.7476E+02
     12.189  0.5973E+01  0.7540E+02
     12.297  0.5619E+01  0.7601E+02
     12.404  0.4992E+01  0.7654E+02
     12.511  0.5687E+01  0.7715E+02
     12.618  0.5997E+01  0.7779E+02
     12.725  0.6010E+01  0.7844E+02
     12.833  0.5876E+01  0.7907E+02
     12.940  0.5867E+01  0.7970E+02
     13.047  0.5600E+01  0.8030E+02
     13.154  0.6354E+01  0.8098E+02
     13.262  0.6240E+01  0.8165E+02
     13.369  0.5402E+01  0.8223E+02
     13.476  0.6125E+01  0.8289E+02
     13.583  0.5345E+01  0.8346E+02
     13.690  0.4807E+01  0.8397E+02
     13.798  0.6154E+01  0.8463E+02
     13.905  0.5504E+01  0.8522E+02
     14.012  0.5348E+01  0.8580E+02
     14.119  0.5470E+01  0.8638E+02
     14.227  0.4664E+01  0.8688E+02
     14.334  0.4917E+01  0.8741E+02
     14.441  0.5014E+01  0.8795E+02
     14.548  0.4961E+01  0.8848E+02
     14.655  0.5271E+01  0.8905E+02
     14.763  0.5160E+01  0.8960E+02
     14.870  0.4088E+01  0.9004E+02
     14.977  0.5090E+01  0.9058E+02
     15.084  0.6188E+01  0.9125E+02
     15.192  0.5628E+01  0.9185E+02
     15.299  0.5701E+01  0.9246E+02
     15.406  0.6023E+01  0.9311E+02
     15.513  0.5729E+01  0.9372E+02
     15.621  0.5941E+01  0.9436E+02
     15.728  0.4573E+01  0.9485E+02
     15.835  0.2461E+01  0.9511E+02
     15.942  0.2712E+01  0.9540E+02
     16.049  0.1842E+01  0.9560E+02
     16.157  0.1144E+01  0.9572E+02
     16.264  0.8677E+00  0.9582E+02
     16.371  0.7210E+00  0.9589E+02
     16.478  0.8109E+00  0.9598E+02
     16.586  0.1781E+00  0.9600E+02
     16.693  0.1683E-02  0.9600E+02
     16.800  0.2060E-07  0.9600E+02
     16.907  0.3944E-16  0.9600E+02
     17.014  0.0000E+00  0.9600E+02
     17.122  0.0000E+00  0.9600E+02
     17.229  0.0000E+00  0.9600E+02
     17.336  0.0000E+00  0.9600E+02
     17.443  0.0000E+00  0.9600E+02
     17.551  0.0000E+00  0.9600E+02
     17.658  0.0000E+00  0.9600E+02
     17.765  0.0000E+00  0.9600E+02
     17.872  0.0000E+00  0.9600E+02
     17.979  0.0000E+00  0.9600E+02
