   14   14    1    1
  0.1021960E+02  0.5697000E-09  0.4047900E-09  0.6204200E-09  0.5000000E-15
  1.000000000000000E-004
  CAR 
 Kpoints                                 
     42   1260     48
 
  0.0000000E+00  0.0000000E+00  0.0000000E+00  0.1146657E-03
      1        -12.733195   1.000000
      2        -11.576172   1.000000
      3         -8.662196   1.000000
      4         -8.424935   1.000000
      5         -6.077623   1.000000
      6         -5.059616   1.000000
      7         -4.638529   1.000000
      8         -4.349794   1.000000
      9         -3.973735   1.000000
     10         -3.598883   1.000000
     11         -2.422176   1.000000
     12         -2.242778   1.000000
     13         -2.183576   1.000000
     14         -1.053186   1.000000
     15         -0.037679   1.000000
     16         -0.003811   1.000000
     17          0.149134   1.000000
     18          0.172630   1.000000
     19          0.564275   1.000000
     20          2.079199   0.000000
     21          2.125408   0.000000
     22          2.214220   0.000000
     23          5.410981   0.000000
     24          5.801169   0.000000
     25          5.816685   0.000000
     26          5.910124   0.000000
     27          6.785190   0.000000
     28          7.672115   0.000000
     29          7.700624   0.000000
     30          8.633590   0.000000
     31          8.752052   0.000000
     32          8.852432   0.000000
     33          9.040088   0.000000
     34         10.029064   0.000000
     35         11.143952   0.000000
     36         11.398880   0.000000
     37         11.768785   0.000000
     38         11.801312   0.000000
     39         11.898440   0.000000
     40         12.353997   0.000000
     41         12.803995   0.000000
     42         13.393919   0.000000
     43         13.572784   0.000000
     44         15.553744   0.000000
     45         15.567019   0.000000
     46         15.941299   0.000000
     47         16.357528   0.000000
     48         16.597849   0.000000
 
  0.5263158E-01  0.0000000E+00  0.0000000E+00  0.2293315E-03
      1        -12.727094   1.000000
      2        -11.586807   1.000000
      3         -8.659369   1.000000
      4         -8.423116   1.000000
      5         -6.064767   1.000000
      6         -5.141582   1.000000
      7         -4.670351   1.000000
      8         -4.253025   1.000000
      9         -3.965184   1.000000
     10         -3.539707   1.000000
     11         -2.419551   1.000000
     12         -2.244482   1.000000
     13         -2.203541   1.000000
     14         -1.099297   1.000000
     15         -0.031567   1.000000
     16          0.006378   1.000000
     17          0.153883   1.000000
     18          0.156289   1.000000
     19          0.550242   1.000000
     20          2.066253   0.000000
     21          2.113972   0.000000
     22          2.197761   0.000000
     23          5.424881   0.000000
     24          5.793229   0.000000
     25          5.796620   0.000000
     26          5.991383   0.000000
     27          6.771946   0.000000
     28          7.496555   0.000000
     29          7.846194   0.000000
     30          8.653910   0.000000
     31          8.807764   0.000000
     32          8.889327   0.000000
     33          9.043020   0.000000
     34         10.047381   0.000000
     35         11.154256   0.000000
     36         11.339098   0.000000
     37         11.664152   0.000000
     38         11.765751   0.000000
     39         11.931241   0.000000
     40         12.366184   0.000000
     41         12.873636   0.000000
     42         13.502824   0.000000
     43         13.515491   0.000000
     44         15.362207   0.000000
     45         15.601684   0.000000
     46         16.079451   0.000000
     47         16.344439   0.000000
     48         16.373454   0.000000
 
  0.1052632E+00  0.0000000E+00  0.0000000E+00  0.2293315E-03
      1        -12.708852   1.000000
      2        -11.618077   1.000000
      3         -8.650730   1.000000
      4         -8.417995   1.000000
      5         -6.031394   1.000000
      6         -5.313891   1.000000
      7         -4.739220   1.000000
      8         -4.036746   1.000000
      9         -3.939603   1.000000
     10         -3.384934   1.000000
     11         -2.411587   1.000000
     12         -2.261381   1.000000
     13         -2.249557   1.000000
     14         -1.231944   1.000000
     15         -0.013472   1.000000
     16          0.035379   1.000000
     17          0.098478   1.000000
     18          0.175679   1.000000
     19          0.508731   1.000000
     20          2.028620   0.000010
     21          2.080632   0.000000
     22          2.148237   0.000000
     23          5.463737   0.000000
     24          5.771409   0.000000
     25          5.813902   0.000000
     26          6.155682   0.000000
     27          6.734330   0.000000
     28          7.299326   0.000000
     29          7.968508   0.000000
     30          8.711802   0.000000
     31          8.956969   0.000000
     32          8.994602   0.000000
     33          9.050120   0.000000
     34         10.103613   0.000000
     35         11.168230   0.000000
     36         11.185586   0.000000
     37         11.409636   0.000000
     38         11.702938   0.000000
     39         12.026389   0.000000
     40         12.402303   0.000000
     41         13.023744   0.000000
     42         13.356347   0.000000
     43         13.770638   0.000000
     44         15.058491   0.000000
     45         15.695160   0.000000
     46         16.062893   0.000000
     47         16.245525   0.000000
     48         16.419566   0.000000
 
  0.1578947E+00  0.0000000E+00  0.0000000E+00  0.2293315E-03
      1        -12.678670   1.000000
      2        -11.668161   1.000000
      3         -8.635937   1.000000
      4         -8.410543   1.000000
      5         -5.992965   1.000000
      6         -5.502633   1.000000
      7         -4.795176   1.000000
      8         -3.897208   1.000000
      9         -3.776357   1.000000
     10         -3.172895   1.000000
     11         -2.397974   1.000000
     12         -2.351632   1.000000
     13         -2.257861   1.000000
     14         -1.436464   1.000000
     15          0.008868   1.000000
     16          0.015875   1.000000
     17          0.079031   1.000000
     18          0.195989   1.000000
     19          0.448445   1.000000
     20          1.969968   0.004492
     21          2.028207   0.000010
     22          2.065743   0.000000
     23          5.520028   0.000000
     24          5.741266   0.000000
     25          5.896598   0.000000
     26          6.369161   0.000000
     27          6.678189   0.000000
     28          7.113321   0.000000
     29          8.065435   0.000000
     30          8.796932   0.000000
     31          9.030478   0.000000
     32          9.161752   0.000000
     33          9.179602   0.000000
     34         10.203708   0.000000
     35         10.908214   0.000000
     36         11.092150   0.000000
     37         11.237716   0.000000
     38         11.677665   0.000000
     39         12.167035   0.000000
     40         12.468666   0.000000
     41         13.122420   0.000000
     42         13.133092   0.000000
     43         14.113774   0.000000
     44         14.819209   0.000000
     45         15.757247   0.000000
     46         15.826395   0.000000
     47         16.320331   0.000000
     48         16.491836   0.000000
 
  0.2105263E+00  0.0000000E+00  0.0000000E+00  0.2293315E-03
      1        -12.636913   1.000000
      2        -11.734312   1.000000
      3         -8.614811   1.000000
      4         -8.402346   1.000000
      5         -5.971699   1.000000
      6         -5.680984   1.000000
      7         -4.795256   1.000000
      8         -3.838368   1.000000
      9         -3.502210   1.000000
     10         -2.930516   1.000000
     11         -2.467028   1.000000
     12         -2.378208   1.000000
     13         -2.269017   1.000000
     14         -1.693552   1.000000
     15         -0.110979   1.000000
     16          0.055158   1.000000
     17          0.131724   1.000000
     18          0.172272   1.000000
     19          0.413691   1.000000
     20          1.896311   0.298290
     21          1.951732   0.018002
     22          1.961035   0.009137
     23          5.583816   0.000000
     24          5.710389   0.000000
     25          6.045858   0.000000
     26          6.611793   0.000000
     27          6.621589   0.000000
     28          6.949493   0.000000
     29          8.148651   0.000000
     30          8.886658   0.000000
     31          8.995324   0.000000
     32          9.391520   0.000000
     33          9.406892   0.000000
     34         10.360365   0.000000
     35         10.583335   0.000000
     36         10.773081   0.000000
     37         11.304850   0.000000
     38         11.722295   0.000000
     39         12.302529   0.000000
     40         12.600621   0.000000
     41         12.839181   0.000000
     42         13.078977   0.000000
     43         14.486905   0.000000
     44         14.746650   0.000000
     45         15.441174   0.000000
     46         15.977667   0.000000
     47         16.215728   0.000000
     48         16.489951   0.000000
 
  0.2631579E+00  0.0000000E+00  0.0000000E+00  0.2293315E-03
      1        -12.584115   1.000000
      2        -11.813218   1.000000
      3         -8.587706   1.000000
      4         -8.395521   1.000000
      5         -5.983325   1.000000
      6         -5.837873   1.000000
      7         -4.714816   1.000000
      8         -3.763623   1.000000
      9         -3.233968   1.000000
     10         -2.676011   1.000000
     11         -2.600042   1.000000
     12         -2.353407   1.000000
     13         -2.281711   1.000000
     14         -1.978792   1.000000
     15         -0.255357   1.000000
     16          0.058034   1.000000
     17          0.102321   1.000000
     18          0.187257   1.000000
     19          0.453923   1.000000
     20          1.810042   0.971982
     21          1.815631   0.960170
     22          1.884632   0.421133
     23          5.644917   0.000000
     24          5.686156   0.000000
     25          6.257505   0.000000
     26          6.544658   0.000000
     27          6.811168   0.000000
     28          6.905707   0.000000
     29          8.223195   0.000000
     30          8.929354   0.000000
     31          8.934880   0.000000
     32          9.632744   0.000000
     33          9.667496   0.000000
     34         10.212765   0.000000
     35         10.516838   0.000000
     36         10.588749   0.000000
     37         11.369472   0.000000
     38         11.840742   0.000000
     39         12.389764   0.000000
     40         12.525326   0.000000
     41         12.823476   0.000000
     42         12.841043   0.000000
     43         14.831719   0.000000
     44         14.867782   0.000000
     45         15.128493   0.000000
     46         15.966301   0.000000
     47         16.094363   0.000000
     48         16.136172   0.000000
 
  0.3157895E+00  0.0000000E+00  0.0000000E+00  0.2293315E-03
      1        -12.520969   1.000000
      2        -11.901316   1.000000
      3         -8.555725   1.000000
      4         -8.392487   1.000000
      5         -6.024055   1.000000
      6         -5.967040   1.000000
      7         -4.554493   1.000000
      8         -3.673709   1.000000
      9         -3.003022   1.000000
     10         -2.743807   1.000000
     11         -2.434740   1.000000
     12         -2.372267   1.000000
     13         -2.284900   1.000000
     14         -2.207661   1.000000
     15         -0.415422   1.000000
     16         -0.112622   1.000000
     17          0.154351   1.000000
     18          0.239132   1.000000
     19          0.541768   1.000000
     20          1.647091   1.000000
     21          1.737303   0.999964
     22          1.805430   0.979384
     23          5.673668   0.000000
     24          5.694270   0.000000
     25          6.486736   0.000000
     26          6.524580   0.000000
     27          6.697319   0.000000
     28          7.215760   0.000000
     29          8.290839   0.000000
     30          8.841264   0.000000
     31          8.869569   0.000000
     32          9.818484   0.000000
     33          9.883442   0.000000
     34          9.936077   0.000000
     35         10.397361   0.000000
     36         10.896877   0.000000
     37         11.403497   0.000000
     38         12.021642   0.000000
     39         12.194171   0.000000
     40         12.455393   0.000000
     41         12.502112   0.000000
     42         13.082008   0.000000
     43         14.840007   0.000000
     44         14.954059   0.000000
     45         15.242954   0.000000
     46         15.601533   0.000000
     47         15.658440   0.000000
     48         16.288338   0.000000
 
  0.3684211E+00  0.0000000E+00  0.0000000E+00  0.2293315E-03
      1        -12.448390   1.000000
      2        -11.995096   1.000000
      3         -8.520797   1.000000
      4         -8.395587   1.000000
      5         -6.076822   1.000000
      6         -6.064401   1.000000
      7         -4.330741   1.000000
      8         -3.569586   1.000000
      9         -2.920444   1.000000
     10         -2.892455   1.000000
     11         -2.525903   1.000000
     12         -2.349324   1.000000
     13         -2.177527   1.000000
     14         -2.154608   1.000000
     15         -0.575351   1.000000
     16         -0.308408   1.000000
     17          0.207013   1.000000
     18          0.280617   1.000000
     19          0.656741   1.000000
     20          1.471073   1.000000
     21          1.671326   1.000000
     22          1.730653   0.999984
     23          5.674630   0.000000
     24          5.724986   0.000000
     25          6.447288   0.000000
     26          6.605275   0.000000
     27          6.838476   0.000000
     28          7.547126   0.000000
     29          8.353962   0.000000
     30          8.652553   0.000000
     31          8.743868   0.000000
     32          9.418754   0.000000
     33         10.142522   0.000000
     34         10.191650   0.000000
     35         10.450496   0.000000
     36         11.275247   0.000000
     37         11.386143   0.000000
     38         11.855964   0.000000
     39         12.129280   0.000000
     40         12.252874   0.000000
     41         12.509485   0.000000
     42         13.288232   0.000000
     43         14.617490   0.000000
     44         15.012759   0.000000
     45         15.135775   0.000000
     46         15.333452   0.000000
     47         15.601402   0.000000
     48         16.411939   0.000000
 
  0.4210526E+00  0.0000000E+00  0.0000000E+00  0.2293315E-03
      1        -12.367539   1.000000
      2        -12.091316   1.000000
      3         -8.485555   1.000000
      4         -8.406550   1.000000
      5         -6.127670   1.000000
      6         -6.124341   1.000000
      7         -4.061536   1.000000
      8         -3.452488   1.000000
      9         -3.134129   1.000000
     10         -3.041166   1.000000
     11         -2.503963   1.000000
     12         -2.367890   1.000000
     13         -2.058547   1.000000
     14         -1.975403   1.000000
     15         -0.703694   1.000000
     16         -0.505626   1.000000
     17          0.254698   1.000000
     18          0.305349   1.000000
     19          0.792559   1.000000
     20          1.290608   1.000000
     21          1.627095   1.000000
     22          1.668210   1.000000
     23          5.687290   0.000000
     24          5.734309   0.000000
     25          6.432632   0.000000
     26          6.532613   0.000000
     27          7.189315   0.000000
     28          7.896152   0.000000
     29          8.327075   0.000000
     30          8.416791   0.000000
     31          8.648226   0.000000
     32          9.023265   0.000000
     33         10.394821   0.000000
     34         10.416038   0.000000
     35         10.634339   0.000000
     36         11.331140   0.000000
     37         11.519738   0.000000
     38         11.682171   0.000000
     39         11.782938   0.000000
     40         12.509195   0.000000
     41         12.513385   0.000000
     42         13.310999   0.000000
     43         14.539631   0.000000
     44         14.815156   0.000000
     45         14.971672   0.000000
     46         15.026809   0.000000
     47         15.930544   0.000000
     48         16.467230   0.000000
 
  0.4736842E+00  0.0000000E+00  0.0000000E+00  0.2293315E-03
      1        -12.279846   1.000000
      2        -12.187067   1.000000
      3         -8.452992   1.000000
      4         -8.425961   1.000000
      5         -6.156687   1.000000
      6         -6.153828   1.000000
      7         -3.761737   1.000000
      8         -3.445224   1.000000
      9         -3.323979   1.000000
     10         -3.186045   1.000000
     11         -2.444264   1.000000
     12         -2.400030   1.000000
     13         -1.935295   1.000000
     14         -1.890855   1.000000
     15         -0.747045   1.000000
     16         -0.669705   1.000000
     17          0.290778   1.000000
     18          0.308916   1.000000
     19          0.945938   1.000000
     20          1.113484   1.000000
     21          1.611380   1.000000
     22          1.626175   1.000000
     23          5.706771   0.000000
     24          5.725522   0.000000
     25          6.443965   0.000000
     26          6.478402   0.000000
     27          7.565542   0.000000
     28          7.952208   0.000000
     29          8.259962   0.000000
     30          8.484426   0.000000
     31          8.561027   0.000000
     32          8.636289   0.000000
     33         10.573324   0.000000
     34         10.576156   0.000000
     35         10.893626   0.000000
     36         11.194958   0.000000
     37         11.316360   0.000000
     38         11.469202   0.000000
     39         12.092483   0.000000
     40         12.381323   0.000000
     41         12.802194   0.000000
     42         13.101121   0.000000
     43         14.620991   0.000000
     44         14.736583   0.000000
     45         14.779011   0.000000
     46         14.851193   0.000000
     47         16.210202   0.000000
     48         16.403175   0.000000
 
  0.0000000E+00  0.3703704E-01  0.0000000E+00  0.2293315E-03
      1        -12.729884   1.000000
      2        -11.573190   1.000000
      3         -8.659591   1.000000
      4         -8.421727   1.000000
      5         -6.073948   1.000000
      6         -5.054484   1.000000
      7         -4.635480   1.000000
      8         -4.359283   1.000000
      9         -4.049674   1.000000
     10         -3.595443   1.000000
     11         -2.601218   1.000000
     12         -2.324224   1.000000
     13         -1.810121   1.000000
     14         -1.052548   1.000000
     15         -0.077948   1.000000
     16         -0.051334   1.000000
     17          0.151579   1.000000
     18          0.195232   1.000000
     19          0.580414   1.000000
     20          2.026711   0.000012
     21          2.088154   0.000000
     22          2.234997   0.000000
     23          5.446893   0.000000
     24          5.759007   0.000000
     25          5.860354   0.000000
     26          5.877104   0.000000
     27          6.827930   0.000000
     28          7.727699   0.000000
     29          7.728734   0.000000
     30          8.508536   0.000000
     31          8.751819   0.000000
     32          8.920256   0.000000
     33          9.048307   0.000000
     34         10.114891   0.000000
     35         11.177612   0.000000
     36         11.387258   0.000000
     37         11.757596   0.000000
     38         11.816668   0.000000
     39         11.912585   0.000000
     40         12.393911   0.000000
     41         12.805546   0.000000
     42         13.348167   0.000000
     43         13.525488   0.000000
     44         15.538123   0.000000
     45         15.548527   0.000000
     46         15.952751   0.000000
     47         16.331051   0.000000
     48         16.482728   0.000000
 
  0.5263158E-01  0.3703704E-01  0.0000000E+00  0.4586630E-03
      1        -12.723782   1.000000
      2        -11.583826   1.000000
      3         -8.656763   1.000000
      4         -8.419916   1.000000
      5         -6.061063   1.000000
      6         -5.136858   1.000000
      7         -4.667332   1.000000
      8         -4.266886   1.000000
      9         -4.036495   1.000000
     10         -3.536327   1.000000
     11         -2.610725   1.000000
     12         -2.321467   1.000000
     13         -1.822761   1.000000
     14         -1.098656   1.000000
     15         -0.072006   1.000000
     16         -0.042583   1.000000
     17          0.158932   1.000000
     18          0.178379   1.000000
     19          0.566329   1.000000
     20          2.014080   0.000057
     21          2.076728   0.000000
     22          2.218112   0.000000
     23          5.461047   0.000000
     24          5.746482   0.000000
     25          5.838872   0.000000
     26          5.964082   0.000000
     27          6.814719   0.000000
     28          7.540207   0.000000
     29          7.886143   0.000000
     30          8.529898   0.000000
     31          8.808225   0.000000
     32          8.956593   0.000000
     33          9.052508   0.000000
     34         10.129451   0.000000
     35         11.187543   0.000000
     36         11.327534   0.000000
     37         11.653949   0.000000
     38         11.779795   0.000000
     39         11.945475   0.000000
     40         12.405932   0.000000
     41         12.875417   0.000000
     42         13.457726   0.000000
     43         13.468470   0.000000
     44         15.367634   0.000000
     45         15.571461   0.000000
     46         16.067176   0.000000
     47         16.315663   0.000000
     48         16.355511   0.000000
 
  0.1052632E+00  0.3703704E-01  0.0000000E+00  0.4586630E-03
      1        -12.705540   1.000000
      2        -11.615086   1.000000
      3         -8.648116   1.000000
      4         -8.414816   1.000000
      5         -6.027590   1.000000
      6         -5.309550   1.000000
      7         -4.736310   1.000000
      8         -4.093518   1.000000
      9         -3.968049   1.000000
     10         -3.381790   1.000000
     11         -2.639539   1.000000
     12         -2.313138   1.000000
     13         -1.858035   1.000000
     14         -1.231270   1.000000
     15         -0.054715   1.000000
     16         -0.021909   1.000000
     17          0.132490   1.000000
     18          0.179225   1.000000
     19          0.524651   1.000000
     20          1.977232   0.002415
     21          2.043424   0.000001
     22          2.167501   0.000000
     23          5.500586   0.000000
     24          5.753645   0.000000
     25          5.828477   0.000000
     26          6.126143   0.000000
     27          6.777208   0.000000
     28          7.344780   0.000000
     29          8.006958   0.000000
     30          8.590442   0.000000
     31          8.958975   0.000000
     32          9.057190   0.000000
     33          9.067086   0.000000
     34         10.174062   0.000000
     35         11.156838   0.000000
     36         11.217782   0.000000
     37         11.397968   0.000000
     38         11.720123   0.000000
     39         12.040821   0.000000
     40         12.441570   0.000000
     41         13.026364   0.000000
     42         13.310044   0.000000
     43         13.724105   0.000000
     44         15.073016   0.000000
     45         15.660135   0.000000
     46         16.055583   0.000000
     47         16.184676   0.000000
     48         16.430572   0.000000
 
  0.1578947E+00  0.3703704E-01  0.0000000E+00  0.4586630E-03
      1        -12.675366   1.000000
      2        -11.665153   1.000000
      3         -8.633308   1.000000
      4         -8.407398   1.000000
      5         -5.988989   1.000000
      6         -5.498418   1.000000
      7         -4.792458   1.000000
      8         -4.007397   1.000000
      9         -3.751839   1.000000
     10         -3.170575   1.000000
     11         -2.687972   1.000000
     12         -2.299047   1.000000
     13         -1.909173   1.000000
     14         -1.435686   1.000000
     15         -0.027899   1.000000
     16         -0.026647   1.000000
     17          0.092800   1.000000
     18          0.203098   1.000000
     19          0.463220   1.000000
     20          1.919338   0.118875
     21          1.991066   0.000665
     22          2.083793   0.000000
     23          5.557777   0.000000
     24          5.755708   0.000000
     25          5.879757   0.000000
     26          6.336698   0.000000
     27          6.721230   0.000000
     28          7.162538   0.000000
     29          8.102309   0.000000
     30          8.678596   0.000000
     31          9.058432   0.000000
     32          9.165153   0.000000
     33          9.237362   0.000000
     34         10.253889   0.000000
     35         10.897350   0.000000
     36         11.080210   0.000000
     37         11.268070   0.000000
     38         11.701562   0.000000
     39         12.182183   0.000000
     40         12.506606   0.000000
     41         13.077355   0.000000
     42         13.137086   0.000000
     43         14.057916   0.000000
     44         14.846623   0.000000
     45         15.735409   0.000000
     46         15.813449   0.000000
     47         16.219271   0.000000
     48         16.526548   0.000000
 
  0.2105263E+00  0.3703704E-01  0.0000000E+00  0.4586630E-03
      1        -12.633622   1.000000
      2        -11.731286   1.000000
      3         -8.612166   1.000000
      4         -8.399248   1.000000
      5         -5.967512   1.000000
      6         -5.676783   1.000000
      7         -4.792787   1.000000
      8         -3.943756   1.000000
      9         -3.482935   1.000000
     10         -2.934073   1.000000
     11         -2.751662   1.000000
     12         -2.279000   1.000000
     13         -1.968031   1.000000
     14         -1.692600   1.000000
     15         -0.117776   1.000000
     16          0.002799   1.000000
     17          0.118260   1.000000
     18          0.193666   1.000000
     19          0.422654   1.000000
     20          1.845365   0.819026
     21          1.923994   0.094708
     22          1.969546   0.004652
     23          5.622368   0.000000
     24          5.732504   0.000000
     25          6.022009   0.000000
     26          6.581641   0.000000
     27          6.655064   0.000000
     28          7.007653   0.000000
     29          8.184250   0.000000
     30          8.770046   0.000000
     31          9.035606   0.000000
     32          9.395802   0.000000
     33          9.462338   0.000000
     34         10.372194   0.000000
     35         10.580316   0.000000
     36         10.768061   0.000000
     37         11.332283   0.000000
     38         11.754406   0.000000
     39         12.321598   0.000000
     40         12.632088   0.000000
     41         12.797977   0.000000
     42         13.083947   0.000000
     43         14.400961   0.000000
     44         14.807201   0.000000
     45         15.452815   0.000000
     46         15.923974   0.000000
     47         16.143790   0.000000
     48         16.500878   0.000000
 
  0.2631579E+00  0.3703704E-01  0.0000000E+00  0.4586630E-03
      1        -12.580841   1.000000
      2        -11.810171   1.000000
      3         -8.585049   1.000000
      4         -8.392481   1.000000
      5         -5.978966   1.000000
      6         -5.833642   1.000000
      7         -4.712573   1.000000
      8         -3.870166   1.000000
      9         -3.213367   1.000000
     10         -2.862704   1.000000
     11         -2.656081   1.000000
     12         -2.255288   1.000000
     13         -2.027853   1.000000
     14         -1.976990   1.000000
     15         -0.255136   1.000000
     16          0.001398   1.000000
     17          0.133328   1.000000
     18          0.168009   1.000000
     19          0.457529   1.000000
     20          1.759076   0.999599
     21          1.832891   0.896971
     22          1.847715   0.800999
     23          5.683853   0.000000
     24          5.710984   0.000000
     25          6.231767   0.000000
     26          6.588275   0.000000
     27          6.789841   0.000000
     28          6.946810   0.000000
     29          8.257661   0.000000
     30          8.819224   0.000000
     31          8.986741   0.000000
     32          9.637596   0.000000
     33          9.715515   0.000000
     34         10.187021   0.000000
     35         10.460926   0.000000
     36         10.652821   0.000000
     37         11.392153   0.000000
     38         11.880529   0.000000
     39         12.412868   0.000000
     40         12.483308   0.000000
     41         12.846584   0.000000
     42         12.854873   0.000000
     43         14.695523   0.000000
     44         14.981924   0.000000
     45         15.149778   0.000000
     46         15.937113   0.000000
     47         15.949158   0.000000
     48         16.250278   0.000000
 
  0.3157895E+00  0.3703704E-01  0.0000000E+00  0.4586630E-03
      1        -12.517713   1.000000
      2        -11.898242   1.000000
      3         -8.553048   1.000000
      4         -8.389512   1.000000
      5         -6.019598   1.000000
      6         -5.962754   1.000000
      7         -4.552409   1.000000
      8         -3.783936   1.000000