  14  14   0   0
  0.1017062E+02  0.5687885E-09  0.4041423E-09  0.6194273E-09  0.5000000E-15
  1.000000000000000E-004
  CAR 
 Convergence                             
     18.05701685    -14.19639316  301      1.91207261      1.00000000
    -14.196  0.0000E+00  0.0000E+00
    -14.089  0.0000E+00  0.0000E+00
    -13.981  0.0000E+00  0.0000E+00
    -13.874  0.0000E+00  0.0000E+00
    -13.766  0.0000E+00  0.0000E+00
    -13.659  0.0000E+00  0.0000E+00
    -13.551  0.0000E+00  0.0000E+00
    -13.444  0.0000E+00  0.0000E+00
    -13.336  0.0000E+00  0.0000E+00
    -13.229  0.0000E+00  0.0000E+00
    -13.121  0.0000E+00  0.0000E+00
    -13.014  0.3934E-16  0.4229E-17
    -12.906  0.2741E-07  0.2947E-08
    -12.799  0.3743E-02  0.4024E-03
    -12.691  0.5067E+00  0.5488E-01
    -12.584  0.2385E+01  0.3113E+00
    -12.476  0.3553E+01  0.6932E+00
    -12.369  0.4363E+01  0.1162E+01
    -12.261  0.3539E+01  0.1543E+01
    -12.154  0.2733E+01  0.1837E+01
    -12.046  0.2746E+01  0.2132E+01
    -11.939  0.2512E+01  0.2402E+01
    -11.831  0.2771E+01  0.2700E+01
    -11.724  0.3445E+01  0.3070E+01
    -11.616  0.3533E+01  0.3450E+01
    -11.509  0.3086E+01  0.3782E+01
    -11.401  0.1631E+01  0.3957E+01
    -11.294  0.3941E+00  0.3999E+01
    -11.186  0.5754E-02  0.4000E+01
    -11.079  0.1020E-06  0.4000E+01
    -10.971  0.3672E-15  0.4000E+01
    -10.864  0.0000E+00  0.4000E+01
    -10.756  0.0000E+00  0.4000E+01
    -10.649  0.0000E+00  0.4000E+01
    -10.541  0.0000E+00  0.4000E+01
    -10.433  0.0000E+00  0.4000E+01
    -10.326  0.0000E+00  0.4000E+01
    -10.218  0.0000E+00  0.4000E+01
    -10.111  0.0000E+00  0.4000E+01
    -10.003  0.0000E+00  0.4000E+01
     -9.896  0.0000E+00  0.4000E+01
     -9.788  0.0000E+00  0.4000E+01
     -9.681  0.0000E+00  0.4000E+01
     -9.573  0.0000E+00  0.4000E+01
     -9.466  0.0000E+00  0.4000E+01
     -9.358  0.0000E+00  0.4000E+01
     -9.251  0.0000E+00  0.4000E+01
     -9.143  0.0000E+00  0.4000E+01
     -9.036  0.7808E-09  0.4000E+01
     -8.928  0.5781E-03  0.4000E+01
     -8.821  0.2694E+00  0.4029E+01
     -8.713  0.2066E+01  0.4251E+01
     -8.606  0.5277E+01  0.4818E+01
     -8.498  0.6956E+01  0.5566E+01
     -8.391  0.6314E+01  0.6245E+01
     -8.283  0.5321E+01  0.6817E+01
     -8.176  0.4821E+01  0.7335E+01
     -8.068  0.3883E+01  0.7753E+01
     -7.961  0.1669E+01  0.7932E+01
     -7.853  0.5767E+00  0.7994E+01
     -7.746  0.5133E-01  0.8000E+01
     -7.638  0.2271E-04  0.8000E+01
     -7.531  0.2311E-11  0.8000E+01
     -7.423  0.0000E+00  0.8000E+01
     -7.316  0.0000E+00  0.8000E+01
     -7.208  0.0000E+00  0.8000E+01
     -7.101  0.5790E-09  0.8000E+01
     -6.993  0.4456E-03  0.8000E+01
     -6.886  0.1167E+00  0.8013E+01
     -6.778  0.2554E+00  0.8040E+01
     -6.671  0.4284E+00  0.8086E+01
     -6.563  0.7658E+00  0.8168E+01
     -6.456  0.8599E+00  0.8261E+01
     -6.348  0.1458E+01  0.8418E+01
     -6.241  0.1996E+01  0.8632E+01
     -6.133  0.3064E+01  0.8962E+01
     -6.026  0.3765E+01  0.9367E+01
     -5.918  0.4101E+01  0.9807E+01
     -5.811  0.4036E+01  0.1024E+02
     -5.703  0.3832E+01  0.1065E+02
     -5.595  0.4069E+01  0.1109E+02
     -5.488  0.4224E+01  0.1154E+02
     -5.380  0.4517E+01  0.1203E+02
     -5.273  0.4567E+01  0.1252E+02
     -5.165  0.4483E+01  0.1300E+02
     -5.058  0.3849E+01  0.1342E+02
     -4.950  0.3236E+01  0.1377E+02
     -4.843  0.2922E+01  0.1408E+02
     -4.735  0.2376E+01  0.1433E+02
     -4.628  0.2896E+01  0.1465E+02
     -4.520  0.3361E+01  0.1501E+02
     -4.413  0.3504E+01  0.1538E+02
     -4.305  0.3291E+01  0.1574E+02
     -4.198  0.2945E+01  0.1605E+02
     -4.090  0.2901E+01  0.1637E+02
     -3.983  0.2963E+01  0.1668E+02
     -3.875  0.2834E+01  0.1699E+02
     -3.768  0.3134E+01  0.1733E+02
     -3.660  0.2844E+01  0.1763E+02
     -3.553  0.2704E+01  0.1792E+02
     -3.445  0.3045E+01  0.1825E+02
     -3.338  0.2611E+01  0.1853E+02
     -3.230  0.2901E+01  0.1884E+02
     -3.123  0.2683E+01  0.1913E+02
     -3.015  0.2775E+01  0.1943E+02
     -2.908  0.2998E+01  0.1975E+02
     -2.800  0.2959E+01  0.2007E+02
     -2.693  0.2413E+01  0.2033E+02
     -2.585  0.2682E+01  0.2062E+02
     -2.478  0.3031E+01  0.2094E+02
     -2.370  0.2966E+01  0.2126E+02
     -2.263  0.3208E+01  0.2161E+02
     -2.155  0.4036E+01  0.2204E+02
     -2.048  0.3655E+01  0.2243E+02
     -1.940  0.3331E+01  0.2279E+02
     -1.833  0.5296E+01  0.2336E+02
     -1.725  0.5665E+01  0.2397E+02
     -1.618  0.5548E+01  0.2457E+02
     -1.510  0.6185E+01  0.2523E+02
     -1.403  0.6066E+01  0.2588E+02
     -1.295  0.5497E+01  0.2648E+02
     -1.188  0.4700E+01  0.2698E+02
     -1.080  0.6464E+01  0.2768E+02
     -0.972  0.3735E+01  0.2808E+02
     -0.865  0.2261E+01  0.2832E+02
     -0.757  0.2690E+01  0.2861E+02
     -0.650  0.2883E+01  0.2892E+02
     -0.542  0.4661E+01  0.2942E+02
     -0.435  0.6895E+01  0.3016E+02
     -0.327  0.5644E+01  0.3077E+02
     -0.220  0.6766E+01  0.3150E+02
     -0.112  0.6359E+01  0.3218E+02
     -0.005  0.6759E+01  0.3291E+02
      0.103  0.6640E+01  0.3362E+02
      0.210  0.6380E+01  0.3431E+02
      0.318  0.8756E+01  0.3525E+02
      0.425  0.7828E+01  0.3609E+02
      0.533  0.8719E+01  0.3703E+02
      0.640  0.5055E+01  0.3757E+02
      0.748  0.2842E+01  0.3788E+02
      0.855  0.3372E+01  0.3824E+02
      0.963  0.3583E+01  0.3862E+02
      1.070  0.3512E+01  0.3900E+02
      1.178  0.2782E+01  0.3930E+02
      1.285  0.3440E+01  0.3967E+02
      1.393  0.4505E+01  0.4015E+02
      1.500  0.3731E+01  0.4056E+02
      1.608  0.3764E+01  0.4096E+02
      1.715  0.4548E+01  0.4145E+02
      1.823  0.3069E+01  0.4178E+02
      1.930  0.2492E+01  0.4205E+02
      2.038  0.2624E+01  0.4233E+02
      2.145  0.2099E+01  0.4256E+02
      2.253  0.2651E+01  0.4284E+02
      2.360  0.2516E+01  0.4311E+02
      2.468  0.1873E+01  0.4331E+02
      2.575  0.7838E+00  0.4340E+02
      2.683  0.3800E+00  0.4344E+02
      2.790  0.5661E+00  0.4350E+02
      2.898  0.4175E+00  0.4354E+02
      3.005  0.3075E+00  0.4358E+02
      3.113  0.7924E+00  0.4366E+02
      3.220  0.9987E+00  0.4377E+02
      3.328  0.4912E+00  0.4382E+02
      3.435  0.9180E-02  0.4382E+02
      3.543  0.1477E+00  0.4384E+02
      3.650  0.4004E+00  0.4388E+02
      3.758  0.3164E+00  0.4392E+02
      3.866  0.3834E+00  0.4396E+02
      3.973  0.3847E+00  0.4400E+02
      4.081  0.2015E-01  0.4400E+02
      4.188  0.1303E-03  0.4400E+02
      4.296  0.5326E-01  0.4401E+02
      4.403  0.1950E+00  0.4403E+02
      4.511  0.4103E+00  0.4407E+02
      4.618  0.5004E+00  0.4412E+02
      4.726  0.6589E+00  0.4420E+02
      4.833  0.8995E+00  0.4429E+02
      4.941  0.8541E+00  0.4438E+02
      5.048  0.8600E+00  0.4448E+02
      5.156  0.1291E+01  0.4462E+02
      5.263  0.1129E+01  0.4474E+02
      5.371  0.1679E+01  0.4492E+02
      5.478  0.2238E+01  0.4516E+02
      5.586  0.2477E+01  0.4542E+02
      5.693  0.2776E+01  0.4572E+02
      5.801  0.3453E+01  0.4609E+02
      5.908  0.3190E+01  0.4644E+02
      6.016  0.4382E+01  0.4691E+02
      6.123  0.4674E+01  0.4741E+02
      6.231  0.4020E+01  0.4784E+02
      6.338  0.4642E+01  0.4834E+02
      6.446  0.3994E+01  0.4877E+02
      6.553  0.4102E+01  0.4921E+02
      6.661  0.4401E+01  0.4969E+02
      6.768  0.3210E+01  0.5003E+02
      6.876  0.4045E+01  0.5047E+02
      6.983  0.4614E+01  0.5096E+02
      7.091  0.4511E+01  0.5145E+02
      7.198  0.4344E+01  0.5191E+02
      7.306  0.5627E+01  0.5252E+02
      7.413  0.4830E+01  0.5304E+02
      7.521  0.4418E+01  0.5351E+02
      7.628  0.4132E+01  0.5396E+02
      7.736  0.3534E+01  0.5434E+02
      7.843  0.3151E+01  0.5468E+02
      7.951  0.2977E+01  0.5500E+02
      8.058  0.3004E+01  0.5532E+02
      8.166  0.4172E+01  0.5577E+02
      8.273  0.3842E+01  0.5618E+02
      8.381  0.3619E+01  0.5657E+02
      8.489  0.3976E+01  0.5700E+02
      8.596  0.4164E+01  0.5744E+02
      8.704  0.4410E+01  0.5792E+02
      8.811  0.4148E+01  0.5836E+02
      8.919  0.5157E+01  0.5892E+02
      9.026  0.5114E+01  0.5947E+02
      9.134  0.5292E+01  0.6004E+02
      9.241  0.5260E+01  0.6060E+02
      9.349  0.4905E+01  0.6113E+02
      9.456  0.4725E+01  0.6164E+02
      9.564  0.4331E+01  0.6210E+02
      9.671  0.5115E+01  0.6265E+02
      9.779  0.5015E+01  0.6319E+02
      9.886  0.5319E+01  0.6376E+02
      9.994  0.4457E+01  0.6424E+02
     10.101  0.3583E+01  0.6463E+02
     10.209  0.5150E+01  0.6518E+02
     10.316  0.4710E+01  0.6569E+02
     10.424  0.4063E+01  0.6613E+02
     10.531  0.5520E+01  0.6672E+02
     10.639  0.5772E+01  0.6734E+02
     10.746  0.4044E+01  0.6777E+02
     10.854  0.3852E+01  0.6819E+02
     10.961  0.3185E+01  0.6853E+02
     11.069  0.4654E+01  0.6903E+02
     11.176  0.5565E+01  0.6963E+02
     11.284  0.6068E+01  0.7028E+02
     11.391  0.5972E+01  0.7092E+02
     11.499  0.5390E+01  0.7150E+02
     11.606  0.4173E+01  0.7195E+02
     11.714  0.4467E+01  0.7243E+02
     11.821  0.4878E+01  0.7296E+02
     11.929  0.4789E+01  0.7347E+02
     12.036  0.6060E+01  0.7412E+02
     12.144  0.5910E+01  0.7476E+02
     12.251  0.5877E+01  0.7539E+02
     12.359  0.5691E+01  0.7600E+02
     12.466  0.5055E+01  0.7655E+02
     12.574  0.5628E+01  0.7715E+02
     12.681  0.6026E+01  0.7780E+02
     12.789  0.6107E+01  0.7846E+02
     12.896  0.5815E+01  0.7908E+02
     13.004  0.5830E+01  0.7971E+02
     13.111  0.5562E+01  0.8031E+02
     13.219  0.6347E+01  0.8099E+02
     13.327  0.6207E+01  0.8166E+02
     13.434  0.5306E+01  0.8223E+02
     13.542  0.6150E+01  0.8289E+02
     13.649  0.5223E+01  0.8345E+02
     13.757  0.4793E+01  0.8396E+02
     13.864  0.6054E+01  0.8461E+02
     13.972  0.5525E+01  0.8521E+02
     14.079  0.5318E+01  0.8578E+02
     14.187  0.5471E+01  0.8637E+02
     14.294  0.4703E+01  0.8687E+02
     14.402  0.4831E+01  0.8739E+02
     14.509  0.5090E+01  0.8794E+02
     14.617  0.4988E+01  0.8848E+02
     14.724  0.5264E+01  0.8904E+02
     14.832  0.5127E+01  0.8959E+02
     14.939  0.4089E+01  0.9003E+02
     15.047  0.5158E+01  0.9059E+02
     15.154  0.6234E+01  0.9126E+02
     15.262  0.5573E+01  0.9186E+02
     15.369  0.5606E+01  0.9246E+02
     15.477  0.6063E+01  0.9311E+02
     15.584  0.5692E+01  0.9372E+02
     15.692  0.5880E+01  0.9436E+02
     15.799  0.4552E+01  0.9485E+02
     15.907  0.2425E+01  0.9511E+02
     16.014  0.2695E+01  0.9540E+02
     16.122  0.1884E+01  0.9560E+02
     16.229  0.1160E+01  0.9572E+02
     16.337  0.8833E+00  0.9582E+02
     16.444  0.6997E+00  0.9589E+02
     16.552  0.8111E+00  0.9598E+02
     16.659  0.1739E+00  0.9600E+02
     16.767  0.1652E-02  0.9600E+02
     16.874  0.1919E-07  0.9600E+02
     16.982  0.3278E-16  0.9600E+02
     17.089  0.0000E+00  0.9600E+02
     17.197  0.0000E+00  0.9600E+02
     17.304  0.0000E+00  0.9600E+02
     17.412  0.0000E+00  0.9600E+02
     17.519  0.0000E+00  0.9600E+02
     17.627  0.0000E+00  0.9600E+02
     17.734  0.0000E+00  0.9600E+02
     17.842  0.0000E+00  0.9600E+02
     17.950  0.0000E+00  0.9600E+02
     18.057  0.0000E+00  0.9600E+02
