  28  28   0   0
  0.3546796E+02  0.5700971E-09  0.6201871E-09  0.2808812E-08  0.5000000E-15
  1.000000000000000E-004
  CAR 
 Parameters                              
      4.74084598    -19.39597492  301     -1.46861616      1.00000000
    -19.396  0.0000E+00  0.0000E+00
    -19.316  0.0000E+00  0.0000E+00
    -19.235  0.0000E+00  0.0000E+00
    -19.155  0.0000E+00  0.0000E+00
    -19.074  0.0000E+00  0.0000E+00
    -18.994  0.0000E+00  0.0000E+00
    -18.913  0.0000E+00  0.0000E+00
    -18.833  0.0000E+00  0.0000E+00
    -18.752  0.0000E+00  0.0000E+00
    -18.672  0.0000E+00  0.0000E+00
    -18.591  0.1022E-18  0.8224E-20
    -18.511  0.2659E-11  0.2139E-12
    -18.431  0.3303E-06  0.2657E-07
    -18.350  0.3793E-03  0.3054E-04
    -18.270  0.9671E-02  0.8086E-03
    -18.189  0.2495E-01  0.2816E-02
    -18.109  0.3263E-01  0.5442E-02
    -18.028  0.3875E-01  0.8560E-02
    -17.948  0.3118E-01  0.1107E-01
    -17.867  0.2569E-01  0.1314E-01
    -17.787  0.2521E-01  0.1516E-01
    -17.706  0.2932E-01  0.1752E-01
    -17.626  0.3423E-01  0.2028E-01
    -17.545  0.3528E-01  0.2311E-01
    -17.465  0.2855E-01  0.2541E-01
    -17.385  0.1380E-01  0.2652E-01
    -17.304  0.1781E-02  0.2667E-01
    -17.224  0.1002E-04  0.2667E-01
    -17.143  0.6693E-09  0.2667E-01
    -17.063  0.3396E-15  0.2667E-01
    -16.982  0.0000E+00  0.2667E-01
    -16.902  0.0000E+00  0.2667E-01
    -16.821  0.0000E+00  0.2667E-01
    -16.741  0.0000E+00  0.2667E-01
    -16.660  0.0000E+00  0.2667E-01
    -16.580  0.0000E+00  0.2667E-01
    -16.500  0.0000E+00  0.2667E-01
    -16.419  0.0000E+00  0.2667E-01
    -16.339  0.0000E+00  0.2667E-01
    -16.258  0.0000E+00  0.2667E-01
    -16.178  0.0000E+00  0.2667E-01
    -16.097  0.0000E+00  0.2667E-01
    -16.017  0.0000E+00  0.2667E-01
    -15.936  0.0000E+00  0.2667E-01
    -15.856  0.0000E+00  0.2667E-01
    -15.775  0.0000E+00  0.2667E-01
    -15.695  0.0000E+00  0.2667E-01
    -15.615  0.0000E+00  0.2667E-01
    -15.534  0.0000E+00  0.2667E-01
    -15.454  0.0000E+00  0.2667E-01
    -15.373  0.0000E+00  0.2667E-01
    -15.293  0.0000E+00  0.2667E-01
    -15.212  0.0000E+00  0.2667E-01
    -15.132  0.0000E+00  0.2667E-01
    -15.051  0.0000E+00  0.2667E-01
    -14.971  0.0000E+00  0.2667E-01
    -14.890  0.0000E+00  0.2667E-01
    -14.810  0.0000E+00  0.2667E-01
    -14.730  0.0000E+00  0.2667E-01
    -14.649  0.0000E+00  0.2667E-01
    -14.569  0.0000E+00  0.2667E-01
    -14.488  0.0000E+00  0.2667E-01
    -14.408  0.0000E+00  0.2667E-01
    -14.327  0.0000E+00  0.2667E-01
    -14.247  0.0000E+00  0.2667E-01
    -14.166  0.0000E+00  0.2667E-01
    -14.086  0.2015E-13  0.2667E-01
    -14.005  0.1388E-07  0.2667E-01
    -13.925  0.7063E-04  0.2667E-01
    -13.845  0.4542E-02  0.2704E-01
    -13.764  0.1762E-01  0.2846E-01
    -13.684  0.2638E-01  0.3058E-01
    -13.603  0.5098E-01  0.3468E-01
    -13.523  0.6595E-01  0.3999E-01
    -13.442  0.6417E-01  0.4515E-01
    -13.362  0.5707E-01  0.4974E-01
    -13.281  0.3016E-01  0.5217E-01
    -13.201  0.1202E-01  0.5313E-01
    -13.120  0.2439E-02  0.5333E-01
    -13.040  0.4968E-04  0.5333E-01
    -12.959  0.1300E-07  0.5333E-01
    -12.879  0.2410E-13  0.5333E-01
    -12.799  0.0000E+00  0.5333E-01
    -12.718  0.0000E+00  0.5333E-01
    -12.638  0.0000E+00  0.5333E-01
    -12.557  0.0000E+00  0.5333E-01
    -12.477  0.0000E+00  0.5333E-01
    -12.396  0.2044E-18  0.5333E-01
    -12.316  0.2399E-11  0.5333E-01
    -12.235  0.2759E-06  0.5333E-01
    -12.155  0.2383E-03  0.5335E-01
    -12.074  0.2623E-02  0.5356E-01
    -11.994  0.1455E-02  0.5368E-01
    -11.914  0.4427E-02  0.5404E-01
    -11.833  0.8169E-02  0.5469E-01
    -11.753  0.8419E-02  0.5537E-01
    -11.672  0.2267E-01  0.5720E-01
    -11.592  0.1844E-01  0.5868E-01
    -11.511  0.2237E-01  0.6048E-01
    -11.431  0.3371E-01  0.6319E-01
    -11.350  0.2402E-01  0.6512E-01
    -11.270  0.2364E-01  0.6703E-01
    -11.189  0.2982E-01  0.6943E-01
    -11.109  0.2500E-01  0.7144E-01
    -11.029  0.2541E-01  0.7348E-01
    -10.948  0.2926E-01  0.7584E-01
    -10.868  0.1950E-01  0.7740E-01
    -10.787  0.1706E-01  0.7878E-01
    -10.707  0.1389E-01  0.7989E-01
    -10.626  0.1541E-01  0.8113E-01
    -10.546  0.1546E-01  0.8238E-01
    -10.465  0.1483E-01  0.8357E-01
    -10.385  0.1283E-01  0.8460E-01
    -10.304  0.8813E-02  0.8531E-01
    -10.224  0.1114E-01  0.8621E-01
    -10.144  0.6951E-02  0.8677E-01
    -10.063  0.1252E-01  0.8778E-01
     -9.983  0.8308E-02  0.8844E-01
     -9.902  0.1633E-01  0.8976E-01
     -9.822  0.1465E-01  0.9094E-01
     -9.741  0.1334E-01  0.9201E-01
     -9.661  0.1882E-01  0.9352E-01
     -9.580  0.2806E-01  0.9578E-01
     -9.500  0.2773E-01  0.9801E-01
     -9.419  0.2367E-01  0.9992E-01
     -9.339  0.2085E-01  0.1016E+00
     -9.259  0.1668E-01  0.1029E+00
     -9.178  0.1508E-01  0.1041E+00
     -9.098  0.1445E-01  0.1053E+00
     -9.017  0.2002E-01  0.1069E+00
     -8.937  0.1676E-01  0.1083E+00
     -8.856  0.2387E-01  0.1102E+00
     -8.776  0.2689E-01  0.1124E+00
     -8.695  0.2469E-01  0.1143E+00
     -8.615  0.2029E-01  0.1160E+00
     -8.534  0.1914E-01  0.1175E+00
     -8.454  0.2006E-01  0.1191E+00
     -8.373  0.3213E-01  0.1217E+00
     -8.293  0.2013E-01  0.1233E+00
     -8.213  0.2458E-01  0.1253E+00
     -8.132  0.2805E-01  0.1276E+00
     -8.052  0.2287E-01  0.1294E+00
     -7.971  0.3425E-01  0.1322E+00
     -7.891  0.3763E-01  0.1352E+00
     -7.810  0.2698E-01  0.1374E+00
     -7.730  0.2834E-01  0.1396E+00
     -7.649  0.2430E-01  0.1416E+00
     -7.569  0.1926E-01  0.1431E+00
     -7.488  0.1681E-01  0.1445E+00
     -7.408  0.1227E-01  0.1455E+00
     -7.328  0.1107E-01  0.1464E+00
     -7.247  0.1015E-01  0.1472E+00
     -7.167  0.1248E-01  0.1482E+00
     -7.086  0.1577E-01  0.1495E+00
     -7.006  0.1946E-01  0.1510E+00
     -6.925  0.1812E-01  0.1525E+00
     -6.845  0.2428E-01  0.1544E+00
     -6.764  0.3363E-01  0.1571E+00
     -6.684  0.3007E-01  0.1596E+00
     -6.603  0.2982E-01  0.1620E+00
     -6.523  0.4107E-01  0.1653E+00
     -6.443  0.3129E-01  0.1678E+00
     -6.362  0.3088E-01  0.1703E+00
     -6.282  0.3379E-01  0.1730E+00
     -6.201  0.4008E-01  0.1762E+00
     -6.121  0.3266E-01  0.1788E+00
     -6.040  0.2763E-01  0.1811E+00
     -5.960  0.3505E-01  0.1839E+00
     -5.879  0.3937E-01  0.1871E+00
     -5.799  0.3235E-01  0.1897E+00
     -5.718  0.3313E-01  0.1923E+00
     -5.638  0.4441E-01  0.1959E+00
     -5.558  0.2908E-01  0.1982E+00
     -5.477  0.3449E-01  0.2010E+00
     -5.397  0.5640E-01  0.2055E+00
     -5.316  0.4846E-01  0.2094E+00
     -5.236  0.6104E-01  0.2144E+00
     -5.155  0.4237E-01  0.2178E+00
     -5.075  0.5528E-01  0.2222E+00
     -4.994  0.4526E-01  0.2259E+00
     -4.914  0.4729E-01  0.2297E+00
     -4.833  0.4716E-01  0.2335E+00
     -4.753  0.4951E-01  0.2374E+00
     -4.673  0.4184E-01  0.2408E+00
     -4.592  0.4887E-01  0.2447E+00
     -4.512  0.3510E-01  0.2476E+00
     -4.431  0.3127E-01  0.2501E+00
     -4.351  0.2912E-01  0.2524E+00
     -4.270  0.2090E-01  0.2541E+00
     -4.190  0.1010E-01  0.2549E+00
     -4.109  0.5879E-02  0.2554E+00
     -4.029  0.1122E-01  0.2563E+00
     -3.948  0.1307E-01  0.2573E+00
     -3.868  0.1963E-01  0.2589E+00
     -3.787  0.2397E-01  0.2608E+00
     -3.707  0.2527E-01  0.2629E+00
     -3.627  0.1889E-01  0.2644E+00
     -3.546  0.1662E-01  0.2657E+00
     -3.466  0.1968E-01  0.2673E+00
     -3.385  0.1936E-01  0.2689E+00
     -3.305  0.1187E-01  0.2698E+00
     -3.224  0.1838E-01  0.2713E+00
     -3.144  0.1729E-01  0.2727E+00
     -3.063  0.2310E-01  0.2746E+00
     -2.983  0.1702E-01  0.2759E+00
     -2.902  0.2929E-02  0.2762E+00
     -2.822  0.2644E-02  0.2764E+00
     -2.742  0.1355E-02  0.2765E+00
     -2.661  0.2942E-02  0.2767E+00
     -2.581  0.2963E-02  0.2770E+00
     -2.500  0.9807E-03  0.2770E+00
     -2.420  0.3211E-02  0.2773E+00
     -2.339  0.7983E-02  0.2779E+00
     -2.259  0.8238E-02  0.2786E+00
     -2.178  0.2542E-02  0.2788E+00
     -2.098  0.5872E-04  0.2788E+00
     -2.017  0.3309E-05  0.2788E+00
     -1.937  0.7332E-03  0.2789E+00
     -1.857  0.3615E-02  0.2792E+00
     -1.776  0.2823E-02  0.2794E+00
     -1.696  0.4967E-03  0.2794E+00
     -1.615  0.3357E-02  0.2797E+00
     -1.535  0.3385E-02  0.2800E+00
     -1.454  0.3254E-03  0.2800E+00
     -1.374  0.1389E-02  0.2801E+00
     -1.293  0.9822E-02  0.2809E+00
     -1.213  0.2054E-01  0.2826E+00
     -1.132  0.2735E-01  0.2848E+00
     -1.052  0.1527E-01  0.2860E+00
     -0.972  0.1363E-01  0.2871E+00
     -0.891  0.1400E-01  0.2882E+00
     -0.811  0.1831E-01  0.2897E+00
     -0.730  0.3193E-01  0.2922E+00
     -0.650  0.2249E-01  0.2941E+00
     -0.569  0.9328E-02  0.2948E+00
     -0.489  0.1426E-01  0.2960E+00
     -0.408  0.2036E-01  0.2976E+00
     -0.328  0.2278E-01  0.2994E+00
     -0.247  0.2039E-01  0.3011E+00
     -0.167  0.1586E-01  0.3023E+00
     -0.087  0.1996E-01  0.3039E+00
     -0.006  0.1383E-01  0.3051E+00
      0.074  0.1646E-01  0.3064E+00
      0.155  0.1055E-01  0.3072E+00
      0.235  0.1216E-01  0.3082E+00
      0.316  0.1805E-01  0.3097E+00
      0.396  0.1943E-01  0.3112E+00
      0.477  0.2530E-01  0.3133E+00
      0.557  0.3330E-01  0.3159E+00
      0.638  0.2307E-01  0.3178E+00
      0.718  0.2745E-01  0.3200E+00
      0.798  0.2677E-01  0.3222E+00
      0.879  0.3075E-01  0.3246E+00
      0.959  0.2497E-01  0.3266E+00
      1.040  0.2123E-01  0.3284E+00
      1.120  0.2632E-01  0.3305E+00
      1.201  0.2237E-01  0.3323E+00
      1.281  0.2274E-01  0.3341E+00
      1.362  0.2580E-01  0.3362E+00
      1.442  0.2347E-01  0.3381E+00
      1.523  0.3709E-01  0.3410E+00
      1.603  0.2981E-01  0.3434E+00
      1.684  0.2684E-01  0.3456E+00
      1.764  0.2488E-01  0.3476E+00
      1.844  0.3273E-01  0.3502E+00
      1.925  0.3309E-01  0.3529E+00
      2.005  0.3864E-01  0.3560E+00
      2.086  0.2668E-01  0.3582E+00
      2.166  0.3167E-01  0.3607E+00
      2.247  0.5098E-01  0.3648E+00
      2.327  0.5089E-01  0.3689E+00
      2.408  0.3929E-01  0.3721E+00
      2.488  0.2947E-01  0.3744E+00
      2.569  0.4232E-01  0.3778E+00
      2.649  0.3731E-01  0.3808E+00
      2.729  0.4121E-01  0.3842E+00
      2.810  0.3739E-01  0.3872E+00
      2.890  0.3445E-01  0.3899E+00
      2.971  0.4056E-01  0.3932E+00
      3.051  0.3289E-01  0.3958E+00
      3.132  0.4418E-01  0.3994E+00
      3.212  0.5911E-01  0.4042E+00
      3.293  0.6165E-01  0.4091E+00
      3.373  0.5065E-01  0.4132E+00
      3.454  0.3535E-01  0.4160E+00
      3.534  0.2651E-01  0.4182E+00
      3.614  0.1635E-01  0.4195E+00
      3.695  0.6092E-02  0.4200E+00
      3.775  0.3313E-03  0.4200E+00
      3.856  0.3373E-06  0.4200E+00
      3.936  0.2815E-11  0.4200E+00
      4.017  0.0000E+00  0.4200E+00
      4.097  0.0000E+00  0.4200E+00
      4.178  0.0000E+00  0.4200E+00
      4.258  0.0000E+00  0.4200E+00
      4.339  0.0000E+00  0.4200E+00
      4.419  0.0000E+00  0.4200E+00
      4.499  0.0000E+00  0.4200E+00
      4.580  0.0000E+00  0.4200E+00
      4.660  0.0000E+00  0.4200E+00
      4.741  0.0000E+00  0.4200E+00
