<?xml version="1.0" encoding="ISO-8859-1"?>
<modeling>
 <generator>
  <i name="program" type="string">vasp </i>
  <i name="version" type="string">6.5.0  </i>
  <i name="subversion" type="string">16Dec24 (build Jan 08 2025 16:17:04) complex                          parallel </i>
  <i name="platform" type="string">LinuxIFC </i>
  <i name="date" type="string">2025 02 24 </i>
  <i name="time" type="string">16:09:11 </i>
 </generator>
 <incar>
  <i type="string" name="SYSTEM">Parameters</i>
  <i type="int" name="ISTART">     0</i>
  <i type="string" name="PREC">Accurate</i>
  <i type="string" name="ALGO">Normal</i>
  <i type="int" name="ISPIN">     1</i>
  <i type="int" name="ICHARG">     2</i>
  <i type="int" name="NELM">    60</i>
  <i type="int" name="IBRION">     2</i>
  <i name="EDIFF">      0.00000100</i>
  <i name="EDIFFG">     -0.01000000</i>
  <i type="int" name="NSW">   300</i>
  <i type="int" name="ISIF">     3</i>
  <i name="ENCUT">    600.00000000</i>
  <i name="POTIM">      0.50000000</i>
  <i type="int" name="ISMEAR">     0</i>
  <i name="SIGMA">      0.05000000</i>
  <i type="logical" name="LWAVE"> F  </i>
  <i type="logical" name="LCHARG"> F  </i>
  <i type="string" name="GGA">PE</i>
  <i type="logical" name="LDIPOL"> T  </i>
  <i type="int" name="IDIPOL">     3</i>
  <v name="DIPOL">      0.50000000      0.50000000      0.14400000</v>
  <i type="int" name="IVDW">    12</i>
  <v type="logical" name="LATTICE_CONSTRAINTS"> T   T   F  </v>
 </incar>
 <primitive_cell>
  <structure name="primitive_cell" >
   <crystal>
    <varray name="basis" >
     <v>       5.70097065       0.00000000       0.00000000 </v>
     <v>       0.00000000       6.20187140       0.00000000 </v>
     <v>       0.00000000       0.00000000      28.08811665 </v>
    </varray>
    <i name="volume">    993.10274295 </i>
    <varray name="rec_basis" >
     <v>       0.17540873       0.00000000       0.00000000 </v>
     <v>       0.00000000       0.16124165       0.00000000 </v>
     <v>       0.00000000       0.00000000       0.03560224 </v>
    </varray>
   </crystal>
   <varray name="positions" >
    <v>       0.52128989       0.63795769       0.07198878 </v>
    <v>       0.52128989       0.63795769       0.21596633 </v>
    <v>       0.47871011       0.36204231       0.07198878 </v>
    <v>       0.47871011       0.36204231       0.21596633 </v>
    <v>       0.97871011       0.63795769       0.07198878 </v>
    <v>       0.97871011       0.63795769       0.21596633 </v>
    <v>       0.02128989       0.36204231       0.07198878 </v>
    <v>       0.02128989       0.36204231       0.21596633 </v>
    <v>       0.59744966       0.89986831       0.07198878 </v>
    <v>       0.59744966       0.89986831       0.21596633 </v>
    <v>       0.40255034       0.10013168       0.07198878 </v>
    <v>       0.40255034       0.10013168       0.21596633 </v>
    <v>       0.90255034       0.89986831       0.07198878 </v>
    <v>       0.90255034       0.89986831       0.21596633 </v>
    <v>       0.09744966       0.10013168       0.07198878 </v>
    <v>       0.09744966       0.10013168       0.21596633 </v>
    <v>       0.75000000       0.72957939       0.11396758 </v>
    <v>       0.75000000       0.72957939       0.25794514 </v>
    <v>       0.25000000       0.27042061       0.03000997 </v>
    <v>       0.25000000       0.27042061       0.17398753 </v>
    <v>       0.75000000       0.72957939       0.03000997 </v>
    <v>       0.75000000       0.72957939       0.17398753 </v>
    <v>       0.25000000       0.27042061       0.11396758 </v>
    <v>       0.25000000       0.27042061       0.25794514 </v>
    <v>       0.25000000       0.52399302       0.07198878 </v>
    <v>       0.25000000       0.52399302       0.21596633 </v>
    <v>       0.75000000       0.47600695       0.07198878 </v>
    <v>       0.75000000       0.47600695       0.21596633 </v>
   </varray>
  </structure>
  <varray name="primitive_index" >
   <v type="int" >        1 </v>
   <v type="int" >        2 </v>
   <v type="int" >        3 </v>
   <v type="int" >        4 </v>
   <v type="int" >        5 </v>
   <v type="int" >        6 </v>
   <v type="int" >        7 </v>
   <v type="int" >        8 </v>
   <v type="int" >        9 </v>
   <v type="int" >       10 </v>
   <v type="int" >       11 </v>
   <v type="int" >       12 </v>
   <v type="int" >       13 </v>
   <v type="int" >       14 </v>
   <v type="int" >       15 </v>
   <v type="int" >       16 </v>
   <v type="int" >       17 </v>
   <v type="int" >       18 </v>
   <v type="int" >       19 </v>
   <v type="int" >       20 </v>
   <v type="int" >       21 </v>
   <v type="int" >       22 </v>
   <v type="int" >       23 </v>
   <v type="int" >       24 </v>
   <v type="int" >       25 </v>
   <v type="int" >       26 </v>
   <v type="int" >       27 </v>
   <v type="int" >       28 </v>
  </varray>
 </primitive_cell>
 <kpoints>
  <generation param="Monkhorst-Pack">
   <v type="int" name="divisions">      10        9        1 </v>
   <v name="usershift">      0.00000000       0.00000000       0.00000000 </v>
   <v name="genvec1">      0.10000000       0.00000000       0.00000000 </v>
   <v name="genvec2">      0.00000000       0.11111111       0.00000000 </v>
   <v name="genvec3">      0.00000000       0.00000000       1.00000000 </v>
   <v name="shift">      0.50000000       0.00000000       0.00000000 </v>
  </generation>
  <varray name="kpointlist" >
   <v>       0.05000000       0.00000000       0.00000000 </v>
   <v>       0.15000000       0.00000000       0.00000000 </v>
   <v>       0.25000000       0.00000000       0.00000000 </v>
   <v>       0.35000000       0.00000000       0.00000000 </v>
   <v>       0.45000000       0.00000000       0.00000000 </v>
   <v>       0.05000000       0.11111111       0.00000000 </v>
   <v>       0.15000000       0.11111111       0.00000000 </v>
   <v>       0.25000000       0.11111111       0.00000000 </v>
   <v>       0.35000000       0.11111111       0.00000000 </v>
   <v>       0.45000000       0.11111111       0.00000000 </v>
   <v>       0.05000000       0.22222222       0.00000000 </v>
   <v>       0.15000000       0.22222222       0.00000000 </v>
   <v>       0.25000000       0.22222222       0.00000000 </v>
   <v>       0.35000000       0.22222222       0.00000000 </v>
   <v>       0.45000000       0.22222222       0.00000000 </v>
   <v>       0.05000000       0.33333333       0.00000000 </v>
   <v>       0.15000000       0.33333333       0.00000000 </v>
   <v>       0.25000000       0.33333333       0.00000000 </v>
   <v>       0.35000000       0.33333333       0.00000000 </v>
   <v>       0.45000000       0.33333333       0.00000000 </v>
   <v>       0.05000000       0.44444444       0.00000000 </v>
   <v>       0.15000000       0.44444444       0.00000000 </v>
   <v>       0.25000000       0.44444444       0.00000000 </v>
   <v>       0.35000000       0.44444444       0.00000000 </v>
   <v>       0.45000000       0.44444444       0.00000000 </v>
  </varray>
  <varray name="weights" >
   <v>       0.02222222 </v>
   <v>       0.02222222 </v>
   <v>       0.02222222 </v>
   <v>       0.02222222 </v>
   <v>       0.02222222 </v>
   <v>       0.04444444 </v>
   <v>       0.04444444 </v>
   <v>       0.04444444 </v>
   <v>       0.04444444 </v>
   <v>       0.04444444 </v>
   <v>       0.04444444 </v>
   <v>       0.04444444 </v>
   <v>       0.04444444 </v>
   <v>       0.04444444 </v>
   <v>       0.04444444 </v>
   <v>       0.04444444 </v>
   <v>       0.04444444 </v>
   <v>       0.04444444 </v>
   <v>       0.04444444 </v>
   <v>       0.04444444 </v>
   <v>       0.04444444 </v>
   <v>       0.04444444 </v>
   <v>       0.04444444 </v>
   <v>       0.04444444 </v>
   <v>       0.04444444 </v>
  </varray>
 </kpoints>
 <parameters>
  <separator name="general" >
   <i type="string" name="SYSTEM">Parameters</i>
   <i type="logical" name="LCOMPAT"> F  </i>
  </separator>
  <separator name="electronic" >
   <i type="string" name="PREC">accura</i>
   <i name="ENMAX">    600.00000000</i>
   <i name="ENAUG">    535.51400000</i>
   <i name="EDIFF">      0.00000100</i>
   <i type="int" name="IALGO">    38</i>
   <i type="int" name="IWAVPR">    11</i>
   <i type="int" name="NBANDS">    63</i>
   <i type="int" name="NBANDSLOW">    -1</i>
   <i type="int" name="NBANDSHIGH">    -1</i>
   <i name="NELECT">     84.00000000</i>
   <i type="int" name="TURBO">     0</i>
   <i type="int" name="IRESTART">     0</i>
   <i type="int" name="NREBOOT">     0</i>
   <i type="int" name="NMIN">     0</i>
   <i name="EREF">      0.00000000</i>
   <separator name="electronic smearing" >
    <i type="int" name="ISMEAR">     0</i>
    <i name="SIGMA">      0.05000000</i>
    <i name="KSPACING">      0.50000000</i>
    <i type="logical" name="KGAMMA"> T  </i>
    <i type="logical" name="KBLOWUP"> T  </i>
   </separator>
   <separator name="electronic projectors" >
    <i type="logical" name="LREAL"> F  </i>
    <v name="ROPT">      0.00000000</v>
    <i type="int" name="LMAXPAW">  -100</i>
    <i type="int" name="LMAXMIX">     2</i>
    <i type="logical" name="NLSPLINE"> F  </i>
   </separator>
   <separator name="electronic startup" >
    <i type="int" name="ISTART">     0</i>
    <i type="int" name="ICHARG">     2</i>
    <i type="int" name="INIWAV">     1</i>
   </separator>
   <separator name="electronic spin" >
    <i type="int" name="ISPIN">     1</i>
    <i type="logical" name="LNONCOLLINEAR"> F  </i>
    <v name="MAGMOM">      1.00000000      1.00000000      1.00000000      1.00000000      1.00000000      1.00000000      1.00000000      1.00000000      1.00000000      1.00000000      1.00000000      1.00000000      1.00000000      1.00000000      1.00000000      1.00000000      1.00000000      1.00000000      1.00000000      1.00000000
      1.00000000      1.00000000      1.00000000      1.00000000      1.00000000      1.00000000      1.00000000      1.00000000</v>
    <i name="NUPDOWN">     -1.00000000</i>
    <i type="logical" name="LSORBIT"> F  </i>
    <v name="SAXIS">      0.00000000      0.00000000      1.00000000</v>
    <i type="logical" name="LSPIRAL"> F  </i>
    <v name="QSPIRAL">      0.00000000      0.00000000      0.00000000</v>
    <i type="logical" name="LZEROZ"> F  </i>
   </separator>
   <separator name="electronic exchange-correlation" >
    <i type="logical" name="LASPH"> F  </i>
   </separator>
   <separator name="electronic convergence" >
    <i type="int" name="NELM">    60</i>
    <i type="int" name="NELMDL">    -5</i>
    <i type="int" name="NELMIN">     2</i>
    <i name="ENINI">    600.00000000</i>
    <separator name="electronic convergence detail" >
     <i type="logical" name="LDIAG"> T  </i>
     <i type="logical" name="LSUBROT"> F  </i>
     <i name="WEIMIN">      0.00100000</i>
     <i name="EBREAK">      0.00000000</i>
     <i name="DEPER">      0.30000000</i>
     <i type="int" name="NRMM">     4</i>
     <i name="TIME">      0.40000000</i>
    </separator>
   </separator>
   <separator name="electronic mixer" >
    <i name="AMIX">      0.40000000</i>
    <i name="BMIX">      1.00000000</i>
    <i name="AMIN">      0.10000000</i>
    <i name="AMIX_MAG">      1.60000000</i>
    <i name="BMIX_MAG">      1.00000000</i>
    <separator name="electronic mixer details" >
     <i type="int" name="IMIX">     4</i>
     <i type="logical" name="MIXFIRST"> F  </i>
     <i type="int" name="MAXMIX">   -45</i>
     <i name="WC">    100.00000000</i>
     <i type="int" name="INIMIX">     1</i>
     <i type="int" name="MIXPRE">     1</i>
     <i type="int" name="MREMOVE">     5</i>
    </separator>
   </separator>
   <separator name="electronic dipolcorrection" >
    <i type="logical" name="LDIPOL"> T  </i>
    <i type="logical" name="LMONO"> F  </i>
    <i type="int" name="IDIPOL">     3</i>
    <i name="EPSILON">      1.00000000</i>
    <v name="DIPOL">      0.50000000      0.50000000      0.14400000</v>
    <i name="EFIELD">      0.00000000</i>
    <i type="logical" name="LVACPOTAV"> F  </i>
   </separator>
  </separator>
  <separator name="grids" >
   <i type="int" name="NGX">    48</i>
   <i type="int" name="NGY">    50</i>
   <i type="int" name="NGZ">   224</i>
   <i type="int" name="NGXF">    96</i>
   <i type="int" name="NGYF">   100</i>
   <i type="int" name="NGZF">   448</i>
   <i type="logical" name="ADDGRID"> F  </i>
  </separator>
  <separator name="ionic" >
   <i type="int" name="NSW">   300</i>
   <i type="int" name="IBRION">     2</i>
   <i type="int" name="MDALGO">     0</i>
   <i type="int" name="ISIF">     3</i>
   <i name="PSTRESS">      0.00000000</i>
   <i name="EDIFFG">     -0.01000000</i>
   <i type="int" name="NFREE">     1</i>
   <i name="POTIM">      0.50000000</i>
   <i name="SMASS">     -3.00000000</i>
   <i name="SCALEE">      1.00000000</i>
  </separator>
  <separator name="ionic md" >
   <i name="TEBEG">      0.00010000</i>
   <i name="TEEND">      0.00010000</i>
   <i type="int" name="NBLOCK">     1</i>
   <i type="int" name="KBLOCK">   300</i>
   <i type="int" name="NPACO">   256</i>
   <i name="APACO">     10.00000000</i>
  </separator>
  <separator name="symmetry" >
   <i type="int" name="ISYM">     2</i>
   <i name="SYMPREC">      0.00001000</i>
  </separator>
  <separator name="dos" >
   <i type="int" name="LORBIT">     0</i>
   <v name="RWIGS">     -1.00000000</v>
   <i type="int" name="NEDOS">   301</i>
   <i name="EMIN">     10.00000000</i>
   <i name="EMAX">    -10.00000000</i>
   <i name="EFERMI">      0.00000000</i>
  </separator>
  <separator name="writing" >
   <i type="int" name="NWRITE">     2</i>
   <i type="logical" name="LWAVE"> F  </i>
   <i type="logical" name="LDOWNSAMPLE"> F  </i>
   <i type="logical" name="LCHARG"> F  </i>
   <i type="logical" name="LPARD"> F  </i>
   <i type="logical" name="LVTOT"> F  </i>
   <i type="logical" name="LVHAR"> F  </i>
   <i type="logical" name="LELF"> F  </i>
   <i type="logical" name="LOPTICS"> F  </i>
   <v name="STM">      0.00000000      0.00000000      0.00000000      0.00000000      0.00000000      0.00000000      0.00000000</v>
  </separator>
  <separator name="performance" >
   <i type="int" name="NPAR">     7</i>
   <i type="int" name="NSIM">     4</i>
   <i type="int" name="NBLK">    -1</i>
   <i type="logical" name="LPLANE"> T  </i>
   <i type="logical" name="LSCALAPACK"> T  </i>
   <i type="logical" name="LSCAAWARE"> F  </i>
   <i type="logical" name="LSCALU"> F  </i>
   <i type="logical" name="LASYNC"> F  </i>
   <i type="logical" name="LORBITALREAL"> F  </i>
  </separator>
  <separator name="miscellaneous" >
   <i type="int" name="IDIOT">     3</i>
   <i type="int" name="PHON_NSTRUCT">    -1</i>
   <i type="logical" name="LMUSIC"> F  </i>
   <v name="POMASS">     10.81100000</v>
   <v name="DARWINR">      0.00000000</v>
   <v name="DARWINV">      1.00000000</v>
   <i type="logical" name="LCORR"> T  </i>
  </separator>
  <i type="logical" name="GGA_COMPAT"> T  </i>
  <i type="logical" name="LBERRY"> F  </i>
  <i type="int" name="ICORELEVEL">     0</i>
  <i type="logical" name="LDAU"> F  </i>
  <i type="int" name="I_CONSTRAINED_M">     0</i>
  <separator name="electronic exchange-correlation" >
   <i type="string" name="GGA    ">PE</i>
   <i type="string" name="XC_C">1</i>
   <i type="int" name="VOSKOWN">     0</i>
   <i type="logical" name="LHFCALC"> F  </i>
   <i type="string" name="PRECFOCK"></i>
   <i type="logical" name="LSYMGRAD"> F  </i>
   <i type="logical" name="LHFONE"> F  </i>
   <i type="logical" name="LRHFCALC"> F  </i>
   <i type="logical" name="LTHOMAS"> F  </i>
   <i type="logical" name="LMODELHF"> F  </i>
   <i type="logical" name="LFOCKACE"> F  </i>
   <i name="ENCUT4O">     -1.00000000</i>
   <i type="int" name="EXXOEP">     0</i>
   <i type="int" name="FOURORBIT">     0</i>
   <i name="AEXX">      0.00000000</i>
   <i name="HFALPHA">      0.00000000</i>
   <i name="MCALPHA">      0.00000000</i>
   <i name="ALDAX">      1.00000000</i>
   <i name="AGGAX">      1.00000000</i>
   <i name="AMGGAX">      1.00000000</i>
   <i name="ALDAC">      1.00000000</i>
   <i name="AGGAC">      1.00000000</i>
   <i name="AMGGAC">      1.00000000</i>
   <i type="int" name="NKREDX">     1</i>
   <i type="int" name="NKREDY">     1</i>
   <i type="int" name="NKREDZ">     1</i>
   <i type="logical" name="SHIFTRED"> F  </i>
   <i type="logical" name="ODDONLY"> F  </i>
   <i type="logical" name="EVENONLY"> F  </i>
   <i type="int" name="LMAXFOCK">     0</i>
   <i type="int" name="NMAXFOCKAE">     0</i>
   <i type="logical" name="LFOCKAEDFT"> F  </i>
   <i name="HFSCREEN">      0.00000000</i>
   <i name="HFSCREENC">      0.00000000</i>
   <i type="int" name="NBANDSGWLOW">     0</i>
  </separator>
  <separator name="vdW DFT" >
   <i type="logical" name="LUSE_VDW"> F  </i>
   <i type="int" name="IVDW_NL">    -1</i>
   <i type="logical" name="LSPIN_VDW"> F  </i>
   <i name="ZAB_VDW">     -0.84910000</i>
   <i name="GAMMA_VDW">      1.39626340</i>
   <i name="ALPHA_VDW">      0.00000000</i>
   <i name="PARAM1">      0.12340000</i>
   <i name="PARAM2">      1.00000000</i>
   <i name="BPARAM">      6.30000000</i>
   <i name="CPARAM">      0.00930000</i>
  </separator>
  <separator name="model GW" >
   <i type="int" name="MODEL_GW">     0</i>
   <i name="MODEL_EPS0">     21.28077306</i>
   <i name="MODEL_ALPHA">      1.00000000</i>
  </separator>
  <separator name="linear response parameters" >
   <i type="logical" name="LEPSILON"> F  </i>
   <i type="logical" name="LRPA"> F  </i>
   <i type="logical" name="LNABLA"> F  </i>
   <i type="logical" name="LVEL"> F  </i>
   <i name="CSHIFT">      0.10000000</i>
   <i name="OMEGAMAX">     -1.00000000</i>
   <i name="DEG_THRESHOLD">      0.00200000</i>
   <i name="RTIME">     -0.10000000</i>
   <i name="WPLASMAI">      0.00000000</i>
   <v name="DFIELD">      0.00000000      0.00000000      0.00000000</v>
   <v name="WPLASMA">      0.00000000      0.00000000      0.00000000      0.00000000      0.00000000      0.00000000      0.00000000      0.00000000      0.00000000</v>
  </separator>
  <separator name="orbital magnetization" >
   <i type="logical" name="NUCIND"> F  </i>
   <v name="MAGPOS">      0.00000000      0.00000000      0.00000000</v>
   <i type="logical" name="LNICSALL"> T  </i>
   <i type="logical" name="ORBITALMAG"> F  </i>
   <i type="logical" name="LMAGBLOCH"> F  </i>
   <i type="logical" name="LCHIMAG"> F  </i>
   <i type="logical" name="LGAUGE"> T  </i>
   <i type="int" name="MAGATOM">     0</i>
   <v name="MAGDIPOL">      0.00000000      0.00000000      0.00000000</v>
   <v name="AVECCONST">      0.00000000      0.00000000      0.00000000</v>
  </separator>
  <separator name="response functions" >
   <i type="logical" name="LALL_IN_ONE"> F  </i>
   <i type="int" name="IALL_IN_ONE">    -1</i>
   <i type="int" name="NBANDS_WAVE">    -1</i>
   <i type="logical" name="LFINITE_TEMPERATURE"> F  </i>
   <i type="logical" name="LADDER"> F  </i>
   <i type="logical" name="LRPAFORCE"> F  </i>
   <i type="logical" name="LFXC"> F  </i>
   <i type="logical" name="LHARTREE"> T  </i>
   <i type="int" name="IBSE">     2</i>
   <v type="int" name="KPOINT">    -1     0     0     0</v>
   <i type="logical" name="LTCTC"> F  </i>
   <i type="logical" name="LTCTE"> F  </i>
   <i type="logical" name="LTETE"> F  </i>
   <i type="logical" name="LTRIPLET"> F  </i>
   <i type="logical" name="LFXCEPS"> F  </i>
   <i type="logical" name="LFXHEG"> F  </i>
   <i type="int" name="NATURALO">     2</i>
   <i type="logical" name="LHOLEGF"> F  </i>
   <i type="logical" name="L2ORDER"> F  </i>
   <i type="logical" name="LDMP1"> F  </i>
   <i type="logical" name="LMP2LT"> F  </i>
   <i type="logical" name="LSMP2LT"> F  </i>
   <i type="logical" name="LGWLF"> F  </i>
   <i name="ENCUTGW">     -1.60000002</i>
   <i name="ENCUTGWSOFT">     -1.60000002</i>
   <i name="ENCUTLF">     -1.00000000</i>
   <i type="logical" name="ESF_SPLINES"> F  </i>
   <i name="ESF_CONV">      0.01000000</i>
   <i type="int" name="ESF_NINTER">    15</i>
   <i type="int" name="LMAXMP2">    -1</i>
   <i name="SCISSOR">      0.00000000</i>
   <i type="int" name="NOMEGA">     0</i>
   <i type="int" name="NOMEGAR">     0</i>
   <i type="int" name="NBANDSGW">    -1</i>
   <i type="int" name="NBANDSO">    -1</i>
   <i type="int" name="NBANDSV">    -1</i>
   <i type="int" name="NELMGW">     1</i>
   <i type="int" name="NELMHF">     1</i>
   <i type="int" name="DIM">     3</i>
   <i type="int" name="IESPILON">     4</i>
   <i type="int" name="ANTIRES">     0</i>
   <i name="OMEGAMAX">    -30.00000000</i>
   <i name="OMEGAMIN">    -30.00000000</i>
   <i name="OMEGATL">   -200.00000000</i>
   <i type="int" name="OMEGAGRID">     0</i>
   <i name="CSHIFT">     -0.10000000</i>
   <i type="logical" name="LSELFENERGY"> F  </i>
   <i type="logical" name="LSPECTRAL"> F  </i>
   <i type="logical" name="LSPECTRALGW"> F  </i>
   <i type="logical" name="LSINGLES"> F  </i>
   <i type="logical" name="LFERMIGW"> F  </i>
   <i type="logical" name="ODDONLYGW"> F  </i>
   <i type="logical" name="EVENONLYGW"> F  </i>
   <i type="int" name="NKREDLFX">     1</i>
   <i type="int" name="NKREDLFY">     1</i>
   <i type="int" name="NKREDLFZ">     1</i>
   <i type="int" name="MAXMEM">  2800</i>
   <i type="int" name="TELESCOPE">     0</i>
   <i type="int" name="NTAUPAR">    -1</i>
   <i type="int" name="NOMEGAPAR">    -1</i>
   <i name="DAMP_NEWTON">      0.80000001</i>
   <i name="LAMBDA">      1.00000000</i>
  </separator>
  <separator name="External order field" >
   <i name="OFIELD_KAPPA">      0.00000000</i>
   <v name="OFIELD_K">      0.00000000      0.00000000      0.00000000</v>
   <i name="OFIELD_Q6_NEAR">      0.00000000</i>
   <i name="OFIELD_Q6_FAR">      0.00000000</i>
   <i name="OFIELD_A">      0.00000000</i>
  </separator>
  <separator name="optional k-points parameters" >
   <i type="int" name="KPOINTS_OPT_MODE">     1</i>
   <i type="logical" name="LKPOINTS_OPT"> F  </i>
  </separator>
 </parameters>
 <atominfo>
  <atoms>      28 </atoms>
  <types>       1 </types>
  <array name="atoms" >
   <dimension dim="1">ion</dimension>
   <field type="string">element</field>
   <field type="int">atomtype</field>
   <set>
    <rc><c>B </c><c>   1</c></rc>
    <rc><c>B </c><c>   1</c></rc>
    <rc><c>B </c><c>   1</c></rc>
    <rc><c>B </c><c>   1</c></rc>
    <rc><c>B </c><c>   1</c></rc>
    <rc><c>B </c><c>   1</c></rc>
    <rc><c>B </c><c>   1</c></rc>
    <rc><c>B </c><c>   1</c></rc>
    <rc><c>B </c><c>   1</c></rc>
    <rc><c>B </c><c>   1</c></rc>
    <rc><c>B </c><c>   1</c></rc>
    <rc><c>B </c><c>   1</c></rc>
    <rc><c>B </c><c>   1</c></rc>
    <rc><c>B </c><c>   1</c></rc>
    <rc><c>B </c><c>   1</c></rc>
    <rc><c>B </c><c>   1</c></rc>
    <rc><c>B </c><c>   1</c></rc>
    <rc><c>B </c><c>   1</c></rc>
    <rc><c>B </c><c>   1</c></rc>
    <rc><c>B </c><c>   1</c></rc>
    <rc><c>B </c><c>   1</c></rc>
    <rc><c>B </c><c>   1</c></rc>
    <rc><c>B </c><c>   1</c></rc>
    <rc><c>B </c><c>   1</c></rc>
    <rc><c>B </c><c>   1</c></rc>
    <rc><c>B </c><c>   1</c></rc>
    <rc><c>B </c><c>   1</c></rc>
    <rc><c>B </c><c>   1</c></rc>
   </set>
  </array>
  <array name="atomtypes" >
   <dimension dim="1">type</dimension>
   <field type="int">atomspertype</field>
   <field type="string">element</field>
   <field>mass</field>
   <field>valence</field>
   <field type="string">pseudopotential</field>
   <set>
    <rc><c>  28</c><c>B </c><c>     10.81100000</c><c>      3.00000000</c><c>  PAW_PBE B 06Sep2000                   </c></rc>
   </set>
  </array>
 </atominfo>
 <structure name="initialpos" >
  <crystal>
   <varray name="basis" >
    <v>       5.70097065       0.00000000       0.00000000 </v>
    <v>       0.00000000       6.20187140       0.00000000 </v>
    <v>       0.00000000       0.00000000      28.08811665 </v>
   </varray>
   <i name="volume">    993.10274295 </i>
   <varray name="rec_basis" >
    <v>       0.17540873       0.00000000       0.00000000 </v>
    <v>       0.00000000       0.16124165       0.00000000 </v>
    <v>       0.00000000       0.00000000       0.03560224 </v>
   </varray>
  </crystal>
  <varray name="positions" >
   <v>       0.52128989       0.63795769       0.07198878 </v>
   <v>       0.52128989       0.63795769       0.21596633 </v>
   <v>       0.47871011       0.36204231       0.07198878 </v>
   <v>       0.47871011       0.36204231       0.21596633 </v>
   <v>       0.97871011       0.63795769       0.07198878 </v>
   <v>       0.97871011       0.63795769       0.21596633 </v>
   <v>       0.02128989       0.36204231       0.07198878 </v>
   <v>       0.02128989       0.36204231       0.21596633 </v>
   <v>       0.59744966       0.89986831       0.07198878 </v>
   <v>       0.59744966       0.89986831       0.21596633 </v>
   <v>       0.40255034       0.10013168       0.07198878 </v>
   <v>       0.40255034       0.10013168       0.21596633 </v>
   <v>       0.90255034       0.89986831       0.07198878 </v>
   <v>       0.90255034       0.89986831       0.21596633 </v>
   <v>       0.09744966       0.10013168       0.07198878 </v>
   <v>       0.09744966       0.10013168       0.21596633 </v>
   <v>       0.75000000       0.72957939       0.11396758 </v>
   <v>       0.75000000       0.72957939       0.25794514 </v>
   <v>       0.25000000       0.27042061       0.03000997 </v>
   <v>       0.25000000       0.27042061       0.17398753 </v>
   <v>       0.75000000       0.72957939       0.03000997 </v>
   <v>       0.75000000       0.72957939       0.17398753 </v>
   <v>       0.25000000       0.27042061       0.11396758 </v>
   <v>       0.25000000       0.27042061       0.25794514 </v>
   <v>       0.25000000       0.52399302       0.07198878 </v>
   <v>       0.25000000       0.52399302       0.21596633 </v>
   <v>       0.75000000       0.47600695       0.07198878 </v>
   <v>       0.75000000       0.47600695       0.21596633 </v>
  </varray>
 </structure>
 <calculation>
  <scstep>
   <time name="dav">    3.18    3.20</time>
   <time name="total">    3.23    3.25</time>
   <dipole>
    <v name="dipole">      0.00000000       0.00000000      -0.00000069 </v>
    <i name="Tr[quadrupol]">   -511.12400558 </i>
    <i name="Echarged">      0.00000000 </i>
    <i name="Edipol_quadrupol">      0.00000000 </i>
    <i name="Eion">      0.00000000 </i>
   </dipole>
   <energy>
    <i name="alphaZ">     54.30994604 </i>
    <i name="ewald">  21329.62192271 </i>
    <i name="hartreedc"> -22688.12949056 </i>
    <i name="XCdc">    192.22887642 </i>
    <i name="pawpsdc">   1217.99623415 </i>
    <i name="pawaedc">  -1194.04727563 </i>
    <i name="eentropy">     -0.01307608 </i>
    <i name="bandstr">   -300.34979442 </i>
    <i name="atom">   1992.74882108 </i>
    <i name="e_fr_energy">    604.36616372 </i>
    <i name="e_wo_entrp">    604.37923979 </i>
    <i name="e_0_energy">    604.37270175 </i>
   </energy>
  </scstep>
  <scstep>
   <time name="dav">    4.28    4.30</time>
   <time name="total">    4.28    4.30</time>
   <dipole>
    <v name="dipole">      0.00000000       0.00000000      -0.00000069 </v>
    <i name="Tr[quadrupol]">   -511.12400558 </i>
    <i name="Echarged">      0.00000000 </i>
    <i name="Edipol_quadrupol">      0.00000000 </i>
    <i name="Eion">      0.00000000 </i>
   </dipole>
   <energy>
    <i name="e_fr_energy">   -115.44506358 </i>
    <i name="e_wo_entrp">   -115.44506357 </i>
    <i name="e_0_energy">   -115.44506357 </i>
   </energy>
  </scstep>
  <scstep>
   <time name="dav">    3.77    3.79</time>
   <time name="total">    3.77    3.79</time>
   <dipole>
    <v name="dipole">      0.00000000       0.00000000      -0.00000069 </v>
    <i name="Tr[quadrupol]">   -511.12400558 </i>
    <i name="Echarged">      0.00000000 </i>
    <i name="Edipol_quadrupol">      0.00000000 </i>
    <i name="Eion">      0.00000000 </i>
   </dipole>
   <energy>
    <i name="e_fr_energy">   -194.31215220 </i>
    <i name="e_wo_entrp">   -194.31215220 </i>
    <i name="e_0_energy">   -194.31215220 </i>
   </energy>
  </scstep>
  <scstep>
   <time name="dav">    4.35    4.37</time>
   <time name="total">    4.35    4.37</time>
   <dipole>
    <v name="dipole">      0.00000000       0.00000000      -0.00000069 </v>
    <i name="Tr[quadrupol]">   -511.12400558 </i>
    <i name="Echarged">      0.00000000 </i>
    <i name="Edipol_quadrupol">      0.00000000 </i>
    <i name="Eion">      0.00000000 </i>
   </dipole>
   <energy>
    <i name="e_fr_energy">   -196.42714209 </i>
    <i name="e_wo_entrp">   -196.42714209 </i>
    <i name="e_0_energy">   -196.42714209 </i>
   </energy>
  </scstep>
  <scstep>
   <time name="dav">    4.13    4.15</time>
   <time name="total">    4.28    4.30</time>
   <dipole>
    <v name="dipole">      0.00000000       0.00000000      -0.00000069 </v>
    <i name="Tr[quadrupol]">   -511.12400558 </i>
    <i name="Echarged">      0.00000000 </i>
    <i name="Edipol_quadrupol">      0.00000000 </i>
    <i name="Eion">      0.00000000 </i>
   </dipole>
   <energy>
    <i name="e_fr_energy">   -196.48416498 </i>
    <i name="e_wo_entrp">   -196.48416498 </i>
    <i name="e_0_energy">   -196.48416498 </i>
   </energy>
  </scstep>
  <scstep>
   <time name="dav">    3.70    3.72</time>
   <time name="total">    3.90    3.92</time>
   <dipole>
    <v name="dipole">      0.00000000       0.00000000      -0.00128195 </v>
    <i name="Tr[quadrupol]">   -516.23425108 </i>
    <i name="Echarged">      0.00000000 </i>
    <i name="Edipol_quadrupol">      0.00000000 </i>
    <i name="Eion">      0.00000000 </i>
   </dipole>
   <energy>
    <i name="e_fr_energy">   -178.09182363 </i>
    <i name="e_wo_entrp">   -178.07888746 </i>
    <i name="e_0_energy">   -178.08535555 </i>
   </energy>
  </scstep>
  <scstep>
   <time name="dav">    3.97    4.00</time>
   <time name="total">    4.17    4.20</time>
   <dipole>
    <v name="dipole">      0.00000000       0.00000000      -0.00075480 </v>
    <i name="Tr[quadrupol]">   -517.79295858 </i>
    <i name="Echarged">      0.00000000 </i>
    <i name="Edipol_quadrupol">      0.00000000 </i>
    <i name="Eion">      0.00000000 </i>
   </dipole>
   <energy>
    <i name="e_fr_energy">   -175.09206536 </i>
    <i name="e_wo_entrp">   -175.07993318 </i>
    <i name="e_0_energy">   -175.08599927 </i>
   </energy>
  </scstep>
  <scstep>
   <time name="dav">    3.94    3.96</time>
   <time name="total">    4.14    4.17</time>
   <dipole>
    <v name="dipole">      0.00000000       0.00000000      -0.00033214 </v>
    <i name="Tr[quadrupol]">   -519.54452711 </i>
    <i name="Echarged">      0.00000000 </i>
    <i name="Edipol_quadrupol">      0.00000000 </i>
    <i name="Eion">      0.00000000 </i>
   </dipole>
   <energy>
    <i name="e_fr_energy">   -174.66037970 </i>
    <i name="e_wo_entrp">   -174.64968145 </i>
    <i name="e_0_energy">   -174.65503058 </i>
   </energy>
  </scstep>
  <scstep>
   <time name="dav">    3.94    3.96</time>
   <time name="total">    4.14    4.16</time>
   <dipole>
    <v name="dipole">      0.00000000       0.00000000       0.00001455 </v>
    <i name="Tr[quadrupol]">   -520.49372223 </i>
    <i name="Echarged">      0.00000000 </i>
    <i name="Edipol_quadrupol">      0.00000000 </i>
    <i name="Eion">      0.00000000 </i>
   </dipole>
   <energy>
    <i name="e_fr_energy">   -174.63040032 </i>
    <i name="e_wo_entrp">   -174.61937318 </i>
    <i name="e_0_energy">   -174.62488675 </i>
   </energy>
  </scstep>
  <scstep>
   <time name="dav">    3.97    3.99</time>
   <time name="total">    4.17    4.19</time>
   <dipole>
    <v name="dipole">      0.00000000       0.00000000       0.00043580 </v>
    <i name="Tr[quadrupol]">   -521.11163001 </i>
    <i name="Echarged">      0.00000000 </i>
    <i name="Edipol_quadrupol">      0.00000000 </i>
    <i name="Eion">      0.00000000 </i>
   </dipole>
   <energy>
    <i name="e_fr_energy">   -174.62390102 </i>
    <i name="e_wo_entrp">   -174.61316816 </i>
    <i name="e_0_energy">   -174.61853459 </i>
   </energy>
  </scstep>
  <scstep>
   <time name="dav">    3.91    3.93</time>
   <time name="total">    4.10    4.13</time>
   <dipole>
    <v name="dipole">      0.00000000       0.00000000       0.00076916 </v>
    <i name="Tr[quadrupol]">   -521.77937638 </i>
    <i name="Echarged">      0.00000000 </i>
    <i name="Edipol_quadrupol">      0.00000000 </i>
    <i name="Eion">      0.00000000 </i>
   </dipole>
   <energy>
    <i name="e_fr_energy">   -174.62257767 </i>
    <i name="e_wo_entrp">   -174.61102168 </i>
    <i name="e_0_energy">   -174.61679967 </i>
   </energy>
  </scstep>
  <scstep>
   <time name="dav">    3.86    3.88</time>
   <time name="total">    4.06    4.08</time>
   <dipole>
    <v name="dipole">      0.00000000       0.00000000       0.00098031 </v>
    <i name="Tr[quadrupol]">   -522.05434006 </i>
    <i name="Echarged">      0.00000000 </i>
    <i name="Edipol_quadrupol">      0.00000000 </i>
    <i name="Eion">      0.00000000 </i>
   </dipole>
   <energy>
    <i name="e_fr_energy">   -174.62186232 </i>
    <i name="e_wo_entrp">   -174.61048332 </i>
    <i name="e_0_energy">   -174.61617282 </i>
   </energy>
  </scstep>
  <scstep>
   <time name="dav">    3.93    3.95</time>
   <time name="total">    4.13    4.16</time>
   <dipole>
    <v name="dipole">      0.00000000       0.00000000       0.00118035 </v>
    <i name="Tr[quadrupol]">   -522.44073185 </i>
    <i name="Echarged">      0.00000000 </i>
    <i name="Edipol_quadrupol">      0.00000000 </i>
    <i name="Eion">      0.00000000 </i>
   </dipole>
   <energy>
    <i name="e_fr_energy">   -174.62383692 </i>
    <i name="e_wo_entrp">   -174.61251271 </i>
    <i name="e_0_energy">   -174.61817481 </i>
   </energy>
  </scstep>
  <scstep>
   <time name="dav">    3.98    4.00</time>
   <time name="total">    4.18    4.20</time>
   <dipole>
    <v name="dipole">      0.00000000       0.00000000       0.00122818 </v>
    <i name="Tr[quadrupol]">   -522.73161769 </i>
    <i name="Echarged">      0.00000000 </i>
    <i name="Edipol_quadrupol">      0.00000000 </i>
    <i name="Eion">      0.00000000 </i>
   </dipole>
   <energy>
    <i name="e_fr_energy">   -174.62637358 </i>
    <i name="e_wo_entrp">   -174.61497025 </i>
    <i name="e_0_energy">   -174.62067191 </i>
   </energy>
  </scstep>
  <scstep>
   <time name="dav">    3.82    3.84</time>
   <time name="total">    4.01    4.04</time>
   <dipole>
    <v name="dipole">      0.00000000       0.00000000       0.00113419 </v>
    <i name="Tr[quadrupol]">   -522.80391439 </i>
    <i name="Echarged">      0.00000000 </i>
    <i name="Edipol_quadrupol">      0.00000000 </i>
    <i name="Eion">      0.00000000 </i>
   </dipole>
   <energy>
    <i name="e_fr_energy">   -174.62739850 </i>
    <i name="e_wo_entrp">   -174.61600643 </i>
    <i name="e_0_energy">   -174.62170246 </i>
   </energy>
  </scstep>
  <scstep>
   <time name="dav">    3.45    3.47</time>
   <time name="total">    3.64    3.66</time>
   <dipole>
    <v name="dipole">      0.00000000       0.00000000       0.00083408 </v>
    <i name="Tr[quadrupol]">   -522.87322232 </i>
    <i name="Echarged">      0.00000000 </i>
    <i name="Edipol_quadrupol">      0.00000000 </i>
    <i name="Eion">      0.00000000 </i>
   </dipole>
   <energy>
    <i name="e_fr_energy">   -174.62886485 </i>
    <i name="e_wo_entrp">   -174.61748950 </i>
    <i name="e_0_energy">   -174.62317717 </i>
   </energy>
  </scstep>
  <scstep>
   <time name="dav">    3.48    3.50</time>
   <time name="total">    3.68    3.70</time>
   <dipole>
    <v name="dipole">      0.00000000       0.00000000       0.00063117 </v>
    <i name="Tr[quadrupol]">   -522.89096592 </i>
    <i name="Echarged">      0.00000000 </i>
    <i name="Edipol_quadrupol">      0.00000000 </i>
    <i name="Eion">      0.00000000 </i>
   </dipole>
   <energy>
    <i name="e_fr_energy">   -174.62940247 </i>
    <i name="e_wo_entrp">   -174.61801516 </i>
    <i name="e_0_energy">   -174.62370881 </i>
   </energy>
  </scstep>
  <scstep>
   <time name="dav">    3.35    3.37</time>
   <time name="total">    3.55    3.57</time>
   <dipole>
    <v name="dipole">      0.00000000       0.00000000       0.00034798 </v>
    <i name="Tr[quadrupol]">   -522.89518553 </i>
    <i name="Echarged">      0.00000000 </i>
    <i name="Edipol_quadrupol">      0.00000000 </i>
    <i name="Eion">      0.00000000 </i>
   </dipole>
   <energy>
    <i name="e_fr_energy">   -174.62992522 </i>
    <i name="e_wo_entrp">   -174.61854447 </i>
    <i name="e_0_energy">   -174.62423484 </i>
   </energy>
  </scstep>
  <scstep>
   <time name="dav">    3.20    3.22</time>
   <time name="total">    3.40    3.41</time>
   <dipole>
    <v name="dipole">      0.00000000       0.00000000       0.00016577 </v>
    <i name="Tr[quadrupol]">   -522.89583303 </i>
    <i name="Echarged">      0.00000000 </i>
    <i name="Edipol_quadrupol">      0.00000000 </i>
    <i name="Eion">      0.00000000 </i>
   </dipole>
   <energy>
    <i name="e_fr_energy">   -174.63016183 </i>
    <i name="e_wo_entrp">   -174.61878457 </i>
    <i name="e_0_energy">   -174.62447320 </i>
   </energy>
  </scstep>
  <scstep>
   <time name="dav">    2.84    2.86</time>
   <time name="total">    3.04    3.05</time>
   <dipole>
    <v name="dipole">      0.00000000       0.00000000       0.00008546 </v>
    <i name="Tr[quadrupol]">   -522.89517853 </i>
    <i name="Echarged">      0.00000000 </i>
    <i name="Edipol_quadrupol">      0.00000000 </i>
    <i name="Eion">      0.00000000 </i>
   </dipole>
   <energy>
    <i name="e_fr_energy">   -174.63023755 </i>
    <i name="e_wo_entrp">   -174.61886048 </i>
    <i name="e_0_energy">   -174.62454902 </i>
   </energy>
  </scstep>
  <scstep>
   <time name="dav">    2.72    2.74</time>
   <time name="total">    2.92    2.93</time>
   <dipole>
    <v name="dipole">      0.00000000       0.00000000       0.00002171 </v>
    <i name="Tr[quadrupol]">   -522.89549999 </i>
    <i name="Echarged">      0.00000000 </i>
    <i name="Edipol_quadrupol">      0.00000000 </i>
    <i name="Eion">      0.00000000 </i>
   </dipole>
   <energy>
    <i name="e_fr_energy">   -174.63028319 </i>
    <i name="e_wo_entrp">   -174.61890639 </i>
    <i name="e_0_energy">   -174.62459479 </i>
   </energy>
  </scstep>
  <scstep>
   <time name="dav">    2.74    2.76</time>
   <time name="total">    2.94    2.95</time>
   <dipole>
    <v name="dipole">      0.00000000       0.00000000       0.00000414 </v>
    <i name="Tr[quadrupol]">   -522.89608304 </i>
    <i name="Echarged">      0.00000000 </i>
    <i name="Edipol_quadrupol">      0.00000000 </i>
    <i name="Eion">      0.00000000 </i>
   </dipole>
   <energy>
    <i name="e_fr_energy">   -174.63029247 </i>
    <i name="e_wo_entrp">   -174.61891608 </i>
    <i name="e_0_energy">   -174.62460428 </i>
   </energy>
  </scstep>
  <scstep>
   <time name="dav">    2.64    2.65</time>
   <time name="total">    2.83    2.84</time>
   <dipole>
    <v name="dipole">      0.00000000       0.00000000      -0.00000133 </v>
    <i name="Tr[quadrupol]">   -522.89703646 </i>
    <i name="Echarged">      0.00000000 </i>
    <i name="Edipol_quadrupol">      0.00000000 </i>
    <i name="Eion">      0.00000000 </i>
   </dipole>
   <energy>
    <i name="e_fr_energy">   -174.63029488 </i>
    <i name="e_wo_entrp">   -174.61891845 </i>
    <i name="e_0_energy">   -174.62460667 </i>
   </energy>
  </scstep>
  <scstep>
   <time name="dav">    2.35    2.36</time>
   <time name="total">    2.39    2.41</time>
   <dipole>
    <v name="dipole">      0.00000000       0.00000000      -0.00000366 </v>
    <i name="Tr[quadrupol]">   -522.89774881 </i>
    <i name="Echarged">      0.00000000 </i>
    <i name="Edipol_quadrupol">      0.00000000 </i>
    <i name="Eion">      0.00000000 </i>
   </dipole>
   <energy>
    <i name="alphaZ">     54.30994747 </i>
    <i name="ewald">  21329.62192271 </i>
    <i name="hartreedc"> -23055.90938662 </i>
    <i name="XCdc">    200.58996195 </i>
    <i name="pawpsdc">   7165.31195138 </i>
    <i name="pawaedc">  -7143.55785364 </i>
    <i name="eentropy">     -0.01137647 </i>
    <i name="bandstr">   -717.73428358 </i>
    <i name="atom">   1992.74882108 </i>
    <i name="e_fr_energy">   -174.63029570 </i>
    <i name="e_wo_entrp">   -174.61891924 </i>
    <i name="e_0_energy">   -174.62460747 </i>
   </energy>
  </scstep>
  <structure>
   <crystal>
    <varray name="basis" >
     <v>       5.70097065       0.00000000       0.00000000 </v>
     <v>       0.00000000       6.20187140       0.00000000 </v>
     <v>       0.00000000       0.00000000      28.08811665 </v>
    </varray>
    <i name="volume">    993.10274295 </i>
    <varray name="rec_basis" >
     <v>       0.17540873       0.00000000       0.00000000 </v>
     <v>       0.00000000       0.16124165       0.00000000 </v>
     <v>       0.00000000       0.00000000       0.03560224 </v>
    </varray>
   </crystal>
   <varray name="positions" >
    <v>       0.52128989       0.63795769       0.07198878 </v>
    <v>       0.52128989       0.63795769       0.21596633 </v>
    <v>       0.47871011       0.36204231       0.07198878 </v>
    <v>       0.47871011       0.36204231       0.21596633 </v>
    <v>       0.97871011       0.63795769       0.07198878 </v>
    <v>       0.97871011       0.63795769       0.21596633 </v>
    <v>       0.02128989       0.36204231       0.07198878 </v>
    <v>       0.02128989       0.36204231       0.21596633 </v>
    <v>       0.59744966       0.89986831       0.07198878 </v>
    <v>       0.59744966       0.89986831       0.21596633 </v>
    <v>       0.40255034       0.10013168       0.07198878 </v>
    <v>       0.40255034       0.10013168       0.21596633 </v>
    <v>       0.90255034       0.89986831       0.07198878 </v>
    <v>       0.90255034       0.89986831       0.21596633 </v>
    <v>       0.09744966       0.10013168       0.07198878 </v>
    <v>       0.09744966       0.10013168       0.21596633 </v>
    <v>       0.75000000       0.72957939       0.11396758 </v>
    <v>       0.75000000       0.72957939       0.25794514 </v>
    <v>       0.25000000       0.27042061       0.03000997 </v>
    <v>       0.25000000       0.27042061       0.17398753 </v>
    <v>       0.75000000       0.72957939       0.03000997 </v>
    <v>       0.75000000       0.72957939       0.17398753 </v>
    <v>       0.25000000       0.27042061       0.11396758 </v>
    <v>       0.25000000       0.27042061       0.25794514 </v>
    <v>       0.25000000       0.52399302       0.07198878 </v>
    <v>       0.25000000       0.52399302       0.21596633 </v>
    <v>       0.75000000       0.47600695       0.07198878 </v>
    <v>       0.75000000       0.47600695       0.21596633 </v>
   </varray>
  </structure>
  <varray name="forces" >
   <v>      -0.31744232       0.43189447      -0.21638311 </v>
   <v>      -0.31744232       0.43189447       0.21638311 </v>
   <v>       0.31744232      -0.43189447      -0.21638311 </v>
   <v>       0.31744232      -0.43189447       0.21638311 </v>
   <v>       0.31744232       0.43189447      -0.21638311 </v>
   <v>       0.31744232       0.43189447       0.21638311 </v>
   <v>      -0.31744232      -0.43189447      -0.21638311 </v>
   <v>      -0.31744232      -0.43189447       0.21638311 </v>
   <v>      -0.14548655       0.28028540      -0.28339686 </v>
   <v>      -0.14548655       0.28028540       0.28339686 </v>
   <v>       0.14548655      -0.28028540      -0.28339686 </v>
   <v>       0.14548655      -0.28028540       0.28339686 </v>
   <v>       0.14548655       0.28028540      -0.28339686 </v>
   <v>       0.14548655       0.28028540       0.28339686 </v>
   <v>      -0.14548655      -0.28028540      -0.28339686 </v>
   <v>      -0.14548655      -0.28028540       0.28339686 </v>
   <v>      -0.00000000      -0.14460083      -2.30409713 </v>
   <v>       0.00000000      -0.22928423      -3.47017118 </v>
   <v>      -0.00000000       0.22928423       3.47017118 </v>
   <v>      -0.00000000       0.14460083       2.30409713 </v>
   <v>       0.00000000      -0.22928423       3.47017118 </v>
   <v>      -0.00000000      -0.14460083       2.30409713 </v>
   <v>      -0.00000000       0.14460083      -2.30409713 </v>
   <v>      -0.00000000       0.22928423      -3.47017118 </v>
   <v>      -0.00000000       0.12375935      -0.25848929 </v>
   <v>      -0.00000000       0.12375935       0.25848929 </v>
   <v>      -0.00000000      -0.12375935      -0.25848929 </v>
   <v>      -0.00000000      -0.12375935       0.25848929 </v>
  </varray>
  <varray name="stress" >
   <v>       2.16800900       0.00000000       0.00000000 </v>
   <v>       0.00000000      10.25873639       0.00000000 </v>
   <v>       0.00000000       0.00000000     -43.00746234 </v>
  </varray>
  <energy>
   <i name="e_fr_energy">   -177.73499848 </i>
   <i name="e_wo_entrp">   -177.72362201 </i>
   <i name="e_0_energy">   -177.72931024 </i>
  </energy>
  <time name="totalsc">   92.76   93.27</time>
 </calculation>
 <calculation>
  <scstep>
   <time name="dav">    2.67    2.69</time>
   <time name="total">    2.87    2.88</time>
   <dipole>
    <v name="dipole">      0.00000000       0.00000000      -0.00000417 </v>
    <i name="Tr[quadrupol]">   -529.50854113 </i>
    <i name="Echarged">      0.00000000 </i>
    <i name="Edipol_quadrupol">      0.00000000 </i>
    <i name="Eion">      0.00000000 </i>
   </dipole>
   <energy>
    <i name="alphaZ">     53.59728138 </i>
    <i name="ewald">  21240.75282680 </i>
    <i name="hartreedc"> -22940.21191894 </i>
    <i name="XCdc">    201.99199894 </i>
    <i name="pawpsdc">   7165.31215491 </i>
    <i name="pawaedc">  -7143.55805561 </i>
    <i name="eentropy">     -0.00778168 </i>
    <i name="bandstr">   -747.23153186 </i>
    <i name="atom">   1992.74882108 </i>
    <i name="e_fr_energy">   -176.60620497 </i>
    <i name="e_wo_entrp">   -176.59842329 </i>
    <i name="e_0_energy">   -176.60231413 </i>
   </energy>
  </scstep>
  <scstep>
   <time name="dav">    3.16    3.18</time>
   <time name="total">    3.35    3.37</time>
   <dipole>
    <v name="dipole">      0.00000000       0.00000000       0.00002648 </v>
    <i name="Tr[quadrupol]">   -529.65982890 </i>
    <i name="Echarged">      0.00000000 </i>
    <i name="Edipol_quadrupol">      0.00000000 </i>
    <i name="Eion">      0.00000000 </i>
   </dipole>
   <energy>
    <i name="e_fr_energy">   -176.67836862 </i>
    <i name="e_wo_entrp">   -176.67119692 </i>
    <i name="e_0_energy">   -176.67478277 </i>
   </energy>
  </scstep>
  <scstep>
   <time name="dav">    3.14    3.15</time>
   <time name="total">    3.33    3.35</time>
   <dipole>
    <v name="dipole">      0.00000000       0.00000000      -0.00000920 </v>
    <i name="Tr[quadrupol]">   -529.93703845 </i>
    <i name="Echarged">      0.00000000 </i>
    <i name="Edipol_quadrupol">      0.00000000 </i>
    <i name="Eion">      0.00000000 </i>
   </dipole>
   <energy>
    <i name="e_fr_energy">   -176.62338341 </i>
    <i name="e_wo_entrp">   -176.61465128 </i>
    <i name="e_0_energy">   -176.61901735 </i>
   </energy>
  </scstep>
  <scstep>
   <time name="dav">    3.25    3.27</time>
   <time name="total">    3.45    3.46</time>
   <dipole>
    <v name="dipole">      0.00000000       0.00000000      -0.00001230 </v>
    <i name="Tr[quadrupol]">   -530.03791300 </i>
    <i name="Echarged">      0.00000000 </i>
    <i name="Edipol_quadrupol">      0.00000000 </i>
    <i name="Eion">      0.00000000 </i>
   </dipole>
   <energy>
    <i name="e_fr_energy">   -176.62542983 </i>
    <i name="e_wo_entrp">   -176.61656407 </i>
    <i name="e_0_energy">   -176.62099695 </i>
   </energy>
  </scstep>
  <scstep>
   <time name="dav">    3.15    3.16</time>
   <time name="total">    3.35    3.36</time>
   <dipole>
    <v name="dipole">      0.00000000       0.00000000       0.00000956 </v>
    <i name="Tr[quadrupol]">   -530.11618912 </i>
    <i name="Echarged">      0.00000000 </i>
    <i name="Edipol_quadrupol">      0.00000000 </i>
    <i name="Eion">      0.00000000 </i>
   </dipole>
   <energy>
    <i name="e_fr_energy">   -176.62537270 </i>
    <i name="e_wo_entrp">   -176.61653527 </i>
    <i name="e_0_energy">   -176.62095398 </i>
   </energy>
  </scstep>
  <scstep>
   <time name="dav">    3.19    3.21</time>
   <time name="total">    3.39    3.41</time>
   <dipole>
    <v name="dipole">      0.00000000       0.00000000       0.00003029 </v>
    <i name="Tr[quadrupol]">   -530.15463931 </i>
    <i name="Echarged">      0.00000000 </i>
    <i name="Edipol_quadrupol">      0.00000000 </i>
    <i name="Eion">      0.00000000 </i>
   </dipole>
   <energy>
    <i name="e_fr_energy">   -176.62537028 </i>
    <i name="e_wo_entrp">   -176.61651235 </i>
    <i name="e_0_energy">   -176.62094132 </i>
   </energy>
  </scstep>
  <scstep>
   <time name="dav">    3.08    3.10</time>
   <time name="total">    3.28    3.29</time>
   <dipole>
    <v name="dipole">      0.00000000       0.00000000       0.00005043 </v>
    <i name="Tr[quadrupol]">   -530.19313596 </i>
    <i name="Echarged">      0.00000000 </i>
    <i name="Edipol_quadrupol">      0.00000000 </i>
    <i name="Eion">      0.00000000 </i>
   </dipole>
   <energy>
    <i name="e_fr_energy">   -176.62541866 </i>
    <i name="e_wo_entrp">   -176.61654942 </i>
    <i name="e_0_energy">   -176.62098404 </i>
   </energy>
  </scstep>
  <scstep>
   <time name="dav">    3.03    3.04</time>
   <time name="total">    3.22    3.24</time>
   <dipole>
    <v name="dipole">      0.00000000       0.00000000       0.00006649 </v>
    <i name="Tr[quadrupol]">   -530.22760832 </i>
    <i name="Echarged">      0.00000000 </i>
    <i name="Edipol_quadrupol">      0.00000000 </i>
    <i name="Eion">      0.00000000 </i>
   </dipole>
   <energy>
    <i name="e_fr_energy">   -176.62547776 </i>
    <i name="e_wo_entrp">   -176.61657881 </i>
    <i name="e_0_energy">   -176.62102828 </i>
   </energy>
  </scstep>
  <scstep>
   <time name="dav">    3.04    3.06</time>
   <time name="total">    3.24    3.25</time>
   <dipole>
    <v name="dipole">      0.00000000       0.00000000       0.00007903 </v>
    <i name="Tr[quadrupol]">   -530.25917638 </i>
    <i name="Echarged">      0.00000000 </i>
    <i name="Edipol_quadrupol">      0.00000000 </i>
    <i name="Eion">      0.00000000 </i>
   </dipole>
   <energy>
    <i name="e_fr_energy">   -176.62555099 </i>
    <i name="e_wo_entrp">   -176.61664060 </i>
    <i name="e_0_energy">   -176.62109579 </i>
   </energy>
  </scstep>
  <scstep>
   <time name="dav">    2.90    2.91</time>
   <time name="total">    3.10    3.11</time>
   <dipole>
    <v name="dipole">      0.00000000       0.00000000       0.00008066 </v>
    <i name="Tr[quadrupol]">   -530.27772008 </i>
    <i name="Echarged">      0.00000000 </i>
    <i name="Edipol_quadrupol">      0.00000000 </i>
    <i name="Eion">      0.00000000 </i>
   </dipole>
   <energy>
    <i name="e_fr_energy">   -176.62559808 </i>
    <i name="e_wo_entrp">   -176.61666393 </i>
    <i name="e_0_energy">   -176.62113100 </i>
   </energy>
  </scstep>
  <scstep>
   <time name="dav">    2.61    2.62</time>
   <time name="total">    2.80    2.82</time>
   <dipole>
    <v name="dipole">      0.00000000       0.00000000       0.00007303 </v>
    <i name="Tr[quadrupol]">   -530.29128995 </i>
    <i name="Echarged">      0.00000000 </i>
    <i name="Edipol_quadrupol">      0.00000000 </i>
    <i name="Eion">      0.00000000 </i>
   </dipole>
   <energy>
    <i name="e_fr_energy">   -176.62563419 </i>
    <i name="e_wo_entrp">   -176.61669866 </i>
    <i name="e_0_energy">   -176.62116642 </i>
   </energy>
  </scstep>
  <scstep>
   <time name="dav">    2.40    2.41</time>
   <time name="total">    2.60    2.61</time>
   <dipole>
    <v name="dipole">      0.00000000       0.00000000       0.00006009 </v>
    <i name="Tr[quadrupol]">   -530.29656249 </i>
    <i name="Echarged">      0.00000000 </i>
    <i name="Edipol_quadrupol">      0.00000000 </i>
    <i name="Eion">      0.00000000 </i>
   </dipole>
   <energy>
    <i name="e_fr_energy">   -176.62564892 </i>
    <i name="e_wo_entrp">   -176.61670878 </i>
    <i name="e_0_energy">   -176.62117885 </i>
   </energy>
  </scstep>
  <scstep>
   <time name="dav">    2.23    2.24</time>
   <time name="total">    2.42    2.44</time>
   <dipole>
    <v name="dipole">      0.00000000       0.00000000       0.00003823 </v>
    <i name="Tr[quadrupol]">   -530.30013737 </i>
    <i name="Echarged">      0.00000000 </i>
    <i name="Edipol_quadrupol">      0.00000000 </i>
    <i name="Eion">      0.00000000 </i>
   </dipole>
   <energy>
    <i name="e_fr_energy">   -176.62566997 </i>
    <i name="e_wo_entrp">   -176.61672907 </i>
    <i name="e_0_energy">   -176.62119952 </i>
   </energy>
  </scstep>
  <scstep>
   <time name="dav">    2.44    2.46</time>
   <time name="total">    2.64    2.65</time>
   <dipole>
    <v name="dipole">      0.00000000       0.00000000       0.00002197 </v>
    <i name="Tr[quadrupol]">   -530.30054414 </i>
    <i name="Echarged">      0.00000000 </i>
    <i name="Edipol_quadrupol">      0.00000000 </i>
    <i name="Eion">      0.00000000 </i>
   </dipole>
   <energy>
    <i name="e_fr_energy">   -176.62567857 </i>
    <i name="e_wo_entrp">   -176.61673791 </i>
    <i name="e_0_energy">   -176.62120824 </i>
   </energy>
  </scstep>
  <scstep>
   <time name="dav">    2.39    2.40</time>
   <time name="total">    2.58    2.60</time>
   <dipole>
    <v name="dipole">      0.00000000       0.00000000       0.00001034 </v>
    <i name="Tr[quadrupol]">   -530.30109645 </i>
    <i name="Echarged">      0.00000000 </i>
    <i name="Edipol_quadrupol">      0.00000000 </i>
    <i name="Eion">      0.00000000 </i>
   </dipole>
   <energy>
    <i name="e_fr_energy">   -176.62568277 </i>
    <i name="e_wo_entrp">   -176.61674161 </i>
    <i name="e_0_energy">   -176.62121219 </i>
   </energy>
  </scstep>
  <scstep>
   <time name="dav">    2.40    2.41</time>
   <time name="total">    2.59    2.60</time>
   <dipole>
    <v name="dipole">      0.00000000       0.00000000       0.00000316 </v>
    <i name="Tr[quadrupol]">   -530.30124030 </i>
    <i name="Echarged">      0.00000000 </i>
    <i name="Edipol_quadrupol">      0.00000000 </i>
    <i name="Eion">      0.00000000 </i>
   </dipole>
   <energy>
    <i name="e_fr_energy">   -176.62568465 </i>
    <i name="e_wo_entrp">   -176.61674386 </i>
    <i name="e_0_energy">   -176.62121425 </i>
   </energy>
  </scstep>
  <scstep>
   <time name="dav">    2.37    2.38</time>
   <time name="total">    2.41    2.43</time>
   <dipole>
    <v name="dipole">      0.00000000       0.00000000       0.00000075 </v>
    <i name="Tr[quadrupol]">   -530.30137385 </i>
    <i name="Echarged">      0.00000000 </i>
    <i name="Edipol_quadrupol">      0.00000000 </i>
    <i name="Eion">      0.00000000 </i>
   </dipole>
   <energy>
    <i name="alphaZ">     53.59727904 </i>
    <i name="ewald">  21240.75282680 </i>
    <i name="hartreedc"> -22964.16420627 </i>
    <i name="XCdc">    202.22586983 </i>
    <i name="pawpsdc">   7498.73527507 </i>
    <i name="pawaedc">  -7477.08023212 </i>
    <i name="eentropy">     -0.00894078 </i>
    <i name="bandstr">   -723.43237771 </i>
    <i name="atom">   1992.74882108 </i>
    <i name="e_fr_energy">   -176.62568506 </i>
    <i name="e_wo_entrp">   -176.61674428 </i>
    <i name="e_0_energy">   -176.62121467 </i>
   </energy>
  </scstep>
  <structure>
   <crystal>
    <varray name="basis" >
     <v>       5.71417043       0.00000000       0.00000000 </v>
     <v>       0.00000000       6.26981888       0.00000000 </v>
     <v>       0.00000000       0.00000000      28.08811665 </v>
    </varray>
    <i name="volume">   1006.30772043 </i>
    <varray name="rec_basis" >
     <v>       0.17500353      -0.00000000       0.00000000 </v>
     <v>      -0.00000000       0.15949424       0.00000000 </v>
     <v>       0.00000000       0.00000000       0.03560224 </v>
    </varray>
   </crystal>
   <varray name="positions" >
    <v>       0.51860363       0.64131728       0.07161713 </v>
    <v>       0.51860363       0.64131728       0.21633798 </v>
    <v>       0.48139637       0.35868272       0.07161713 </v>
    <v>       0.48139637       0.35868272       0.21633798 </v>
    <v>       0.98139637       0.64131728       0.07161713 </v>
    <v>       0.98139637       0.64131728       0.21633798 </v>
    <v>       0.01860363       0.35868272       0.07161713 </v>
    <v>       0.01860363       0.35868272       0.21633798 </v>
    <v>       0.59621853       0.90204857       0.07150203 </v>
    <v>       0.59621853       0.90204857       0.21645308 </v>
    <v>       0.40378147       0.09795142       0.07150203 </v>
    <v>       0.40378147       0.09795142       0.21645308 </v>
    <v>       0.90378147       0.90204857       0.07150203 </v>
    <v>       0.90378147       0.90204857       0.21645308 </v>
    <v>       0.09621853       0.09795142       0.07150203 </v>
    <v>       0.09621853       0.09795142       0.21645308 </v>
    <v>       0.75000000       0.72845458       0.11001019 </v>
    <v>       0.75000000       0.72779585       0.25198496 </v>
    <v>       0.25000000       0.27220415       0.03597015 </v>
    <v>       0.25000000       0.27154542       0.17794492 </v>
    <v>       0.75000000       0.72779585       0.03597015 </v>
    <v>       0.75000000       0.72845458       0.17794492 </v>
    <v>       0.25000000       0.27154542       0.11001019 </v>
    <v>       0.25000000       0.27220415       0.25198496 </v>
    <v>       0.25000000       0.52495571       0.07154481 </v>
    <v>       0.25000000       0.52495571       0.21641030 </v>
    <v>       0.75000000       0.47504427       0.07154481 </v>
    <v>       0.75000000       0.47504427       0.21641030 </v>
   </varray>
  </structure>
  <varray name="forces" >
   <v>      -0.51712980       0.05703450      -0.09468755 </v>
   <v>      -0.51712980       0.05703450       0.09468755 </v>
   <v>       0.51712980      -0.05703450      -0.09468755 </v>
   <v>       0.51712980      -0.05703450       0.09468755 </v>
   <v>       0.51712980       0.05703450      -0.09468755 </v>
   <v>       0.51712980       0.05703450       0.09468755 </v>
   <v>      -0.51712980      -0.05703450      -0.09468755 </v>
   <v>      -0.51712980      -0.05703450       0.09468755 </v>
   <v>       0.21208263       0.16828409      -0.13138626 </v>
   <v>       0.21208263       0.16828409       0.13138626 </v>
   <v>      -0.21208263      -0.16828409      -0.13138626 </v>
   <v>      -0.21208263      -0.16828409       0.13138626 </v>
   <v>      -0.21208263       0.16828409      -0.13138626 </v>
   <v>      -0.21208263       0.16828409       0.13138626 </v>
   <v>       0.21208263      -0.16828409      -0.13138626 </v>
   <v>       0.21208263      -0.16828409       0.13138626 </v>
   <v>      -0.00000000      -0.26710060       1.38703267 </v>
   <v>      -0.00000000      -0.37853467      -1.35635742 </v>
   <v>      -0.00000000       0.37853467       1.35635742 </v>
   <v>      -0.00000000       0.26710060      -1.38703267 </v>
   <v>      -0.00000000      -0.37853467       1.35635742 </v>
   <v>      -0.00000000      -0.26710060      -1.38703267 </v>
   <v>      -0.00000000       0.26710060       1.38703267 </v>
   <v>      -0.00000000       0.37853467      -1.35635742 </v>
   <v>      -0.00000000      -0.56716600      -0.21241700 </v>
   <v>      -0.00000000      -0.56716600       0.21241700 </v>
   <v>      -0.00000000       0.56716600      -0.21241700 </v>
   <v>      -0.00000000       0.56716600       0.21241700 </v>
  </varray>
  <varray name="stress" >
   <v>       4.02631548       0.00000000       0.00000000 </v>
   <v>      -0.00000000       5.40394646       0.00000000 </v>
   <v>       0.00000000       0.00000000     -26.27765420 </v>
  </varray>
  <energy>
   <i name="e_fr_energy">   -179.69381968 </i>
   <i name="e_wo_entrp">   -179.68487890 </i>
   <i name="e_0_energy">   -179.68934929 </i>
  </energy>
  <time name="totalsc">   54.08   54.36</time>
 </calculation>
 <calculation>
  <scstep>
   <time name="dav">    2.74    2.75</time>
   <time name="total">    2.93    2.95</time>
   <dipole>
    <v name="dipole">      0.00000000       0.00000000      -0.00000087 </v>
    <i name="Tr[quadrupol]">   -531.50772135 </i>
    <i name="Echarged">      0.00000000 </i>
    <i name="Edipol_quadrupol">      0.00000000 </i>
    <i name="Eion">      0.00000000 </i>
   </dipole>
   <energy>
    <i name="alphaZ">     53.46976623 </i>
    <i name="ewald">  21224.96614920 </i>
    <i name="hartreedc"> -22942.61026775 </i>
    <i name="XCdc">    202.50206858 </i>
    <i name="pawpsdc">   7498.73505061 </i>
    <i name="pawaedc">  -7477.08000849 </i>
    <i name="eentropy">     -0.00745922 </i>
    <i name="bandstr">   -729.38645339 </i>
    <i name="atom">   1992.74882108 </i>
    <i name="e_fr_energy">   -176.66233316 </i>
    <i name="e_wo_entrp">   -176.65487393 </i>
    <i name="e_0_energy">   -176.65860354 </i>
   </energy>
  </scstep>
  <scstep>
   <time name="dav">    3.10    3.12</time>
   <time name="total">    3.30    3.32</time>
   <dipole>
    <v name="dipole">      0.00000000       0.00000000       0.00001902 </v>
    <i name="Tr[quadrupol]">   -531.48668383 </i>
    <i name="Echarged">      0.00000000 </i>
    <i name="Edipol_quadrupol">      0.00000000 </i>
    <i name="Eion">      0.00000000 </i>
   </dipole>
   <energy>
    <i name="e_fr_energy">   -176.66372874 </i>
    <i name="e_wo_entrp">   -176.65633600 </i>
    <i name="e_0_energy">   -176.66003237 </i>
   </energy>
  </scstep>
  <scstep>
   <time name="dav">    3.12    3.13</time>
   <time name="total">    3.31    3.33</time>
   <dipole>
    <v name="dipole">      0.00000000       0.00000000       0.00000887 </v>
    <i name="Tr[quadrupol]">   -531.50602271 </i>
    <i name="Echarged">      0.00000000 </i>
    <i name="Edipol_quadrupol">      0.00000000 </i>
    <i name="Eion">      0.00000000 </i>
   </dipole>
   <energy>
    <i name="e_fr_energy">   -176.66250916 </i>
    <i name="e_wo_entrp">   -176.65520386 </i>
    <i name="e_0_energy">   -176.65885651 </i>
   </energy>
  </scstep>
  <scstep>
   <time name="dav">    3.20    3.22</time>
   <time name="total">    3.40    3.42</time>
   <dipole>
    <v name="dipole">      0.00000000       0.00000000       0.00000461 </v>
    <i name="Tr[quadrupol]">   -531.51138118 </i>
    <i name="Echarged">      0.00000000 </i>
    <i name="Edipol_quadrupol">      0.00000000 </i>
    <i name="Eion">      0.00000000 </i>
   </dipole>
   <energy>
    <i name="e_fr_energy">   -176.66259003 </i>
    <i name="e_wo_entrp">   -176.65529148 </i>
    <i name="e_0_energy">   -176.65894075 </i>
   </energy>
  </scstep>
  <scstep>
   <time name="dav">    3.11    3.13</time>
   <time name="total">    3.32    3.33</time>
   <dipole>
    <v name="dipole">      0.00000000       0.00000000       0.00000381 </v>
    <i name="Tr[quadrupol]">   -531.51044044 </i>
    <i name="Echarged">      0.00000000 </i>
    <i name="Edipol_quadrupol">      0.00000000 </i>
    <i name="Eion">      0.00000000 </i>
   </dipole>
   <energy>
    <i name="e_fr_energy">   -176.66260037 </i>
    <i name="e_wo_entrp">   -176.65529611 </i>
    <i name="e_0_energy">   -176.65894824 </i>
   </energy>
  </scstep>
  <scstep>
   <time name="dav">    2.97    2.99</time>
   <time name="total">    3.17    3.18</time>
   <dipole>
    <v name="dipole">      0.00000000       0.00000000       0.00000334 </v>
    <i name="Tr[quadrupol]">   -531.51023961 </i>
    <i name="Echarged">      0.00000000 </i>
    <i name="Edipol_quadrupol">      0.00000000 </i>
    <i name="Eion">      0.00000000 </i>
   </dipole>
   <energy>
    <i name="e_fr_energy">   -176.66259990 </i>
    <i name="e_wo_entrp">   -176.65529226 </i>
    <i name="e_0_energy">   -176.65894608 </i>
   </energy>
  </scstep>
  <scstep>
   <time name="dav">    2.78    2.79</time>
   <time name="total">    2.98    2.99</time>
   <dipole>
    <v name="dipole">      0.00000000       0.00000000       0.00000288 </v>
    <i name="Tr[quadrupol]">   -531.51047919 </i>
    <i name="Echarged">      0.00000000 </i>
    <i name="Edipol_quadrupol">      0.00000000 </i>
    <i name="Eion">      0.00000000 </i>
   </dipole>
   <energy>
    <i name="e_fr_energy">   -176.66260098 </i>
    <i name="e_wo_entrp">   -176.65529311 </i>
    <i name="e_0_energy">   -176.65894705 </i>
   </energy>
  </scstep>
  <scstep>
   <time name="dav">    2.46    2.47</time>
   <time name="total">    2.51    2.52</time>
   <dipole>
    <v name="dipole">      0.00000000       0.00000000       0.00000235 </v>
    <i name="Tr[quadrupol]">   -531.51078012 </i>
    <i name="Echarged">      0.00000000 </i>
    <i name="Edipol_quadrupol">      0.00000000 </i>
    <i name="Eion">      0.00000000 </i>
   </dipole>
   <energy>
    <i name="alphaZ">     53.46976471 </i>
    <i name="ewald">  21224.96614920 </i>
    <i name="hartreedc"> -22944.23441082 </i>
    <i name="XCdc">    202.53168615 </i>
    <i name="pawpsdc">   7579.22364413 </i>
    <i name="pawaedc">  -7557.59509289 </i>
    <i name="eentropy">     -0.00730796 </i>
    <i name="bandstr">   -727.76585526 </i>
    <i name="atom">   1992.74882108 </i>
    <i name="e_fr_energy">   -176.66260166 </i>
    <i name="e_wo_entrp">   -176.65529371 </i>
    <i name="e_0_energy">   -176.65894769 </i>
   </energy>
  </scstep>
  <structure>
   <crystal>
    <varray name="basis" >
     <v>       5.71656391       0.00000000       0.00000000 </v>
     <v>       0.00000000       6.28213963       0.00000000 </v>
     <v>       0.00000000       0.00000000      28.08811665 </v>
    </varray>
    <i name="volume">   1008.70754191 </i>
    <varray name="rec_basis" >
     <v>       0.17493026      -0.00000000       0.00000000 </v>
     <v>      -0.00000000       0.15918143       0.00000000 </v>
     <v>       0.00000000       0.00000000       0.03560224 </v>
    </varray>
   </crystal>
   <varray name="positions" >
    <v>       0.51811766       0.64191986       0.07154974 </v>
    <v>       0.51811766       0.64191986       0.21640537 </v>
    <v>       0.48188234       0.35808014       0.07154974 </v>
    <v>       0.48188234       0.35808014       0.21640537 </v>
    <v>       0.98188234       0.64191986       0.07154974 </v>
    <v>       0.98188234       0.64191986       0.21640537 </v>
    <v>       0.01811766       0.35808014       0.07154974 </v>
    <v>       0.01811766       0.35808014       0.21640537 </v>
    <v>       0.59599580       0.90243963       0.07141377 </v>
    <v>       0.59599580       0.90243963       0.21654134 </v>
    <v>       0.40400420       0.09756036       0.07141377 </v>
    <v>       0.40400420       0.09756036       0.21654134 </v>
    <v>       0.90400420       0.90243963       0.07141377 </v>
    <v>       0.90400420       0.90243963       0.21654134 </v>
    <v>       0.09599580       0.09756036       0.07141377 </v>
    <v>       0.09599580       0.09756036       0.21654134 </v>
    <v>       0.75000000       0.72825283       0.10929260 </v>
    <v>       0.75000000       0.72747595       0.25090421 </v>
    <v>       0.25000000       0.27252405       0.03705090 </v>
    <v>       0.25000000       0.27174717       0.17866250 </v>
    <v>       0.75000000       0.72747595       0.03705090 </v>
    <v>       0.75000000       0.72825283       0.17866250 </v>
    <v>       0.25000000       0.27174717       0.10929260 </v>
    <v>       0.25000000       0.27252405       0.25090421 </v>
    <v>       0.25000000       0.52512838       0.07146431 </v>
    <v>       0.25000000       0.52512838       0.21649080 </v>
    <v>       0.75000000       0.47487159       0.07146431 </v>
    <v>       0.75000000       0.47487159       0.21649080 </v>
   </varray>
  </structure>
  <varray name="forces" >
   <v>      -0.57563968      -0.03208265      -0.06752238 </v>
   <v>      -0.57563968      -0.03208265       0.06752238 </v>
   <v>       0.57563968       0.03208265      -0.06752238 </v>
   <v>       0.57563968       0.03208265       0.06752238 </v>
   <v>       0.57563968      -0.03208265      -0.06752238 </v>
   <v>       0.57563968      -0.03208265       0.06752238 </v>
   <v>      -0.57563968       0.03208265      -0.06752238 </v>
   <v>      -0.57563968       0.03208265       0.06752238 </v>
   <v>       0.27383977       0.13086356      -0.09886719 </v>
   <v>       0.27383977       0.13086356       0.09886719 </v>
   <v>      -0.27383977      -0.13086356      -0.09886719 </v>
   <v>      -0.27383977      -0.13086356       0.09886719 </v>
   <v>      -0.27383977       0.13086356      -0.09886719 </v>
   <v>      -0.27383977       0.13086356       0.09886719 </v>
   <v>       0.27383977      -0.13086356      -0.09886719 </v>
   <v>       0.27383977      -0.13086356       0.09886719 </v>
   <v>      -0.00000000      -0.27143462       1.96390434 </v>
   <v>      -0.00000000      -0.39978385      -0.83689057 </v>
   <v>      -0.00000000       0.39978385       0.83689057 </v>
   <v>      -0.00000000       0.27143462      -1.96390434 </v>
   <v>      -0.00000000      -0.39978385       0.83689057 </v>
   <v>      -0.00000000      -0.27143462      -1.96390434 </v>
   <v>      -0.00000000       0.27143462       1.96390434 </v>
   <v>      -0.00000000       0.39978385      -0.83689057 </v>
   <v>      -0.00000000      -0.67432793      -0.19868071 </v>
   <v>      -0.00000000      -0.67432793       0.19868071 </v>
   <v>      -0.00000000       0.67432793      -0.19868071 </v>
   <v>      -0.00000000       0.67432793       0.19868071 </v>
  </varray>
  <varray name="stress" >
   <v>       5.25578675       0.00000000       0.00000000 </v>
   <v>      -0.00000000       3.99034152       0.00000000 </v>
   <v>       0.00000000       0.00000000     -21.50509733 </v>
  </varray>
  <energy>
   <i name="e_fr_energy">   -179.72398096 </i>
   <i name="e_wo_entrp">   -179.71667300 </i>
   <i name="e_0_energy">   -179.72032698 </i>
  </energy>
  <time name="totalsc">   28.36   28.50</time>
 </calculation>
 <calculation>
  <scstep>
   <time name="dav">    2.61    2.63</time>
   <time name="total">    2.81    2.83</time>
   <dipole>
    <v name="dipole">      0.00000000       0.00000000       0.00000184 </v>
    <i name="Tr[quadrupol]">   -544.88383968 </i>
    <i name="Echarged">      0.00000000 </i>
    <i name="Edipol_quadrupol">      0.00000000 </i>
    <i name="Eion">      0.00000000 </i>
   </dipole>
   <energy>
    <i name="alphaZ">     52.64231052 </i>
    <i name="ewald">  21011.05819867 </i>
    <i name="hartreedc"> -22723.78755858 </i>
    <i name="XCdc">    202.18418542 </i>
    <i name="pawpsdc">   7579.23508707 </i>
    <i name="pawaedc">  -7557.60652965 </i>
    <i name="eentropy">     -0.00053584 </i>
    <i name="bandstr">   -733.86167136 </i>
    <i name="atom">   1992.74882108 </i>
    <i name="e_fr_energy">   -177.38769266 </i>
    <i name="e_wo_entrp">   -177.38715683 </i>
    <i name="e_0_energy">   -177.38742474 </i>
   </energy>
  </scstep>
  <scstep>
   <time name="dav">    3.08    3.10</time>
   <time name="total">    3.28    3.29</time>
   <dipole>
    <v name="dipole">      0.00000000       0.00000000      -0.00004154 </v>
    <i name="Tr[quadrupol]">   -545.04039857 </i>
    <i name="Echarged">      0.00000000 </i>
    <i name="Edipol_quadrupol">      0.00000000 </i>
    <i name="Eion">      0.00000000 </i>
   </dipole>
   <energy>
    <i name="e_fr_energy">   -177.35848111 </i>
    <i name="e_wo_entrp">   -177.35708639 </i>
    <i name="e_0_energy">   -177.35778375 </i>
   </energy>
  </scstep>
  <scstep>
   <time name="dav">    3.18    3.19</time>
   <time name="total">    3.37    3.39</time>
   <dipole>
    <v name="dipole">      0.00000000       0.00000000      -0.00006577 </v>
    <i name="Tr[quadrupol]">   -545.21912014 </i>
    <i name="Echarged">      0.00000000 </i>
    <i name="Edipol_quadrupol">      0.00000000 </i>
    <i name="Eion">      0.00000000 </i>
   </dipole>
   <energy>
    <i name="e_fr_energy">   -177.32453071 </i>
    <i name="e_wo_entrp">   -177.32232043 </i>
    <i name="e_0_energy">   -177.32342557 </i>
   </energy>
  </scstep>
  <scstep>
   <time name="dav">    3.10    3.12</time>
   <time name="total">    3.30    3.31</time>
   <dipole>
    <v name="dipole">      0.00000000       0.00000000      -0.00005132 </v>
    <i name="Tr[quadrupol]">   -545.25376412 </i>
    <i name="Echarged">      0.00000000 </i>
    <i name="Edipol_quadrupol">      0.00000000 </i>
    <i name="Eion">      0.00000000 </i>
   </dipole>
   <energy>
    <i name="e_fr_energy">   -177.32552593 </i>
    <i name="e_wo_entrp">   -177.32299711 </i>
    <i name="e_0_energy">   -177.32426152 </i>
   </energy>
  </scstep>
  <scstep>
   <time name="dav">    3.28    3.30</time>
   <time name="total">    3.48    3.50</time>
   <dipole>
    <v name="dipole">      0.00000000       0.00000000      -0.00003032 </v>
    <i name="Tr[quadrupol]">   -545.29053433 </i>
    <i name="Echarged">      0.00000000 </i>
    <i name="Edipol_quadrupol">      0.00000000 </i>
    <i name="Eion">      0.00000000 </i>
   </dipole>
   <energy>
    <i name="e_fr_energy">   -177.32567553 </i>
    <i name="e_wo_entrp">   -177.32296659 </i>
    <i name="e_0_energy">   -177.32432106 </i>
   </energy>
  </scstep>
  <scstep>
   <time name="dav">    3.13    3.15</time>
   <time name="total">    3.33    3.34</time>
   <dipole>
    <v name="dipole">      0.00000000       0.00000000      -0.00001217 </v>
    <i name="Tr[quadrupol]">   -545.31103084 </i>
    <i name="Echarged">      0.00000000 </i>
    <i name="Edipol_quadrupol">      0.00000000 </i>
    <i name="Eion">      0.00000000 </i>
   </dipole>
   <energy>
    <i name="e_fr_energy">   -177.32577570 </i>
    <i name="e_wo_entrp">   -177.32312350 </i>
    <i name="e_0_energy">   -177.32444960 </i>
   </energy>
  </scstep>
  <scstep>
   <time name="dav">    2.98    3.00</time>
   <time name="total">    3.18    3.19</time>
   <dipole>
    <v name="dipole">      0.00000000       0.00000000       0.00000520 </v>
    <i name="Tr[quadrupol]">   -545.33073878 </i>
    <i name="Echarged">      0.00000000 </i>
    <i name="Edipol_quadrupol">      0.00000000 </i>
    <i name="Eion">      0.00000000 </i>
   </dipole>
   <energy>
    <i name="e_fr_energy">   -177.32586311 </i>
    <i name="e_wo_entrp">   -177.32321738 </i>
    <i name="e_0_energy">   -177.32454024 </i>
   </energy>
  </scstep>
  <scstep>
   <time name="dav">    3.12    3.13</time>
   <time name="total">    3.31    3.33</time>
   <dipole>
    <v name="dipole">      0.00000000       0.00000000       0.00001784 </v>
    <i name="Tr[quadrupol]">   -545.34570744 </i>
    <i name="Echarged">      0.00000000 </i>
    <i name="Edipol_quadrupol">      0.00000000 </i>
    <i name="Eion">      0.00000000 </i>
   </dipole>
   <energy>
    <i name="e_fr_energy">   -177.32592662 </i>
    <i name="e_wo_entrp">   -177.32327127 </i>
    <i name="e_0_energy">   -177.32459894 </i>
   </energy>
  </scstep>
  <scstep>
   <time name="dav">    3.04    3.05</time>
   <time name="total">    3.23    3.25</time>
   <dipole>
    <v name="dipole">      0.00000000       0.00000000       0.00003288 </v>
    <i name="Tr[quadrupol]">   -545.36582534 </i>
    <i name="Echarged">      0.00000000 </i>
    <i name="Edipol_quadrupol">      0.00000000 </i>
    <i name="Eion">      0.00000000 </i>
   </dipole>
   <energy>
    <i name="e_fr_energy">   -177.32600531 </i>
    <i name="e_wo_entrp">   -177.32334748 </i>
    <i name="e_0_energy">   -177.32467640 </i>
   </energy>
  </scstep>
  <scstep>
   <time name="dav">    2.77    2.79</time>
   <time name="total">    2.97    2.98</time>
   <dipole>
    <v name="dipole">      0.00000000       0.00000000       0.00003978 </v>
    <i name="Tr[quadrupol]">   -545.37951082 </i>
    <i name="Echarged">      0.00000000 </i>
    <i name="Edipol_quadrupol">      0.00000000 </i>
    <i name="Eion">      0.00000000 </i>
   </dipole>
   <energy>
    <i name="e_fr_energy">   -177.32604580 </i>
    <i name="e_wo_entrp">   -177.32339213 </i>
    <i name="e_0_energy">   -177.32471897 </i>
   </energy>
  </scstep>
  <scstep>
   <time name="dav">    2.60    2.62</time>
   <time name="total">    2.80    2.81</time>
   <dipole>
    <v name="dipole">      0.00000000       0.00000000       0.00003740 </v>
    <i name="Tr[quadrupol]">   -545.38732589 </i>
    <i name="Echarged">      0.00000000 </i>
    <i name="Edipol_quadrupol">      0.00000000 </i>
    <i name="Eion">      0.00000000 </i>
   </dipole>
   <energy>
    <i name="e_fr_energy">   -177.32606600 </i>
    <i name="e_wo_entrp">   -177.32341631 </i>
    <i name="e_0_energy">   -177.32474115 </i>
   </energy>
  </scstep>
  <scstep>
   <time name="dav">    2.15    2.16</time>
   <time name="total">    2.34    2.35</time>
   <dipole>
    <v name="dipole">      0.00000000       0.00000000       0.00002942 </v>
    <i name="Tr[quadrupol]">   -545.38937128 </i>
    <i name="Echarged">      0.00000000 </i>
    <i name="Edipol_quadrupol">      0.00000000 </i>
    <i name="Eion">      0.00000000 </i>
   </dipole>
   <energy>
    <i name="e_fr_energy">   -177.32607719 </i>
    <i name="e_wo_entrp">   -177.32342753 </i>
    <i name="e_0_energy">   -177.32475236 </i>
   </energy>
  </scstep>
  <scstep>
   <time name="dav">    2.43    2.44</time>
   <time name="total">    2.63    2.64</time>
   <dipole>
    <v name="dipole">      0.00000000       0.00000000       0.00001925 </v>
    <i name="Tr[quadrupol]">   -545.39010295 </i>
    <i name="Echarged">      0.00000000 </i>
    <i name="Edipol_quadrupol">      0.00000000 </i>
    <i name="Eion">      0.00000000 </i>
   </dipole>
   <energy>
    <i name="e_fr_energy">   -177.32608501 </i>
    <i name="e_wo_entrp">   -177.32343471 </i>
    <i name="e_0_energy">   -177.32475986 </i>
   </energy>
  </scstep>
  <scstep>
   <time name="dav">    2.42    2.43</time>
   <time name="total">    2.61    2.63</time>
   <dipole>
    <v name="dipole">      0.00000000       0.00000000       0.00001046 </v>
    <i name="Tr[quadrupol]">   -545.39013982 </i>
    <i name="Echarged">      0.00000000 </i>
    <i name="Edipol_quadrupol">      0.00000000 </i>
    <i name="Eion">      0.00000000 </i>
   </dipole>
   <energy>
    <i name="e_fr_energy">   -177.32608937 </i>
    <i name="e_wo_entrp">   -177.32343877 </i>
    <i name="e_0_energy">   -177.32476407 </i>
   </energy>
  </scstep>
  <scstep>
   <time name="dav">    2.49    2.50</time>
   <time name="total">    2.68    2.70</time>
   <dipole>
    <v name="dipole">      0.00000000       0.00000000       0.00000538 </v>
    <i name="Tr[quadrupol]">   -545.39018822 </i>
    <i name="Echarged">      0.00000000 </i>
    <i name="Edipol_quadrupol">      0.00000000 </i>
    <i name="Eion">      0.00000000 </i>
   </dipole>
   <energy>
    <i name="e_fr_energy">   -177.32609084 </i>
    <i name="e_wo_entrp">   -177.32344009 </i>
    <i name="e_0_energy">   -177.32476547 </i>
   </energy>
  </scstep>
  <scstep>
   <time name="dav">    2.34    2.35</time>
   <time name="total">    2.39    2.40</time>
   <dipole>
    <v name="dipole">      0.00000000       0.00000000       0.00000119 </v>
    <i name="Tr[quadrupol]">   -545.39021187 </i>
    <i name="Echarged">      0.00000000 </i>
    <i name="Edipol_quadrupol">      0.00000000 </i>
    <i name="Eion">      0.00000000 </i>
   </dipole>
   <energy>
    <i name="alphaZ">     52.64231083 </i>
    <i name="ewald">  21011.05819867 </i>
    <i name="hartreedc"> -22736.72376947 </i>
    <i name="XCdc">    202.32438680 </i>
    <i name="pawpsdc">   7505.13466692 </i>
[...]
       <r>  -17.9689    1.0000 </r>
       <r>  -17.8749    1.0000 </r>
       <r>  -17.8344    1.0000 </r>
       <r>  -17.7420    1.0000 </r>
       <r>  -13.8444    1.0000 </r>
       <r>  -13.7847    1.0000 </r>
       <r>  -13.6769    1.0000 </r>
       <r>  -13.6193    1.0000 </r>
       <r>  -10.9638    1.0000 </r>
       <r>  -10.8622    1.0000 </r>
       <r>  -10.7569    1.0000 </r>
       <r>  -10.6529    1.0000 </r>
       <r>  -10.2073    1.0000 </r>
       <r>  -10.0978    1.0000 </r>
       <r>   -9.5106    1.0000 </r>
       <r>   -9.4050    1.0000 </r>
       <r>   -9.2061    1.0000 </r>
       <r>   -9.0945    1.0000 </r>
       <r>   -8.3432    1.0000 </r>
       <r>   -8.1846    1.0000 </r>
       <r>   -7.2624    1.0000 </r>
       <r>   -7.1529    1.0000 </r>
       <r>   -6.9955    1.0000 </r>
       <r>   -6.8937    1.0000 </r>
       <r>   -6.8344    1.0000 </r>
       <r>   -6.7737    1.0000 </r>
       <r>   -5.8872    1.0000 </r>
       <r>   -5.8473    1.0000 </r>
       <r>   -5.6948    1.0000 </r>
       <r>   -5.6883    1.0000 </r>
       <r>   -5.4012    1.0000 </r>
       <r>   -5.3879    1.0000 </r>
       <r>   -5.3055    1.0000 </r>
       <r>   -5.2803    1.0000 </r>
       <r>   -5.1131    1.0000 </r>
       <r>   -5.0955    1.0000 </r>
       <r>   -4.6158    1.0000 </r>
       <r>   -4.5738    1.0000 </r>
       <r>   -4.3340    1.0000 </r>
       <r>   -4.2891    1.0000 </r>
       <r>   -3.0846    1.0000 </r>
       <r>   -3.0229    1.0000 </r>
       <r>   -1.1107    0.0000 </r>
       <r>   -1.0142    0.0000 </r>
       <r>   -0.3893    0.0000 </r>
       <r>   -0.2802    0.0000 </r>
       <r>    1.1743    0.0000 </r>
       <r>    1.4977    0.0000 </r>
       <r>    1.5618    0.0000 </r>
       <r>    1.6482    0.0000 </r>
       <r>    1.7312    0.0000 </r>
       <r>    1.7857    0.0000 </r>
       <r>    1.8095    0.0000 </r>
       <r>    1.9802    0.0000 </r>
       <r>    2.2386    0.0000 </r>
       <r>    2.2734    0.0000 </r>
       <r>    2.5598    0.0000 </r>
       <r>    2.8148    0.0000 </r>
       <r>    2.8202    0.0000 </r>
       <r>    3.2332    0.0000 </r>
       <r>    3.3481    0.0000 </r>
       <r>    3.4160    0.0000 </r>
       <r>    3.5999    0.0000 </r>
      </set>
     </set>
    </set>
   </array>
  </eigenvalues>
  <separator name="orbital magnetization" >
   <v name="MAGDIPOLOUT">      0.00000000      0.00000000      0.00000000</v>
  </separator>
  <dos>
   <i name="efermi">     -1.46861616 </i>
   <total>
    <array>
     <dimension dim="1">gridpoints</dimension>
     <dimension dim="2">spin</dimension>
     <field>energy</field>
     <field>total</field>
     <field>integrated</field>
     <set>
      <set comment="spin 1">
       <r>   -19.3960     0.0000     0.0000 </r>
       <r>   -19.3155     0.0000     0.0000 </r>
       <r>   -19.2351     0.0000     0.0000 </r>
       <r>   -19.1546     0.0000     0.0000 </r>
       <r>   -19.0742     0.0000     0.0000 </r>
       <r>   -18.9937     0.0000     0.0000 </r>
       <r>   -18.9132     0.0000     0.0000 </r>
       <r>   -18.8328     0.0000     0.0000 </r>
       <r>   -18.7523     0.0000     0.0000 </r>
       <r>   -18.6719     0.0000     0.0000 </r>
       <r>   -18.5914     0.0000     0.0000 </r>
       <r>   -18.5110     0.0000     0.0000 </r>
       <r>   -18.4305     0.0001     0.0000 </r>
       <r>   -18.3500     0.1138     0.0092 </r>
       <r>   -18.2696     2.9012     0.2426 </r>
       <r>   -18.1891     7.4864     0.8449 </r>
       <r>   -18.1087     9.7895     1.6325 </r>
       <r>   -18.0282    11.6252     2.5679 </r>
       <r>   -17.9478     9.3529     3.3204 </r>
       <r>   -17.8673     7.7082     3.9405 </r>
       <r>   -17.7869     7.5633     4.5490 </r>
       <r>   -17.7064     8.7950     5.2567 </r>
       <r>   -17.6259    10.2705     6.0830 </r>
       <r>   -17.5455    10.5830     6.9344 </r>
       <r>   -17.4650     8.5657     7.6236 </r>
       <r>   -17.3846     4.1411     7.9568 </r>
       <r>   -17.3041     0.5342     7.9998 </r>
       <r>   -17.2237     0.0030     8.0000 </r>
       <r>   -17.1432     0.0000     8.0000 </r>
       <r>   -17.0627     0.0000     8.0000 </r>
       <r>   -16.9823     0.0000     8.0000 </r>
       <r>   -16.9018     0.0000     8.0000 </r>
       <r>   -16.8214     0.0000     8.0000 </r>
       <r>   -16.7409     0.0000     8.0000 </r>
       <r>   -16.6605     0.0000     8.0000 </r>
       <r>   -16.5800     0.0000     8.0000 </r>
       <r>   -16.4996     0.0000     8.0000 </r>
       <r>   -16.4191     0.0000     8.0000 </r>
       <r>   -16.3386     0.0000     8.0000 </r>
       <r>   -16.2582     0.0000     8.0000 </r>
       <r>   -16.1777     0.0000     8.0000 </r>
       <r>   -16.0973     0.0000     8.0000 </r>
       <r>   -16.0168     0.0000     8.0000 </r>
       <r>   -15.9364     0.0000     8.0000 </r>
       <r>   -15.8559     0.0000     8.0000 </r>
       <r>   -15.7755     0.0000     8.0000 </r>
       <r>   -15.6950     0.0000     8.0000 </r>
       <r>   -15.6145     0.0000     8.0000 </r>
       <r>   -15.5341     0.0000     8.0000 </r>
       <r>   -15.4536     0.0000     8.0000 </r>
       <r>   -15.3732     0.0000     8.0000 </r>
       <r>   -15.2927     0.0000     8.0000 </r>
       <r>   -15.2123     0.0000     8.0000 </r>
       <r>   -15.1318     0.0000     8.0000 </r>
       <r>   -15.0513     0.0000     8.0000 </r>
       <r>   -14.9709     0.0000     8.0000 </r>
       <r>   -14.8904     0.0000     8.0000 </r>
       <r>   -14.8100     0.0000     8.0000 </r>
       <r>   -14.7295     0.0000     8.0000 </r>
       <r>   -14.6491     0.0000     8.0000 </r>
       <r>   -14.5686     0.0000     8.0000 </r>
       <r>   -14.4882     0.0000     8.0000 </r>
       <r>   -14.4077     0.0000     8.0000 </r>
       <r>   -14.3272     0.0000     8.0000 </r>
       <r>   -14.2468     0.0000     8.0000 </r>
       <r>   -14.1663     0.0000     8.0000 </r>
       <r>   -14.0859     0.0000     8.0000 </r>
       <r>   -14.0054     0.0000     8.0000 </r>
       <r>   -13.9250     0.0212     8.0017 </r>
       <r>   -13.8445     1.3627     8.1113 </r>
       <r>   -13.7641     5.2855     8.5366 </r>
       <r>   -13.6836     7.9135     9.1733 </r>
       <r>   -13.6031    15.2948    10.4039 </r>
       <r>   -13.5227    19.7842    11.9956 </r>
       <r>   -13.4422    19.2497    13.5444 </r>
       <r>   -13.3618    17.1200    14.9218 </r>
       <r>   -13.2813     9.0478    15.6497 </r>
       <r>   -13.2009     3.6071    15.9399 </r>
       <r>   -13.1204     0.7317    15.9988 </r>
       <r>   -13.0399     0.0149    16.0000 </r>
       <r>   -12.9595     0.0000    16.0000 </r>
       <r>   -12.8790     0.0000    16.0000 </r>
       <r>   -12.7986     0.0000    16.0000 </r>
       <r>   -12.7181     0.0000    16.0000 </r>
       <r>   -12.6377     0.0000    16.0000 </r>
       <r>   -12.5572     0.0000    16.0000 </r>
       <r>   -12.4768     0.0000    16.0000 </r>
       <r>   -12.3963     0.0000    16.0000 </r>
       <r>   -12.3158     0.0000    16.0000 </r>
       <r>   -12.2354     0.0001    16.0000 </r>
       <r>   -12.1549     0.0715    16.0058 </r>
       <r>   -12.0745     0.7868    16.0691 </r>
       <r>   -11.9940     0.4365    16.1042 </r>
       <r>   -11.9136     1.3282    16.2110 </r>
       <r>   -11.8331     2.4508    16.4082 </r>
       <r>   -11.7526     2.5258    16.6114 </r>
       <r>   -11.6722     6.8014    17.1587 </r>
       <r>   -11.5917     5.5328    17.6038 </r>
       <r>   -11.5113     6.7097    18.1436 </r>
       <r>   -11.4308    10.1144    18.9574 </r>
       <r>   -11.3504     7.2061    19.5372 </r>
       <r>   -11.2699     7.0927    20.1078 </r>
       <r>   -11.1895     8.9452    20.8275 </r>
       <r>   -11.1090     7.5006    21.4310 </r>
       <r>   -11.0285     7.6238    22.0444 </r>
       <r>   -10.9481     8.7775    22.7506 </r>
       <r>   -10.8676     5.8515    23.2214 </r>
       <r>   -10.7872     5.1191    23.6332 </r>
       <r>   -10.7067     4.1671    23.9685 </r>
       <r>   -10.6263     4.6220    24.3404 </r>
       <r>   -10.5458     4.6376    24.7135 </r>
       <r>   -10.4654     4.4493    25.0715 </r>
       <r>   -10.3849     3.8478    25.3810 </r>
       <r>   -10.3044     2.6438    25.5937 </r>
       <r>   -10.2240     3.3422    25.8626 </r>
       <r>   -10.1435     2.0852    26.0304 </r>
       <r>   -10.0631     3.7559    26.3326 </r>
       <r>    -9.9826     2.4925    26.5331 </r>
       <r>    -9.9022     4.8987    26.9273 </r>
       <r>    -9.8217     4.3952    27.2809 </r>
       <r>    -9.7412     4.0010    27.6028 </r>
       <r>    -9.6608     5.6445    28.0569 </r>
       <r>    -9.5803     8.4175    28.7342 </r>
       <r>    -9.4999     8.3185    29.4034 </r>
       <r>    -9.4194     7.1022    29.9749 </r>
       <r>    -9.3390     6.2553    30.4781 </r>
       <r>    -9.2585     5.0040    30.8807 </r>
       <r>    -9.1781     4.5225    31.2446 </r>
       <r>    -9.0976     4.3348    31.5934 </r>
       <r>    -9.0171     6.0071    32.0767 </r>
       <r>    -8.9367     5.0266    32.4811 </r>
       <r>    -8.8562     7.1611    33.0572 </r>
       <r>    -8.7758     8.0662    33.7062 </r>
       <r>    -8.6953     7.4078    34.3022 </r>
       <r>    -8.6149     6.0864    34.7919 </r>
       <r>    -8.5344     5.7417    35.2539 </r>
       <r>    -8.4539     6.0167    35.7379 </r>
       <r>    -8.3735     9.6394    36.5135 </r>
       <r>    -8.2930     6.0378    36.9993 </r>
       <r>    -8.2126     7.3727    37.5924 </r>
       <r>    -8.1321     8.4138    38.2694 </r>
       <r>    -8.0517     6.8624    38.8215 </r>
       <r>    -7.9712    10.2754    39.6482 </r>
       <r>    -7.8908    11.2885    40.5565 </r>
       <r>    -7.8103     8.0932    41.2076 </r>
       <r>    -7.7298     8.5008    41.8916 </r>
       <r>    -7.6494     7.2891    42.4780 </r>
       <r>    -7.5689     5.7779    42.9429 </r>
       <r>    -7.4885     5.0435    43.3487 </r>
       <r>    -7.4080     3.6808    43.6448 </r>
       <r>    -7.3276     3.3201    43.9119 </r>
       <r>    -7.2471     3.0445    44.1569 </r>
       <r>    -7.1667     3.7444    44.4581 </r>
       <r>    -7.0862     4.7304    44.8387 </r>
       <r>    -7.0057     5.8389    45.3085 </r>
       <r>    -6.9253     5.4360    45.7459 </r>
       <r>    -6.8448     7.2828    46.3318 </r>
       <r>    -6.7644    10.0882    47.1435 </r>
       <r>    -6.6839     9.0222    47.8693 </r>
       <r>    -6.6035     8.9463    48.5891 </r>
       <r>    -6.5230    12.3201    49.5804 </r>
       <r>    -6.4425     9.3868    50.3356 </r>
       <r>    -6.3621     9.2627    51.0808 </r>
       <r>    -6.2816    10.1362    51.8963 </r>
       <r>    -6.2012    12.0240    52.8638 </r>
       <r>    -6.1207     9.7990    53.6521 </r>
       <r>    -6.0403     8.2900    54.3191 </r>
       <r>    -5.9598    10.5161    55.1652 </r>
       <r>    -5.8794    11.8103    56.1154 </r>
       <r>    -5.7989     9.7045    56.8962 </r>
       <r>    -5.7184     9.9394    57.6959 </r>
       <r>    -5.6380    13.3237    58.7679 </r>
       <r>    -5.5575     8.7247    59.4698 </r>
       <r>    -5.4771    10.3485    60.3024 </r>
       <r>    -5.3966    16.9205    61.6638 </r>
       <r>    -5.3162    14.5384    62.8335 </r>
       <r>    -5.2357    18.3131    64.3069 </r>
       <r>    -5.1553    12.7100    65.3295 </r>
       <r>    -5.0748    16.5847    66.6638 </r>
       <r>    -4.9943    13.5788    67.7563 </r>
       <r>    -4.9139    14.1880    68.8978 </r>
       <r>    -4.8334    14.1473    70.0361 </r>
       <r>    -4.7530    14.8524    71.2310 </r>
       <r>    -4.6725    12.5525    72.2410 </r>
       <r>    -4.5921    14.6612    73.4205 </r>
       <r>    -4.5116    10.5305    74.2678 </r>
       <r>    -4.4311     9.3800    75.0225 </r>
       <r>    -4.3507     8.7364    75.7254 </r>
       <r>    -4.2702     6.2702    76.2298 </r>
       <r>    -4.1898     3.0307    76.4737 </r>
       <r>    -4.1093     1.7636    76.6156 </r>
       <r>    -4.0289     3.3654    76.8863 </r>
       <r>    -3.9484     3.9204    77.2018 </r>
       <r>    -3.8680     5.8904    77.6757 </r>
       <r>    -3.7875     7.1921    78.2543 </r>
       <r>    -3.7070     7.5809    78.8642 </r>
       <r>    -3.6266     5.6670    79.3202 </r>
       <r>    -3.5461     4.9853    79.7213 </r>
       <r>    -3.4657     5.9042    80.1963 </r>
       <r>    -3.3852     5.8067    80.6635 </r>
       <r>    -3.3048     3.5605    80.9500 </r>
       <r>    -3.2243     5.5127    81.3935 </r>
       <r>    -3.1438     5.1871    81.8108 </r>
       <r>    -3.0634     6.9306    82.3684 </r>
       <r>    -2.9829     5.1059    82.7792 </r>
       <r>    -2.9025     0.8787    82.8499 </r>
       <r>    -2.8220     0.7932    82.9138 </r>
       <r>    -2.7416     0.4065    82.9465 </r>
       <r>    -2.6611     0.8825    83.0175 </r>
       <r>    -2.5807     0.8888    83.0890 </r>
       <r>    -2.5002     0.2942    83.1126 </r>
       <r>    -2.4197     0.9634    83.1902 </r>
       <r>    -2.3393     2.3950    83.3828 </r>
       <r>    -2.2588     2.4713    83.5817 </r>
       <r>    -2.1784     0.7625    83.6430 </r>
       <r>    -2.0979     0.0176    83.6444 </r>
       <r>    -2.0175     0.0010    83.6445 </r>
       <r>    -1.9370     0.2200    83.6622 </r>
       <r>    -1.8566     1.0845    83.7495 </r>
       <r>    -1.7761     0.8469    83.8176 </r>
       <r>    -1.6956     0.1490    83.8296 </r>
       <r>    -1.6152     1.0072    83.9106 </r>
       <r>    -1.5347     1.0154    83.9923 </r>
       <r>    -1.4543     0.0976    84.0002 </r>
       <r>    -1.3738     0.4166    84.0337 </r>
       <r>    -1.2934     2.9465    84.2708 </r>
       <r>    -1.2129     6.1624    84.7666 </r>
       <r>    -1.1324     8.2035    85.4266 </r>
       <r>    -1.0520     4.5801    85.7951 </r>
       <r>    -0.9715     4.0884    86.1240 </r>
       <r>    -0.8911     4.2005    86.4620 </r>
       <r>    -0.8106     5.4942    86.9040 </r>
       <r>    -0.7302     9.5780    87.6746 </r>
       <r>    -0.6497     6.7462    88.2174 </r>
       <r>    -0.5693     2.7983    88.4426 </r>
       <r>    -0.4888     4.2774    88.7867 </r>
       <r>    -0.4083     6.1090    89.2782 </r>
       <r>    -0.3279     6.8346    89.8281 </r>
       <r>    -0.2474     6.1168    90.3202 </r>
       <r>    -0.1670     4.7565    90.7029 </r>
       <r>    -0.0865     5.9878    91.1847 </r>
       <r>    -0.0061     4.1490    91.5185 </r>
       <r>     0.0744     4.9368    91.9157 </r>
       <r>     0.1549     3.1650    92.1703 </r>
       <r>     0.2353     3.6490    92.4639 </r>
       <r>     0.3158     5.4156    92.8996 </r>
       <r>     0.3962     5.8294    93.3686 </r>
       <r>     0.4767     7.5888    93.9792 </r>
       <r>     0.5571     9.9912    94.7831 </r>
       <r>     0.6376     6.9206    95.3399 </r>
       <r>     0.7180     8.2340    96.0023 </r>
       <r>     0.7985     8.0295    96.6483 </r>
       <r>     0.8790     9.2247    97.3905 </r>
       <r>     0.9594     7.4897    97.9931 </r>
       <r>     1.0399     6.3675    98.5054 </r>
       <r>     1.1203     7.8961    99.1407 </r>
       <r>     1.2008     6.7119    99.6807 </r>
       <r>     1.2812     6.8233   100.2297 </r>
       <r>     1.3617     7.7396   100.8524 </r>
       <r>     1.4421     7.0406   101.4189 </r>
       <r>     1.5226    11.1283   102.3142 </r>
       <r>     1.6031     8.9424   103.0337 </r>
       <r>     1.6835     8.0512   103.6815 </r>
       <r>     1.7640     7.4640   104.2820 </r>
       <r>     1.8444     9.8202   105.0721 </r>
       <r>     1.9249     9.9279   105.8708 </r>
       <r>     2.0053    11.5907   106.8034 </r>
       <r>     2.0858     8.0041   107.4474 </r>
       <r>     2.1663     9.5008   108.2118 </r>
       <r>     2.2467    15.2930   109.4422 </r>
       <r>     2.3272    15.2661   110.6704 </r>
       <r>     2.4076    11.7881   111.6188 </r>
       <r>     2.4881     8.8402   112.3301 </r>
       <r>     2.5685    12.6960   113.3516 </r>
       <r>     2.6490    11.1929   114.2521 </r>
       <r>     2.7294    12.3621   115.2467 </r>
       <r>     2.8099    11.2178   116.1492 </r>
       <r>     2.8904    10.3349   116.9807 </r>
       <r>     2.9708    12.1671   117.9597 </r>
       <r>     3.0513     9.8670   118.7535 </r>
       <r>     3.1317    13.2552   119.8200 </r>
       <r>     3.2122    17.7323   121.2467 </r>
       <r>     3.2926    18.4961   122.7348 </r>
       <r>     3.3731    15.1939   123.9572 </r>
       <r>     3.4535    10.6044   124.8104 </r>
       <r>     3.5340     7.9540   125.4504 </r>
       <r>     3.6145     4.9043   125.8449 </r>
       <r>     3.6949     1.8277   125.9920 </r>
       <r>     3.7754     0.0994   126.0000 </r>
       <r>     3.8558     0.0001   126.0000 </r>
       <r>     3.9363     0.0000   126.0000 </r>
       <r>     4.0167     0.0000   126.0000 </r>
       <r>     4.0972     0.0000   126.0000 </r>
       <r>     4.1777     0.0000   126.0000 </r>
       <r>     4.2581     0.0000   126.0000 </r>
       <r>     4.3386     0.0000   126.0000 </r>
       <r>     4.4190     0.0000   126.0000 </r>
       <r>     4.4995     0.0000   126.0000 </r>
       <r>     4.5799     0.0000   126.0000 </r>
       <r>     4.6604     0.0000   126.0000 </r>
       <r>     4.7408     0.0000   126.0000 </r>
      </set>
     </set>
    </array>
   </total>
  </dos>
 </calculation>
 <structure name="finalpos" >
  <crystal>
   <varray name="basis" >
    <v>       5.71949249       0.00000000       0.00000000 </v>
    <v>       0.00000000       6.34909559       0.00000000 </v>
    <v>       0.00000000       0.00000000      28.08811665 </v>
   </varray>
   <i name="volume">   1019.98075915 </i>
   <varray name="rec_basis" >
    <v>       0.17484069      -0.00000000       0.00000000 </v>
    <v>      -0.00000000       0.15750275       0.00000000 </v>
    <v>       0.00000000       0.00000000       0.03560224 </v>
   </varray>
  </crystal>
  <varray name="positions" >
   <v>       0.50992473       0.64494232       0.07553035 </v>
   <v>       0.50992473       0.64494232       0.21242476 </v>
   <v>       0.49007527       0.35505768       0.07553035 </v>
   <v>       0.49007527       0.35505768       0.21242476 </v>
   <v>       0.99007527       0.64494232       0.07553035 </v>
   <v>       0.99007527       0.64494232       0.21242476 </v>
   <v>       0.00992473       0.35505768       0.07553035 </v>
   <v>       0.00992473       0.35505768       0.21242476 </v>
   <v>       0.59795737       0.90323696       0.07578880 </v>
   <v>       0.59795737       0.90323696       0.21216631 </v>
   <v>       0.40204263       0.09676304       0.07578880 </v>
   <v>       0.40204263       0.09676304       0.21216631 </v>
   <v>       0.90204263       0.90323696       0.07578880 </v>
   <v>       0.90204263       0.90323696       0.21216631 </v>
   <v>       0.09795737       0.09676304       0.07578880 </v>
   <v>       0.09795737       0.09676304       0.21216631 </v>
   <v>       0.75000000       0.72346700       0.11383658 </v>
   <v>       0.75000000       0.72313526       0.24351375 </v>
   <v>       0.25000000       0.27686474       0.04444136 </v>
   <v>       0.25000000       0.27653300       0.17411852 </v>
   <v>       0.75000000       0.72313526       0.04444136 </v>
   <v>       0.75000000       0.72346700       0.17411852 </v>
   <v>       0.25000000       0.27653300       0.11383658 </v>
   <v>       0.25000000       0.27686474       0.24351375 </v>
   <v>       0.25000000       0.51663927       0.07397677 </v>
   <v>       0.25000000       0.51663927       0.21397834 </v>
   <v>       0.75000000       0.48336070       0.07397677 </v>
   <v>       0.75000000       0.48336070       0.21397834 </v>
  </varray>
 </structure>
</modeling>
