Parameters                              
           1
     5.700971    0.000000    0.000000
     0.000000    6.201871    0.000000
     0.000000    0.000000   28.088117
   B 
    28
Direct configuration=     1
   0.52128989  0.63795769  0.07198878
   0.52128989  0.63795769  0.21596633
   0.47871011  0.36204231  0.07198878
   0.47871011  0.36204231  0.21596633
   0.97871011  0.63795769  0.07198878
   0.97871011  0.63795769  0.21596633
   0.02128989  0.36204231  0.07198878
   0.02128989  0.36204231  0.21596633
   0.59744966  0.89986831  0.07198878
   0.59744966  0.89986831  0.21596633
   0.40255034  0.10013168  0.07198878
   0.40255034  0.10013168  0.21596633
   0.90255034  0.89986831  0.07198878
   0.90255034  0.89986831  0.21596633
   0.09744966  0.10013168  0.07198878
   0.09744966  0.10013168  0.21596633
   0.75000000  0.72957939  0.11396758
   0.75000000  0.72957939  0.25794514
   0.25000000  0.27042061  0.03000997
   0.25000000  0.27042061  0.17398753
   0.75000000  0.72957939  0.03000997
   0.75000000  0.72957939  0.17398753
   0.25000000  0.27042061  0.11396758
   0.25000000  0.27042061  0.25794514
   0.25000000  0.52399302  0.07198878
   0.25000000  0.52399302  0.21596633
   0.75000000  0.47600695  0.07198878
   0.75000000  0.47600695  0.21596633
Parameters                              
           1
     5.714170    0.000000    0.000000
     0.000000    6.269819    0.000000
     0.000000    0.000000   28.088117
   B 
    28
Direct configuration=     2
   0.51860363  0.64131728  0.07161713
   0.51860363  0.64131728  0.21633798
   0.48139637  0.35868272  0.07161713
   0.48139637  0.35868272  0.21633798
   0.98139637  0.64131728  0.07161713
   0.98139637  0.64131728  0.21633798
   0.01860363  0.35868272  0.07161713
   0.01860363  0.35868272  0.21633798
   0.59621853  0.90204857  0.07150203
   0.59621853  0.90204857  0.21645308
   0.40378147  0.09795142  0.07150203
   0.40378147  0.09795142  0.21645308
   0.90378147  0.90204857  0.07150203
   0.90378147  0.90204857  0.21645308
   0.09621853  0.09795142  0.07150203
   0.09621853  0.09795142  0.21645308
   0.75000000  0.72845458  0.11001019
   0.75000000  0.72779585  0.25198496
   0.25000000  0.27220415  0.03597015
   0.25000000  0.27154542  0.17794492
   0.75000000  0.72779585  0.03597015
   0.75000000  0.72845458  0.17794492
   0.25000000  0.27154542  0.11001019
   0.25000000  0.27220415  0.25198496
   0.25000000  0.52495571  0.07154481
   0.25000000  0.52495571  0.21641030
   0.75000000  0.47504427  0.07154481
   0.75000000  0.47504427  0.21641030
Parameters                              
           1
     5.716564    0.000000    0.000000
     0.000000    6.282140    0.000000
     0.000000    0.000000   28.088117
   B 
    28
Direct configuration=     3
   0.51811766  0.64191986  0.07154974
   0.51811766  0.64191986  0.21640537
   0.48188234  0.35808014  0.07154974
   0.48188234  0.35808014  0.21640537
   0.98188234  0.64191986  0.07154974
   0.98188234  0.64191986  0.21640537
   0.01811766  0.35808014  0.07154974
   0.01811766  0.35808014  0.21640537
   0.59599580  0.90243963  0.07141377
   0.59599580  0.90243963  0.21654134
   0.40400420  0.09756036  0.07141377
   0.40400420  0.09756036  0.21654134
   0.90400420  0.90243963  0.07141377
   0.90400420  0.90243963  0.21654134
   0.09599580  0.09756036  0.07141377
   0.09599580  0.09756036  0.21654134
   0.75000000  0.72825283  0.10929260
   0.75000000  0.72747595  0.25090421
   0.25000000  0.27252405  0.03705090
   0.25000000  0.27174717  0.17866250
   0.75000000  0.72747595  0.03705090
   0.75000000  0.72825283  0.17866250
   0.25000000  0.27174717  0.10929260
   0.25000000  0.27252405  0.25090421
   0.25000000  0.52512838  0.07146431
   0.25000000  0.52512838  0.21649080
   0.75000000  0.47487159  0.07146431
   0.75000000  0.47487159  0.21649080
Parameters                              
           1
     5.755588    0.000000    0.000000
     0.000000    6.337622    0.000000
     0.000000    0.000000   28.088117
   B 
    28
Direct configuration=     4
   0.51202088  0.64298027  0.07128213
   0.51202088  0.64298027  0.21667298
   0.48797912  0.35701973  0.07128213
   0.48797912  0.35701973  0.21667298
   0.98797912  0.64298027  0.07128213
   0.98797912  0.64298027  0.21667298
   0.01202088  0.35701973  0.07128213
   0.01202088  0.35701973  0.21667298
   0.59790352  0.90433488  0.07104471
   0.59790352  0.90433488  0.21691040
   0.40209648  0.09566512  0.07104471
   0.40209648  0.09566512  0.21691040
   0.90209648  0.90433488  0.07104471
   0.90209648  0.90433488  0.21691040
   0.09790352  0.09566512  0.07104471
   0.09790352  0.09566512  0.21691040
   0.75000000  0.72565229  0.11121814
   0.75000000  0.72359605  0.24705029
   0.25000000  0.27640395  0.04090482
   0.25000000  0.27434771  0.17673697
   0.75000000  0.72359605  0.04090482
   0.75000000  0.72565229  0.17673697
   0.25000000  0.27434771  0.11121814
   0.25000000  0.27640395  0.24705029
   0.25000000  0.52013921  0.07093457
   0.25000000  0.52013921  0.21702054
   0.75000000  0.47986076  0.07093457
   0.75000000  0.47986076  0.21702054
Parameters                              
           1
     5.762078    0.000000    0.000000
     0.000000    6.346849    0.000000
     0.000000    0.000000   28.088117
   B 
    28
Direct configuration=     5
   0.51101375  0.64315509  0.07123762
   0.51101375  0.64315509  0.21671749
   0.48898625  0.35684491  0.07123762
   0.48898625  0.35684491  0.21671749
   0.98898625  0.64315509  0.07123762
   0.98898625  0.64315509  0.21671749
   0.01101375  0.35684491  0.07123762
   0.01101375  0.35684491  0.21671749
   0.59821865  0.90464733  0.07098333
   0.59821865  0.90464733  0.21697178
   0.40178135  0.09535266  0.07098333
   0.40178135  0.09535266  0.21697178
   0.90178135  0.90464733  0.07098333
   0.90178135  0.90464733  0.21697178
   0.09821865  0.09535266  0.07098333
   0.09821865  0.09535266  0.21697178
   0.75000000  0.72522356  0.11153839
   0.75000000  0.72295640  0.24640931
   0.25000000  0.27704360  0.04154580
   0.25000000  0.27477644  0.17641672
   0.75000000  0.72295640  0.04154580
   0.75000000  0.72522356  0.17641672
   0.25000000  0.27477644  0.11153839
   0.25000000  0.27704360  0.24640931
   0.25000000  0.51931668  0.07084646
   0.25000000  0.51931668  0.21710865
   0.75000000  0.48068329  0.07084646
   0.75000000  0.48068329  0.21710865
Parameters                              
           1
     5.729168    0.000000    0.000000
     0.000000    6.332247    0.000000
     0.000000    0.000000   28.088117
   B 
    28
Direct configuration=     6
   0.51149610  0.64595310  0.07190013
   0.51149610  0.64595310  0.21605497
   0.48850390  0.35404690  0.07190013
   0.48850390  0.35404690  0.21605497
   0.98850390  0.64595310  0.07190013
   0.98850390  0.64595310  0.21605497
   0.01149610  0.35404690  0.07190013
   0.01149610  0.35404690  0.21605497
   0.59938599  0.90293672  0.07156468
   0.59938599  0.90293672  0.21639043
   0.40061401  0.09706328  0.07156468
   0.40061401  0.09706328  0.21639043
   0.90061401  0.90293672  0.07156468
   0.90061401  0.90293672  0.21639043
   0.09938599  0.09706328  0.07156468
   0.09938599  0.09706328  0.21639043
   0.75000000  0.72494177  0.11302289
   0.75000000  0.72104018  0.24638463
   0.25000000  0.27895982  0.04157048
   0.25000000  0.27505823  0.17493222
   0.75000000  0.72104018  0.04157048
   0.75000000  0.72494177  0.17493222
   0.25000000  0.27505823  0.11302289
   0.25000000  0.27895982  0.24638463
   0.25000000  0.51621269  0.07086736
   0.25000000  0.51621269  0.21708774
   0.75000000  0.48378728  0.07086736
   0.75000000  0.48378728  0.21708774
Parameters                              
           1
     5.738245    0.000000    0.000000
     0.000000    6.336275    0.000000
     0.000000    0.000000   28.088117
   B 
    28
Direct configuration=     7
   0.51136229  0.64517956  0.07171740
   0.51136229  0.64517956  0.21623771
   0.48863771  0.35482044  0.07171740
   0.48863771  0.35482044  0.21623771
   0.98863771  0.64517956  0.07171740
   0.98863771  0.64517956  0.21623771
   0.01136229  0.35482044  0.07171740
   0.01136229  0.35482044  0.21623771
   0.59906217  0.90340963  0.07140433
   0.59906217  0.90340963  0.21655078
   0.40093784  0.09659036  0.07140433
   0.40093784  0.09659036  0.21655078
   0.90093784  0.90340963  0.07140433
   0.90093784  0.90340963  0.21655078
   0.09906217  0.09659036  0.07140433
   0.09906217  0.09659036  0.21655078
   0.75000000  0.72501967  0.11261343
   0.75000000  0.72156994  0.24639144
   0.25000000  0.27843006  0.04156367
   0.25000000  0.27498033  0.17534168
   0.75000000  0.72156994  0.04156367
   0.75000000  0.72501967  0.17534168
   0.25000000  0.27498033  0.11261343
   0.25000000  0.27843006  0.24639144
   0.25000000  0.51707082  0.07086160
   0.25000000  0.51707082  0.21709351
   0.75000000  0.48292915  0.07086160
   0.75000000  0.48292915  0.21709351
Parameters                              
           1
     5.717272    0.000000    0.000000
     0.000000    6.349415    0.000000
     0.000000    0.000000   28.088117
   B 
    28
Direct configuration=     8
   0.50956899  0.64581116  0.07277072
   0.50956899  0.64581116  0.21518439
   0.49043101  0.35418884  0.07277072
   0.49043101  0.35418884  0.21518439
   0.99043101  0.64581116  0.07277072
   0.99043101  0.64581116  0.21518439
   0.00956899  0.35418884  0.07277072
   0.00956899  0.35418884  0.21518439
   0.59825060  0.90387765  0.07234947
   0.59825060  0.90387765  0.21560564
   0.40174940  0.09612234  0.07234947
   0.40174940  0.09612234  0.21560564
   0.90174940  0.90387765  0.07234947
   0.90174940  0.90387765  0.21560564
   0.09825060  0.09612234  0.07234947
   0.09825060  0.09612234  0.21560564
   0.75000000  0.72526333  0.11295684
   0.75000000  0.72068764  0.24662517
   0.25000000  0.27931236  0.04132993
   0.25000000  0.27473667  0.17499827
   0.75000000  0.72068764  0.04132993
   0.75000000  0.72526333  0.17499827
   0.25000000  0.27473667  0.11295684
   0.25000000  0.27931236  0.24662517
   0.25000000  0.51706063  0.07113161
   0.25000000  0.51706063  0.21682350
   0.75000000  0.48293934  0.07113161
   0.75000000  0.48293934  0.21682350
Parameters                              
           1
     5.709359    0.000000    0.000000
     0.000000    6.354373    0.000000
     0.000000    0.000000   28.088117
   B 
    28
Direct configuration=     9
   0.50888987  0.64604897  0.07316815
   0.50888987  0.64604897  0.21478696
   0.49111013  0.35395103  0.07316815
   0.49111013  0.35395103  0.21478696
   0.99111013  0.64604897  0.07316815
   0.99111013  0.64604897  0.21478696
   0.00888987  0.35395103  0.07316815
   0.00888987  0.35395103  0.21478696
   0.59794326  0.90405388  0.07270609
   0.59794326  0.90405388  0.21524902
   0.40205674  0.09594611  0.07270609
   0.40205674  0.09594611  0.21524902
   0.90205674  0.90405388  0.07270609
   0.90205674  0.90405388  0.21524902
   0.09794326  0.09594611  0.07270609
   0.09794326  0.09594611  0.21524902
   0.75000000  0.72535508  0.11308642
   0.75000000  0.72035543  0.24671337
   0.25000000  0.27964457  0.04124174
   0.25000000  0.27464492  0.17486869
   0.75000000  0.72035543  0.04124174
   0.75000000  0.72535508  0.17486869
   0.25000000  0.27464492  0.11308642
   0.25000000  0.27964457  0.24671337
   0.25000000  0.51705679  0.07123349
   0.25000000  0.51705679  0.21672162
   0.75000000  0.48294318  0.07123349
   0.75000000  0.48294318  0.21672162
Parameters                              
           1
     5.691494    0.000000    0.000000
     0.000000    6.353124    0.000000
     0.000000    0.000000   28.088117
   B 
    28
Direct configuration=    10
   0.50888138  0.64601180  0.07397184
   0.50888138  0.64601180  0.21398327
   0.49111862  0.35398820  0.07397184
   0.49111862  0.35398820  0.21398327
   0.99111862  0.64601180  0.07397184
   0.99111862  0.64601180  0.21398327
   0.00888138  0.35398820  0.07397184
   0.00888138  0.35398820  0.21398327
   0.59852221  0.90301912  0.07345921
   0.59852221  0.90301912  0.21449590
   0.40147779  0.09698087  0.07345921
   0.40147779  0.09698087  0.21449590
   0.90147779  0.90301912  0.07345921
   0.90147779  0.90301912  0.21449590
   0.09852221  0.09698087  0.07345921
   0.09852221  0.09698087  0.21449590
   0.75000000  0.72594402  0.11284501
   0.75000000  0.72103658  0.24632901
   0.25000000  0.27896342  0.04162610
   0.25000000  0.27405598  0.17511010
   0.75000000  0.72103658  0.04162610
   0.75000000  0.72594402  0.17511010
   0.25000000  0.27405598  0.11284501
   0.25000000  0.27896342  0.24632901
   0.25000000  0.51650108  0.07156507
   0.25000000  0.51650108  0.21639003
   0.75000000  0.48349889  0.07156507
   0.75000000  0.48349889  0.21639003
Parameters                              
           1
     5.686312    0.000000    0.000000
     0.000000    6.352762    0.000000
     0.000000    0.000000   28.088117
   B 
    28
Direct configuration=    11
   0.50887891  0.64600102  0.07420497
   0.50887891  0.64600102  0.21375014
   0.49112109  0.35399898  0.07420497
   0.49112109  0.35399898  0.21375014
   0.99112109  0.64600102  0.07420497
   0.99112109  0.64600102  0.21375014
   0.00887891  0.35399898  0.07420497
   0.00887891  0.35399898  0.21375014
   0.59869068  0.90271891  0.07367767
   0.59869068  0.90271891  0.21427744
   0.40130932  0.09728109  0.07367767
   0.40130932  0.09728109  0.21427744
   0.90130932  0.90271891  0.07367767
   0.90130932  0.90271891  0.21427744
   0.09869068  0.09728109  0.07367767
   0.09869068  0.09728109  0.21427744
   0.75000000  0.72611490  0.11277499
   0.75000000  0.72123420  0.24621751
   0.25000000  0.27876580  0.04173760
   0.25000000  0.27388510  0.17518012
   0.75000000  0.72123420  0.04173760
   0.75000000  0.72611490  0.17518012
   0.25000000  0.27388510  0.11277499
   0.25000000  0.27876580  0.24621751
   0.25000000  0.51633985  0.07166126
   0.25000000  0.51633985  0.21629385
   0.75000000  0.48366012  0.07166126
   0.75000000  0.48366012  0.21629385
Parameters                              
           1
     5.692272    0.000000    0.000000
     0.000000    6.356337    0.000000
     0.000000    0.000000   28.088117
   B 
    28
Direct configuration=    12
   0.50959187  0.64539282  0.07460460
   0.50959187  0.64539282  0.21335051
   0.49040813  0.35460718  0.07460460
   0.49040813  0.35460718  0.21335051
   0.99040813  0.64539282  0.07460460
   0.99040813  0.64539282  0.21335051
   0.00959187  0.35460718  0.07460460
   0.00959187  0.35460718  0.21335051
   0.59789522  0.90289272  0.07414340
   0.59789522  0.90289272  0.21381171
   0.40210478  0.09710727  0.07414340
   0.40210478  0.09710727  0.21381171
   0.90210478  0.90289272  0.07414340
   0.90210478  0.90289272  0.21381171
   0.09789522  0.09710727  0.07414340
   0.09789522  0.09710727  0.21381171
   0.75000000  0.72616159  0.11296166
   0.75000000  0.72188116  0.24553342
   0.25000000  0.27811884  0.04242169
   0.25000000  0.27383841  0.17499345
   0.75000000  0.72188116  0.04242169
   0.75000000  0.72616159  0.17499345
   0.25000000  0.27383841  0.11296166
   0.25000000  0.27811884  0.24553342
   0.25000000  0.51582251  0.07200660
   0.25000000  0.51582251  0.21594851
   0.75000000  0.48417746  0.07200660
   0.75000000  0.48417746  0.21594851
Parameters                              
           1
     5.701808    0.000000    0.000000
     0.000000    6.362057    0.000000
     0.000000    0.000000   28.088117
   B 
    28
Direct configuration=    13
   0.51073142  0.64442024  0.07524401
   0.51073142  0.64442024  0.21271109
   0.48926858  0.35557976  0.07524401
   0.48926858  0.35557976  0.21271109
   0.98926858  0.64442024  0.07524401
   0.98926858  0.64442024  0.21271109
   0.01073142  0.35557976  0.07524401
   0.01073142  0.35557976  0.21271109
   0.59662381  0.90317067  0.07488858
   0.59662381  0.90317067  0.21306653
   0.40337619  0.09682932  0.07488858
   0.40337619  0.09682932  0.21306653
   0.90337619  0.90317067  0.07488858
   0.90337619  0.90317067  0.21306653
   0.09662381  0.09682932  0.07488858
   0.09662381  0.09682932  0.21306653
   0.75000000  0.72623626  0.11326035
   0.75000000  0.72291573  0.24443885
   0.25000000  0.27708427  0.04351626
   0.25000000  0.27376374  0.17469476
   0.75000000  0.72291573  0.04351626
   0.75000000  0.72623626  0.17469476
   0.25000000  0.27376374  0.11326035
   0.25000000  0.27708427  0.24443885
   0.25000000  0.51499522  0.07255916
   0.25000000  0.51499522  0.21539595
   0.75000000  0.48500475  0.07255916
   0.75000000  0.48500475  0.21539595
Parameters                              
           1
     5.717729    0.000000    0.000000
     0.000000    6.366878    0.000000
     0.000000    0.000000   28.088117
   B 
    28
Direct configuration=    14
   0.51012347  0.64396025  0.07556098
   0.51012347  0.64396025  0.21239413
   0.48987653  0.35603975  0.07556098
   0.48987653  0.35603975  0.21239413
   0.98987653  0.64396025  0.07556098
   0.98987653  0.64396025  0.21239413
   0.01012347  0.35603975  0.07556098
   0.01012347  0.35603975  0.21239413
   0.59705861  0.90253813  0.07536498
   0.59705861  0.90253813  0.21259013
   0.40294139  0.09746186  0.07536498
   0.40294139  0.09746186  0.21259013
   0.90294139  0.90253813  0.07536498
   0.90294139  0.90253813  0.21259013
   0.09705861  0.09746186  0.07536498
   0.09705861  0.09746186  0.21259013
   0.75000000  0.72601388  0.11386721
   0.75000000  0.72406325  0.24367156
   0.25000000  0.27593675  0.04428355
   0.25000000  0.27398612  0.17408790
   0.75000000  0.72406325  0.04428355
   0.75000000  0.72601388  0.17408790
   0.25000000  0.27398612  0.11386721
   0.25000000  0.27593675  0.24367156
   0.25000000  0.51589418  0.07310823
   0.25000000  0.51589418  0.21484687
   0.75000000  0.48410579  0.07310823
   0.75000000  0.48410579  0.21484687
Parameters                              
           1
     5.715876    0.000000    0.000000
     0.000000    6.366317    0.000000
     0.000000    0.000000   28.088117
   B 
    28
Direct configuration=    15
   0.51019401  0.64401373  0.07552410
   0.51019401  0.64401373  0.21243101
   0.48980599  0.35598627  0.07552410
   0.48980599  0.35598627  0.21243101
   0.98980599  0.64401373  0.07552410
   0.98980599  0.64401373  0.21243101
   0.01019401  0.35598627  0.07552410
   0.01019401  0.35598627  0.21243101
   0.59700816  0.90261168  0.07530955
   0.59700816  0.90261168  0.21264556
   0.40299184  0.09738832  0.07530955
   0.40299184  0.09738832  0.21264556
   0.90299184  0.90261168  0.07530955
   0.90299184  0.90261168  0.21264556
   0.09700816  0.09738832  0.07530955
   0.09700816  0.09738832  0.21264556
   0.75000000  0.72603973  0.11379660
   0.75000000  0.72392983  0.24376083
   0.25000000  0.27607017  0.04419428
   0.25000000  0.27396027  0.17415851
   0.75000000  0.72392983  0.04419428
   0.75000000  0.72603973  0.17415851
   0.25000000  0.27396027  0.11379660
   0.25000000  0.27607017  0.24376083
   0.25000000  0.51578966  0.07304435
   0.25000000  0.51578966  0.21491076
   0.75000000  0.48421031  0.07304435
   0.75000000  0.48421031  0.21491076
Parameters                              
           1
     5.715182    0.000000    0.000000
     0.000000    6.361817    0.000000
     0.000000    0.000000   28.088117
   B 
    28
Direct configuration=    16
   0.50994196  0.64452381  0.07551972
   0.50994196  0.64452381  0.21243539
   0.49005804  0.35547619  0.07551972
   0.49005804  0.35547619  0.21243539
   0.99005804  0.64452381  0.07551972
   0.99005804  0.64452381  0.21243539
   0.00994196  0.35547619  0.07551972
   0.00994196  0.35547619  0.21243539
   0.59715210  0.90268608  0.07544823
   0.59715210  0.90268608  0.21250688
   0.40284790  0.09731391  0.07544823
   0.40284790  0.09731391  0.21250688
   0.90284790  0.90268608  0.07544823
   0.90284790  0.90268608  0.21250688
   0.09715210  0.09731391  0.07544823
   0.09715210  0.09731391  0.21250688
   0.75000000  0.72545197  0.11381095
   0.75000000  0.72339503  0.24363855
   0.25000000  0.27660497  0.04431656
   0.25000000  0.27454803  0.17414416
   0.75000000  0.72339503  0.04431656
   0.75000000  0.72545197  0.17414416
   0.25000000  0.27454803  0.11381095
   0.25000000  0.27660497  0.24363855
   0.25000000  0.51630847  0.07328473
   0.25000000  0.51630847  0.21467038
   0.75000000  0.48369150  0.07328473
   0.75000000  0.48369150  0.21467038
Parameters                              
           1
     5.714337    0.000000    0.000000
     0.000000    6.356336    0.000000
     0.000000    0.000000   28.088117
   B 
    28
Direct configuration=    17
   0.50963499  0.64514540  0.07551438
   0.50963499  0.64514540  0.21244073
   0.49036501  0.35485460  0.07551438
   0.49036501  0.35485460  0.21244073
   0.99036501  0.64514540  0.07551438
   0.99036501  0.64514540  0.21244073
   0.00963499  0.35485460  0.07551438
   0.00963499  0.35485460  0.21244073
   0.59732741  0.90277675  0.07561711
   0.59732741  0.90277675  0.21233800
   0.40267259  0.09722325  0.07561711
   0.40267259  0.09722325  0.21233800
   0.90267259  0.90277675  0.07561711
   0.90267259  0.90277675  0.21233800
   0.09732741  0.09722325  0.07561711
   0.09732741  0.09722325  0.21233800
   0.75000000  0.72473571  0.11382843
   0.75000000  0.72274332  0.24348965
   0.25000000  0.27725668  0.04446546
   0.25000000  0.27526429  0.17412668
   0.75000000  0.72274332  0.04446546
   0.75000000  0.72473571  0.17412668
   0.25000000  0.27526429  0.11382843
   0.25000000  0.27725668  0.24348965
   0.25000000  0.51694070  0.07357745
   0.25000000  0.51694070  0.21437766
   0.75000000  0.48305927  0.07357745
   0.75000000  0.48305927  0.21437766
Parameters                              
           1
     5.715668    0.000000    0.000000
     0.000000    6.351846    0.000000
     0.000000    0.000000   28.088117
   B 
    28
Direct configuration=    18
   0.50968104  0.64501183  0.07551717
   0.50968104  0.64501183  0.21243794
   0.49031896  0.35498817  0.07551717
   0.49031896  0.35498817  0.21243794
   0.99031896  0.64501183  0.07551717
   0.99031896  0.64501183  0.21243794
   0.00968104  0.35498817  0.07551717
   0.00968104  0.35498817  0.21243794
   0.59778240  0.90305136  0.07569902
   0.59778240  0.90305136  0.21225609
   0.40221760  0.09694863  0.07569902
   0.40221760  0.09694863  0.21225609
   0.90221760  0.90305136  0.07569902
   0.90221760  0.90305136  0.21225609
   0.09778240  0.09694863  0.07569902
   0.09778240  0.09694863  0.21225609
   0.75000000  0.72413348  0.11382272
   0.75000000  0.72255961  0.24351712
   0.25000000  0.27744039  0.04443799
   0.25000000  0.27586652  0.17413239
   0.75000000  0.72255961  0.04443799
   0.75000000  0.72413348  0.17413239
   0.25000000  0.27586652  0.11382272
   0.25000000  0.27744039  0.24351712
   0.25000000  0.51658045  0.07376296
   0.25000000  0.51658045  0.21419214
   0.75000000  0.48341952  0.07376296
   0.75000000  0.48341952  0.21419214
Parameters                              
           1
     5.716167    0.000000    0.000000
     0.000000    6.350166    0.000000
     0.000000    0.000000   28.088117
   B 
    28
Direct configuration=    19
   0.50969827  0.64496182  0.07551822
   0.50969827  0.64496182  0.21243689
   0.49030173  0.35503818  0.07551822
   0.49030173  0.35503818  0.21243689
   0.99030173  0.64496182  0.07551822
   0.99030173  0.64496182  0.21243689
   0.00969827  0.35503818  0.07551822
   0.00969827  0.35503818  0.21243689
   0.59795261  0.90315419  0.07572967
   0.59795261  0.90315419  0.21222544
   0.40204739  0.09684580  0.07572967
   0.40204739  0.09684580  0.21222544
   0.90204739  0.90315419  0.07572967
   0.90204739  0.90315419  0.21222544
   0.09795261  0.09684580  0.07572967
   0.09795261  0.09684580  0.21222544
   0.75000000  0.72390797  0.11382058
   0.75000000  0.72249082  0.24352740
   0.25000000  0.27750918  0.04442771
   0.25000000  0.27609203  0.17413453
   0.75000000  0.72249082  0.04442771
   0.75000000  0.72390797  0.17413453
   0.25000000  0.27609203  0.11382058
   0.25000000  0.27750918  0.24352740
   0.25000000  0.51644555  0.07383238
   0.25000000  0.51644555  0.21412273
   0.75000000  0.48355442  0.07383238
   0.75000000  0.48355442  0.21412273
Parameters                              
           1
     5.718936    0.000000    0.000000
     0.000000    6.351333    0.000000
     0.000000    0.000000   28.088117
   B 
    28
Direct configuration=    20
   0.50982627  0.64498155  0.07553296
   0.50982627  0.64498155  0.21242215
   0.49017373  0.35501845  0.07553296
   0.49017373  0.35501845  0.21242215
   0.99017373  0.64498155  0.07553296
   0.99017373  0.64498155  0.21242215
   0.00982627  0.35501845  0.07553296
   0.00982627  0.35501845  0.21242215
   0.59801542  0.90324879  0.07574780
   0.59801542  0.90324879  0.21220730
   0.40198458  0.09675120  0.07574780
   0.40198458  0.09675120  0.21220730
   0.90198458  0.90324879  0.07574780
   0.90198458  0.90324879  0.21220730
   0.09801542  0.09675120  0.07574780
   0.09801542  0.09675120  0.21220730
   0.75000000  0.72361331  0.11383024
   0.75000000  0.72289727  0.24355500
   0.25000000  0.27710273  0.04440011
   0.25000000  0.27638669  0.17412487
   0.75000000  0.72289727  0.04440011
   0.75000000  0.72361331  0.17412487
   0.25000000  0.27638669  0.11383024
   0.25000000  0.27710273  0.24355500
   0.25000000  0.51655991  0.07392032
   0.25000000  0.51655991  0.21403479
   0.75000000  0.48344006  0.07392032
   0.75000000  0.48344006  0.21403479
Parameters                              
           1
     5.719430    0.000000    0.000000
     0.000000    6.351541    0.000000
     0.000000    0.000000   28.088117
   B 
    28
Direct configuration=    21
   0.50984906  0.64498506  0.07553558
   0.50984906  0.64498506  0.21241952
   0.49015094  0.35501494  0.07553558
   0.49015094  0.35501494  0.21241952
   0.99015094  0.64498506  0.07553558
   0.99015094  0.64498506  0.21241952
   0.00984906  0.35501494  0.07553558
   0.00984906  0.35501494  0.21241952
   0.59802660  0.90326564  0.07575103
   0.59802660  0.90326564  0.21220407
   0.40197340  0.09673435  0.07575103
   0.40197340  0.09673435  0.21220407
   0.90197340  0.90326564  0.07575103
   0.90197340  0.90326564  0.21220407
   0.09802660  0.09673435  0.07575103
   0.09802660  0.09673435  0.21220407
   0.75000000  0.72356083  0.11383197
   0.75000000  0.72296967  0.24355991
   0.25000000  0.27703033  0.04439520
   0.25000000  0.27643917  0.17412314
   0.75000000  0.72296967  0.04439520
   0.75000000  0.72356083  0.17412314
   0.25000000  0.27643917  0.11383197
   0.25000000  0.27703033  0.24355991
   0.25000000  0.51658028  0.07393598
   0.25000000  0.51658028  0.21401913
   0.75000000  0.48341969  0.07393598
   0.75000000  0.48341969  0.21401913
Parameters                              
           1
     5.718630    0.000000    0.000000
     0.000000    6.349284    0.000000
     0.000000    0.000000   28.088117
   B 
    28
Direct configuration=    22
   0.50999107  0.64500701  0.07553491
   0.50999107  0.64500701  0.21242020
   0.49000893  0.35499299  0.07553491
   0.49000893  0.35499299  0.21242020
   0.99000893  0.64500701  0.07553491
   0.99000893  0.64500701  0.21242020
   0.00999107  0.35499299  0.07553491
   0.00999107  0.35499299  0.21242020
   0.59797298  0.90325095  0.07576260
   0.59797298  0.90325095  0.21219250
   0.40202702  0.09674904  0.07576260
   0.40202702  0.09674904  0.21219250
   0.90202702  0.90325095  0.07576260
   0.90202702  0.90325095  0.21219250
   0.09797298  0.09674904  0.07576260
   0.09797298  0.09674904  0.21219250
   0.75000000  0.72347060  0.11381848
   0.75000000  0.72313408  0.24353465
   0.25000000  0.27686592  0.04442046
   0.25000000  0.27652940  0.17413663
   0.75000000  0.72313408  0.04442046
   0.75000000  0.72347060  0.17413663
   0.25000000  0.27652940  0.11381848
   0.25000000  0.27686592  0.24353465
   0.25000000  0.51660319  0.07396676
   0.25000000  0.51660319  0.21398835
   0.75000000  0.48339678  0.07396676
   0.75000000  0.48339678  0.21398835
Parameters                              
           1
     5.718874    0.000000    0.000000
     0.000000    6.349974    0.000000
     0.000000    0.000000   28.088117
   B 
    28
Direct configuration=    23
   0.50994763  0.64500029  0.07553512
   0.50994763  0.64500029  0.21241999
   0.49005237  0.35499971  0.07553512
   0.49005237  0.35499971  0.21241999
   0.99005237  0.64500029  0.07553512
   0.99005237  0.64500029  0.21241999
   0.00994763  0.35499971  0.07553512
   0.00994763  0.35499971  0.21241999
   0.59798938  0.90325545  0.07575907
   0.59798938  0.90325545  0.21219604
   0.40201062  0.09674455  0.07575907
   0.40201062  0.09674455  0.21219604
   0.90201062  0.90325545  0.07575907
   0.90201062  0.90325545  0.21219604
   0.09798938  0.09674455  0.07575907
   0.09798938  0.09674455  0.21219604
   0.75000000  0.72349821  0.11382261
   0.75000000  0.72308377  0.24354238
   0.25000000  0.27691623  0.04441273
   0.25000000  0.27650179  0.17413250
   0.75000000  0.72308377  0.04441273
   0.75000000  0.72349821  0.17413250
   0.25000000  0.27650179  0.11382261
   0.25000000  0.27691623  0.24354238
   0.25000000  0.51659618  0.07395734
   0.25000000  0.51659618  0.21399776
   0.75000000  0.48340379  0.07395734
   0.75000000  0.48340379  0.21399776
Parameters                              
           1
     5.719006    0.000000    0.000000
     0.000000    6.349036    0.000000
     0.000000    0.000000   28.088117
   B 
    28
Direct configuration=    24
   0.50993166  0.64495462  0.07553185
   0.50993166  0.64495462  0.21242326
   0.49006834  0.35504538  0.07553185
   0.49006834  0.35504538  0.21242326
   0.99006834  0.64495462  0.07553185
   0.99006834  0.64495462  0.21242326
   0.00993166  0.35504538  0.07553185
   0.00993166  0.35504538  0.21242326
   0.59794096  0.90326672  0.07577242
   0.59794096  0.90326672  0.21218268
   0.40205904  0.09673327  0.07577242
   0.40205904  0.09673327  0.21218268
   0.90205904  0.90326672  0.07577242