  14  14   0   0
  0.1021318E+02  0.5700971E-09  0.4044058E-09  0.6201871E-09  0.5000000E-15
  1.000000000000000E-004
  CAR 
 SC                                      
     17.98824453    -14.15888965  301      1.92519294      1.00000000
    -14.159  0.0000E+00  0.0000E+00
    -14.052  0.0000E+00  0.0000E+00
    -13.945  0.0000E+00  0.0000E+00
    -13.837  0.0000E+00  0.0000E+00
    -13.730  0.0000E+00  0.0000E+00
    -13.623  0.0000E+00  0.0000E+00
    -13.516  0.0000E+00  0.0000E+00
    -13.409  0.0000E+00  0.0000E+00
    -13.302  0.0000E+00  0.0000E+00
    -13.194  0.6077E-13  0.6512E-14
    -13.087  0.1371E-08  0.1469E-09
    -12.980  0.3623E-05  0.3884E-06
    -12.873  0.1230E-02  0.1322E-03
    -12.766  0.6359E-01  0.6946E-02
    -12.659  0.6685E+00  0.7858E-01
    -12.552  0.2135E+01  0.3073E+00
    -12.444  0.3413E+01  0.6730E+00
    -12.337  0.4013E+01  0.1103E+01
    -12.230  0.3569E+01  0.1485E+01
    -12.123  0.2910E+01  0.1797E+01
    -12.016  0.2619E+01  0.2078E+01
    -11.909  0.2550E+01  0.2351E+01
    -11.801  0.2680E+01  0.2638E+01
    -11.694  0.3091E+01  0.2970E+01
    -11.587  0.3424E+01  0.3337E+01
    -11.480  0.3111E+01  0.3670E+01
    -11.373  0.2065E+01  0.3891E+01
    -11.266  0.8504E+00  0.3982E+01
    -11.158  0.1569E+00  0.3999E+01
    -11.051  0.7781E-02  0.4000E+01
    -10.944  0.6853E-04  0.4000E+01
    -10.837  0.8412E-07  0.4000E+01
    -10.730  0.1263E-10  0.4000E+01
    -10.623  0.2162E-15  0.4000E+01
    -10.516  0.0000E+00  0.4000E+01
    -10.408  0.0000E+00  0.4000E+01
    -10.301  0.0000E+00  0.4000E+01
    -10.194  0.0000E+00  0.4000E+01
    -10.087  0.0000E+00  0.4000E+01
     -9.980  0.0000E+00  0.4000E+01
     -9.873  0.0000E+00  0.4000E+01
     -9.765  0.0000E+00  0.4000E+01
     -9.658  0.0000E+00  0.4000E+01
     -9.551  0.0000E+00  0.4000E+01
     -9.444  0.0000E+00  0.4000E+01
     -9.337  0.1999E-13  0.4000E+01
     -9.230  0.5706E-09  0.4000E+01
     -9.123  0.1895E-05  0.4000E+01
     -9.015  0.7958E-03  0.4000E+01
     -8.908  0.4950E-01  0.4005E+01
     -8.801  0.6158E+00  0.4071E+01
     -8.694  0.2510E+01  0.4340E+01
     -8.587  0.5190E+01  0.4896E+01
     -8.480  0.6343E+01  0.5576E+01
     -8.372  0.5458E+01  0.6161E+01
     -8.265  0.4780E+01  0.6673E+01
     -8.158  0.4646E+01  0.7171E+01
     -8.051  0.3946E+01  0.7594E+01
     -7.944  0.2396E+01  0.7851E+01
     -7.837  0.1044E+01  0.7962E+01
     -7.729  0.3115E+00  0.7996E+01
     -7.622  0.3794E-01  0.8000E+01
     -7.515  0.1075E-02  0.8000E+01
     -7.408  0.4945E-05  0.8000E+01
     -7.301  0.1560E-07  0.8000E+01
     -7.194  0.1230E-04  0.8000E+01
     -7.087  0.1504E-02  0.8000E+01
     -6.979  0.2916E-01  0.8003E+01
     -6.872  0.1429E+00  0.8019E+01
     -6.765  0.3157E+00  0.8052E+01
     -6.658  0.4993E+00  0.8106E+01
     -6.551  0.7312E+00  0.8184E+01
     -6.444  0.9650E+00  0.8288E+01
     -6.336  0.1505E+01  0.8449E+01
     -6.229  0.2248E+01  0.8690E+01
     -6.122  0.3169E+01  0.9029E+01
     -6.015  0.3878E+01  0.9445E+01
     -5.908  0.3999E+01  0.9873E+01
     -5.801  0.4086E+01  0.1031E+02
     -5.693  0.4105E+01  0.1075E+02
     -5.586  0.4045E+01  0.1118E+02
     -5.479  0.4245E+01  0.1164E+02
     -5.372  0.4580E+01  0.1213E+02
     -5.265  0.4644E+01  0.1263E+02
     -5.158  0.4259E+01  0.1308E+02
     -5.051  0.3753E+01  0.1349E+02
     -4.943  0.3085E+01  0.1382E+02
     -4.836  0.2557E+01  0.1409E+02
     -4.729  0.2826E+01  0.1439E+02
     -4.622  0.3237E+01  0.1474E+02
     -4.515  0.3557E+01  0.1512E+02
     -4.408  0.3314E+01  0.1548E+02
     -4.300  0.2975E+01  0.1580E+02
     -4.193  0.2907E+01  0.1611E+02
     -4.086  0.2992E+01  0.1643E+02
     -3.979  0.2893E+01  0.1674E+02
     -3.872  0.2943E+01  0.1705E+02
     -3.765  0.3093E+01  0.1738E+02
     -3.657  0.2944E+01  0.1770E+02
     -3.550  0.2706E+01  0.1799E+02
     -3.443  0.2734E+01  0.1828E+02
     -3.336  0.2766E+01  0.1858E+02
     -3.229  0.2597E+01  0.1886E+02
     -3.122  0.2732E+01  0.1915E+02
     -3.015  0.3020E+01  0.1947E+02
     -2.907  0.2973E+01  0.1979E+02
     -2.800  0.2610E+01  0.2007E+02
     -2.693  0.2337E+01  0.2032E+02
     -2.586  0.2501E+01  0.2059E+02
     -2.479  0.2917E+01  0.2090E+02
     -2.372  0.3335E+01  0.2126E+02
     -2.264  0.3595E+01  0.2165E+02
     -2.157  0.3605E+01  0.2203E+02
     -2.050  0.3452E+01  0.2240E+02
     -1.943  0.3984E+01  0.2283E+02
     -1.836  0.4766E+01  0.2334E+02
     -1.729  0.5526E+01  0.2393E+02
     -1.622  0.5972E+01  0.2457E+02
     -1.514  0.6238E+01  0.2524E+02
     -1.407  0.6214E+01  0.2591E+02
     -1.300  0.5415E+01  0.2649E+02
     -1.193  0.5197E+01  0.2704E+02
     -1.086  0.5207E+01  0.2760E+02
     -0.979  0.3964E+01  0.2803E+02
     -0.871  0.2957E+01  0.2834E+02
     -0.764  0.3049E+01  0.2867E+02
     -0.657  0.3882E+01  0.2909E+02
     -0.550  0.4857E+01  0.2961E+02
     -0.443  0.5767E+01  0.3022E+02
     -0.336  0.6147E+01  0.3088E+02
     -0.228  0.6054E+01  0.3153E+02
     -0.121  0.6543E+01  0.3223E+02
     -0.014  0.6712E+01  0.3295E+02
      0.093  0.7084E+01  0.3371E+02
      0.200  0.8609E+01  0.3463E+02
      0.307  0.8721E+01  0.3557E+02
      0.414  0.7918E+01  0.3642E+02
      0.522  0.5897E+01  0.3705E+02
      0.629  0.4063E+01  0.3748E+02
      0.736  0.3342E+01  0.3784E+02
      0.843  0.3216E+01  0.3819E+02
      0.950  0.3324E+01  0.3854E+02
      1.057  0.3451E+01  0.3891E+02
      1.165  0.3643E+01  0.3930E+02
      1.272  0.3830E+01  0.3971E+02
      1.379  0.3602E+01  0.4010E+02
      1.486  0.3616E+01  0.4049E+02
      1.593  0.3931E+01  0.4091E+02
      1.700  0.4014E+01  0.4134E+02
      1.808  0.3196E+01  0.4168E+02
      1.915  0.2710E+01  0.4197E+02
      2.022  0.2839E+01  0.4228E+02
      2.129  0.2832E+01  0.4258E+02
      2.236  0.2380E+01  0.4283E+02
      2.343  0.1873E+01  0.4303E+02
      2.450  0.1549E+01  0.4320E+02
      2.558  0.1263E+01  0.4334E+02
      2.665  0.9086E+00  0.4343E+02
      2.772  0.6129E+00  0.4350E+02
      2.879  0.4396E+00  0.4355E+02
      2.986  0.4689E+00  0.4360E+02
      3.093  0.6037E+00  0.4366E+02
      3.201  0.5616E+00  0.4372E+02
      3.308  0.3715E+00  0.4376E+02
      3.415  0.2942E+00  0.4379E+02
      3.522  0.3732E+00  0.4383E+02
      3.629  0.3993E+00  0.4388E+02
      3.736  0.3473E+00  0.4391E+02
      3.844  0.2311E+00  0.4394E+02
      3.951  0.2211E+00  0.4396E+02
      4.058  0.2403E+00  0.4399E+02
      4.165  0.1136E+00  0.4400E+02
      4.272  0.6464E-01  0.4401E+02
      4.379  0.1953E+00  0.4403E+02
      4.486  0.3584E+00  0.4407E+02
      4.594  0.5366E+00  0.4412E+02
      4.701  0.7313E+00  0.4420E+02
      4.808  0.8340E+00  0.4429E+02
      4.915  0.9279E+00  0.4439E+02
      5.022  0.1081E+01  0.4451E+02
      5.129  0.1164E+01  0.4463E+02
      5.237  0.1403E+01  0.4478E+02
      5.344  0.1740E+01  0.4497E+02
      5.451  0.2122E+01  0.4519E+02
      5.558  0.2591E+01  0.4547E+02
      5.665  0.2940E+01  0.4579E+02
      5.772  0.3260E+01  0.4614E+02
      5.879  0.3741E+01  0.4654E+02
      5.987  0.4314E+01  0.4700E+02
      6.094  0.4645E+01  0.4750E+02
      6.201  0.4500E+01  0.4798E+02
      6.308  0.4248E+01  0.4843E+02
      6.415  0.4117E+01  0.4888E+02
      6.522  0.4012E+01  0.4931E+02
      6.630  0.3707E+01  0.4970E+02
      6.737  0.3665E+01  0.5010E+02
      6.844  0.3912E+01  0.5052E+02
      6.951  0.4387E+01  0.5099E+02
      7.058  0.4706E+01  0.5149E+02
      7.165  0.4816E+01  0.5201E+02
      7.273  0.4846E+01  0.5252E+02
      7.380  0.4625E+01  0.5302E+02
      7.487  0.4435E+01  0.5350E+02
      7.594  0.4139E+01  0.5394E+02
      7.701  0.3675E+01  0.5433E+02
      7.808  0.3256E+01  0.5468E+02
      7.915  0.3188E+01  0.5502E+02
      8.023  0.3386E+01  0.5539E+02
      8.130  0.3565E+01  0.5577E+02
      8.237  0.3861E+01  0.5618E+02
      8.344  0.4048E+01  0.5662E+02
      8.451  0.4077E+01  0.5705E+02
      8.558  0.3948E+01  0.5748E+02
      8.666  0.4033E+01  0.5791E+02
      8.773  0.4444E+01  0.5838E+02
      8.880  0.4996E+01  0.5892E+02
      8.987  0.5316E+01  0.5949E+02
      9.094  0.5199E+01  0.6005E+02
      9.201  0.5435E+01  0.6063E+02
      9.309  0.5246E+01  0.6119E+02
      9.416  0.4839E+01  0.6171E+02
      9.523  0.4748E+01  0.6222E+02
      9.630  0.4935E+01  0.6275E+02
      9.737  0.5160E+01  0.6330E+02
      9.844  0.5225E+01  0.6386E+02
      9.951  0.5017E+01  0.6440E+02
     10.059  0.4311E+01  0.6486E+02
     10.166  0.4231E+01  0.6531E+02
     10.273  0.4483E+01  0.6579E+02
     10.380  0.5125E+01  0.6634E+02
     10.487  0.5409E+01  0.6692E+02
     10.594  0.4803E+01  0.6744E+02
     10.702  0.4215E+01  0.6789E+02
     10.809  0.3754E+01  0.6829E+02
     10.916  0.3691E+01  0.6869E+02
     11.023  0.4363E+01  0.6915E+02
     11.130  0.5267E+01  0.6972E+02
     11.237  0.5620E+01  0.7032E+02
     11.345  0.5480E+01  0.7091E+02
     11.452  0.5158E+01  0.7146E+02
     11.559  0.4965E+01  0.7199E+02
     11.666  0.4988E+01  0.7253E+02
     11.773  0.5018E+01  0.7306E+02
     11.880  0.5197E+01  0.7362E+02
     11.987  0.5621E+01  0.7422E+02
     12.095  0.5895E+01  0.7486E+02
     12.202  0.5776E+01  0.7547E+02
     12.309  0.5269E+01  0.7604E+02
     12.416  0.5682E+01  0.7665E+02
     12.523  0.6105E+01  0.7730E+02
     12.630  0.5880E+01  0.7793E+02
     12.738  0.5785E+01  0.7855E+02
     12.845  0.5653E+01  0.7916E+02
     12.952  0.5637E+01  0.7976E+02
     13.059  0.5805E+01  0.8038E+02
     13.166  0.5965E+01  0.8102E+02
     13.273  0.6004E+01  0.8167E+02
     13.380  0.5688E+01  0.8228E+02
     13.488  0.5615E+01  0.8288E+02
     13.595  0.5692E+01  0.8349E+02
     13.702  0.5630E+01  0.8409E+02
     13.809  0.5819E+01  0.8471E+02
     13.916  0.5657E+01  0.8532E+02
     14.023  0.5351E+01  0.8589E+02
     14.131  0.5091E+01  0.8644E+02
     14.238  0.5253E+01  0.8700E+02
     14.345  0.5161E+01  0.8756E+02
     14.452  0.4862E+01  0.8808E+02
     14.559  0.5114E+01  0.8862E+02
     14.666  0.5048E+01  0.8917E+02
     14.774  0.4643E+01  0.8966E+02
     14.881  0.4445E+01  0.9014E+02
     14.988  0.5122E+01  0.9069E+02
     15.095  0.5955E+01  0.9133E+02
     15.202  0.5939E+01  0.9196E+02
     15.309  0.5735E+01  0.9258E+02
     15.416  0.6086E+01  0.9323E+02
     15.524  0.6212E+01  0.9390E+02
     15.631  0.5265E+01  0.9446E+02
     15.738  0.4004E+01  0.9489E+02
     15.845  0.3038E+01  0.9521E+02
     15.952  0.2214E+01  0.9545E+02
     16.059  0.1519E+01  0.9561E+02
     16.167  0.1149E+01  0.9574E+02
     16.274  0.9776E+00  0.9584E+02
     16.381  0.8296E+00  0.9593E+02
     16.488  0.4904E+00  0.9598E+02
     16.595  0.1439E+00  0.9600E+02
     16.702  0.1315E-01  0.9600E+02
     16.810  0.2590E-03  0.9600E+02
     16.917  0.8321E-06  0.9600E+02
     17.024  0.3575E-09  0.9600E+02
     17.131  0.1825E-13  0.9600E+02
     17.238  0.0000E+00  0.9600E+02
     17.345  0.0000E+00  0.9600E+02
     17.452  0.0000E+00  0.9600E+02
     17.560  0.0000E+00  0.9600E+02
     17.667  0.0000E+00  0.9600E+02
     17.774  0.0000E+00  0.9600E+02
     17.881  0.0000E+00  0.9600E+02
     17.988  0.0000E+00  0.9600E+02
