   14   14    1    1
  0.1021318E+02  0.5700971E-09  0.4044058E-09  0.6201871E-09  0.5000000E-15
  1.000000000000000E-004
  CAR 
 SC                                      
     42    768     48
 
  0.3125000E-01  0.0000000E+00  0.0000000E+00  0.3623188E-03
      1        -12.697656   1.000000
      2        -11.521739   1.000000
      3         -8.659629   1.000000
      4         -8.366989   1.000000
      5         -6.050848   1.000000
      6         -5.124400   1.000000
      7         -4.692974   1.000000
      8         -4.342735   1.000000
      9         -3.930935   1.000000
     10         -3.508810   1.000000
     11         -2.398924   1.000000
     12         -2.217651   1.000000
     13         -2.110478   1.000000
     14         -1.084516   1.000000
     15         -0.015622   1.000000
     16          0.006489   1.000000
     17          0.044127   1.000000
     18          0.090325   1.000000
     19          0.666979   1.000000
     20          2.116183   0.003457
     21          2.149445   0.000759
     22          2.234333   0.000006
     23          5.510625   0.000000
     24          5.728038   0.000000
     25          5.731512   0.000000
     26          5.991282   0.000000
     27          6.721044   0.000000
     28          7.598523   0.000000
     29          7.811576   0.000000
     30          8.629836   0.000000
     31          8.862999   0.000000
     32          8.872111   0.000000
     33          9.052567   0.000000
     34         10.031096   0.000000
     35         11.194635   0.000000
     36         11.384688   0.000000
     37         11.512564   0.000000
     38         11.741155   0.000000
     39         11.969066   0.000000
     40         12.300255   0.000000
     41         12.940200   0.000000
     42         13.385553   0.000000
     43         13.509287   0.000000
     44         15.491879   0.000000
     45         15.536476   0.000000
     46         15.990015   0.000000
     47         16.317217   0.000000
     48         16.439352   0.000000
 
  0.9375000E-01  0.0000000E+00  0.0000000E+00  0.3623188E-03
      1        -12.680265   1.000000
      2        -11.552439   1.000000
      3         -8.649416   1.000000
      4         -8.362009   1.000000
      5         -6.017711   1.000000
      6         -5.306210   1.000000
      7         -4.762092   1.000000
      8         -4.119583   1.000000
      9         -3.906651   1.000000
     10         -3.360218   1.000000
     11         -2.391703   1.000000
     12         -2.222576   1.000000
     13         -2.168660   1.000000
     14         -1.210716   1.000000
     15         -0.043179   1.000000
     16          0.017567   1.000000
     17          0.061659   1.000000
     18          0.109860   1.000000
     19          0.625655   1.000000
     20          2.083805   0.012445
     21          2.109075   0.004655
     22          2.185769   0.000114
     23          5.544394   0.000000
     24          5.711790   0.000000
     25          5.759643   0.000000
     26          6.133424   0.000000
     27          6.687705   0.000000
     28          7.366379   0.000000
     29          7.977169   0.000000
     30          8.686742   0.000000
     31          8.964884   0.000000
     32          9.006476   0.000000
     33          9.063210   0.000000
     34         10.066059   0.000000
     35         11.218997   0.000000
     36         11.224364   0.000000
     37         11.474841   0.000000
     38         11.495111   0.000000
     39         12.059572   0.000000
     40         12.335483   0.000000
     41         13.069188   0.000000
     42         13.357017   0.000000
     43         13.663930   0.000000
     44         15.128869   0.000000
     45         15.630370   0.000000
     46         16.124423   0.000000
     47         16.202450   0.000000
     48         16.367832   0.000000
 
  0.1562500E+00  0.0000000E+00  0.0000000E+00  0.3623188E-03
      1        -12.645762   1.000000
      2        -11.611202   1.000000
      3         -8.628778   1.000000
      4         -8.353445   1.000000
      5         -5.973051   1.000000
      6         -5.529557   1.000000
      7         -4.829400   1.000000
      8         -3.858405   1.000000
      9         -3.815192   1.000000
     10         -3.117404   1.000000
     11         -2.376957   1.000000
     12         -2.276421   1.000000
     13         -2.232322   1.000000
     14         -1.443215   1.000000
     15         -0.139570   1.000000
     16          0.077059   1.000000
     17          0.095703   1.000000
     18          0.140386   1.000000
     19          0.547471   1.000000
     20          2.022894   0.083532
     21          2.033937   0.062040
     22          2.088793   0.010343
     23          5.601787   0.000000
     24          5.680036   0.000000
     25          5.865263   0.000000
     26          6.366745   0.000000
     27          6.628694   0.000000
     28          7.145806   0.000000
     29          8.099944   0.000000
     30          8.787802   0.000000
     31          9.047358   0.000000
     32          9.174632   0.000000
     33          9.229777   0.000000
     34         10.152273   0.000000
     35         10.916308   0.000000
     36         11.097279   0.000000
     37         11.284757   0.000000
     38         11.522328   0.000000
     39         12.216276   0.000000
     40         12.414772   0.000000
     41         13.091264   0.000000
     42         13.193920   0.000000
     43         14.071481   0.000000
     44         14.811689   0.000000
     45         15.764707   0.000000
     46         15.787127   0.000000
     47         16.280059   0.000000
     48         16.459949   0.000000
 
  0.2187500E+00  0.0000000E+00  0.0000000E+00  0.3623188E-03
      1        -12.594704   1.000000
      2        -11.693314   1.000000
      3         -8.597829   1.000000
      4         -8.344057   1.000000
      5         -5.954576   1.000000
      6         -5.739565   1.000000
      7         -4.820126   1.000000
      8         -3.786735   1.000000
      9         -3.489176   1.000000
     10         -2.827047   1.000000
     11         -2.420613   1.000000
     12         -2.354063   1.000000
     13         -2.246482   1.000000
     14         -1.750863   1.000000
     15         -0.276776   1.000000
     16          0.142929   1.000000
     17          0.144071   1.000000
     18          0.152335   1.000000
     19          0.469629   1.000000
     20          1.934726   0.446375
     21          1.940556   0.414000
     22          1.945968   0.384452
     23          5.648571   0.000000
     24          5.666572   0.000000
     25          6.058502   0.000000
     26          6.557414   0.000000
     27          6.662156   0.000000
     28          6.955229   0.000000
     29          8.196565   0.000000
     30          8.898995   0.000000
     31          9.001094   0.000000
     32          9.448544   0.000000
     33          9.493707   0.000000
     34         10.323616   0.000000
     35         10.515764   0.000000
     36         10.719415   0.000000
     37         11.368914   0.000000
     38         11.636652   0.000000
     39         12.334842   0.000000
     40         12.615219   0.000000
     41         12.754698   0.000000
     42         13.117190   0.000000
     43         14.522621   0.000000
     44         14.717897   0.000000
     45         15.387825   0.000000
     46         15.976093   0.000000
     47         16.122414   0.000000
     48         16.392791   0.000000
 
  0.2812500E+00  0.0000000E+00  0.0000000E+00  0.3623188E-03
      1        -12.527974   1.000000
      2        -11.792896   1.000000
      3         -8.557716   1.000000
      4         -8.337742   1.000000
      5         -5.986154   1.000000
      6         -5.917322   1.000000
      7         -4.694949   1.000000
      8         -3.692527   1.000000
      9         -3.175153   1.000000
     10         -2.587803   1.000000
     11         -2.520739   1.000000
     12         -2.327513   1.000000
     13         -2.262914   1.000000
     14         -2.089581   1.000000
     15         -0.445105   1.000000
     16          0.031668   1.000000
     17          0.202984   1.000000
     18          0.231994   1.000000
     19          0.482873   1.000000
     20          1.764460   0.988490
     21          1.825827   0.920026
     22          1.846409   0.867398
     23          5.629300   0.000000
     24          5.721234   0.000000
     25          6.335303   0.000000
     26          6.490590   0.000000
     27          6.799421   0.000000
     28          7.003714   0.000000
     29          8.276745   0.000000
     30          8.907663   0.000000
     31          8.940438   0.000000
     32          9.765075   0.000000
     33          9.775762   0.000000
     34         10.058840   0.000000
     35         10.440925   0.000000
     36         10.610434   0.000000
     37         11.446905   0.000000
     38         11.838586   0.000000
     39         12.377723   0.000000
     40         12.394148   0.000000
     41         12.800655   0.000000
     42         12.925695   0.000000
     43         14.833608   0.000000
     44         14.981968   0.000000
     45         15.018345   0.000000
     46         15.813085   0.000000
     47         15.878110   0.000000
     48         16.175808   0.000000
 
  0.3437500E+00  0.0000000E+00  0.0000000E+00  0.3623188E-03
      1        -12.446816   1.000000
      2        -11.903713   1.000000
      3         -8.511040   1.000000
      4         -8.338978   1.000000
      5         -6.052839   1.000000
      6         -6.052184   1.000000
      7         -4.464579   1.000000
      8         -3.577083   1.000000
      9         -2.948000   1.000000
     10         -2.766458   1.000000
     11         -2.458874   1.000000
     12         -2.311681   1.000000
     13         -2.215647   1.000000
     14         -2.195990   1.000000
     15         -0.626222   1.000000
     16         -0.179944   1.000000
     17          0.266347   1.000000
     18          0.304343   1.000000
     19          0.585580   1.000000
     20          1.556338   1.000000
     21          1.723907   0.997791
     22          1.752083   0.992820
     23          5.629160   0.000000
     24          5.750885   0.000000
     25          6.445330   0.000000
     26          6.675646   0.000000
     27          6.684492   0.000000
     28          7.380648   0.000000
     29          8.345910   0.000000
     30          8.790358   0.000000
     31          8.792067   0.000000
     32          9.584386   0.000000
     33         10.071088   0.000000
     34         10.081512   0.000000
     35         10.378800   0.000000
     36         11.015015   0.000000
     37         11.469761   0.000000
     38         11.981119   0.000000
     39         12.106808   0.000000
     40         12.381835   0.000000
     41         12.446539   0.000000
     42         13.233265   0.000000
     43         14.698090   0.000000
     44         14.956682   0.000000
     45         15.291932   0.000000
     46         15.429950   0.000000
     47         15.446318   0.000000
     48         16.362088   0.000000
 
  0.4062500E+00  0.0000000E+00  0.0000000E+00  0.3623188E-03
      1        -12.352899   1.000000
      2        -12.019893   1.000000
      3         -8.461941   1.000000
      4         -8.351656   1.000000
      5         -6.140190   1.000000
      6         -6.121085   1.000000
      7         -4.160033   1.000000
      8         -3.442101   1.000000
      9         -3.073762   1.000000
     10         -2.947428   1.000000
     11         -2.508327   1.000000
     12         -2.331024   1.000000
     13         -2.103986   1.000000
     14         -1.961652   1.000000
     15         -0.777567   1.000000
     16         -0.429611   1.000000
     17          0.325013   1.000000
     18          0.357139   1.000000
     19          0.734866   1.000000
     20          1.336348   1.000000
     21          1.646688   0.999959
     22          1.671330   0.999835
     23          5.648801   0.000000
     24          5.748743   0.000000
     25          6.433465   0.000000
     26          6.579019   0.000000
     27          7.091547   0.000000
     28          7.785150   0.000000
     29          8.411451   0.000000
     30          8.445412   0.000000
     31          8.672718   0.000000
     32          9.114020   0.000000
     33         10.365981   0.000000
     34         10.366101   0.000000
     35         10.542180   0.000000
     36         11.422936   0.000000
     37         11.497632   0.000000
     38         11.580941   0.000000
     39         11.947445   0.000000
     40         12.433659   0.000000
     41         12.463011   0.000000
     42         13.365901   0.000000
     43         14.529594   0.000000
     44         14.830038   0.000000
     45         14.947709   0.000000
     46         15.088945   0.000000
     47         15.849102   0.000000
     48         16.486675   0.000000
 
  0.4687500E+00  0.0000000E+00  0.0000000E+00  0.3623188E-03
      1        -12.248449   1.000000
      2        -12.136268   1.000000
      3         -8.415684   1.000000
      4         -8.377614   1.000000
      5         -6.177540   1.000000
      6         -6.168139   1.000000
      7         -3.808101   1.000000
      8         -3.432094   1.000000
      9         -3.289965   1.000000
     10         -3.123721   1.000000
     11         -2.427358   1.000000
     12         -2.370223   1.000000
     13         -1.944348   1.000000
     14         -1.859969   1.000000
     15         -0.809180   1.000000
     16         -0.666507   1.000000
     17          0.366749   1.000000
     18          0.379389   1.000000
     19          0.915308   1.000000
     20          1.118752   1.000000
     21          1.609455   0.999996
     22          1.619320   0.999992
     23          5.682876   0.000000
     24          5.721078   0.000000
     25          6.455687   0.000000
     26          6.505743   0.000000
     27          7.538869   0.000000
     28          8.003007   0.000000
     29          8.211472   0.000000
     30          8.482952   0.000000
     31          8.568854   0.000000
     32          8.655425   0.000000
     33         10.572990   0.000000
     34         10.585620   0.000000
     35         10.835488   0.000000
     36         11.192608   0.000000
     37         11.397225   0.000000
     38         11.575883   0.000000
     39         11.986031   0.000000
     40         12.331908   0.000000
     41         12.788802   0.000000
     42         13.155546   0.000000
     43         14.605013   0.000000
     44         14.678048   0.000000
     45         14.759466   0.000000
     46         14.845603   0.000000
     47         16.212134   0.000000
     48         16.453429   0.000000
 
  0.3125000E-01  0.4347826E-01  0.0000000E+00  0.7246377E-03
      1        -12.693031   1.000000
      2        -11.517567   1.000000
      3         -8.656008   1.000000
      4         -8.362514   1.000000
      5         -6.045794   1.000000
      6         -5.117602   1.000000
      7         -4.688829   1.000000
      8         -4.353024   1.000000
      9         -4.037866   1.000000
     10         -3.503854   1.000000
     11         -2.621677   1.000000
     12         -2.264694   1.000000
     13         -1.686033   1.000000
     14         -1.083612   1.000000
     15         -0.102963   1.000000
     16         -0.013666   1.000000
     17          0.059654   1.000000
     18          0.095789   1.000000
     19          0.690349   1.000000
     20          2.065072   0.023953
     21          2.074574   0.017319
     22          2.264909   0.000001
     23          5.559280   0.000000
     24          5.671325   0.000000
     25          5.789325   0.000000
     26          5.945313   0.000000
     27          6.778623   0.000000
     28          7.657899   0.000000
     29          7.869126   0.000000
     30          8.473251   0.000000
     31          8.872250   0.000000
     32          8.943111   0.000000
     33          9.063734   0.000000
     34         10.146001   0.000000
     35         11.242329   0.000000
     36         11.368421   0.000000
     37         11.530839   0.000000
     38         11.730305   0.000000
     39         11.987178   0.000000
     40         12.354153   0.000000
     41         12.938812   0.000000
     42         13.330039   0.000000
     43         13.445576   0.000000
     44         15.490794   0.000000
     45         15.497969   0.000000
     46         15.983912   0.000000
     47         16.289233   0.000000
     48         16.393592   0.000000
 
  0.9375000E-01  0.4347826E-01  0.0000000E+00  0.7246377E-03
      1        -12.675653   1.000000
      2        -11.548255   1.000000
      3         -8.645780   1.000000
      4         -8.357562   1.000000
      5         -6.012536   1.000000
      6         -5.300140   1.000000
      7         -4.758078   1.000000
      8         -4.151215   1.000000
      9         -3.992214   1.000000
     10         -3.355473   1.000000
     11         -2.648416   1.000000
     12         -2.256908   1.000000
     13         -1.724518   1.000000
     14         -1.209788   1.000000
     15         -0.099990   1.000000
     16          0.002405   1.000000
     17          0.042207   1.000000
     18          0.116719   1.000000
     19          0.648928   1.000000
     20          2.032757   0.064107
     21          2.035633   0.059160
     22          2.214520   0.000021
     23          5.594010   0.000000
     24          5.690838   0.000000
     25          5.779364   0.000000
     26          6.088714   0.000000
     27          6.745425   0.000000
     28          7.428616   0.000000
     29          8.032165   0.000000
     30          8.532390   0.000000
     31          9.008465   0.000000
     32          9.044738   0.000000
     33          9.078749   0.000000
     34         10.165168   0.000000
     35         11.201900   0.000000
     36         11.270638   0.000000
     37         11.459706   0.000000
     38         11.521510   0.000000
     39         12.077928   0.000000
     40         12.388767   0.000000
     41         13.070377   0.000000
     42         13.294202   0.000000
     43         13.606737   0.000000
     44         15.143579   0.000000
     45         15.586620   0.000000
     46         16.112614   0.000000
     47         16.127784   0.000000
     48         16.378791   0.000000
 
  0.1562500E+00  0.4347826E-01  0.0000000E+00  0.7246377E-03
      1        -12.641162   1.000000
      2        -11.607001   1.000000
      3         -8.625123   1.000000
      4         -8.349058   1.000000
      5         -5.967598   1.000000
      6         -5.523741   1.000000
      7         -4.825679   1.000000
      8         -4.009220   1.000000
      9         -3.782491   1.000000
     10         -3.113561   1.000000
     11         -2.702138   1.000000
     12         -2.241154   1.000000
     13         -1.790870   1.000000
     14         -1.442106   1.000000
     15         -0.154664   1.000000
     16          0.030964   1.000000
     17          0.062917   1.000000
     18          0.152727   1.000000
     19          0.570430   1.000000
     20          1.962294   0.299898
     21          1.972001   0.253996
     22          2.115136   0.003613
     23          5.652892   0.000000
     24          5.702206   0.000000
     25          5.841088   0.000000
     26          6.319997   0.000000
     27          6.686717   0.000000
     28          7.213519   0.000000
     29          8.152256   0.000000
     30          8.636630   0.000000
     31          9.083523   0.000000
     32          9.233896   0.000000
     33          9.244578   0.000000
     34         10.219694   0.000000
     35         10.898172   0.000000
     36         11.081152   0.000000
     37         11.328176   0.000000
     38         11.562042   0.000000
     39         12.236357   0.000000
     40         12.465382   0.000000
     41         13.030298   0.000000
     42         13.197972   0.000000
     43         14.001918   0.000000
     44         14.843625   0.000000
     45         15.708384   0.000000
     46         15.800608   0.000000
     47         16.161060   0.000000
     48         16.494217   0.000000
 
  0.2187500E+00  0.4347826E-01  0.0000000E+00  0.7246377E-03
      1        -12.590121   1.000000
      2        -11.689083   1.000000
      3         -8.594149   1.000000
      4         -8.339749   1.000000
      5         -5.948773   1.000000
      6         -5.733782   1.000000
      7         -4.816810   1.000000
      8         -3.929521   1.000000
      9         -3.465765   1.000000
     10         -2.843067   1.000000
     11         -2.764589   1.000000
     12         -2.217252   1.000000
     13         -1.870309   1.000000
     14         -1.749481   1.000000
     15         -0.278336   1.000000
     16          0.056649   1.000000
     17          0.127418   1.000000
     18          0.182085   1.000000
     19          0.488176   1.000000
     20          1.862566   0.812107
     21          1.889906   0.691123
     22          1.972065   0.253709
     23          5.679840   0.000000
     24          5.718916   0.000000
     25          6.025369   0.000000
     26          6.605002   0.000000
     27          6.615994   0.000000
     28          7.036666   0.000000
     29          8.246711   0.000000
     30          8.750118   0.000000
     31          9.055104   0.000000
     32          9.499215   0.000000
     33          9.517626   0.000000
     34         10.332228   0.000000
     35         10.508750   0.000000
     36         10.712067   0.000000
     37         11.407239   0.000000
     38         11.690379   0.000000
     39         12.365619   0.000000
     40         12.643228   0.000000
     41         12.707993   0.000000
     42         13.123065   0.000000
     43         14.405450   0.000000
     44         14.801495   0.000000
     45         15.407921   0.000000
     46         15.897598   0.000000
     47         16.050839   0.000000
     48         16.416883   0.000000
 
  0.2812500E+00  0.4347826E-01  0.0000000E+00  0.7246377E-03
      1        -12.523420   1.000000
      2        -11.788625   1.000000
      3         -8.554006   1.000000
      4         -8.333540   1.000000
      5         -5.980102   1.000000
      6         -5.911478   1.000000
      7         -4.691956   1.000000
      8         -3.838154   1.000000
      9         -3.149639   1.000000
     10         -2.901975   1.000000
     11         -2.505111   1.000000
     12         -2.196360   1.000000
     13         -2.081950   1.000000
     14         -1.950988   1.000000
     15         -0.441616   1.000000
     16          0.000782   1.000000
     17          0.196311   1.000000
     18          0.204092   1.000000
     19          0.490659   1.000000
     20          1.737854   0.995968
     21          1.796009   0.966146
     22          1.805563   0.954660
     23          5.663810   0.000000
     24          5.773744   0.000000
     25          6.299780   0.000000
     26          6.550125   0.000000
     27          6.809033   0.000000
     28          7.021279   0.000000
     29          8.324974   0.000000
     30          8.798799   0.000000
     31          8.981954   0.000000
     32          9.782182   0.000000
     33          9.818130   0.000000
     34         10.031898   0.000000
     35         10.385562   0.000000
     36         10.660379   0.000000
     37         11.475378   0.000000
     38         11.903113   0.000000
     39         12.322837   0.000000
     40         12.431162   0.000000
     41         12.807382   0.000000
     42         12.962952   0.000000
     43         14.722919   0.000000
     44         15.052570   0.000000
     45         15.064331   0.000000
     46         15.785747   0.000000
     47         15.789118   0.000000
     48         16.228480   0.000000
 
  0.3437500E+00  0.4347826E-01  0.0000000E+00  0.7246377E-03
      1        -12.442291   1.000000
      2        -11.899404   1.000000
      3         -8.507304   1.000000
      4         -8.334890   1.000000
      5         -6.046908   1.000000
      6         -6.046028   1.000000
      7         -4.461807   1.000000
      8         -3.729799   1.000000
      9         -3.030953   1.000000
     10         -2.921516   1.000000
     11         -2.416718   1.000000
     12         -2.204480   1.000000
     13         -2.113238   1.000000
     14         -2.027353   1.000000
     15         -0.620281   1.000000
     16         -0.188672   1.000000
     17          0.242400   1.000000
     18          0.275275   1.000000
     19          0.588797   1.000000
     20          1.554415   1.000000
     21          1.678306   0.999760
     22          1.701921   0.999204
     23          5.666145   0.000000
     24          5.801962   0.000000
     25          6.506322   0.000000
     26          6.647499   0.000000
     27          6.727762   0.000000
     28          7.358418   0.000000
     29          8.391976   0.000000
     30          8.704445   0.000000
     31          8.840921   0.000000
     32          9.547731   0.000000
     33         10.078547   0.000000
     34         10.108216   0.000000
     35         10.352245   0.000000
     36         11.032524   0.000000
     37         11.477143   0.000000
     38         11.942474   0.000000
     39         12.178328   0.000000
     40         12.388981   0.000000
     41         12.486646   0.000000
     42         13.271209   0.000000
     43         14.740211   0.000000
     44         14.913859   0.000000
     45         15.256313   0.000000
     46         15.369252   0.000000
     47         15.534236   0.000000
     48         16.364184   0.000000
 
  0.4062500E+00  0.4347826E-01  0.0000000E+00  0.7246377E-03
      1        -12.348416   1.000000
      2        -12.015537   1.000000
      3         -8.458167   1.000000
      4         -8.347670   1.000000
      5         -6.134157   1.000000
      6         -6.114905   1.000000
      7         -4.157444   1.000000
      8         -3.605796   1.000000
      9         -3.174095   1.000000
     10         -3.066488   1.000000
     11         -2.411280   1.000000
     12         -2.100604   1.000000
     13         -2.026933   1.000000
     14         -1.954988   1.000000
     15         -0.770732   1.000000
     16         -0.431258   1.000000
     17          0.296142   1.000000
     18          0.327333   1.000000
     19          0.736895   1.000000
     20          1.337766   1.000000
     21          1.597238   0.999998
     22          1.621306   0.999991
     23          5.688302   0.000000
     24          5.797118   0.000000
     25          6.495899   0.000000
     26          6.637923   0.000000
     27          7.054725   0.000000
     28          7.756503   0.000000
     29          8.396810   0.000000
     30          8.454947   0.000000
     31          8.704150   0.000000
     32          9.081373   0.000000
     33         10.337372   0.000000
     34         10.375429   0.000000
     35         10.548618   0.000000
     36         11.364404   0.000000
     37         11.509423   0.000000
     38         11.603327   0.000000
     39         11.960544   0.000000
     40         12.503035   0.000000
     41         12.503355   0.000000
     42         13.409940   0.000000
     43         14.569904   0.000000
     44         14.809461   0.000000
     45         14.930751   0.000000
     46         15.094333   0.000000
     47         15.868768   0.000000
     48         16.480504   0.000000
 
  0.4687500E+00  0.4347826E-01  0.0000000E+00  0.7246377E-03
      1        -12.244007   1.000000
      2        -12.131866   1.000000
      3         -8.411867   1.000000
      4         -8.373727   1.000000
      5         -6.171428   1.000000
      6         -6.161990   1.000000
      7         -3.805812   1.000000
      8         -3.474749   1.000000
      9         -3.422140   1.000000
     10         -3.321945   1.000000
     11         -2.274984   1.000000
     12         -2.177266   1.000000
     13         -1.905450   1.000000
     14         -1.842792   1.000000
     15         -0.803999   1.000000
     16         -0.664526   1.000000
     17          0.336488   1.000000
     18          0.349099   1.000000
     19          0.917091   1.000000
     20          1.120547   1.000000
     21          1.559391   1.000000
     22          1.569293   1.000000
     23          5.725137   0.000000
     24          5.766331   0.000000
     25          6.518669   0.000000
     26          6.567757   0.000000
     27          7.501107   0.000000
     28          7.962829   0.000000
     29          8.179236   0.000000
     30          8.523957   0.000000
     31          8.586932   0.000000
     32          8.640382   0.000000
     33         10.559355   0.000000
     34         10.595941   0.000000
     35         10.806974   0.000000
     36         11.098376   0.000000
     37         11.454606   0.000000
     38         11.596012   0.000000
     39         12.005067   0.000000
     40         12.363730   0.000000
     41         12.853958   0.000000
     42         13.209506   0.000000
     43         14.610993   0.000000
     44         14.694713   0.000000
     45         14.744772   0.000000
     46         14.875989   0.000000
     47         16.213494   0.000000
     48         16.446829   0.000000
 
  0.3125000E-01  0.8695652E-01  0.0000000E+00  0.7246377E-03
      1        -12.679409   1.000000
      2        -11.505278   1.000000
      3         -8.645356   1.000000
      4         -8.349336   1.000000
      5         -6.030927   1.000000
      6         -5.097616   1.000000
      7         -4.676555   1.000000
      8         -4.447187   1.000000