<?xml version="1.0" encoding="ISO-8859-1"?>
<modeling>
 <generator>
  <i name="program" type="string">vasp </i>
  <i name="version" type="string">6.4.3  </i>
  <i name="subversion" type="string">19Mar24 (build May 31 2024 16:31:43) complex                          parallel </i>
  <i name="platform" type="string">LinuxIFC </i>
  <i name="date" type="string">2025 01 08 </i>
  <i name="time" type="string">15:44:20 </i>
 </generator>
 <incar>
  <i type="string" name="SYSTEM">SC</i>
  <i type="int" name="ISTART">     0</i>
  <i type="string" name="PREC">Accurate</i>
  <i type="string" name="ALGO">Normal</i>
  <i type="int" name="ICHARG">     2</i>
  <i type="int" name="NELM">    64</i>
  <i type="int" name="IBRION">    -1</i>
  <i name="EDIFF">      0.00000100</i>
  <i name="EDIFFG">     -0.00100000</i>
  <i name="SYMPREC">      0.00000100</i>
  <i name="ENCUT">    600.00000000</i>
  <i type="int" name="ISMEAR">     0</i>
  <i name="SIGMA">      0.10000000</i>
  <i type="logical" name="LWAVE"> T  </i>
  <i type="logical" name="LCHARG"> T  </i>
  <i type="string" name="GGA">PE</i>
  <i type="int" name="IVDW">    12</i>
 </incar>
 <primitive_cell>
  <structure name="primitive_cell" >
   <crystal>
    <varray name="basis" >
     <v>       5.70097069       0.00000000       0.00000000 </v>
     <v>       0.00000000       4.04405810       0.00000000 </v>
     <v>       0.00000000       0.00000000       6.20187120 </v>
    </varray>
    <i name="volume">    142.98449202 </i>
    <varray name="rec_basis" >
     <v>       0.17540872       0.00000000       0.00000000 </v>
     <v>       0.00000000       0.24727637       0.00000000 </v>
     <v>       0.00000000       0.00000000       0.16124166 </v>
    </varray>
   </crystal>
   <varray name="positions" >
    <v>       0.52128988       0.50000000       0.63795770 </v>
    <v>       0.47871012       0.50000000       0.36204230 </v>
    <v>       0.97871012       0.50000000       0.63795770 </v>
    <v>       0.02128988       0.50000000       0.36204230 </v>
    <v>       0.59744966       0.50000000       0.89986832 </v>
    <v>       0.40255034       0.50000000       0.10013168 </v>
    <v>       0.90255034       0.50000000       0.89986832 </v>
    <v>       0.09744966       0.50000000       0.10013168 </v>
    <v>       0.75000000       0.79156493       0.72957940 </v>
    <v>       0.25000000       0.20843507       0.27042060 </v>
    <v>       0.75000000       0.20843507       0.72957940 </v>
    <v>       0.25000000       0.79156493       0.27042060 </v>
    <v>       0.25000000       0.50000000       0.52399303 </v>
    <v>       0.75000000       0.50000000       0.47600697 </v>
   </varray>
  </structure>
  <varray name="primitive_index" >
   <v type="int" >        1 </v>
   <v type="int" >        2 </v>
   <v type="int" >        3 </v>
   <v type="int" >        4 </v>
   <v type="int" >        5 </v>
   <v type="int" >        6 </v>
   <v type="int" >        7 </v>
   <v type="int" >        8 </v>
   <v type="int" >        9 </v>
   <v type="int" >       10 </v>
   <v type="int" >       11 </v>
   <v type="int" >       12 </v>
   <v type="int" >       13 </v>
   <v type="int" >       14 </v>
  </varray>
 </primitive_cell>
 <kpoints>
  <generation param="Monkhorst-Pack">
   <v type="int" name="divisions">      16       23       15 </v>
   <v name="usershift">      0.00000000       0.00000000       0.00000000 </v>
   <v name="genvec1">      0.06250000       0.00000000       0.00000000 </v>
   <v name="genvec2">      0.00000000       0.04347826       0.00000000 </v>
   <v name="genvec3">      0.00000000       0.00000000       0.06666667 </v>
   <v name="shift">      0.50000000       0.00000000       0.00000000 </v>
  </generation>
  <varray name="kpointlist" >
   <v>       0.03125000       0.00000000       0.00000000 </v>
   <v>       0.09375000       0.00000000       0.00000000 </v>
   <v>       0.15625000       0.00000000       0.00000000 </v>
   <v>       0.21875000       0.00000000       0.00000000 </v>
   <v>       0.28125000       0.00000000       0.00000000 </v>
   <v>       0.34375000       0.00000000       0.00000000 </v>
   <v>       0.40625000       0.00000000       0.00000000 </v>
   <v>       0.46875000       0.00000000       0.00000000 </v>
   <v>       0.03125000       0.04347826       0.00000000 </v>
   <v>       0.09375000       0.04347826       0.00000000 </v>
   <v>       0.15625000       0.04347826       0.00000000 </v>
   <v>       0.21875000       0.04347826       0.00000000 </v>
   <v>       0.28125000       0.04347826       0.00000000 </v>
   <v>       0.34375000       0.04347826       0.00000000 </v>
   <v>       0.40625000       0.04347826       0.00000000 </v>
   <v>       0.46875000       0.04347826       0.00000000 </v>
   <v>       0.03125000       0.08695652       0.00000000 </v>
   <v>       0.09375000       0.08695652       0.00000000 </v>
   <v>       0.15625000       0.08695652       0.00000000 </v>
   <v>       0.21875000       0.08695652       0.00000000 </v>
   <v>       0.28125000       0.08695652       0.00000000 </v>
   <v>       0.34375000       0.08695652       0.00000000 </v>
   <v>       0.40625000       0.08695652       0.00000000 </v>
   <v>       0.46875000       0.08695652       0.00000000 </v>
   <v>       0.03125000       0.13043478       0.00000000 </v>
   <v>       0.09375000       0.13043478       0.00000000 </v>
   <v>       0.15625000       0.13043478       0.00000000 </v>
   <v>       0.21875000       0.13043478       0.00000000 </v>
   <v>       0.28125000       0.13043478       0.00000000 </v>
   <v>       0.34375000       0.13043478       0.00000000 </v>
   <v>       0.40625000       0.13043478       0.00000000 </v>
   <v>       0.46875000       0.13043478       0.00000000 </v>
   <v>       0.03125000       0.17391304       0.00000000 </v>
   <v>       0.09375000       0.17391304       0.00000000 </v>
   <v>       0.15625000       0.17391304       0.00000000 </v>
   <v>       0.21875000       0.17391304       0.00000000 </v>
   <v>       0.28125000       0.17391304       0.00000000 </v>
   <v>       0.34375000       0.17391304       0.00000000 </v>
   <v>       0.40625000       0.17391304       0.00000000 </v>
   <v>       0.46875000       0.17391304       0.00000000 </v>
   <v>       0.03125000       0.21739130       0.00000000 </v>
   <v>       0.09375000       0.21739130       0.00000000 </v>
   <v>       0.15625000       0.21739130       0.00000000 </v>
   <v>       0.21875000       0.21739130       0.00000000 </v>
   <v>       0.28125000       0.21739130       0.00000000 </v>
   <v>       0.34375000       0.21739130       0.00000000 </v>
   <v>       0.40625000       0.21739130       0.00000000 </v>
   <v>       0.46875000       0.21739130       0.00000000 </v>
   <v>       0.03125000       0.26086957       0.00000000 </v>
   <v>       0.09375000       0.26086957       0.00000000 </v>
   <v>       0.15625000       0.26086957       0.00000000 </v>
   <v>       0.21875000       0.26086957       0.00000000 </v>
   <v>       0.28125000       0.26086957       0.00000000 </v>
   <v>       0.34375000       0.26086957       0.00000000 </v>
   <v>       0.40625000       0.26086957       0.00000000 </v>
   <v>       0.46875000       0.26086957       0.00000000 </v>
   <v>       0.03125000       0.30434783       0.00000000 </v>
   <v>       0.09375000       0.30434783       0.00000000 </v>
   <v>       0.15625000       0.30434783       0.00000000 </v>
   <v>       0.21875000       0.30434783       0.00000000 </v>
   <v>       0.28125000       0.30434783       0.00000000 </v>
   <v>       0.34375000       0.30434783       0.00000000 </v>
   <v>       0.40625000       0.30434783       0.00000000 </v>
   <v>       0.46875000       0.30434783       0.00000000 </v>
   <v>       0.03125000       0.34782609       0.00000000 </v>
   <v>       0.09375000       0.34782609       0.00000000 </v>
   <v>       0.15625000       0.34782609       0.00000000 </v>
   <v>       0.21875000       0.34782609       0.00000000 </v>
   <v>       0.28125000       0.34782609       0.00000000 </v>
   <v>       0.34375000       0.34782609       0.00000000 </v>
   <v>       0.40625000       0.34782609       0.00000000 </v>
   <v>       0.46875000       0.34782609       0.00000000 </v>
   <v>       0.03125000       0.39130435       0.00000000 </v>
   <v>       0.09375000       0.39130435       0.00000000 </v>
   <v>       0.15625000       0.39130435       0.00000000 </v>
   <v>       0.21875000       0.39130435       0.00000000 </v>
   <v>       0.28125000       0.39130435       0.00000000 </v>
   <v>       0.34375000       0.39130435       0.00000000 </v>
   <v>       0.40625000       0.39130435       0.00000000 </v>
   <v>       0.46875000       0.39130435       0.00000000 </v>
   <v>       0.03125000       0.43478261       0.00000000 </v>
   <v>       0.09375000       0.43478261       0.00000000 </v>
   <v>       0.15625000       0.43478261       0.00000000 </v>
   <v>       0.21875000       0.43478261       0.00000000 </v>
   <v>       0.28125000       0.43478261       0.00000000 </v>
   <v>       0.34375000       0.43478261       0.00000000 </v>
   <v>       0.40625000       0.43478261       0.00000000 </v>
   <v>       0.46875000       0.43478261       0.00000000 </v>
   <v>       0.03125000       0.47826087       0.00000000 </v>
   <v>       0.09375000       0.47826087       0.00000000 </v>
   <v>       0.15625000       0.47826087       0.00000000 </v>
   <v>       0.21875000       0.47826087       0.00000000 </v>
   <v>       0.28125000       0.47826087       0.00000000 </v>
   <v>       0.34375000       0.47826087       0.00000000 </v>
   <v>       0.40625000       0.47826087       0.00000000 </v>
   <v>       0.46875000       0.47826087       0.00000000 </v>
   <v>       0.03125000       0.00000000       0.06666667 </v>
   <v>       0.09375000       0.00000000       0.06666667 </v>
   <v>       0.15625000       0.00000000       0.06666667 </v>
   <v>       0.21875000       0.00000000       0.06666667 </v>
   <v>       0.28125000       0.00000000       0.06666667 </v>
   <v>       0.34375000       0.00000000       0.06666667 </v>
   <v>       0.40625000       0.00000000       0.06666667 </v>
   <v>       0.46875000       0.00000000       0.06666667 </v>
   <v>       0.03125000       0.04347826       0.06666667 </v>
   <v>       0.09375000       0.04347826       0.06666667 </v>
   <v>       0.15625000       0.04347826       0.06666667 </v>
   <v>       0.21875000       0.04347826       0.06666667 </v>
   <v>       0.28125000       0.04347826       0.06666667 </v>
   <v>       0.34375000       0.04347826       0.06666667 </v>
   <v>       0.40625000       0.04347826       0.06666667 </v>
   <v>       0.46875000       0.04347826       0.06666667 </v>
   <v>       0.03125000       0.08695652       0.06666667 </v>
   <v>       0.09375000       0.08695652       0.06666667 </v>
   <v>       0.15625000       0.08695652       0.06666667 </v>
   <v>       0.21875000       0.08695652       0.06666667 </v>
   <v>       0.28125000       0.08695652       0.06666667 </v>
   <v>       0.34375000       0.08695652       0.06666667 </v>
   <v>       0.40625000       0.08695652       0.06666667 </v>
   <v>       0.46875000       0.08695652       0.06666667 </v>
   <v>       0.03125000       0.13043478       0.06666667 </v>
   <v>       0.09375000       0.13043478       0.06666667 </v>
   <v>       0.15625000       0.13043478       0.06666667 </v>
   <v>       0.21875000       0.13043478       0.06666667 </v>
   <v>       0.28125000       0.13043478       0.06666667 </v>
   <v>       0.34375000       0.13043478       0.06666667 </v>
   <v>       0.40625000       0.13043478       0.06666667 </v>
   <v>       0.46875000       0.13043478       0.06666667 </v>
   <v>       0.03125000       0.17391304       0.06666667 </v>
   <v>       0.09375000       0.17391304       0.06666667 </v>
   <v>       0.15625000       0.17391304       0.06666667 </v>
   <v>       0.21875000       0.17391304       0.06666667 </v>
   <v>       0.28125000       0.17391304       0.06666667 </v>
   <v>       0.34375000       0.17391304       0.06666667 </v>
   <v>       0.40625000       0.17391304       0.06666667 </v>
   <v>       0.46875000       0.17391304       0.06666667 </v>
   <v>       0.03125000       0.21739130       0.06666667 </v>
   <v>       0.09375000       0.21739130       0.06666667 </v>
   <v>       0.15625000       0.21739130       0.06666667 </v>
   <v>       0.21875000       0.21739130       0.06666667 </v>
   <v>       0.28125000       0.21739130       0.06666667 </v>
   <v>       0.34375000       0.21739130       0.06666667 </v>
   <v>       0.40625000       0.21739130       0.06666667 </v>
   <v>       0.46875000       0.21739130       0.06666667 </v>
   <v>       0.03125000       0.26086957       0.06666667 </v>
   <v>       0.09375000       0.26086957       0.06666667 </v>
   <v>       0.15625000       0.26086957       0.06666667 </v>
   <v>       0.21875000       0.26086957       0.06666667 </v>
   <v>       0.28125000       0.26086957       0.06666667 </v>
   <v>       0.34375000       0.26086957       0.06666667 </v>
   <v>       0.40625000       0.26086957       0.06666667 </v>
   <v>       0.46875000       0.26086957       0.06666667 </v>
   <v>       0.03125000       0.30434783       0.06666667 </v>
   <v>       0.09375000       0.30434783       0.06666667 </v>
   <v>       0.15625000       0.30434783       0.06666667 </v>
   <v>       0.21875000       0.30434783       0.06666667 </v>
   <v>       0.28125000       0.30434783       0.06666667 </v>
   <v>       0.34375000       0.30434783       0.06666667 </v>
   <v>       0.40625000       0.30434783       0.06666667 </v>
   <v>       0.46875000       0.30434783       0.06666667 </v>
   <v>       0.03125000       0.34782609       0.06666667 </v>
   <v>       0.09375000       0.34782609       0.06666667 </v>
   <v>       0.15625000       0.34782609       0.06666667 </v>
   <v>       0.21875000       0.34782609       0.06666667 </v>
   <v>       0.28125000       0.34782609       0.06666667 </v>
   <v>       0.34375000       0.34782609       0.06666667 </v>
   <v>       0.40625000       0.34782609       0.06666667 </v>
   <v>       0.46875000       0.34782609       0.06666667 </v>
   <v>       0.03125000       0.39130435       0.06666667 </v>
   <v>       0.09375000       0.39130435       0.06666667 </v>
   <v>       0.15625000       0.39130435       0.06666667 </v>
   <v>       0.21875000       0.39130435       0.06666667 </v>
   <v>       0.28125000       0.39130435       0.06666667 </v>
   <v>       0.34375000       0.39130435       0.06666667 </v>
   <v>       0.40625000       0.39130435       0.06666667 </v>
   <v>       0.46875000       0.39130435       0.06666667 </v>
   <v>       0.03125000       0.43478261       0.06666667 </v>
   <v>       0.09375000       0.43478261       0.06666667 </v>
   <v>       0.15625000       0.43478261       0.06666667 </v>
   <v>       0.21875000       0.43478261       0.06666667 </v>
   <v>       0.28125000       0.43478261       0.06666667 </v>
   <v>       0.34375000       0.43478261       0.06666667 </v>
   <v>       0.40625000       0.43478261       0.06666667 </v>
   <v>       0.46875000       0.43478261       0.06666667 </v>
   <v>       0.03125000       0.47826087       0.06666667 </v>
   <v>       0.09375000       0.47826087       0.06666667 </v>
   <v>       0.15625000       0.47826087       0.06666667 </v>
   <v>       0.21875000       0.47826087       0.06666667 </v>
   <v>       0.28125000       0.47826087       0.06666667 </v>
   <v>       0.34375000       0.47826087       0.06666667 </v>
   <v>       0.40625000       0.47826087       0.06666667 </v>
   <v>       0.46875000       0.47826087       0.06666667 </v>
   <v>       0.03125000       0.00000000       0.13333333 </v>
   <v>       0.09375000       0.00000000       0.13333333 </v>
   <v>       0.15625000       0.00000000       0.13333333 </v>
   <v>       0.21875000       0.00000000       0.13333333 </v>
   <v>       0.28125000       0.00000000       0.13333333 </v>
   <v>       0.34375000       0.00000000       0.13333333 </v>
   <v>       0.40625000       0.00000000       0.13333333 </v>
   <v>       0.46875000       0.00000000       0.13333333 </v>
   <v>       0.03125000       0.04347826       0.13333333 </v>
   <v>       0.09375000       0.04347826       0.13333333 </v>
   <v>       0.15625000       0.04347826       0.13333333 </v>
   <v>       0.21875000       0.04347826       0.13333333 </v>
   <v>       0.28125000       0.04347826       0.13333333 </v>
   <v>       0.34375000       0.04347826       0.13333333 </v>
   <v>       0.40625000       0.04347826       0.13333333 </v>
   <v>       0.46875000       0.04347826       0.13333333 </v>
   <v>       0.03125000       0.08695652       0.13333333 </v>
   <v>       0.09375000       0.08695652       0.13333333 </v>
   <v>       0.15625000       0.08695652       0.13333333 </v>
   <v>       0.21875000       0.08695652       0.13333333 </v>
   <v>       0.28125000       0.08695652       0.13333333 </v>
   <v>       0.34375000       0.08695652       0.13333333 </v>
   <v>       0.40625000       0.08695652       0.13333333 </v>
   <v>       0.46875000       0.08695652       0.13333333 </v>
   <v>       0.03125000       0.13043478       0.13333333 </v>
   <v>       0.09375000       0.13043478       0.13333333 </v>
   <v>       0.15625000       0.13043478       0.13333333 </v>
   <v>       0.21875000       0.13043478       0.13333333 </v>
   <v>       0.28125000       0.13043478       0.13333333 </v>
   <v>       0.34375000       0.13043478       0.13333333 </v>
   <v>       0.40625000       0.13043478       0.13333333 </v>
   <v>       0.46875000       0.13043478       0.13333333 </v>
   <v>       0.03125000       0.17391304       0.13333333 </v>
   <v>       0.09375000       0.17391304       0.13333333 </v>
   <v>       0.15625000       0.17391304       0.13333333 </v>
   <v>       0.21875000       0.17391304       0.13333333 </v>
   <v>       0.28125000       0.17391304       0.13333333 </v>
   <v>       0.34375000       0.17391304       0.13333333 </v>
   <v>       0.40625000       0.17391304       0.13333333 </v>
   <v>       0.46875000       0.17391304       0.13333333 </v>
   <v>       0.03125000       0.21739130       0.13333333 </v>
   <v>       0.09375000       0.21739130       0.13333333 </v>
   <v>       0.15625000       0.21739130       0.13333333 </v>
   <v>       0.21875000       0.21739130       0.13333333 </v>
   <v>       0.28125000       0.21739130       0.13333333 </v>
   <v>       0.34375000       0.21739130       0.13333333 </v>
   <v>       0.40625000       0.21739130       0.13333333 </v>
   <v>       0.46875000       0.21739130       0.13333333 </v>
   <v>       0.03125000       0.26086957       0.13333333 </v>
   <v>       0.09375000       0.26086957       0.13333333 </v>
   <v>       0.15625000       0.26086957       0.13333333 </v>
   <v>       0.21875000       0.26086957       0.13333333 </v>
   <v>       0.28125000       0.26086957       0.13333333 </v>
   <v>       0.34375000       0.26086957       0.13333333 </v>
   <v>       0.40625000       0.26086957       0.13333333 </v>
   <v>       0.46875000       0.26086957       0.13333333 </v>
   <v>       0.03125000       0.30434783       0.13333333 </v>
   <v>       0.09375000       0.30434783       0.13333333 </v>
   <v>       0.15625000       0.30434783       0.13333333 </v>
   <v>       0.21875000       0.30434783       0.13333333 </v>
   <v>       0.28125000       0.30434783       0.13333333 </v>
   <v>       0.34375000       0.30434783       0.13333333 </v>
   <v>       0.40625000       0.30434783       0.13333333 </v>
   <v>       0.46875000       0.30434783       0.13333333 </v>
   <v>       0.03125000       0.34782609       0.13333333 </v>
   <v>       0.09375000       0.34782609       0.13333333 </v>
   <v>       0.15625000       0.34782609       0.13333333 </v>
   <v>       0.21875000       0.34782609       0.13333333 </v>
   <v>       0.28125000       0.34782609       0.13333333 </v>
   <v>       0.34375000       0.34782609       0.13333333 </v>
   <v>       0.40625000       0.34782609       0.13333333 </v>
   <v>       0.46875000       0.34782609       0.13333333 </v>
   <v>       0.03125000       0.39130435       0.13333333 </v>
   <v>       0.09375000       0.39130435       0.13333333 </v>
   <v>       0.15625000       0.39130435       0.13333333 </v>
   <v>       0.21875000       0.39130435       0.13333333 </v>
   <v>       0.28125000       0.39130435       0.13333333 </v>
   <v>       0.34375000       0.39130435       0.13333333 </v>
   <v>       0.40625000       0.39130435       0.13333333 </v>
   <v>       0.46875000       0.39130435       0.13333333 </v>
   <v>       0.03125000       0.43478261       0.13333333 </v>
   <v>       0.09375000       0.43478261       0.13333333 </v>
   <v>       0.15625000       0.43478261       0.13333333 </v>
   <v>       0.21875000       0.43478261       0.13333333 </v>
   <v>       0.28125000       0.43478261       0.13333333 </v>
   <v>       0.34375000       0.43478261       0.13333333 </v>
   <v>       0.40625000       0.43478261       0.13333333 </v>
   <v>       0.46875000       0.43478261       0.13333333 </v>
   <v>       0.03125000       0.47826087       0.13333333 </v>
   <v>       0.09375000       0.47826087       0.13333333 </v>
   <v>       0.15625000       0.47826087       0.13333333 </v>
   <v>       0.21875000       0.47826087       0.13333333 </v>
   <v>       0.28125000       0.47826087       0.13333333 </v>
   <v>       0.34375000       0.47826087       0.13333333 </v>
   <v>       0.40625000       0.47826087       0.13333333 </v>
   <v>       0.46875000       0.47826087       0.13333333 </v>
   <v>       0.03125000       0.00000000       0.20000000 </v>
   <v>       0.09375000       0.00000000       0.20000000 </v>
   <v>       0.15625000       0.00000000       0.20000000 </v>
   <v>       0.21875000       0.00000000       0.20000000 </v>
   <v>       0.28125000       0.00000000       0.20000000 </v>
   <v>       0.34375000       0.00000000       0.20000000 </v>
   <v>       0.40625000       0.00000000       0.20000000 </v>
   <v>       0.46875000       0.00000000       0.20000000 </v>
   <v>       0.03125000       0.04347826       0.20000000 </v>
   <v>       0.09375000       0.04347826       0.20000000 </v>
   <v>       0.15625000       0.04347826       0.20000000 </v>
   <v>       0.21875000       0.04347826       0.20000000 </v>
   <v>       0.28125000       0.04347826       0.20000000 </v>
   <v>       0.34375000       0.04347826       0.20000000 </v>
   <v>       0.40625000       0.04347826       0.20000000 </v>
   <v>       0.46875000       0.04347826       0.20000000 </v>
   <v>       0.03125000       0.08695652       0.20000000 </v>
   <v>       0.09375000       0.08695652       0.20000000 </v>
   <v>       0.15625000       0.08695652       0.20000000 </v>
   <v>       0.21875000       0.08695652       0.20000000 </v>
   <v>       0.28125000       0.08695652       0.20000000 </v>
   <v>       0.34375000       0.08695652       0.20000000 </v>
   <v>       0.40625000       0.08695652       0.20000000 </v>
   <v>       0.46875000       0.08695652       0.20000000 </v>
   <v>       0.03125000       0.13043478       0.20000000 </v>
   <v>       0.09375000       0.13043478       0.20000000 </v>
   <v>       0.15625000       0.13043478       0.20000000 </v>
   <v>       0.21875000       0.13043478       0.20000000 </v>
   <v>       0.28125000       0.13043478       0.20000000 </v>
   <v>       0.34375000       0.13043478       0.20000000 </v>
   <v>       0.40625000       0.13043478       0.20000000 </v>
   <v>       0.46875000       0.13043478       0.20000000 </v>
   <v>       0.03125000       0.17391304       0.20000000 </v>
   <v>       0.09375000       0.17391304       0.20000000 </v>
   <v>       0.15625000       0.17391304       0.20000000 </v>
   <v>       0.21875000       0.17391304       0.20000000 </v>
   <v>       0.28125000       0.17391304       0.20000000 </v>
   <v>       0.34375000       0.17391304       0.20000000 </v>
   <v>       0.40625000       0.17391304       0.20000000 </v>
   <v>       0.46875000       0.17391304       0.20000000 </v>
   <v>       0.03125000       0.21739130       0.20000000 </v>
   <v>       0.09375000       0.21739130       0.20000000 </v>
   <v>       0.15625000       0.21739130       0.20000000 </v>
   <v>       0.21875000       0.21739130       0.20000000 </v>
   <v>       0.28125000       0.21739130       0.20000000 </v>
   <v>       0.34375000       0.21739130       0.20000000 </v>
   <v>       0.40625000       0.21739130       0.20000000 </v>
   <v>       0.46875000       0.21739130       0.20000000 </v>
   <v>       0.03125000       0.26086957       0.20000000 </v>
   <v>       0.09375000       0.26086957       0.20000000 </v>
   <v>       0.15625000       0.26086957       0.20000000 </v>
   <v>       0.21875000       0.26086957       0.20000000 </v>
   <v>       0.28125000       0.26086957       0.20000000 </v>
   <v>       0.34375000       0.26086957       0.20000000 </v>
   <v>       0.40625000       0.26086957       0.20000000 </v>
   <v>       0.46875000       0.26086957       0.20000000 </v>
   <v>       0.03125000       0.30434783       0.20000000 </v>
   <v>       0.09375000       0.30434783       0.20000000 </v>
   <v>       0.15625000       0.30434783       0.20000000 </v>
   <v>       0.21875000       0.30434783       0.20000000 </v>
   <v>       0.28125000       0.30434783       0.20000000 </v>
   <v>       0.34375000       0.30434783       0.20000000 </v>
   <v>       0.40625000       0.30434783       0.20000000 </v>
   <v>       0.46875000       0.30434783       0.20000000 </v>
   <v>       0.03125000       0.34782609       0.20000000 </v>
   <v>       0.09375000       0.34782609       0.20000000 </v>
   <v>       0.15625000       0.34782609       0.20000000 </v>
   <v>       0.21875000       0.34782609       0.20000000 </v>
   <v>       0.28125000       0.34782609       0.20000000 </v>
   <v>       0.34375000       0.34782609       0.20000000 </v>
   <v>       0.40625000       0.34782609       0.20000000 </v>
   <v>       0.46875000       0.34782609       0.20000000 </v>
   <v>       0.03125000       0.39130435       0.20000000 </v>
   <v>       0.09375000       0.39130435       0.20000000 </v>
   <v>       0.15625000       0.39130435       0.20000000 </v>
   <v>       0.21875000       0.39130435       0.20000000 </v>
   <v>       0.28125000       0.39130435       0.20000000 </v>
   <v>       0.34375000       0.39130435       0.20000000 </v>
   <v>       0.40625000       0.39130435       0.20000000 </v>
   <v>       0.46875000       0.39130435       0.20000000 </v>
   <v>       0.03125000       0.43478261       0.20000000 </v>
   <v>       0.09375000       0.43478261       0.20000000 </v>
   <v>       0.15625000       0.43478261       0.20000000 </v>
   <v>       0.21875000       0.43478261       0.20000000 </v>
   <v>       0.28125000       0.43478261       0.20000000 </v>
   <v>       0.34375000       0.43478261       0.20000000 </v>
   <v>       0.40625000       0.43478261       0.20000000 </v>
   <v>       0.46875000       0.43478261       0.20000000 </v>
   <v>       0.03125000       0.47826087       0.20000000 </v>
   <v>       0.09375000       0.47826087       0.20000000 </v>
   <v>       0.15625000       0.47826087       0.20000000 </v>
   <v>       0.21875000       0.47826087       0.20000000 </v>
   <v>       0.28125000       0.47826087       0.20000000 </v>
   <v>       0.34375000       0.47826087       0.20000000 </v>
   <v>       0.40625000       0.47826087       0.20000000 </v>
   <v>       0.46875000       0.47826087       0.20000000 </v>
   <v>       0.03125000       0.00000000       0.26666667 </v>
   <v>       0.09375000       0.00000000       0.26666667 </v>
   <v>       0.15625000       0.00000000       0.26666667 </v>
   <v>       0.21875000       0.00000000       0.26666667 </v>
   <v>       0.28125000       0.00000000       0.26666667 </v>
   <v>       0.34375000       0.00000000       0.26666667 </v>
   <v>       0.40625000       0.00000000       0.26666667 </v>
   <v>       0.46875000       0.00000000       0.26666667 </v>
   <v>       0.03125000       0.04347826       0.26666667 </v>
   <v>       0.09375000       0.04347826       0.26666667 </v>
   <v>       0.15625000       0.04347826       0.26666667 </v>
   <v>       0.21875000       0.04347826       0.26666667 </v>
   <v>       0.28125000       0.04347826       0.26666667 </v>
   <v>       0.34375000       0.04347826       0.26666667 </v>
   <v>       0.40625000       0.04347826       0.26666667 </v>
   <v>       0.46875000       0.04347826       0.26666667 </v>
   <v>       0.03125000       0.08695652       0.26666667 </v>
   <v>       0.09375000       0.08695652       0.26666667 </v>
   <v>       0.15625000       0.08695652       0.26666667 </v>
   <v>       0.21875000       0.08695652       0.26666667 </v>
   <v>       0.28125000       0.08695652       0.26666667 </v>
   <v>       0.34375000       0.08695652       0.26666667 </v>
   <v>       0.40625000       0.08695652       0.26666667 </v>
   <v>       0.46875000       0.08695652       0.26666667 </v>
   <v>       0.03125000       0.13043478       0.26666667 </v>
   <v>       0.09375000       0.13043478       0.26666667 </v>
   <v>       0.15625000       0.13043478       0.26666667 </v>
   <v>       0.21875000       0.13043478       0.26666667 </v>
   <v>       0.28125000       0.13043478       0.26666667 </v>
   <v>       0.34375000       0.13043478       0.26666667 </v>
   <v>       0.40625000       0.13043478       0.26666667 </v>
   <v>       0.46875000       0.13043478       0.26666667 </v>
   <v>       0.03125000       0.17391304       0.26666667 </v>
   <v>       0.09375000       0.17391304       0.26666667 </v>
   <v>       0.15625000       0.17391304       0.26666667 </v>
   <v>       0.21875000       0.17391304       0.26666667 </v>
   <v>       0.28125000       0.17391304       0.26666667 </v>
   <v>       0.34375000       0.17391304       0.26666667 </v>
   <v>       0.40625000       0.17391304       0.26666667 </v>
   <v>       0.46875000       0.17391304       0.26666667 </v>
   <v>       0.03125000       0.21739130       0.26666667 </v>
   <v>       0.09375000       0.21739130       0.26666667 </v>
   <v>       0.15625000       0.21739130       0.26666667 </v>
   <v>       0.21875000       0.21739130       0.26666667 </v>
   <v>       0.28125000       0.21739130       0.26666667 </v>
   <v>       0.34375000       0.21739130       0.26666667 </v>
   <v>       0.40625000       0.21739130       0.26666667 </v>
   <v>       0.46875000       0.21739130       0.26666667 </v>
   <v>       0.03125000       0.26086957       0.26666667 </v>
   <v>       0.09375000       0.26086957       0.26666667 </v>
   <v>       0.15625000       0.26086957       0.26666667 </v>
   <v>       0.21875000       0.26086957       0.26666667 </v>
   <v>       0.28125000       0.26086957       0.26666667 </v>
   <v>       0.34375000       0.26086957       0.26666667 </v>
   <v>       0.40625000       0.26086957       0.26666667 </v>
   <v>       0.46875000       0.26086957       0.26666667 </v>
   <v>       0.03125000       0.30434783       0.26666667 </v>
   <v>       0.09375000       0.30434783       0.26666667 </v>
   <v>       0.15625000       0.30434783       0.26666667 </v>
   <v>       0.21875000       0.30434783       0.26666667 </v>
   <v>       0.28125000       0.30434783       0.26666667 </v>
   <v>       0.34375000       0.30434783       0.26666667 </v>
   <v>       0.40625000       0.30434783       0.26666667 </v>
   <v>       0.46875000       0.30434783       0.26666667 </v>
   <v>       0.03125000       0.34782609       0.26666667 </v>
   <v>       0.09375000       0.34782609       0.26666667 </v>
   <v>       0.15625000       0.34782609       0.26666667 </v>
   <v>       0.21875000       0.34782609       0.26666667 </v>
   <v>       0.28125000       0.34782609       0.26666667 </v>
   <v>       0.34375000       0.34782609       0.26666667 </v>
   <v>       0.40625000       0.34782609       0.26666667 </v>
   <v>       0.46875000       0.34782609       0.26666667 </v>
   <v>       0.03125000       0.39130435       0.26666667 </v>
   <v>       0.09375000       0.39130435       0.26666667 </v>
   <v>       0.15625000       0.39130435       0.26666667 </v>
   <v>       0.21875000       0.39130435       0.26666667 </v>
   <v>       0.28125000       0.39130435       0.26666667 </v>
   <v>       0.34375000       0.39130435       0.26666667 </v>
   <v>       0.40625000       0.39130435       0.26666667 </v>
   <v>       0.46875000       0.39130435       0.26666667 </v>
   <v>       0.03125000       0.43478261       0.26666667 </v>
   <v>       0.09375000       0.43478261       0.26666667 </v>
   <v>       0.15625000       0.43478261       0.26666667 </v>
   <v>       0.21875000       0.43478261       0.26666667 </v>
   <v>       0.28125000       0.43478261       0.26666667 </v>
   <v>       0.34375000       0.43478261       0.26666667 </v>
   <v>       0.40625000       0.43478261       0.26666667 </v>
   <v>       0.46875000       0.43478261       0.26666667 </v>
   <v>       0.03125000       0.47826087       0.26666667 </v>
   <v>       0.09375000       0.47826087       0.26666667 </v>
   <v>       0.15625000       0.47826087       0.26666667 </v>
   <v>       0.21875000       0.47826087       0.26666667 </v>
   <v>       0.28125000       0.47826087       0.26666667 </v>
   <v>       0.34375000       0.47826087       0.26666667 </v>
   <v>       0.40625000       0.47826087       0.26666667 </v>
   <v>       0.46875000       0.47826087       0.26666667 </v>
   <v>       0.03125000       0.00000000       0.33333333 </v>
   <v>       0.09375000       0.00000000       0.33333333 </v>
   <v>       0.15625000       0.00000000       0.33333333 </v>
   <v>       0.21875000       0.00000000       0.33333333 </v>
   <v>       0.28125000       0.00000000       0.33333333 </v>
   <v>       0.34375000       0.00000000       0.33333333 </v>
   <v>       0.40625000       0.00000000       0.33333333 </v>
   <v>       0.46875000       0.00000000       0.33333333 </v>
   <v>       0.03125000       0.04347826       0.33333333 </v>
   <v>       0.09375000       0.04347826       0.33333333 </v>
   <v>       0.15625000       0.04347826       0.33333333 </v>
   <v>       0.21875000       0.04347826       0.33333333 </v>
   <v>       0.28125000       0.04347826       0.33333333 </v>
   <v>       0.34375000       0.04347826       0.33333333 </v>
   <v>       0.40625000       0.04347826       0.33333333 </v>
   <v>       0.46875000       0.04347826       0.33333333 </v>
   <v>       0.03125000       0.08695652       0.33333333 </v>
   <v>       0.09375000       0.08695652       0.33333333 </v>
   <v>       0.15625000       0.08695652       0.33333333 </v>
   <v>       0.21875000       0.08695652       0.33333333 </v>
   <v>       0.28125000       0.08695652       0.33333333 </v>
   <v>       0.34375000       0.08695652       0.33333333 </v>
   <v>       0.40625000       0.08695652       0.33333333 </v>
   <v>       0.46875000       0.08695652       0.33333333 </v>
   <v>       0.03125000       0.13043478       0.33333333 </v>
   <v>       0.09375000       0.13043478       0.33333333 </v>
   <v>       0.15625000       0.13043478       0.33333333 </v>
   <v>       0.21875000       0.13043478       0.33333333 </v>
   <v>       0.28125000       0.13043478       0.33333333 </v>
   <v>       0.34375000       0.13043478       0.33333333 </v>
   <v>       0.40625000       0.13043478       0.33333333 </v>
   <v>       0.46875000       0.13043478       0.33333333 </v>
   <v>       0.03125000       0.17391304       0.33333333 </v>
   <v>       0.09375000       0.17391304       0.33333333 </v>
   <v>       0.15625000       0.17391304       0.33333333 </v>
   <v>       0.21875000       0.17391304       0.33333333 </v>
   <v>       0.28125000       0.17391304       0.33333333 </v>
   <v>       0.34375000       0.17391304       0.33333333 </v>
   <v>       0.40625000       0.17391304       0.33333333 </v>
   <v>       0.46875000       0.17391304       0.33333333 </v>
   <v>       0.03125000       0.21739130       0.33333333 </v>
   <v>       0.09375000       0.21739130       0.33333333 </v>
   <v>       0.15625000       0.21739130       0.33333333 </v>
   <v>       0.21875000       0.21739130       0.33333333 </v>
   <v>       0.28125000       0.21739130       0.33333333 </v>
   <v>       0.34375000       0.21739130       0.33333333 </v>
   <v>       0.40625000       0.21739130       0.33333333 </v>
   <v>       0.46875000       0.21739130       0.33333333 </v>
   <v>       0.03125000       0.26086957       0.33333333 </v>
   <v>       0.09375000       0.26086957       0.33333333 </v>
   <v>       0.15625000       0.26086957       0.33333333 </v>
   <v>       0.21875000       0.26086957       0.33333333 </v>
   <v>       0.28125000       0.26086957       0.33333333 </v>
   <v>       0.34375000       0.26086957       0.33333333 </v>
   <v>       0.40625000       0.26086957       0.33333333 </v>
   <v>       0.46875000       0.26086957       0.33333333 </v>
   <v>       0.03125000       0.30434783       0.33333333 </v>
   <v>       0.09375000       0.30434783       0.33333333 </v>
   <v>       0.15625000       0.30434783       0.33333333 </v>
   <v>       0.21875000       0.30434783       0.33333333 </v>
   <v>       0.28125000       0.30434783       0.33333333 </v>
   <v>       0.34375000       0.30434783       0.33333333 </v>
   <v>       0.40625000       0.30434783       0.33333333 </v>
   <v>       0.46875000       0.30434783       0.33333333 </v>
   <v>       0.03125000       0.34782609       0.33333333 </v>
   <v>       0.09375000       0.34782609       0.33333333 </v>
   <v>       0.15625000       0.34782609       0.33333333 </v>
   <v>       0.21875000       0.34782609       0.33333333 </v>
   <v>       0.28125000       0.34782609       0.33333333 </v>
   <v>       0.34375000       0.34782609       0.33333333 </v>
   <v>       0.40625000       0.34782609       0.33333333 </v>
   <v>       0.46875000       0.34782609       0.33333333 </v>
   <v>       0.03125000       0.39130435       0.33333333 </v>
   <v>       0.09375000       0.39130435       0.33333333 </v>
   <v>       0.15625000       0.39130435       0.33333333 </v>
   <v>       0.21875000       0.39130435       0.33333333 </v>
   <v>       0.28125000       0.39130435       0.33333333 </v>
   <v>       0.34375000       0.39130435       0.33333333 </v>
   <v>       0.40625000       0.39130435       0.33333333 </v>
   <v>       0.46875000       0.39130435       0.33333333 </v>
   <v>       0.03125000       0.43478261       0.33333333 </v>
   <v>       0.09375000       0.43478261       0.33333333 </v>
   <v>       0.15625000       0.43478261       0.33333333 </v>
   <v>       0.21875000       0.43478261       0.33333333 </v>
   <v>       0.28125000       0.43478261       0.33333333 </v>
   <v>       0.34375000       0.43478261       0.33333333 </v>
   <v>       0.40625000       0.43478261       0.33333333 </v>
   <v>       0.46875000       0.43478261       0.33333333 </v>
   <v>       0.03125000       0.47826087       0.33333333 </v>
   <v>       0.09375000       0.47826087       0.33333333 </v>
   <v>       0.15625000       0.47826087       0.33333333 </v>
   <v>       0.21875000       0.47826087       0.33333333 </v>
   <v>       0.28125000       0.47826087       0.33333333 </v>
   <v>       0.34375000       0.47826087       0.33333333 </v>
   <v>       0.40625000       0.47826087       0.33333333 </v>
   <v>       0.46875000       0.47826087       0.33333333 </v>
   <v>       0.03125000       0.00000000       0.40000000 </v>
   <v>       0.09375000       0.00000000       0.40000000 </v>
   <v>       0.15625000       0.00000000       0.40000000 </v>
   <v>       0.21875000       0.00000000       0.40000000 </v>
   <v>       0.28125000       0.00000000       0.40000000 </v>
   <v>       0.34375000       0.00000000       0.40000000 </v>
   <v>       0.40625000       0.00000000       0.40000000 </v>
   <v>       0.46875000       0.00000000       0.40000000 </v>
   <v>       0.03125000       0.04347826       0.40000000 </v>
   <v>       0.09375000       0.04347826       0.40000000 </v>
   <v>       0.15625000       0.04347826       0.40000000 </v>
   <v>       0.21875000       0.04347826       0.40000000 </v>
   <v>       0.28125000       0.04347826       0.40000000 </v>
   <v>       0.34375000       0.04347826       0.40000000 </v>
   <v>       0.40625000       0.04347826       0.40000000 </v>
   <v>       0.46875000       0.04347826       0.40000000 </v>
   <v>       0.03125000       0.08695652       0.40000000 </v>
   <v>       0.09375000       0.08695652       0.40000000 </v>
   <v>       0.15625000       0.08695652       0.40000000 </v>
   <v>       0.21875000       0.08695652       0.40000000 </v>
   <v>       0.28125000       0.08695652       0.40000000 </v>
   <v>       0.34375000       0.08695652       0.40000000 </v>
   <v>       0.40625000       0.08695652       0.40000000 </v>
   <v>       0.46875000       0.08695652       0.40000000 </v>
   <v>       0.03125000       0.13043478       0.40000000 </v>
   <v>       0.09375000       0.13043478       0.40000000 </v>
   <v>       0.15625000       0.13043478       0.40000000 </v>
   <v>       0.21875000       0.13043478       0.40000000 </v>
   <v>       0.28125000       0.13043478       0.40000000 </v>
   <v>       0.34375000       0.13043478       0.40000000 </v>
   <v>       0.40625000       0.13043478       0.40000000 </v>
   <v>       0.46875000       0.13043478       0.40000000 </v>
   <v>       0.03125000       0.17391304       0.40000000 </v>
   <v>       0.09375000       0.17391304       0.40000000 </v>
   <v>       0.15625000       0.17391304       0.40000000 </v>
   <v>       0.21875000       0.17391304       0.40000000 </v>
   <v>       0.28125000       0.17391304       0.40000000 </v>
   <v>       0.34375000       0.17391304       0.40000000 </v>
   <v>       0.40625000       0.17391304       0.40000000 </v>
   <v>       0.46875000       0.17391304       0.40000000 </v>
   <v>       0.03125000       0.21739130       0.40000000 </v>
   <v>       0.09375000       0.21739130       0.40000000 </v>
   <v>       0.15625000       0.21739130       0.40000000 </v>
   <v>       0.21875000       0.21739130       0.40000000 </v>
   <v>       0.28125000       0.21739130       0.40000000 </v>
   <v>       0.34375000       0.21739130       0.40000000 </v>
   <v>       0.40625000       0.21739130       0.40000000 </v>
   <v>       0.46875000       0.21739130       0.40000000 </v>
   <v>       0.03125000       0.26086957       0.40000000 </v>
   <v>       0.09375000       0.26086957       0.40000000 </v>
   <v>       0.15625000       0.26086957       0.40000000 </v>
   <v>       0.21875000       0.26086957       0.40000000 </v>
   <v>       0.28125000       0.26086957       0.40000000 </v>
   <v>       0.34375000       0.26086957       0.40000000 </v>
   <v>       0.40625000       0.26086957       0.40000000 </v>
   <v>       0.46875000       0.26086957       0.40000000 </v>
   <v>       0.03125000       0.30434783       0.40000000 </v>
   <v>       0.09375000       0.30434783       0.40000000 </v>
   <v>       0.15625000       0.30434783       0.40000000 </v>
   <v>       0.21875000       0.30434783       0.40000000 </v>
   <v>       0.28125000       0.30434783       0.40000000 </v>
   <v>       0.34375000       0.30434783       0.40000000 </v>
   <v>       0.40625000       0.30434783       0.40000000 </v>
   <v>       0.46875000       0.30434783       0.40000000 </v>
   <v>       0.03125000       0.34782609       0.40000000 </v>
   <v>       0.09375000       0.34782609       0.40000000 </v>
   <v>       0.15625000       0.34782609       0.40000000 </v>
   <v>       0.21875000       0.34782609       0.40000000 </v>
   <v>       0.28125000       0.34782609       0.40000000 </v>
   <v>       0.34375000       0.34782609       0.40000000 </v>
   <v>       0.40625000       0.34782609       0.40000000 </v>
   <v>       0.46875000       0.34782609       0.40000000 </v>
   <v>       0.03125000       0.39130435       0.40000000 </v>
   <v>       0.09375000       0.39130435       0.40000000 </v>
   <v>       0.15625000       0.39130435       0.40000000 </v>
   <v>       0.21875000       0.39130435       0.40000000 </v>
   <v>       0.28125000       0.39130435       0.40000000 </v>
   <v>       0.34375000       0.39130435       0.40000000 </v>
   <v>       0.40625000       0.39130435       0.40000000 </v>
   <v>       0.46875000       0.39130435       0.40000000 </v>
   <v>       0.03125000       0.43478261       0.40000000 </v>
   <v>       0.09375000       0.43478261       0.40000000 </v>
   <v>       0.15625000       0.43478261       0.40000000 </v>
   <v>       0.21875000       0.43478261       0.40000000 </v>
   <v>       0.28125000       0.43478261       0.40000000 </v>
   <v>       0.34375000       0.43478261       0.40000000 </v>
   <v>       0.40625000       0.43478261       0.40000000 </v>
   <v>       0.46875000       0.43478261       0.40000000 </v>
   <v>       0.03125000       0.47826087       0.40000000 </v>
   <v>       0.09375000       0.47826087       0.40000000 </v>
   <v>       0.15625000       0.47826087       0.40000000 </v>
   <v>       0.21875000       0.47826087       0.40000000 </v>
   <v>       0.28125000       0.47826087       0.40000000 </v>
   <v>       0.34375000       0.47826087       0.40000000 </v>
   <v>       0.40625000       0.47826087       0.40000000 </v>
   <v>       0.46875000       0.47826087       0.40000000 </v>
   <v>       0.03125000       0.00000000       0.46666667 </v>
   <v>       0.09375000       0.00000000       0.46666667 </v>
   <v>       0.15625000       0.00000000       0.46666667 </v>
   <v>       0.21875000       0.00000000       0.46666667 </v>
   <v>       0.28125000       0.00000000       0.46666667 </v>
   <v>       0.34375000       0.00000000       0.46666667 </v>
   <v>       0.40625000       0.00000000       0.46666667 </v>
   <v>       0.46875000       0.00000000       0.46666667 </v>
   <v>       0.03125000       0.04347826       0.46666667 </v>
   <v>       0.09375000       0.04347826       0.46666667 </v>
   <v>       0.15625000       0.04347826       0.46666667 </v>
   <v>       0.21875000       0.04347826       0.46666667 </v>
   <v>       0.28125000       0.04347826       0.46666667 </v>
   <v>       0.34375000       0.04347826       0.46666667 </v>
   <v>       0.40625000       0.04347826       0.46666667 </v>
   <v>       0.46875000       0.04347826       0.46666667 </v>
   <v>       0.03125000       0.08695652       0.46666667 </v>
   <v>       0.09375000       0.08695652       0.46666667 </v>
   <v>       0.15625000       0.08695652       0.46666667 </v>
   <v>       0.21875000       0.08695652       0.46666667 </v>
   <v>       0.28125000       0.08695652       0.46666667 </v>
   <v>       0.34375000       0.08695652       0.46666667 </v>
   <v>       0.40625000       0.08695652       0.46666667 </v>
   <v>       0.46875000       0.08695652       0.46666667 </v>
   <v>       0.03125000       0.13043478       0.46666667 </v>
   <v>       0.09375000       0.13043478       0.46666667 </v>
   <v>       0.15625000       0.13043478       0.46666667 </v>
   <v>       0.21875000       0.13043478       0.46666667 </v>
   <v>       0.28125000       0.13043478       0.46666667 </v>
   <v>       0.34375000       0.13043478       0.46666667 </v>
   <v>       0.40625000       0.13043478       0.46666667 </v>
   <v>       0.46875000       0.13043478       0.46666667 </v>
   <v>       0.03125000       0.17391304       0.46666667 </v>
   <v>       0.09375000       0.17391304       0.46666667 </v>
   <v>       0.15625000       0.17391304       0.46666667 </v>
   <v>       0.21875000       0.17391304       0.46666667 </v>
   <v>       0.28125000       0.17391304       0.46666667 </v>
   <v>       0.34375000       0.17391304       0.46666667 </v>
   <v>       0.40625000       0.17391304       0.46666667 </v>
   <v>       0.46875000       0.17391304       0.46666667 </v>
   <v>       0.03125000       0.21739130       0.46666667 </v>
   <v>       0.09375000       0.21739130       0.46666667 </v>
   <v>       0.15625000       0.21739130       0.46666667 </v>
   <v>       0.21875000       0.21739130       0.46666667 </v>
   <v>       0.28125000       0.21739130       0.46666667 </v>
   <v>       0.34375000       0.21739130       0.46666667 </v>
   <v>       0.40625000       0.21739130       0.46666667 </v>
   <v>       0.46875000       0.21739130       0.46666667 </v>
   <v>       0.03125000       0.26086957       0.46666667 </v>
   <v>       0.09375000       0.26086957       0.46666667 </v>
   <v>       0.15625000       0.26086957       0.46666667 </v>
   <v>       0.21875000       0.26086957       0.46666667 </v>
   <v>       0.28125000       0.26086957       0.46666667 </v>
   <v>       0.34375000       0.26086957       0.46666667 </v>
   <v>       0.40625000       0.26086957       0.46666667 </v>
   <v>       0.46875000       0.26086957       0.46666667 </v>
   <v>       0.03125000       0.30434783       0.46666667 </v>
   <v>       0.09375000       0.30434783       0.46666667 </v>
   <v>       0.15625000       0.30434783       0.46666667 </v>
   <v>       0.21875000       0.30434783       0.46666667 </v>
   <v>       0.28125000       0.30434783       0.46666667 </v>
   <v>       0.34375000       0.30434783       0.46666667 </v>
   <v>       0.40625000       0.30434783       0.46666667 </v>
   <v>       0.46875000       0.30434783       0.46666667 </v>
   <v>       0.03125000       0.34782609       0.46666667 </v>
   <v>       0.09375000       0.34782609       0.46666667 </v>
   <v>       0.15625000       0.34782609       0.46666667 </v>
   <v>       0.21875000       0.34782609       0.46666667 </v>
   <v>       0.28125000       0.34782609       0.46666667 </v>
   <v>       0.34375000       0.34782609       0.46666667 </v>
   <v>       0.40625000       0.34782609       0.46666667 </v>
   <v>       0.46875000       0.34782609       0.46666667 </v>
   <v>       0.03125000       0.39130435       0.46666667 </v>
   <v>       0.09375000       0.39130435       0.46666667 </v>
   <v>       0.15625000       0.39130435       0.46666667 </v>
   <v>       0.21875000       0.39130435       0.46666667 </v>
   <v>       0.28125000       0.39130435       0.46666667 </v>
   <v>       0.34375000       0.39130435       0.46666667 </v>
   <v>       0.40625000       0.39130435       0.46666667 </v>
   <v>       0.46875000       0.39130435       0.46666667 </v>
   <v>       0.03125000       0.43478261       0.46666667 </v>
   <v>       0.09375000       0.43478261       0.46666667 </v>
   <v>       0.15625000       0.43478261       0.46666667 </v>
   <v>       0.21875000       0.43478261       0.46666667 </v>
   <v>       0.28125000       0.43478261       0.46666667 </v>
   <v>       0.34375000       0.43478261       0.46666667 </v>
   <v>       0.40625000       0.43478261       0.46666667 </v>
   <v>       0.46875000       0.43478261       0.46666667 </v>
   <v>       0.03125000       0.47826087       0.46666667 </v>
   <v>       0.09375000       0.47826087       0.46666667 </v>
   <v>       0.15625000       0.47826087       0.46666667 </v>
   <v>       0.21875000       0.47826087       0.46666667 </v>
   <v>       0.28125000       0.47826087       0.46666667 </v>
   <v>       0.34375000       0.47826087       0.46666667 </v>
   <v>       0.40625000       0.47826087       0.46666667 </v>
   <v>       0.46875000       0.47826087       0.46666667 </v>
  </varray>
  <varray name="weights" >
   <v>       0.00036232 </v>
   <v>       0.00036232 </v>
   <v>       0.00036232 </v>
   <v>       0.00036232 </v>
   <v>       0.00036232 </v>
   <v>       0.00036232 </v>
   <v>       0.00036232 </v>
   <v>       0.00036232 </v>
   <v>       0.00072464 </v>
   <v>       0.00072464 </v>
   <v>       0.00072464 </v>
   <v>       0.00072464 </v>
   <v>       0.00072464 </v>
   <v>       0.00072464 </v>
   <v>       0.00072464 </v>
   <v>       0.00072464 </v>
   <v>       0.00072464 </v>
   <v>       0.00072464 </v>
   <v>       0.00072464 </v>
   <v>       0.00072464 </v>
   <v>       0.00072464 </v>
   <v>       0.00072464 </v>
   <v>       0.00072464 </v>
   <v>       0.00072464 </v>
   <v>       0.00072464 </v>
   <v>       0.00072464 </v>
   <v>       0.00072464 </v>
   <v>       0.00072464 </v>
   <v>       0.00072464 </v>
   <v>       0.00072464 </v>
   <v>       0.00072464 </v>
   <v>       0.00072464 </v>
   <v>       0.00072464 </v>
   <v>       0.00072464 </v>
   <v>       0.00072464 </v>
   <v>       0.00072464 </v>
   <v>       0.00072464 </v>
   <v>       0.00072464 </v>
   <v>       0.00072464 </v>
   <v>       0.00072464 </v>
   <v>       0.00072464 </v>
   <v>       0.00072464 </v>
   <v>       0.00072464 </v>
   <v>       0.00072464 </v>
   <v>       0.00072464 </v>
   <v>       0.00072464 </v>
   <v>       0.00072464 </v>
   <v>       0.00072464 </v>
   <v>       0.00072464 </v>
   <v>       0.00072464 </v>
   <v>       0.00072464 </v>
   <v>       0.00072464 </v>
   <v>       0.00072464 </v>
   <v>       0.00072464 </v>
   <v>       0.00072464 </v>
   <v>       0.00072464 </v>
   <v>       0.00072464 </v>
   <v>       0.00072464 </v>
   <v>       0.00072464 </v>
   <v>       0.00072464 </v>
   <v>       0.00072464 </v>
   <v>       0.00072464 </v>
   <v>       0.00072464 </v>
   <v>       0.00072464 </v>
   <v>       0.00072464 </v>
   <v>       0.00072464 </v>
   <v>       0.00072464 </v>
   <v>       0.00072464 </v>
   <v>       0.00072464 </v>
   <v>       0.00072464 </v>
   <v>       0.00072464 </v>
   <v>       0.00072464 </v>
   <v>       0.00072464 </v>
   <v>       0.00072464 </v>
   <v>       0.00072464 </v>
   <v>       0.00072464 </v>
   <v>       0.00072464 </v>
   <v>       0.00072464 </v>
   <v>       0.00072464 </v>
   <v>       0.00072464 </v>
   <v>       0.00072464 </v>
   <v>       0.00072464 </v>
   <v>       0.00072464 </v>
   <v>       0.00072464 </v>
   <v>       0.00072464 </v>
   <v>       0.00072464 </v>
   <v>       0.00072464 </v>
   <v>       0.00072464 </v>
   <v>       0.00072464 </v>
   <v>       0.00072464 </v>
   <v>       0.00072464 </v>
   <v>       0.00072464 </v>
   <v>       0.00072464 </v>
   <v>       0.00072464 </v>
   <v>       0.00072464 </v>
   <v>       0.00072464 </v>
   <v>       0.00072464 </v>
   <v>       0.00072464 </v>
   <v>       0.00072464 </v>
   <v>       0.00072464 </v>
   <v>       0.00072464 </v>
   <v>       0.00072464 </v>
   <v>       0.00072464 </v>
   <v>       0.00072464 </v>
   <v>       0.00144928 </v>
   <v>       0.00144928 </v>
   <v>       0.00144928 </v>
   <v>       0.00144928 </v>
   <v>       0.00144928 </v>
   <v>       0.00144928 </v>
   <v>       0.00144928 </v>
   <v>       0.00144928 </v>
   <v>       0.00144928 </v>
   <v>       0.00144928 </v>
   <v>       0.00144928 </v>
   <v>       0.00144928 </v>
   <v>       0.00144928 </v>
   <v>       0.00144928 </v>
   <v>       0.00144928 </v>
   <v>       0.00144928 </v>
   <v>       0.00144928 </v>
   <v>       0.00144928 </v>
   <v>       0.00144928 </v>
   <v>       0.00144928 </v>
   <v>       0.00144928 </v>
   <v>       0.00144928 </v>
   <v>       0.00144928 </v>
   <v>       0.00144928 </v>
   <v>       0.00144928 </v>
   <v>       0.00144928 </v>
   <v>       0.00144928 </v>
   <v>       0.00144928 </v>
   <v>       0.00144928 </v>
   <v>       0.00144928 </v>
   <v>       0.00144928 </v>
   <v>       0.00144928 </v>
   <v>       0.00144928 </v>
   <v>       0.00144928 </v>
   <v>       0.00144928 </v>
   <v>       0.00144928 </v>
   <v>       0.00144928 </v>
   <v>       0.00144928 </v>
   <v>       0.00144928 </v>
   <v>       0.00144928 </v>
   <v>       0.00144928 </v>
   <v>       0.00144928 </v>
   <v>       0.00144928 </v>
   <v>       0.00144928 </v>
   <v>       0.00144928 </v>
   <v>       0.00144928 </v>
   <v>       0.00144928 </v>
   <v>       0.00144928 </v>
   <v>       0.00144928 </v>
   <v>       0.00144928 </v>
   <v>       0.00144928 </v>
   <v>       0.00144928 </v>
   <v>       0.00144928 </v>
   <v>       0.00144928 </v>
   <v>       0.00144928 </v>
   <v>       0.00144928 </v>
   <v>       0.00144928 </v>
   <v>       0.00144928 </v>
   <v>       0.00144928 </v>
   <v>       0.00144928 </v>
   <v>       0.00144928 </v>
   <v>       0.00144928 </v>
   <v>       0.00144928 </v>
   <v>       0.00144928 </v>
   <v>       0.00144928 </v>
   <v>       0.00144928 </v>
   <v>       0.00144928 </v>
   <v>       0.00144928 </v>
   <v>       0.00144928 </v>
   <v>       0.00144928 </v>
   <v>       0.00144928 </v>
   <v>       0.00144928 </v>
   <v>       0.00144928 </v>
   <v>       0.00144928 </v>
   <v>       0.00144928 </v>
   <v>       0.00144928 </v>
   <v>       0.00144928 </v>
   <v>       0.00144928 </v>
   <v>       0.00144928 </v>
   <v>       0.00144928 </v>
   <v>       0.00144928 </v>
   <v>       0.00144928 </v>
   <v>       0.00144928 </v>
   <v>       0.00144928 </v>
   <v>       0.00144928 </v>
   <v>       0.00144928 </v>
   <v>       0.00144928 </v>
   <v>       0.00144928 </v>
   <v>       0.00072464 </v>
   <v>       0.00072464 </v>
   <v>       0.00072464 </v>
   <v>       0.00072464 </v>
   <v>       0.00072464 </v>
   <v>       0.00072464 </v>
   <v>       0.00072464 </v>
   <v>       0.00072464 </v>
   <v>       0.00144928 </v>
   <v>       0.00144928 </v>
   <v>       0.00144928 </v>
   <v>       0.00144928 </v>
   <v>       0.00144928 </v>
   <v>       0.00144928 </v>
   <v>       0.00144928 </v>
   <v>       0.00144928 </v>
   <v>       0.00144928 </v>
   <v>       0.00144928 </v>
   <v>       0.00144928 </v>
   <v>       0.00144928 </v>
   <v>       0.00144928 </v>
   <v>       0.00144928 </v>
   <v>       0.00144928 </v>
   <v>       0.00144928 </v>
   <v>       0.00144928 </v>
   <v>       0.00144928 </v>
   <v>       0.00144928 </v>
   <v>       0.00144928 </v>
   <v>       0.00144928 </v>
   <v>       0.00144928 </v>
   <v>       0.00144928 </v>
   <v>       0.00144928 </v>
   <v>       0.00144928 </v>
   <v>       0.00144928 </v>
   <v>       0.00144928 </v>
   <v>       0.00144928 </v>
   <v>       0.00144928 </v>
   <v>       0.00144928 </v>
   <v>       0.00144928 </v>
   <v>       0.00144928 </v>
   <v>       0.00144928 </v>
   <v>       0.00144928 </v>
   <v>       0.00144928 </v>
   <v>       0.00144928 </v>
   <v>       0.00144928 </v>
   <v>       0.00144928 </v>
   <v>       0.00144928 </v>
   <v>       0.00144928 </v>
   <v>       0.00144928 </v>
   <v>       0.00144928 </v>
   <v>       0.00144928 </v>
   <v>       0.00144928 </v>
   <v>       0.00144928 </v>
   <v>       0.00144928 </v>
   <v>       0.00144928 </v>
   <v>       0.00144928 </v>
   <v>       0.00144928 </v>
   <v>       0.00144928 </v>
   <v>       0.00144928 </v>
   <v>       0.00144928 </v>
   <v>       0.00144928 </v>
   <v>       0.00144928 </v>
   <v>       0.00144928 </v>
   <v>       0.00144928 </v>
   <v>       0.00144928 </v>
   <v>       0.00144928 </v>
   <v>       0.00144928 </v>
   <v>       0.00144928 </v>
   <v>       0.00144928 </v>
   <v>       0.00144928 </v>
   <v>       0.00144928 </v>
   <v>       0.00144928 </v>
   <v>       0.00144928 </v>
   <v>       0.00144928 </v>
   <v>       0.00144928 </v>
   <v>       0.00144928 </v>
   <v>       0.00144928 </v>
   <v>       0.00144928 </v>
   <v>       0.00144928 </v>
   <v>       0.00144928 </v>
   <v>       0.00144928 </v>
   <v>       0.00144928 </v>
   <v>       0.00144928 </v>
   <v>       0.00144928 </v>
   <v>       0.00144928 </v>
   <v>       0.00144928 </v>
   <v>       0.00144928 </v>
   <v>       0.00144928 </v>
   <v>       0.00144928 </v>
   <v>       0.00144928 </v>
   <v>       0.00144928 </v>
   <v>       0.00144928 </v>
   <v>       0.00144928 </v>
   <v>       0.00144928 </v>
   <v>       0.00144928 </v>
   <v>       0.00144928 </v>
   <v>       0.00072464 </v>
   <v>       0.00072464 </v>
   <v>       0.00072464 </v>
   <v>       0.00072464 </v>
   <v>       0.00072464 </v>
   <v>       0.00072464 </v>
   <v>       0.00072464 </v>
   <v>       0.00072464 </v>
   <v>       0.00144928 </v>
   <v>       0.00144928 </v>
   <v>       0.00144928 </v>
   <v>       0.00144928 </v>
   <v>       0.00144928 </v>
   <v>       0.00144928 </v>
   <v>       0.00144928 </v>
   <v>       0.00144928 </v>
   <v>       0.00144928 </v>
   <v>       0.00144928 </v>
   <v>       0.00144928 </v>
   <v>       0.00144928 </v>
   <v>       0.00144928 </v>
   <v>       0.00144928 </v>
   <v>       0.00144928 </v>
   <v>       0.00144928 </v>
   <v>       0.00144928 </v>
   <v>       0.00144928 </v>
   <v>       0.00144928 </v>
   <v>       0.00144928 </v>
   <v>       0.00144928 </v>
   <v>       0.00144928 </v>
   <v>       0.00144928 </v>
   <v>       0.00144928 </v>
   <v>       0.00144928 </v>
   <v>       0.00144928 </v>
   <v>       0.00144928 </v>
   <v>       0.00144928 </v>
   <v>       0.00144928 </v>
   <v>       0.00144928 </v>
   <v>       0.00144928 </v>
   <v>       0.00144928 </v>
   <v>       0.00144928 </v>
   <v>       0.00144928 </v>
   <v>       0.00144928 </v>
   <v>       0.00144928 </v>
   <v>       0.00144928 </v>
   <v>       0.00144928 </v>
   <v>       0.00144928 </v>
   <v>       0.00144928 </v>
   <v>       0.00144928 </v>
   <v>       0.00144928 </v>
   <v>       0.00144928 </v>
   <v>       0.00144928 </v>
   <v>       0.00144928 </v>
   <v>       0.00144928 </v>
   <v>       0.00144928 </v>
   <v>       0.00144928 </v>
   <v>       0.00144928 </v>
   <v>       0.00144928 </v>
   <v>       0.00144928 </v>
   <v>       0.00144928 </v>
   <v>       0.00144928 </v>
   <v>       0.00144928 </v>
   <v>       0.00144928 </v>
   <v>       0.00144928 </v>
   <v>       0.00144928 </v>
   <v>       0.00144928 </v>
   <v>       0.00144928 </v>
   <v>       0.00144928 </v>
   <v>       0.00144928 </v>
   <v>       0.00144928 </v>
   <v>       0.00144928 </v>
   <v>       0.00144928 </v>
   <v>       0.00144928 </v>
   <v>       0.00144928 </v>
   <v>       0.00144928 </v>
   <v>       0.00144928 </v>
   <v>       0.00144928 </v>
   <v>       0.00144928 </v>
   <v>       0.00144928 </v>
   <v>       0.00144928 </v>
   <v>       0.00144928 </v>
   <v>       0.00144928 </v>
   <v>       0.00144928 </v>
   <v>       0.00144928 </v>
   <v>       0.00144928 </v>
   <v>       0.00144928 </v>
   <v>       0.00144928 </v>
   <v>       0.00144928 </v>
   <v>       0.00144928 </v>
   <v>       0.00144928 </v>
   <v>       0.00144928 </v>
   <v>       0.00144928 </v>
   <v>       0.00144928 </v>
   <v>       0.00144928 </v>
   <v>       0.00144928 </v>
   <v>       0.00144928 </v>
   <v>       0.00072464 </v>
   <v>       0.00072464 </v>
   <v>       0.00072464 </v>
   <v>       0.00072464 </v>
   <v>       0.00072464 </v>
   <v>       0.00072464 </v>
   <v>       0.00072464 </v>
   <v>       0.00072464 </v>
   <v>       0.00144928 </v>
   <v>       0.00144928 </v>
   <v>       0.00144928 </v>
   <v>       0.00144928 </v>
   <v>       0.00144928 </v>
   <v>       0.00144928 </v>
   <v>       0.00144928 </v>
   <v>       0.00144928 </v>
   <v>       0.00144928 </v>
   <v>       0.00144928 </v>
   <v>       0.00144928 </v>
   <v>       0.00144928 </v>
   <v>       0.00144928 </v>
   <v>       0.00144928 </v>
   <v>       0.00144928 </v>
   <v>       0.00144928 </v>
   <v>       0.00144928 </v>
   <v>       0.00144928 </v>
   <v>       0.00144928 </v>
   <v>       0.00144928 </v>
   <v>       0.00144928 </v>
   <v>       0.00144928 </v>
   <v>       0.00144928 </v>
   <v>       0.00144928 </v>
   <v>       0.00144928 </v>
   <v>       0.00144928 </v>
   <v>       0.00144928 </v>
   <v>       0.00144928 </v>
   <v>       0.00144928 </v>
   <v>       0.00144928 </v>
   <v>       0.00144928 </v>
   <v>       0.00144928 </v>
   <v>       0.00144928 </v>
   <v>       0.00144928 </v>
   <v>       0.00144928 </v>
   <v>       0.00144928 </v>
   <v>       0.00144928 </v>
   <v>       0.00144928 </v>
   <v>       0.00144928 </v>
   <v>       0.00144928 </v>
   <v>       0.00144928 </v>
   <v>       0.00144928 </v>
   <v>       0.00144928 </v>
   <v>       0.00144928 </v>
   <v>       0.00144928 </v>
   <v>       0.00144928 </v>
   <v>       0.00144928 </v>
   <v>       0.00144928 </v>
   <v>       0.00144928 </v>
   <v>       0.00144928 </v>
   <v>       0.00144928 </v>
   <v>       0.00144928 </v>
   <v>       0.00144928 </v>
   <v>       0.00144928 </v>
   <v>       0.00144928 </v>
   <v>       0.00144928 </v>
   <v>       0.00144928 </v>
   <v>       0.00144928 </v>
   <v>       0.00144928 </v>
   <v>       0.00144928 </v>
   <v>       0.00144928 </v>
   <v>       0.00144928 </v>
   <v>       0.00144928 </v>
   <v>       0.00144928 </v>
   <v>       0.00144928 </v>
   <v>       0.00144928 </v>
   <v>       0.00144928 </v>
   <v>       0.00144928 </v>
   <v>       0.00144928 </v>
   <v>       0.00144928 </v>
   <v>       0.00144928 </v>
   <v>       0.00144928 </v>
   <v>       0.00144928 </v>
   <v>       0.00144928 </v>
   <v>       0.00144928 </v>
   <v>       0.00144928 </v>
   <v>       0.00144928 </v>
   <v>       0.00144928 </v>
   <v>       0.00144928 </v>
   <v>       0.00144928 </v>
   <v>       0.00144928 </v>
   <v>       0.00144928 </v>
   <v>       0.00144928 </v>
   <v>       0.00144928 </v>
   <v>       0.00144928 </v>
   <v>       0.00144928 </v>
   <v>       0.00144928 </v>
   <v>       0.00144928 </v>
   <v>       0.00072464 </v>
   <v>       0.00072464 </v>
   <v>       0.00072464 </v>
   <v>       0.00072464 </v>
   <v>       0.00072464 </v>
   <v>       0.00072464 </v>
   <v>       0.00072464 </v>
   <v>       0.00072464 </v>
   <v>       0.00144928 </v>
   <v>       0.00144928 </v>
   <v>       0.00144928 </v>
   <v>       0.00144928 </v>
   <v>       0.00144928 </v>
   <v>       0.00144928 </v>
   <v>       0.00144928 </v>
   <v>       0.00144928 </v>
   <v>       0.00144928 </v>
   <v>       0.00144928 </v>
   <v>       0.00144928 </v>
   <v>       0.00144928 </v>
   <v>       0.00144928 </v>
   <v>       0.00144928 </v>
   <v>       0.00144928 </v>
   <v>       0.00144928 </v>
   <v>       0.00144928 </v>
   <v>       0.00144928 </v>
   <v>       0.00144928 </v>
   <v>       0.00144928 </v>
   <v>       0.00144928 </v>
   <v>       0.00144928 </v>
   <v>       0.00144928 </v>
   <v>       0.00144928 </v>
   <v>       0.00144928 </v>
   <v>       0.00144928 </v>
   <v>       0.00144928 </v>
   <v>       0.00144928 </v>
   <v>       0.00144928 </v>
   <v>       0.00144928 </v>
   <v>       0.00144928 </v>
   <v>       0.00144928 </v>
   <v>       0.00144928 </v>
   <v>       0.00144928 </v>
   <v>       0.00144928 </v>
   <v>       0.00144928 </v>
   <v>       0.00144928 </v>
   <v>       0.00144928 </v>
   <v>       0.00144928 </v>
   <v>       0.00144928 </v>
   <v>       0.00144928 </v>
   <v>       0.00144928 </v>
   <v>       0.00144928 </v>
   <v>       0.00144928 </v>
   <v>       0.00144928 </v>
   <v>       0.00144928 </v>
   <v>       0.00144928 </v>
   <v>       0.00144928 </v>
   <v>       0.00144928 </v>
   <v>       0.00144928 </v>
   <v>       0.00144928 </v>
   <v>       0.00144928 </v>
   <v>       0.00144928 </v>
   <v>       0.00144928 </v>
   <v>       0.00144928 </v>
   <v>       0.00144928 </v>
   <v>       0.00144928 </v>
   <v>       0.00144928 </v>
   <v>       0.00144928 </v>
   <v>       0.00144928 </v>
   <v>       0.00144928 </v>
   <v>       0.00144928 </v>
   <v>       0.00144928 </v>
   <v>       0.00144928 </v>
   <v>       0.00144928 </v>
   <v>       0.00144928 </v>
   <v>       0.00144928 </v>
   <v>       0.00144928 </v>
   <v>       0.00144928 </v>
   <v>       0.00144928 </v>
   <v>       0.00144928 </v>
   <v>       0.00144928 </v>
   <v>       0.00144928 </v>
   <v>       0.00144928 </v>
   <v>       0.00144928 </v>
   <v>       0.00144928 </v>
   <v>       0.00144928 </v>
   <v>       0.00144928 </v>
   <v>       0.00144928 </v>
   <v>       0.00144928 </v>
   <v>       0.00144928 </v>
   <v>       0.00144928 </v>
   <v>       0.00144928 </v>
   <v>       0.00144928 </v>
   <v>       0.00144928 </v>
   <v>       0.00144928 </v>
   <v>       0.00144928 </v>
   <v>       0.00144928 </v>
   <v>       0.00072464 </v>
   <v>       0.00072464 </v>
   <v>       0.00072464 </v>
   <v>       0.00072464 </v>
   <v>       0.00072464 </v>
   <v>       0.00072464 </v>
   <v>       0.00072464 </v>
   <v>       0.00072464 </v>
   <v>       0.00144928 </v>
   <v>       0.00144928 </v>
   <v>       0.00144928 </v>
   <v>       0.00144928 </v>
   <v>       0.00144928 </v>
   <v>       0.00144928 </v>
   <v>       0.00144928 </v>
   <v>       0.00144928 </v>
   <v>       0.00144928 </v>
   <v>       0.00144928 </v>
   <v>       0.00144928 </v>
   <v>       0.00144928 </v>
   <v>       0.00144928 </v>
   <v>       0.00144928 </v>
   <v>       0.00144928 </v>
   <v>       0.00144928 </v>
   <v>       0.00144928 </v>
   <v>       0.00144928 </v>
   <v>       0.00144928 </v>
   <v>       0.00144928 </v>
   <v>       0.00144928 </v>
   <v>       0.00144928 </v>
   <v>       0.00144928 </v>
   <v>       0.00144928 </v>
   <v>       0.00144928 </v>
   <v>       0.00144928 </v>
   <v>       0.00144928 </v>
   <v>       0.00144928 </v>
   <v>       0.00144928 </v>
   <v>       0.00144928 </v>
   <v>       0.00144928 </v>
   <v>       0.00144928 </v>
   <v>       0.00144928 </v>
   <v>       0.00144928 </v>
   <v>       0.00144928 </v>
   <v>       0.00144928 </v>
   <v>       0.00144928 </v>
   <v>       0.00144928 </v>
   <v>       0.00144928 </v>
   <v>       0.00144928 </v>
   <v>       0.00144928 </v>
   <v>       0.00144928 </v>
   <v>       0.00144928 </v>
   <v>       0.00144928 </v>
   <v>       0.00144928 </v>
   <v>       0.00144928 </v>
   <v>       0.00144928 </v>
   <v>       0.00144928 </v>
   <v>       0.00144928 </v>
   <v>       0.00144928 </v>
   <v>       0.00144928 </v>
   <v>       0.00144928 </v>
   <v>       0.00144928 </v>
   <v>       0.00144928 </v>
   <v>       0.00144928 </v>
   <v>       0.00144928 </v>
   <v>       0.00144928 </v>
   <v>       0.00144928 </v>
   <v>       0.00144928 </v>
   <v>       0.00144928 </v>
   <v>       0.00144928 </v>
   <v>       0.00144928 </v>
   <v>       0.00144928 </v>
   <v>       0.00144928 </v>
   <v>       0.00144928 </v>
   <v>       0.00144928 </v>
   <v>       0.00144928 </v>
   <v>       0.00144928 </v>
   <v>       0.00144928 </v>
   <v>       0.00144928 </v>
   <v>       0.00144928 </v>
   <v>       0.00144928 </v>
   <v>       0.00144928 </v>
   <v>       0.00144928 </v>
   <v>       0.00144928 </v>
   <v>       0.00144928 </v>
   <v>       0.00144928 </v>
   <v>       0.00144928 </v>
   <v>       0.00144928 </v>
   <v>       0.00144928 </v>
   <v>       0.00144928 </v>
   <v>       0.00144928 </v>
   <v>       0.00144928 </v>
   <v>       0.00144928 </v>
   <v>       0.00144928 </v>
   <v>       0.00144928 </v>
   <v>       0.00144928 </v>
   <v>       0.00144928 </v>
   <v>       0.00072464 </v>
   <v>       0.00072464 </v>
   <v>       0.00072464 </v>
   <v>       0.00072464 </v>
   <v>       0.00072464 </v>
   <v>       0.00072464 </v>
   <v>       0.00072464 </v>
   <v>       0.00072464 </v>
   <v>       0.00144928 </v>
   <v>       0.00144928 </v>
   <v>       0.00144928 </v>
   <v>       0.00144928 </v>
   <v>       0.00144928 </v>
   <v>       0.00144928 </v>
   <v>       0.00144928 </v>
   <v>       0.00144928 </v>
   <v>       0.00144928 </v>
   <v>       0.00144928 </v>
   <v>       0.00144928 </v>
   <v>       0.00144928 </v>
   <v>       0.00144928 </v>
   <v>       0.00144928 </v>
   <v>       0.00144928 </v>
   <v>       0.00144928 </v>
   <v>       0.00144928 </v>
   <v>       0.00144928 </v>
   <v>       0.00144928 </v>
   <v>       0.00144928 </v>
   <v>       0.00144928 </v>
   <v>       0.00144928 </v>
   <v>       0.00144928 </v>
   <v>       0.00144928 </v>
   <v>       0.00144928 </v>
   <v>       0.00144928 </v>
   <v>       0.00144928 </v>
   <v>       0.00144928 </v>
   <v>       0.00144928 </v>
   <v>       0.00144928 </v>
   <v>       0.00144928 </v>
   <v>       0.00144928 </v>
   <v>       0.00144928 </v>
   <v>       0.00144928 </v>
   <v>       0.00144928 </v>
   <v>       0.00144928 </v>
   <v>       0.00144928 </v>
   <v>       0.00144928 </v>
   <v>       0.00144928 </v>
   <v>       0.00144928 </v>
   <v>       0.00144928 </v>
   <v>       0.00144928 </v>
   <v>       0.00144928 </v>
   <v>       0.00144928 </v>
   <v>       0.00144928 </v>
   <v>       0.00144928 </v>
   <v>       0.00144928 </v>
   <v>       0.00144928 </v>
   <v>       0.00144928 </v>
   <v>       0.00144928 </v>
   <v>       0.00144928 </v>
   <v>       0.00144928 </v>
   <v>       0.00144928 </v>
   <v>       0.00144928 </v>
   <v>       0.00144928 </v>
   <v>       0.00144928 </v>
   <v>       0.00144928 </v>
   <v>       0.00144928 </v>
   <v>       0.00144928 </v>
   <v>       0.00144928 </v>
   <v>       0.00144928 </v>
   <v>       0.00144928 </v>
   <v>       0.00144928 </v>
   <v>       0.00144928 </v>
   <v>       0.00144928 </v>
   <v>       0.00144928 </v>
   <v>       0.00144928 </v>
   <v>       0.00144928 </v>
   <v>       0.00144928 </v>
   <v>       0.00144928 </v>
   <v>       0.00144928 </v>
   <v>       0.00144928 </v>
   <v>       0.00144928 </v>
   <v>       0.00144928 </v>
   <v>       0.00144928 </v>
   <v>       0.00144928 </v>
   <v>       0.00144928 </v>
   <v>       0.00144928 </v>
   <v>       0.00144928 </v>
   <v>       0.00144928 </v>
   <v>       0.00144928 </v>
   <v>       0.00144928 </v>
   <v>       0.00144928 </v>
   <v>       0.00144928 </v>
   <v>       0.00144928 </v>
   <v>       0.00144928 </v>
   <v>       0.00144928 </v>
   <v>       0.00144928 </v>
  </varray>
 </kpoints>
 <parameters>
  <separator name="general" >
   <i type="string" name="SYSTEM">SC</i>
   <i type="logical" name="LCOMPAT"> F  </i>
  </separator>
  <separator name="electronic" >
   <i type="string" name="PREC">accura</i>
   <i name="ENMAX">    600.00000000</i>
   <i name="ENAUG">    535.51400000</i>
   <i name="EDIFF">      0.00000100</i>
   <i type="int" name="IALGO">    38</i>
   <i type="int" name="IWAVPR">    10</i>
   <i type="int" name="NBANDS">    48</i>
   <i type="int" name="NBANDSLOW">    -1</i>
   <i type="int" name="NBANDSHIGH">    -1</i>
   <i name="NELECT">     42.00000000</i>
   <i type="int" name="TURBO">     0</i>
   <i type="int" name="IRESTART">     0</i>
   <i type="int" name="NREBOOT">     0</i>
   <i type="int" name="NMIN">     0</i>
   <i name="EREF">      0.00000000</i>
   <separator name="electronic smearing" >
    <i type="int" name="ISMEAR">     0</i>
    <i name="SIGMA">      0.10000000</i>
    <i name="KSPACING">      0.50000000</i>
    <i type="logical" name="KGAMMA"> T  </i>
    <i type="logical" name="KBLOWUP"> T  </i>
   </separator>
   <separator name="electronic projectors" >
    <i type="logical" name="LREAL"> F  </i>
    <v name="ROPT">      0.00000000</v>
    <i type="int" name="LMAXPAW">  -100</i>
    <i type="int" name="LMAXMIX">     2</i>
    <i type="logical" name="NLSPLINE"> F  </i>
   </separator>
   <separator name="electronic startup" >
    <i type="int" name="ISTART">     0</i>
    <i type="int" name="ICHARG">     2</i>
    <i type="int" name="INIWAV">     1</i>
   </separator>
   <separator name="electronic spin" >
    <i type="int" name="ISPIN">     1</i>
    <i type="logical" name="LNONCOLLINEAR"> F  </i>
    <v name="MAGMOM">      1.00000000      1.00000000      1.00000000      1.00000000      1.00000000      1.00000000      1.00000000      1.00000000      1.00000000      1.00000000      1.00000000      1.00000000      1.00000000      1.00000000</v>
    <i name="NUPDOWN">     -1.00000000</i>
    <i type="logical" name="LSORBIT"> F  </i>
    <v name="SAXIS">      0.00000000      0.00000000      1.00000000</v>
    <i type="logical" name="LSPIRAL"> F  </i>
    <v name="QSPIRAL">      0.00000000      0.00000000      0.00000000</v>
    <i type="logical" name="LZEROZ"> F  </i>
   </separator>
   <separator name="electronic exchange-correlation" >
    <i type="logical" name="LASPH"> F  </i>
   </separator>
   <separator name="electronic convergence" >
    <i type="int" name="NELM">    64</i>
    <i type="int" name="NELMDL">    -5</i>
    <i type="int" name="NELMIN">     2</i>
    <i name="ENINI">    600.00000000</i>
    <separator name="electronic convergence detail" >
     <i type="logical" name="LDIAG"> T  </i>
     <i type="logical" name="LSUBROT"> F  </i>
     <i name="WEIMIN">      0.00000000</i>
     <i name="EBREAK">      0.00000001</i>
     <i name="DEPER">      0.30000000</i>
     <i type="int" name="NRMM">     4</i>
     <i name="TIME">      0.40000000</i>
    </separator>
   </separator>
   <separator name="electronic mixer" >
    <i name="AMIX">      0.40000000</i>
    <i name="BMIX">      1.00000000</i>
    <i name="AMIN">      0.10000000</i>
    <i name="AMIX_MAG">      1.60000000</i>
    <i name="BMIX_MAG">      1.00000000</i>
    <separator name="electronic mixer details" >
     <i type="int" name="IMIX">     4</i>
     <i type="logical" name="MIXFIRST"> F  </i>
     <i type="int" name="MAXMIX">   -45</i>
     <i name="WC">    100.00000000</i>
     <i type="int" name="INIMIX">     1</i>
     <i type="int" name="MIXPRE">     1</i>
     <i type="int" name="MREMOVE">     5</i>
    </separator>
   </separator>
   <separator name="electronic dipolcorrection" >
    <i type="logical" name="LDIPOL"> F  </i>
    <i type="logical" name="LMONO"> F  </i>
    <i type="int" name="IDIPOL">     0</i>
    <i name="EPSILON">      1.00000000</i>
    <v name="DIPOL">   -100.00000000   -100.00000000   -100.00000000</v>
    <i name="EFIELD">      0.00000000</i>
    <i type="logical" name="LVACPOTAV"> F  </i>
   </separator>
  </separator>
  <separator name="grids" >
   <i type="int" name="NGX">    48</i>
   <i type="int" name="NGY">    32</i>
   <i type="int" name="NGZ">    50</i>
   <i type="int" name="NGXF">    96</i>
   <i type="int" name="NGYF">    64</i>
   <i type="int" name="NGZF">   100</i>
   <i type="logical" name="ADDGRID"> F  </i>
  </separator>
  <separator name="ionic" >
   <i type="int" name="NSW">     0</i>
   <i type="int" name="IBRION">    -1</i>
   <i type="int" name="MDALGO">     0</i>
   <i type="int" name="ISIF">     2</i>
   <i name="PSTRESS">      0.00000000</i>
   <i name="EDIFFG">     -0.00100000</i>
   <i type="int" name="NFREE">     0</i>
   <i name="POTIM">      0.50000000</i>
   <i name="SMASS">     -3.00000000</i>
   <i name="SCALEE">      1.00000000</i>
  </separator>
  <separator name="ionic md" >
   <i name="TEBEG">      0.00010000</i>
   <i name="TEEND">      0.00010000</i>
   <i type="int" name="NBLOCK">     1</i>
   <i type="int" name="KBLOCK">     1</i>
   <i type="int" name="NPACO">   256</i>
   <i name="APACO">     10.00000000</i>
  </separator>
  <separator name="symmetry" >
   <i type="int" name="ISYM">     2</i>
   <i name="SYMPREC">      0.00000100</i>
  </separator>
  <separator name="dos" >
   <i type="int" name="LORBIT">     0</i>
   <v name="RWIGS">     -1.00000000</v>
   <i type="int" name="NEDOS">   301</i>
   <i name="EMIN">     10.00000000</i>
   <i name="EMAX">    -10.00000000</i>
[...]
       <r>   -2.1952    1.0000 </r>
       <r>   -2.1607    1.0000 </r>
       <r>   -2.0862    1.0000 </r>
       <r>   -1.6293    1.0000 </r>
       <r>   -0.4578    1.0000 </r>
       <r>   -0.0550    1.0000 </r>
       <r>    0.3657    1.0000 </r>
       <r>    0.4463    1.0000 </r>
       <r>    0.4685    1.0000 </r>
       <r>    1.1370    1.0000 </r>
       <r>    1.6858    0.9996 </r>
       <r>    1.8300    0.9108 </r>
       <r>    5.7176    0.0000 </r>
       <r>    6.0761    0.0000 </r>
       <r>    6.7065    0.0000 </r>
       <r>    7.4601    0.0000 </r>
       <r>    7.7232    0.0000 </r>
       <r>    7.8090    0.0000 </r>
       <r>    9.2434    0.0000 </r>
       <r>    9.4933    0.0000 </r>
       <r>    9.6867    0.0000 </r>
       <r>    9.8281    0.0000 </r>
       <r>   10.4317    0.0000 </r>
       <r>   10.9950    0.0000 </r>
       <r>   11.1027    0.0000 </r>
       <r>   11.5061    0.0000 </r>
       <r>   11.5861    0.0000 </r>
       <r>   11.7126    0.0000 </r>
       <r>   13.0160    0.0000 </r>
       <r>   13.2409    0.0000 </r>
       <r>   13.5030    0.0000 </r>
       <r>   14.0323    0.0000 </r>
       <r>   14.1894    0.0000 </r>
       <r>   14.3729    0.0000 </r>
       <r>   14.4317    0.0000 </r>
       <r>   14.8072    0.0000 </r>
       <r>   14.9863    0.0000 </r>
       <r>   15.1836    0.0000 </r>
      </set>
      <set comment="kpoint 768">
       <r>  -11.9477    1.0000 </r>
       <r>  -11.8587    1.0000 </r>
       <r>   -8.4995    1.0000 </r>
       <r>   -8.4232    1.0000 </r>
       <r>   -5.8909    1.0000 </r>
       <r>   -5.8246    1.0000 </r>
       <r>   -4.7366    1.0000 </r>
       <r>   -4.5439    1.0000 </r>
       <r>   -4.4404    1.0000 </r>
       <r>   -4.1608    1.0000 </r>
       <r>   -2.1981    1.0000 </r>
       <r>   -2.1616    1.0000 </r>
       <r>   -1.9972    1.0000 </r>
       <r>   -1.8165    1.0000 </r>
       <r>   -0.1386    1.0000 </r>
       <r>    0.0053    1.0000 </r>
       <r>    0.4684    1.0000 </r>
       <r>    0.5015    1.0000 </r>
       <r>    0.5073    1.0000 </r>
       <r>    0.7246    1.0000 </r>
       <r>    1.6991    0.9993 </r>
       <r>    1.7505    0.9932 </r>
       <r>    5.8820    0.0000 </r>
       <r>    5.9904    0.0000 </r>
       <r>    6.9612    0.0000 </r>
       <r>    7.3478    0.0000 </r>
       <r>    7.5472    0.0000 </r>
       <r>    7.6260    0.0000 </r>
       <r>    9.4643    0.0000 </r>
       <r>    9.6025    0.0000 </r>
       <r>    9.7867    0.0000 </r>
       <r>    9.8651    0.0000 </r>
       <r>   10.4308    0.0000 </r>
       <r>   10.6930    0.0000 </r>
       <r>   11.2582    0.0000 </r>
       <r>   11.4629    0.0000 </r>
       <r>   11.5384    0.0000 </r>
       <r>   11.5759    0.0000 </r>
       <r>   13.1433    0.0000 </r>
       <r>   13.1967    0.0000 </r>
       <r>   13.8649    0.0000 </r>
       <r>   14.1520    0.0000 </r>
       <r>   14.2383    0.0000 </r>
       <r>   14.2838    0.0000 </r>
       <r>   14.6930    0.0000 </r>
       <r>   14.7186    0.0000 </r>
       <r>   14.8283    0.0000 </r>
       <r>   14.9438    0.0000 </r>
      </set>
     </set>
    </set>
   </array>
  </eigenvalues>
  <separator name="orbital magnetization" >
   <v name="MAGDIPOLOUT">      0.00000000      0.00000000      0.00000000</v>
  </separator>
  <dos>
   <i name="efermi">      1.92519294 </i>
   <total>
    <array>
     <dimension dim="1">gridpoints</dimension>
     <dimension dim="2">spin</dimension>
     <field>energy</field>
     <field>total</field>
     <field>integrated</field>
     <set>
      <set comment="spin 1">
       <r>   -14.1589     0.0000     0.0000 </r>
       <r>   -14.0517     0.0000     0.0000 </r>
       <r>   -13.9446     0.0000     0.0000 </r>
       <r>   -13.8374     0.0000     0.0000 </r>
       <r>   -13.7303     0.0000     0.0000 </r>
       <r>   -13.6231     0.0000     0.0000 </r>
       <r>   -13.5159     0.0000     0.0000 </r>
       <r>   -13.4088     0.0000     0.0000 </r>
       <r>   -13.3016     0.0000     0.0000 </r>
       <r>   -13.1945     0.0000     0.0000 </r>
       <r>   -13.0873     0.0000     0.0000 </r>
       <r>   -12.9802     0.0000     0.0000 </r>
       <r>   -12.8730     0.0012     0.0001 </r>
       <r>   -12.7658     0.0636     0.0069 </r>
       <r>   -12.6587     0.6685     0.0786 </r>
       <r>   -12.5515     2.1347     0.3073 </r>
       <r>   -12.4444     3.4129     0.6730 </r>
       <r>   -12.3372     4.0131     1.1031 </r>
       <r>   -12.2301     3.5686     1.4855 </r>
       <r>   -12.1229     2.9095     1.7973 </r>
       <r>   -12.0157     2.6190     2.0779 </r>
       <r>   -11.9086     2.5505     2.3512 </r>
       <r>   -11.8014     2.6801     2.6384 </r>
       <r>   -11.6943     3.0907     2.9696 </r>
       <r>   -11.5871     3.4243     3.3365 </r>
       <r>   -11.4800     3.1109     3.6699 </r>
       <r>   -11.3728     2.0655     3.8912 </r>
       <r>   -11.2656     0.8504     3.9823 </r>
       <r>   -11.1585     0.1569     3.9992 </r>
       <r>   -11.0513     0.0078     4.0000 </r>
       <r>   -10.9442     0.0001     4.0000 </r>
       <r>   -10.8370     0.0000     4.0000 </r>
       <r>   -10.7299     0.0000     4.0000 </r>
       <r>   -10.6227     0.0000     4.0000 </r>
       <r>   -10.5155     0.0000     4.0000 </r>
       <r>   -10.4084     0.0000     4.0000 </r>
       <r>   -10.3012     0.0000     4.0000 </r>
       <r>   -10.1941     0.0000     4.0000 </r>
       <r>   -10.0869     0.0000     4.0000 </r>
       <r>    -9.9798     0.0000     4.0000 </r>
       <r>    -9.8726     0.0000     4.0000 </r>
       <r>    -9.7654     0.0000     4.0000 </r>
       <r>    -9.6583     0.0000     4.0000 </r>
       <r>    -9.5511     0.0000     4.0000 </r>
       <r>    -9.4440     0.0000     4.0000 </r>
       <r>    -9.3368     0.0000     4.0000 </r>
       <r>    -9.2297     0.0000     4.0000 </r>
       <r>    -9.1225     0.0000     4.0000 </r>
       <r>    -9.0153     0.0008     4.0001 </r>
       <r>    -8.9082     0.0495     4.0054 </r>
       <r>    -8.8010     0.6158     4.0714 </r>
       <r>    -8.6939     2.5103     4.3404 </r>
       <r>    -8.5867     5.1895     4.8965 </r>
       <r>    -8.4796     6.3426     5.5761 </r>
       <r>    -8.3724     5.4579     6.1610 </r>
       <r>    -8.2652     4.7801     6.6732 </r>
       <r>    -8.1581     4.6457     7.1710 </r>
       <r>    -8.0509     3.9455     7.5938 </r>
       <r>    -7.9438     2.3959     7.8505 </r>
       <r>    -7.8366     1.0443     7.9624 </r>
       <r>    -7.7295     0.3115     7.9958 </r>
       <r>    -7.6223     0.0379     7.9999 </r>
       <r>    -7.5151     0.0011     8.0000 </r>
       <r>    -7.4080     0.0000     8.0000 </r>
       <r>    -7.3008     0.0000     8.0000 </r>
       <r>    -7.1937     0.0000     8.0000 </r>
       <r>    -7.0865     0.0015     8.0002 </r>
       <r>    -6.9794     0.0292     8.0033 </r>
       <r>    -6.8722     0.1429     8.0186 </r>
       <r>    -6.7650     0.3157     8.0524 </r>
       <r>    -6.6579     0.4993     8.1059 </r>
       <r>    -6.5507     0.7312     8.1843 </r>
       <r>    -6.4436     0.9650     8.2877 </r>
       <r>    -6.3364     1.5048     8.4489 </r>
       <r>    -6.2293     2.2476     8.6898 </r>
       <r>    -6.1221     3.1690     9.0294 </r>
       <r>    -6.0149     3.8779     9.4449 </r>
       <r>    -5.9078     3.9989     9.8734 </r>
       <r>    -5.8006     4.0858    10.3112 </r>
       <r>    -5.6935     4.1046    10.7511 </r>
       <r>    -5.5863     4.0447    11.1845 </r>
       <r>    -5.4792     4.2454    11.6394 </r>
       <r>    -5.3720     4.5795    12.1301 </r>
       <r>    -5.2648     4.6441    12.6278 </r>
       <r>    -5.1577     4.2586    13.0841 </r>
       <r>    -5.0505     3.7530    13.4863 </r>
       <r>    -4.9434     3.0851    13.8169 </r>
       <r>    -4.8362     2.5565    14.0908 </r>
       <r>    -4.7291     2.8260    14.3937 </r>
       <r>    -4.6219     3.2374    14.7406 </r>
       <r>    -4.5147     3.5571    15.1217 </r>
       <r>    -4.4076     3.3137    15.4768 </r>
       <r>    -4.3004     2.9749    15.7956 </r>
       <r>    -4.1933     2.9074    16.1072 </r>
       <r>    -4.0861     2.9916    16.4277 </r>
       <r>    -3.9790     2.8925    16.7377 </r>
       <r>    -3.8718     2.9433    17.0531 </r>
       <r>    -3.7646     3.0931    17.3845 </r>
       <r>    -3.6575     2.9438    17.7000 </r>
       <r>    -3.5503     2.7065    17.9900 </r>
       <r>    -3.4432     2.7338    18.2829 </r>
       <r>    -3.3360     2.7657    18.5793 </r>
       <r>    -3.2289     2.5972    18.8576 </r>
       <r>    -3.1217     2.7321    19.1504 </r>
       <r>    -3.0145     3.0197    19.4740 </r>
       <r>    -2.9074     2.9725    19.7925 </r>
       <r>    -2.8002     2.6103    20.0722 </r>
       <r>    -2.6931     2.3374    20.3227 </r>
       <r>    -2.5859     2.5012    20.5907 </r>
       <r>    -2.4788     2.9173    20.9033 </r>
       <r>    -2.3716     3.3354    21.2607 </r>
       <r>    -2.2645     3.5947    21.6459 </r>
       <r>    -2.1573     3.6055    22.0323 </r>
       <r>    -2.0501     3.4517    22.4021 </r>
       <r>    -1.9430     3.9840    22.8290 </r>
       <r>    -1.8358     4.7660    23.3398 </r>
       <r>    -1.7287     5.5262    23.9319 </r>
       <r>    -1.6215     5.9718    24.5719 </r>
       <r>    -1.5144     6.2382    25.2403 </r>
       <r>    -1.4072     6.2142    25.9062 </r>
       <r>    -1.3000     5.4146    26.4864 </r>
       <r>    -1.1929     5.1975    27.0434 </r>
       <r>    -1.0857     5.2066    27.6013 </r>
       <r>    -0.9786     3.9639    28.0261 </r>
       <r>    -0.8714     2.9568    28.3429 </r>
       <r>    -0.7643     3.0487    28.6696 </r>
       <r>    -0.6571     3.8817    29.0856 </r>
       <r>    -0.5499     4.8571    29.6060 </r>
       <r>    -0.4428     5.7675    30.2241 </r>
       <r>    -0.3356     6.1475    30.8828 </r>
       <r>    -0.2285     6.0537    31.5315 </r>
       <r>    -0.1213     6.5432    32.2326 </r>
       <r>    -0.0142     6.7116    32.9518 </r>
       <r>     0.0930     7.0843    33.7110 </r>
       <r>     0.2002     8.6088    34.6335 </r>
       <r>     0.3073     8.7210    35.5680 </r>
       <r>     0.4145     7.9180    36.4165 </r>
       <r>     0.5216     5.8968    37.0484 </r>
       <r>     0.6288     4.0626    37.4837 </r>
       <r>     0.7359     3.3420    37.8418 </r>
       <r>     0.8431     3.2159    38.1864 </r>
       <r>     0.9503     3.3241    38.5426 </r>
       <r>     1.0574     3.4512    38.9124 </r>
       <r>     1.1646     3.6435    39.3029 </r>
       <r>     1.2717     3.8301    39.7133 </r>
       <r>     1.3789     3.6018    40.0992 </r>
       <r>     1.4860     3.6157    40.4867 </r>
       <r>     1.5932     3.9310    40.9079 </r>
       <r>     1.7004     4.0143    41.3381 </r>
       <r>     1.8075     3.1962    41.6806 </r>
       <r>     1.9147     2.7104    41.9710 </r>
       <r>     2.0218     2.8388    42.2752 </r>
       <r>     2.1290     2.8324    42.5787 </r>
       <r>     2.2361     2.3796    42.8337 </r>
       <r>     2.3433     1.8731    43.0344 </r>
       <r>     2.4505     1.5493    43.2005 </r>
       <r>     2.5576     1.2633    43.3358 </r>
       <r>     2.6648     0.9086    43.4332 </r>
       <r>     2.7719     0.6129    43.4989 </r>
       <r>     2.8791     0.4396    43.5460 </r>
       <r>     2.9862     0.4689    43.5962 </r>
       <r>     3.0934     0.6037    43.6609 </r>
       <r>     3.2006     0.5616    43.7211 </r>
       <r>     3.3077     0.3715    43.7609 </r>
       <r>     3.4149     0.2942    43.7924 </r>
       <r>     3.5220     0.3732    43.8324 </r>
       <r>     3.6292     0.3993    43.8752 </r>
       <r>     3.7363     0.3473    43.9124 </r>
       <r>     3.8435     0.2311    43.9372 </r>
       <r>     3.9507     0.2211    43.9609 </r>
       <r>     4.0578     0.2403    43.9866 </r>
       <r>     4.1650     0.1136    43.9988 </r>
       <r>     4.2721     0.0646    44.0057 </r>
       <r>     4.3793     0.1953    44.0267 </r>
       <r>     4.4864     0.3584    44.0651 </r>
       <r>     4.5936     0.5366    44.1226 </r>
       <r>     4.7008     0.7313    44.2009 </r>
       <r>     4.8079     0.8340    44.2903 </r>
       <r>     4.9151     0.9279    44.3897 </r>
       <r>     5.0222     1.0805    44.5055 </r>
       <r>     5.1294     1.1645    44.6303 </r>
       <r>     5.2365     1.4027    44.7806 </r>
       <r>     5.3437     1.7401    44.9671 </r>
       <r>     5.4509     2.1223    45.1945 </r>
       <r>     5.5580     2.5913    45.4722 </r>
       <r>     5.6652     2.9401    45.7872 </r>
       <r>     5.7723     3.2597    46.1365 </r>
       <r>     5.8795     3.7408    46.5374 </r>
       <r>     5.9866     4.3143    46.9997 </r>
       <r>     6.0938     4.6449    47.4974 </r>
       <r>     6.2010     4.5001    47.9796 </r>
       <r>     6.3081     4.2476    48.4348 </r>
       <r>     6.4153     4.1174    48.8760 </r>
       <r>     6.5224     4.0122    49.3059 </r>
       <r>     6.6296     3.7074    49.7032 </r>
       <r>     6.7367     3.6654    50.0960 </r>
       <r>     6.8439     3.9118    50.5152 </r>
       <r>     6.9511     4.3871    50.9853 </r>
       <r>     7.0582     4.7060    51.4896 </r>
       <r>     7.1654     4.8159    52.0056 </r>
       <r>     7.2725     4.8457    52.5249 </r>
       <r>     7.3797     4.6249    53.0204 </r>
       <r>     7.4868     4.4349    53.4957 </r>
       <r>     7.5940     4.1388    53.9392 </r>
       <r>     7.7012     3.6749    54.3330 </r>
       <r>     7.8083     3.2557    54.6818 </r>
       <r>     7.9155     3.1878    55.0234 </r>
       <r>     8.0226     3.3859    55.3863 </r>
       <r>     8.1298     3.5649    55.7683 </r>
       <r>     8.2369     3.8612    56.1820 </r>
       <r>     8.3441     4.0478    56.6158 </r>
       <r>     8.4513     4.0775    57.0527 </r>
       <r>     8.5584     3.9480    57.4757 </r>
       <r>     8.6656     4.0327    57.9079 </r>
       <r>     8.7727     4.4442    58.3841 </r>
       <r>     8.8799     4.9957    58.9194 </r>
       <r>     8.9870     5.3163    59.4891 </r>
       <r>     9.0942     5.1985    60.0462 </r>
       <r>     9.2014     5.4345    60.6285 </r>
       <r>     9.3085     5.2456    61.1906 </r>
       <r>     9.4157     4.8388    61.7091 </r>
       <r>     9.5228     4.7480    62.2179 </r>
       <r>     9.6300     4.9348    62.7467 </r>
       <r>     9.7371     5.1596    63.2996 </r>
       <r>     9.8443     5.2252    63.8595 </r>
       <r>     9.9515     5.0173    64.3972 </r>
       <r>    10.0586     4.3114    64.8592 </r>
       <r>    10.1658     4.2314    65.3126 </r>
       <r>    10.2729     4.4830    65.7930 </r>
       <r>    10.3801     5.1246    66.3421 </r>
       <r>    10.4872     5.4095    66.9218 </r>
       <r>    10.5944     4.8032    67.4365 </r>
       <r>    10.7016     4.2153    67.8882 </r>
       <r>    10.8087     3.7538    68.2904 </r>
       <r>    10.9159     3.6910    68.6859 </r>
       <r>    11.0230     4.3631    69.1535 </r>
       <r>    11.1302     5.2669    69.7179 </r>
       <r>    11.2373     5.6199    70.3201 </r>
       <r>    11.3445     5.4798    70.9073 </r>
       <r>    11.4517     5.1581    71.4600 </r>
       <r>    11.5588     4.9647    71.9920 </r>
       <r>    11.6660     4.9883    72.5265 </r>
       <r>    11.7731     5.0183    73.0643 </r>
       <r>    11.8803     5.1967    73.6212 </r>
       <r>    11.9874     5.6206    74.2234 </r>
       <r>    12.0946     5.8950    74.8551 </r>
       <r>    12.2018     5.7759    75.4741 </r>
       <r>    12.3089     5.2690    76.0387 </r>
       <r>    12.4161     5.6816    76.6475 </r>
       <r>    12.5232     6.1053    77.3017 </r>
       <r>    12.6304     5.8799    77.9318 </r>
       <r>    12.7375     5.7848    78.5517 </r>
       <r>    12.8447     5.6526    79.1574 </r>
       <r>    12.9519     5.6372    79.7615 </r>
       <r>    13.0590     5.8053    80.3835 </r>
       <r>    13.1662     5.9646    81.0227 </r>
       <r>    13.2733     6.0045    81.6661 </r>
       <r>    13.3805     5.6885    82.2757 </r>
       <r>    13.4876     5.6152    82.8774 </r>
       <r>    13.5948     5.6917    83.4873 </r>
       <r>    13.7020     5.6302    84.0906 </r>
       <r>    13.8091     5.8190    84.7141 </r>
       <r>    13.9163     5.6574    85.3204 </r>
       <r>    14.0234     5.3507    85.8937 </r>
       <r>    14.1306     5.0913    86.4393 </r>
       <r>    14.2377     5.2533    87.0022 </r>
       <r>    14.3449     5.1611    87.5553 </r>
       <r>    14.4521     4.8623    88.0763 </r>
       <r>    14.5592     5.1143    88.6244 </r>
       <r>    14.6664     5.0484    89.1653 </r>
       <r>    14.7735     4.6428    89.6628 </r>
       <r>    14.8807     4.4449    90.1391 </r>
       <r>    14.9878     5.1223    90.6880 </r>
       <r>    15.0950     5.9553    91.3262 </r>
       <r>    15.2022     5.9394    91.9626 </r>
       <r>    15.3093     5.7350    92.5772 </r>
       <r>    15.4165     6.0863    93.2294 </r>
       <r>    15.5236     6.2121    93.8950 </r>
       <r>    15.6308     5.2646    94.4592 </r>
       <r>    15.7379     4.0039    94.8882 </r>
       <r>    15.8451     3.0378    95.2137 </r>
       <r>    15.9523     2.2143    95.4510 </r>
       <r>    16.0594     1.5195    95.6138 </r>
       <r>    16.1666     1.1488    95.7369 </r>
       <r>    16.2737     0.9776    95.8417 </r>
       <r>    16.3809     0.8296    95.9306 </r>
       <r>    16.4880     0.4904    95.9831 </r>
       <r>    16.5952     0.1439    95.9986 </r>
       <r>    16.7024     0.0132    96.0000 </r>
       <r>    16.8095     0.0003    96.0000 </r>
       <r>    16.9167     0.0000    96.0000 </r>
       <r>    17.0238     0.0000    96.0000 </r>
       <r>    17.1310     0.0000    96.0000 </r>
       <r>    17.2381     0.0000    96.0000 </r>
       <r>    17.3453     0.0000    96.0000 </r>
       <r>    17.4525     0.0000    96.0000 </r>
       <r>    17.5596     0.0000    96.0000 </r>
       <r>    17.6668     0.0000    96.0000 </r>
       <r>    17.7739     0.0000    96.0000 </r>
       <r>    17.8811     0.0000    96.0000 </r>
       <r>    17.9882     0.0000    96.0000 </r>
      </set>
     </set>
    </array>
   </total>
  </dos>
 </calculation>
 <structure name="finalpos" >
  <crystal>
   <varray name="basis" >
    <v>       5.70097069       0.00000000       0.00000000 </v>
    <v>       0.00000000       4.04405810       0.00000000 </v>
    <v>       0.00000000       0.00000000       6.20187120 </v>
   </varray>
   <i name="volume">    142.98449202 </i>
   <varray name="rec_basis" >
    <v>       0.17540872       0.00000000       0.00000000 </v>
    <v>       0.00000000       0.24727637       0.00000000 </v>
    <v>       0.00000000       0.00000000       0.16124166 </v>
   </varray>
  </crystal>
  <varray name="positions" >
   <v>       0.52128988       0.50000000       0.63795770 </v>
   <v>       0.47871012       0.50000000       0.36204230 </v>
   <v>       0.97871012       0.50000000       0.63795770 </v>
   <v>       0.02128988       0.50000000       0.36204230 </v>
   <v>       0.59744966       0.50000000       0.89986832 </v>
   <v>       0.40255034       0.50000000       0.10013168 </v>
   <v>       0.90255034       0.50000000       0.89986832 </v>
   <v>       0.09744966       0.50000000       0.10013168 </v>
   <v>       0.75000000       0.79156493       0.72957940 </v>
   <v>       0.25000000       0.20843507       0.27042060 </v>
   <v>       0.75000000       0.20843507       0.72957940 </v>
   <v>       0.25000000       0.79156493       0.27042060 </v>
   <v>       0.25000000       0.50000000       0.52399303 </v>
   <v>       0.75000000       0.50000000       0.47600697 </v>
  </varray>
 </structure>
</modeling>
