       N       E                     dE             d eps       ncg     rms          rms(c)
DAV:   1     0.751661949219E+02    0.75166E+02   -0.19620E+04 16800   0.840E+02
DAV:   2    -0.920083251238E+02   -0.16717E+03   -0.15695E+03 23280   0.165E+02
DAV:   3    -0.976066729568E+02   -0.55983E+01   -0.55688E+01 24600   0.269E+01
DAV:   4    -0.976395224395E+02   -0.32849E-01   -0.32848E-01 20280   0.238E+00
DAV:   5    -0.976398918181E+02   -0.36938E-03   -0.36937E-03 24480   0.241E-01    0.123E+01
DAV:   6    -0.922243893209E+02    0.54155E+01   -0.39492E+00 24264   0.659E+00    0.680E+00
DAV:   7    -0.905727689809E+02    0.16516E+01   -0.32166E+00 25176   0.586E+00    0.171E+00
DAV:   8    -0.905852109784E+02   -0.12442E-01   -0.23512E-01 18576   0.167E+00    0.704E-01
DAV:   9    -0.905993781876E+02   -0.14167E-01   -0.16890E-02 23328   0.438E-01    0.198E-01
DAV:  10    -0.906034186387E+02   -0.40405E-02   -0.20921E-03 19344   0.161E-01    0.609E-02
DAV:  11    -0.906044832450E+02   -0.10646E-02   -0.62463E-04 21408   0.865E-02    0.320E-02
DAV:  12    -0.906045982969E+02   -0.11505E-03   -0.92003E-05 20976   0.368E-02    0.428E-03
DAV:  13    -0.906046031528E+02   -0.48558E-05   -0.41128E-06 23304   0.876E-03    0.181E-03
DAV:  14    -0.906046038307E+02   -0.67791E-06   -0.28273E-07 20688   0.228E-03
   1 F= -.90604604E+02 E0= -.90602997E+02  d E =-.321338E-02
