  14  14   0   0
  0.1021318E+02  0.5700971E-09  0.4044058E-09  0.6201871E-09  0.5000000E-15
  1.000000000000000E-004
  CAR 
 Dielectric                              
     46.51847130    -15.51868062 4000      1.91343942      1.00000000
    -15.519  0.0000E+00  0.0000E+00
    -15.503  0.0000E+00  0.0000E+00
    -15.488  0.0000E+00  0.0000E+00
    -15.472  0.0000E+00  0.0000E+00
    -15.457  0.0000E+00  0.0000E+00
    -15.441  0.0000E+00  0.0000E+00
    -15.426  0.0000E+00  0.0000E+00
    -15.410  0.0000E+00  0.0000E+00
    -15.395  0.0000E+00  0.0000E+00
    -15.379  0.0000E+00  0.0000E+00
    -15.364  0.0000E+00  0.0000E+00
    -15.348  0.0000E+00  0.0000E+00
    -15.333  0.0000E+00  0.0000E+00
    -15.317  0.0000E+00  0.0000E+00
    -15.301  0.0000E+00  0.0000E+00
    -15.286  0.0000E+00  0.0000E+00
    -15.270  0.0000E+00  0.0000E+00
    -15.255  0.0000E+00  0.0000E+00
    -15.239  0.0000E+00  0.0000E+00
    -15.224  0.0000E+00  0.0000E+00
    -15.208  0.0000E+00  0.0000E+00
    -15.193  0.0000E+00  0.0000E+00
    -15.177  0.0000E+00  0.0000E+00
    -15.162  0.0000E+00  0.0000E+00
    -15.146  0.0000E+00  0.0000E+00
    -15.131  0.0000E+00  0.0000E+00
    -15.115  0.0000E+00  0.0000E+00
    -15.100  0.0000E+00  0.0000E+00
    -15.084  0.0000E+00  0.0000E+00
    -15.069  0.0000E+00  0.0000E+00
    -15.053  0.0000E+00  0.0000E+00
    -15.038  0.0000E+00  0.0000E+00
    -15.022  0.0000E+00  0.0000E+00
    -15.007  0.0000E+00  0.0000E+00
    -14.991  0.0000E+00  0.0000E+00
    -14.976  0.0000E+00  0.0000E+00
    -14.960  0.0000E+00  0.0000E+00
    -14.945  0.0000E+00  0.0000E+00
    -14.929  0.0000E+00  0.0000E+00
    -14.914  0.0000E+00  0.0000E+00
    -14.898  0.0000E+00  0.0000E+00
    -14.883  0.0000E+00  0.0000E+00
    -14.867  0.0000E+00  0.0000E+00
    -14.852  0.0000E+00  0.0000E+00
    -14.836  0.0000E+00  0.0000E+00
    -14.821  0.0000E+00  0.0000E+00
    -14.805  0.0000E+00  0.0000E+00
    -14.790  0.0000E+00  0.0000E+00
    -14.774  0.0000E+00  0.0000E+00
    -14.759  0.0000E+00  0.0000E+00
    -14.743  0.0000E+00  0.0000E+00
    -14.728  0.0000E+00  0.0000E+00
    -14.712  0.0000E+00  0.0000E+00
    -14.696  0.0000E+00  0.0000E+00
    -14.681  0.0000E+00  0.0000E+00
    -14.665  0.0000E+00  0.0000E+00
    -14.650  0.0000E+00  0.0000E+00
    -14.634  0.0000E+00  0.0000E+00
    -14.619  0.0000E+00  0.0000E+00
    -14.603  0.0000E+00  0.0000E+00
    -14.588  0.0000E+00  0.0000E+00
    -14.572  0.0000E+00  0.0000E+00
    -14.557  0.0000E+00  0.0000E+00
    -14.541  0.0000E+00  0.0000E+00
    -14.526  0.0000E+00  0.0000E+00
    -14.510  0.0000E+00  0.0000E+00
    -14.495  0.0000E+00  0.0000E+00
    -14.479  0.0000E+00  0.0000E+00
    -14.464  0.0000E+00  0.0000E+00
    -14.448  0.0000E+00  0.0000E+00
    -14.433  0.0000E+00  0.0000E+00
    -14.417  0.0000E+00  0.0000E+00
    -14.402  0.0000E+00  0.0000E+00
    -14.386  0.0000E+00  0.0000E+00
    -14.371  0.0000E+00  0.0000E+00
    -14.355  0.0000E+00  0.0000E+00
    -14.340  0.0000E+00  0.0000E+00
    -14.324  0.0000E+00  0.0000E+00
    -14.309  0.0000E+00  0.0000E+00
    -14.293  0.0000E+00  0.0000E+00
    -14.278  0.0000E+00  0.0000E+00
    -14.262  0.0000E+00  0.0000E+00
    -14.247  0.0000E+00  0.0000E+00
    -14.231  0.0000E+00  0.0000E+00
    -14.216  0.0000E+00  0.0000E+00
    -14.200  0.0000E+00  0.0000E+00
    -14.185  0.0000E+00  0.0000E+00
    -14.169  0.0000E+00  0.0000E+00
    -14.154  0.0000E+00  0.0000E+00
    -14.138  0.0000E+00  0.0000E+00
    -14.122  0.0000E+00  0.0000E+00
    -14.107  0.0000E+00  0.0000E+00
    -14.091  0.0000E+00  0.0000E+00
    -14.076  0.0000E+00  0.0000E+00
    -14.060  0.0000E+00  0.0000E+00
    -14.045  0.0000E+00  0.0000E+00
    -14.029  0.0000E+00  0.0000E+00
    -14.014  0.0000E+00  0.0000E+00
    -13.998  0.0000E+00  0.0000E+00
    -13.983  0.0000E+00  0.0000E+00
    -13.967  0.0000E+00  0.0000E+00
    -13.952  0.0000E+00  0.0000E+00
    -13.936  0.0000E+00  0.0000E+00
    -13.921  0.0000E+00  0.0000E+00
    -13.905  0.0000E+00  0.0000E+00
    -13.890  0.0000E+00  0.0000E+00
    -13.874  0.0000E+00  0.0000E+00
    -13.859  0.0000E+00  0.0000E+00
    -13.843  0.0000E+00  0.0000E+00
    -13.828  0.0000E+00  0.0000E+00
    -13.812  0.0000E+00  0.0000E+00
    -13.797  0.0000E+00  0.0000E+00
    -13.781  0.0000E+00  0.0000E+00
    -13.766  0.0000E+00  0.0000E+00
    -13.750  0.0000E+00  0.0000E+00
    -13.735  0.0000E+00  0.0000E+00
    -13.719  0.0000E+00  0.0000E+00
    -13.704  0.0000E+00  0.0000E+00
    -13.688  0.0000E+00  0.0000E+00
    -13.673  0.0000E+00  0.0000E+00
    -13.657  0.0000E+00  0.0000E+00
    -13.642  0.0000E+00  0.0000E+00
    -13.626  0.0000E+00  0.0000E+00
    -13.611  0.0000E+00  0.0000E+00
    -13.595  0.0000E+00  0.0000E+00
    -13.580  0.0000E+00  0.0000E+00
    -13.564  0.0000E+00  0.0000E+00
    -13.549  0.0000E+00  0.0000E+00
    -13.533  0.0000E+00  0.0000E+00
    -13.517  0.0000E+00  0.0000E+00
    -13.502  0.0000E+00  0.0000E+00
    -13.486  0.0000E+00  0.0000E+00
    -13.471  0.0000E+00  0.0000E+00
    -13.455  0.0000E+00  0.0000E+00
    -13.440  0.0000E+00  0.0000E+00
    -13.424  0.0000E+00  0.0000E+00
    -13.409  0.0000E+00  0.0000E+00
    -13.393  0.0000E+00  0.0000E+00
    -13.378  0.0000E+00  0.0000E+00
    -13.362  0.0000E+00  0.0000E+00
    -13.347  0.0000E+00  0.0000E+00
    -13.331  0.0000E+00  0.0000E+00
    -13.316  0.0000E+00  0.0000E+00
    -13.300  0.0000E+00  0.0000E+00
    -13.285  0.0000E+00  0.0000E+00
    -13.269  0.0000E+00  0.0000E+00
    -13.254  0.0000E+00  0.0000E+00
    -13.238  0.0000E+00  0.0000E+00
    -13.223  0.0000E+00  0.0000E+00
    -13.207  0.0000E+00  0.0000E+00
    -13.192  0.0000E+00  0.0000E+00
    -13.176  0.0000E+00  0.0000E+00
    -13.161  0.0000E+00  0.0000E+00
    -13.145  0.0000E+00  0.0000E+00
    -13.130  0.0000E+00  0.0000E+00
    -13.114  0.0000E+00  0.0000E+00
    -13.099  0.0000E+00  0.0000E+00
    -13.083  0.0000E+00  0.0000E+00
    -13.068  0.0000E+00  0.0000E+00
    -13.052  0.0000E+00  0.0000E+00
    -13.037  0.0000E+00  0.0000E+00
    -13.021  0.0000E+00  0.0000E+00
    -13.006  0.0000E+00  0.0000E+00
    -12.990  0.0000E+00  0.0000E+00
    -12.975  0.0000E+00  0.0000E+00
    -12.959  0.0000E+00  0.0000E+00
    -12.943  0.0000E+00  0.0000E+00
    -12.928  0.0000E+00  0.0000E+00
    -12.912  0.0000E+00  0.0000E+00
    -12.897  0.0000E+00  0.0000E+00
    -12.881  0.0000E+00  0.0000E+00
    -12.866  0.0000E+00  0.0000E+00
    -12.850  0.0000E+00  0.0000E+00
    -12.835  0.0000E+00  0.0000E+00
    -12.819  0.0000E+00  0.0000E+00
    -12.804  0.0000E+00  0.0000E+00
    -12.788  0.0000E+00  0.0000E+00
    -12.773  0.0000E+00  0.0000E+00
    -12.757  0.1623E-17  0.2518E-19
    -12.742  0.2119E-10  0.3286E-12
    -12.726  0.2289E-05  0.3550E-07
    -12.711  0.3430E-02  0.5324E-04
    -12.695  0.1441E+00  0.2289E-02
    -12.680  0.6091E+00  0.1174E-01
    -12.664  0.9955E+00  0.2718E-01
    -12.649  0.1293E+01  0.4724E-01
    -12.633  0.1585E+01  0.7182E-01
    -12.618  0.1884E+01  0.1011E+00
    -12.602  0.2232E+01  0.1357E+00
    -12.587  0.2733E+01  0.1781E+00
    -12.571  0.2965E+01  0.2241E+00
    -12.556  0.3043E+01  0.2713E+00
    -12.540  0.3120E+01  0.3197E+00
    -12.525  0.3146E+01  0.3685E+00
    -12.509  0.3294E+01  0.4196E+00
    -12.494  0.3337E+01  0.4714E+00
    -12.478  0.3427E+01  0.5245E+00
    -12.463  0.3655E+01  0.5812E+00
    -12.447  0.3694E+01  0.6385E+00
    -12.432  0.4026E+01  0.7010E+00
    -12.416  0.4431E+01  0.7697E+00
    -12.401  0.4548E+01  0.8403E+00
    -12.385  0.4494E+01  0.9100E+00
    -12.370  0.4560E+01  0.9807E+00
    -12.354  0.4500E+01  0.1051E+01
    -12.338  0.4335E+01  0.1118E+01
    -12.323  0.4366E+01  0.1186E+01
    -12.307  0.3946E+01  0.1247E+01
    -12.292  0.3493E+01  0.1301E+01
    -12.276  0.3426E+01  0.1354E+01
    -12.261  0.3350E+01  0.1406E+01
    -12.245  0.3151E+01  0.1455E+01
    -12.230  0.2988E+01  0.1501E+01
    -12.214  0.3025E+01  0.1548E+01
    -12.199  0.2966E+01  0.1594E+01
    -12.183  0.2863E+01  0.1639E+01
    -12.168  0.2715E+01  0.1681E+01
    -12.152  0.2745E+01  0.1723E+01
    -12.137  0.2849E+01  0.1768E+01
    -12.121  0.2665E+01  0.1809E+01
    -12.106  0.2459E+01  0.1847E+01
    -12.090  0.2696E+01  0.1889E+01
    -12.075  0.2787E+01  0.1932E+01
    -12.059  0.2458E+01  0.1970E+01
    -12.044  0.2271E+01  0.2005E+01
    -12.028  0.2884E+01  0.2050E+01
    -12.013  0.2584E+01  0.2090E+01
    -11.997  0.2242E+01  0.2125E+01
    -11.982  0.2549E+01  0.2165E+01
    -11.966  0.2687E+01  0.2206E+01
    -11.951  0.2460E+01  0.2244E+01
    -11.935  0.2471E+01  0.2283E+01
    -11.920  0.2431E+01  0.2320E+01
    -11.904  0.2606E+01  0.2361E+01
    -11.889  0.2698E+01  0.2403E+01
    -11.873  0.2404E+01  0.2440E+01
    -11.858  0.2449E+01  0.2478E+01
    -11.842  0.2816E+01  0.2522E+01
    -11.827  0.2766E+01  0.2565E+01
    -11.811  0.2362E+01  0.2601E+01
    -11.796  0.2720E+01  0.2643E+01
    -11.780  0.3141E+01  0.2692E+01
    -11.764  0.2665E+01  0.2734E+01
    -11.749  0.2718E+01  0.2776E+01
    -11.733  0.3266E+01  0.2826E+01
    -11.718  0.3325E+01  0.2878E+01
    -11.702  0.3274E+01  0.2929E+01
    -11.687  0.3696E+01  0.2986E+01
    -11.671  0.3704E+01  0.3044E+01
    -11.656  0.3614E+01  0.3100E+01
    -11.640  0.3563E+01  0.3155E+01
    -11.625  0.3500E+01  0.3209E+01
    -11.609  0.3625E+01  0.3265E+01
    -11.594  0.3568E+01  0.3321E+01
    -11.578  0.3395E+01  0.3373E+01
    -11.563  0.3530E+01  0.3428E+01
    -11.547  0.3525E+01  0.3483E+01
    -11.532  0.3442E+01  0.3536E+01
    -11.516  0.3341E+01  0.3588E+01
    -11.501  0.3186E+01  0.3638E+01
    -11.485  0.2955E+01  0.3683E+01
    -11.470  0.2735E+01  0.3726E+01
    -11.454  0.2694E+01  0.3768E+01
    -11.439  0.2565E+01  0.3807E+01
    -11.423  0.2125E+01  0.3840E+01
    -11.408  0.1858E+01  0.3869E+01
    -11.392  0.1650E+01  0.3895E+01
    -11.377  0.1399E+01  0.3916E+01
    -11.361  0.1282E+01  0.3936E+01
    -11.346  0.1089E+01  0.3953E+01
    -11.330  0.9436E+00  0.3968E+01
    -11.315  0.7888E+00  0.3980E+01
    -11.299  0.6315E+00  0.3990E+01
    -11.284  0.4432E+00  0.3997E+01
    -11.268  0.1908E+00  0.4000E+01
    -11.253  0.1614E-01  0.4000E+01
    -11.237  0.6615E-04  0.4000E+01
    -11.222  0.4538E-08  0.4000E+01
    -11.206  0.3385E-14  0.4000E+01
    -11.191  0.0000E+00  0.4000E+01
    -11.175  0.0000E+00  0.4000E+01
    -11.159  0.0000E+00  0.4000E+01
    -11.144  0.0000E+00  0.4000E+01
    -11.128  0.0000E+00  0.4000E+01
    -11.113  0.0000E+00  0.4000E+01
    -11.097  0.0000E+00  0.4000E+01
    -11.082  0.0000E+00  0.4000E+01
    -11.066  0.0000E+00  0.4000E+01
    -11.051  0.0000E+00  0.4000E+01
    -11.035  0.0000E+00  0.4000E+01
    -11.020  0.0000E+00  0.4000E+01
    -11.004  0.0000E+00  0.4000E+01
    -10.989  0.0000E+00  0.4000E+01
    -10.973  0.0000E+00  0.4000E+01
    -10.958  0.0000E+00  0.4000E+01
    -10.942  0.0000E+00  0.4000E+01
    -10.927  0.0000E+00  0.4000E+01
    -10.911  0.0000E+00  0.4000E+01
    -10.896  0.0000E+00  0.4000E+01
    -10.880  0.0000E+00  0.4000E+01
    -10.865  0.0000E+00  0.4000E+01
    -10.849  0.0000E+00  0.4000E+01
    -10.834  0.0000E+00  0.4000E+01
    -10.818  0.0000E+00  0.4000E+01
    -10.803  0.0000E+00  0.4000E+01
    -10.787  0.0000E+00  0.4000E+01
    -10.772  0.0000E+00  0.4000E+01
    -10.756  0.0000E+00  0.4000E+01
    -10.741  0.0000E+00  0.4000E+01
    -10.725  0.0000E+00  0.4000E+01
    -10.710  0.0000E+00  0.4000E+01
    -10.694  0.0000E+00  0.4000E+01
    -10.679  0.0000E+00  0.4000E+01
    -10.663  0.0000E+00  0.4000E+01
    -10.648  0.0000E+00  0.4000E+01
    -10.632  0.0000E+00  0.4000E+01
    -10.617  0.0000E+00  0.4000E+01
    -10.601  0.0000E+00  0.4000E+01
    -10.585  0.0000E+00  0.4000E+01
    -10.570  0.0000E+00  0.4000E+01
    -10.554  0.0000E+00  0.4000E+01
    -10.539  0.0000E+00  0.4000E+01
    -10.523  0.0000E+00  0.4000E+01
    -10.508  0.0000E+00  0.4000E+01
    -10.492  0.0000E+00  0.4000E+01
    -10.477  0.0000E+00  0.4000E+01
    -10.461  0.0000E+00  0.4000E+01
    -10.446  0.0000E+00  0.4000E+01
    -10.430  0.0000E+00  0.4000E+01
    -10.415  0.0000E+00  0.4000E+01
    -10.399  0.0000E+00  0.4000E+01
    -10.384  0.0000E+00  0.4000E+01
    -10.368  0.0000E+00  0.4000E+01
    -10.353  0.0000E+00  0.4000E+01
    -10.337  0.0000E+00  0.4000E+01
    -10.322  0.0000E+00  0.4000E+01
    -10.306  0.0000E+00  0.4000E+01
    -10.291  0.0000E+00  0.4000E+01
    -10.275  0.0000E+00  0.4000E+01
    -10.260  0.0000E+00  0.4000E+01
    -10.244  0.0000E+00  0.4000E+01
    -10.229  0.0000E+00  0.4000E+01
    -10.213  0.0000E+00  0.4000E+01
    -10.198  0.0000E+00  0.4000E+01
    -10.182  0.0000E+00  0.4000E+01
    -10.167  0.0000E+00  0.4000E+01
    -10.151  0.0000E+00  0.4000E+01
    -10.136  0.0000E+00  0.4000E+01
    -10.120  0.0000E+00  0.4000E+01
    -10.105  0.0000E+00  0.4000E+01
    -10.089  0.0000E+00  0.4000E+01
    -10.074  0.0000E+00  0.4000E+01
    -10.058  0.0000E+00  0.4000E+01
    -10.043  0.0000E+00  0.4000E+01
    -10.027  0.0000E+00  0.4000E+01
    -10.012  0.0000E+00  0.4000E+01
     -9.996  0.0000E+00  0.4000E+01
     -9.980  0.0000E+00  0.4000E+01
     -9.965  0.0000E+00  0.4000E+01
     -9.949  0.0000E+00  0.4000E+01
     -9.934  0.0000E+00  0.4000E+01
     -9.918  0.0000E+00  0.4000E+01
     -9.903  0.0000E+00  0.4000E+01
     -9.887  0.0000E+00  0.4000E+01
     -9.872  0.0000E+00  0.4000E+01
     -9.856  0.0000E+00  0.4000E+01
     -9.841  0.0000E+00  0.4000E+01
     -9.825  0.0000E+00  0.4000E+01
     -9.810  0.0000E+00  0.4000E+01
     -9.794  0.0000E+00  0.4000E+01
     -9.779  0.0000E+00  0.4000E+01
     -9.763  0.0000E+00  0.4000E+01
     -9.748  0.0000E+00  0.4000E+01
     -9.732  0.0000E+00  0.4000E+01
     -9.717  0.0000E+00  0.4000E+01
     -9.701  0.0000E+00  0.4000E+01
     -9.686  0.0000E+00  0.4000E+01
     -9.670  0.0000E+00  0.4000E+01
     -9.655  0.0000E+00  0.4000E+01
     -9.639  0.0000E+00  0.4000E+01
     -9.624  0.0000E+00  0.4000E+01
     -9.608  0.0000E+00  0.4000E+01
     -9.593  0.0000E+00  0.4000E+01
     -9.577  0.0000E+00  0.4000E+01
     -9.562  0.0000E+00  0.4000E+01
     -9.546  0.0000E+00  0.4000E+01
     -9.531  0.0000E+00  0.4000E+01
     -9.515  0.0000E+00  0.4000E+01
     -9.500  0.0000E+00  0.4000E+01
     -9.484  0.0000E+00  0.4000E+01
     -9.469  0.0000E+00  0.4000E+01
     -9.453  0.0000E+00  0.4000E+01
     -9.438  0.0000E+00  0.4000E+01
     -9.422  0.0000E+00  0.4000E+01
     -9.406  0.0000E+00  0.4000E+01
     -9.391  0.0000E+00  0.4000E+01
     -9.375  0.0000E+00  0.4000E+01
     -9.360  0.0000E+00  0.4000E+01
     -9.344  0.0000E+00  0.4000E+01
     -9.329  0.0000E+00  0.4000E+01
     -9.313  0.0000E+00  0.4000E+01
     -9.298  0.0000E+00  0.4000E+01
     -9.282  0.0000E+00  0.4000E+01
     -9.267  0.0000E+00  0.4000E+01
     -9.251  0.0000E+00  0.4000E+01
     -9.236  0.0000E+00  0.4000E+01
     -9.220  0.0000E+00  0.4000E+01
     -9.205  0.0000E+00  0.4000E+01
     -9.189  0.0000E+00  0.4000E+01
     -9.174  0.0000E+00  0.4000E+01
     -9.158  0.0000E+00  0.4000E+01
     -9.143  0.0000E+00  0.4000E+01
     -9.127  0.0000E+00  0.4000E+01
     -9.112  0.0000E+00  0.4000E+01
     -9.096  0.0000E+00  0.4000E+01
     -9.081  0.0000E+00  0.4000E+01
     -9.065  0.0000E+00  0.4000E+01
     -9.050  0.0000E+00  0.4000E+01
     -9.034  0.0000E+00  0.4000E+01
     -9.019  0.0000E+00  0.4000E+01
     -9.003  0.0000E+00  0.4000E+01
     -8.988  0.0000E+00  0.4000E+01
     -8.972  0.0000E+00  0.4000E+01
     -8.957  0.0000E+00  0.4000E+01
     -8.941  0.0000E+00  0.4000E+01
     -8.926  0.0000E+00  0.4000E+01
     -8.910  0.0000E+00  0.4000E+01
     -8.895  0.0000E+00  0.4000E+01
     -8.879  0.1007E-13  0.4000E+01
     -8.864  0.1196E-07  0.4000E+01
     -8.848  0.1578E-03  0.4000E+01
     -8.833  0.3580E-01  0.4001E+01
     -8.817  0.4028E+00  0.4007E+01
     -8.801  0.9129E+00  0.4021E+01
     -8.786  0.1285E+01  0.4041E+01
     -8.770  0.1585E+01  0.4065E+01
     -8.755  0.1897E+01  0.4095E+01
     -8.739  0.2163E+01  0.4128E+01
     -8.724  0.2507E+01  0.4167E+01
     -8.708  0.2770E+01  0.4210E+01
     -8.693  0.3228E+01  0.4260E+01
     -8.677  0.3577E+01  0.4316E+01
     -8.662  0.4340E+01  0.4383E+01
     -8.646  0.5865E+01  0.4474E+01
     -8.631  0.6620E+01  0.4577E+01
     -8.615  0.6563E+01  0.4679E+01
     -8.600  0.6692E+01  0.4783E+01
     -8.584  0.6605E+01  0.4885E+01
     -8.569  0.6858E+01  0.4991E+01
     -8.553  0.6860E+01  0.5098E+01
     -8.538  0.6749E+01  0.5202E+01
     -8.522  0.6791E+01  0.5308E+01
     -8.507  0.6629E+01  0.5411E+01
     -8.491  0.6687E+01  0.5514E+01
     -8.476  0.6740E+01  0.5619E+01
     -8.460  0.7033E+01  0.5728E+01
     -8.445  0.7187E+01  0.5840E+01
     -8.429  0.5953E+01  0.5932E+01
     -8.414  0.4652E+01  0.6004E+01
     -8.398  0.3979E+01  0.6066E+01
     -8.383  0.3629E+01  0.6122E+01
     -8.367  0.3598E+01  0.6178E+01
     -8.352  0.4049E+01  0.6241E+01
     -8.336  0.4787E+01  0.6315E+01
     -8.321  0.5195E+01  0.6396E+01
     -8.305  0.5085E+01  0.6474E+01
     -8.290  0.5083E+01  0.6553E+01
     -8.274  0.5048E+01  0.6632E+01
     -8.259  0.4947E+01  0.6708E+01
     -8.243  0.4778E+01  0.6783E+01
     -8.227  0.4704E+01  0.6855E+01
     -8.212  0.4884E+01  0.6931E+01
     -8.196  0.4527E+01  0.7002E+01
     -8.181  0.4494E+01  0.7071E+01
     -8.165  0.4611E+01  0.7143E+01
     -8.150  0.4514E+01  0.7213E+01
     -8.134  0.4454E+01  0.7282E+01
     -8.119  0.4460E+01  0.7351E+01
     -8.103  0.4821E+01  0.7426E+01
     -8.088  0.4887E+01  0.7502E+01
     -8.072  0.4195E+01  0.7567E+01
     -8.057  0.3592E+01  0.7622E+01
     -8.041  0.3151E+01  0.7671E+01
     -8.026  0.2883E+01  0.7716E+01
     -8.010  0.2451E+01  0.7754E+01
     -7.995  0.2338E+01  0.7790E+01
     -7.979  0.2156E+01  0.7824E+01
     -7.964  0.1660E+01  0.7850E+01
     -7.948  0.1528E+01  0.7873E+01
     -7.933  0.1444E+01  0.7896E+01
     -7.917  0.1130E+01  0.7913E+01
     -7.902  0.1058E+01  0.7930E+01
     -7.886  0.9353E+00  0.7944E+01
     -7.871  0.8155E+00  0.7957E+01
     -7.855  0.6719E+00  0.7967E+01
     -7.840  0.6297E+00  0.7977E+01
     -7.824  0.4829E+00  0.7984E+01
     -7.809  0.4251E+00  0.7991E+01
     -7.793  0.3074E+00  0.7996E+01
     -7.778  0.2067E+00  0.7999E+01
     -7.762  0.6055E-01  0.8000E+01
     -7.747  0.2472E-02  0.8000E+01
     -7.731  0.2690E-05  0.8000E+01
     -7.716  0.3524E-10  0.8000E+01
     -7.700  0.6491E-17  0.8000E+01
     -7.685  0.0000E+00  0.8000E+01
     -7.669  0.0000E+00  0.8000E+01
     -7.654  0.0000E+00  0.8000E+01
     -7.638  0.0000E+00  0.8000E+01
     -7.622  0.0000E+00  0.8000E+01
     -7.607  0.0000E+00  0.8000E+01
     -7.591  0.0000E+00  0.8000E+01
     -7.576  0.0000E+00  0.8000E+01
     -7.560  0.0000E+00  0.8000E+01
     -7.545  0.0000E+00  0.8000E+01
     -7.529  0.0000E+00  0.8000E+01
     -7.514  0.0000E+00  0.8000E+01
     -7.498  0.0000E+00  0.8000E+01
     -7.483  0.0000E+00  0.8000E+01
     -7.467  0.0000E+00  0.8000E+01
     -7.452  0.0000E+00  0.8000E+01
     -7.436  0.0000E+00  0.8000E+01
     -7.421  0.0000E+00  0.8000E+01
     -7.405  0.0000E+00  0.8000E+01
     -7.390  0.0000E+00  0.8000E+01
     -7.374  0.0000E+00  0.8000E+01
     -7.359  0.0000E+00  0.8000E+01
     -7.343  0.0000E+00  0.8000E+01
     -7.328  0.0000E+00  0.8000E+01
     -7.312  0.0000E+00  0.8000E+01
     -7.297  0.0000E+00  0.8000E+01
     -7.281  0.0000E+00  0.8000E+01
     -7.266  0.0000E+00  0.8000E+01
     -7.250  0.0000E+00  0.8000E+01
     -7.235  0.0000E+00  0.8000E+01
     -7.219  0.0000E+00  0.8000E+01
     -7.204  0.0000E+00  0.8000E+01
     -7.188  0.0000E+00  0.8000E+01
     -7.173  0.0000E+00  0.8000E+01
     -7.157  0.0000E+00  0.8000E+01
     -7.142  0.0000E+00  0.8000E+01
     -7.126  0.0000E+00  0.8000E+01
     -7.111  0.0000E+00  0.8000E+01
     -7.095  0.0000E+00  0.8000E+01
     -7.080  0.0000E+00  0.8000E+01
     -7.064  0.0000E+00  0.8000E+01
     -7.048  0.0000E+00  0.8000E+01
     -7.033  0.0000E+00  0.8000E+01
     -7.017  0.2452E-14  0.8000E+01
     -7.002  0.3460E-08  0.8000E+01
     -6.986  0.4967E-04  0.8000E+01
     -6.971  0.9768E-02  0.8000E+01
     -6.955  0.6058E-01  0.8001E+01
     -6.940  0.8789E-01  0.8002E+01
     -6.924  0.1478E+00  0.8005E+01
     -6.909  0.1535E+00  0.8007E+01
     -6.893  0.1953E+00  0.8010E+01
     -6.878  0.1823E+00  0.8013E+01
     -6.862  0.2319E+00  0.8017E+01
     -6.847  0.2687E+00  0.8021E+01
     -6.831  0.2914E+00  0.8025E+01
     -6.816  0.2939E+00  0.8030E+01
     -6.800  0.3486E+00  0.8035E+01
     -6.785  0.2904E+00  0.8040E+01
     -6.769  0.3118E+00  0.8045E+01
     -6.754  0.4686E+00  0.8052E+01
     -6.738  0.4737E+00  0.8059E+01
     -6.723  0.4721E+00  0.8067E+01
     -6.707  0.4375E+00  0.8073E+01
     -6.692  0.4905E+00  0.8081E+01
     -6.676  0.4832E+00  0.8088E+01
     -6.661  0.5476E+00  0.8097E+01
     -6.645  0.6821E+00  0.8107E+01
     -6.630  0.7703E+00  0.8119E+01
     -6.614  0.7468E+00  0.8131E+01
     -6.599  0.6995E+00  0.8142E+01
     -6.583  0.7158E+00  0.8153E+01
     -6.568  0.8061E+00  0.8165E+01
     -6.552  0.7404E+00  0.8177E+01
     -6.537  0.7569E+00  0.8189E+01
     -6.521  0.7963E+00  0.8201E+01
     -6.506  0.9152E+00  0.8215E+01
     -6.490  0.8758E+00  0.8229E+01
     -6.475  0.9274E+00  0.8243E+01
     -6.459  0.1009E+01  0.8259E+01
     -6.443  0.1127E+01  0.8276E+01
     -6.428  0.1157E+01  0.8294E+01
     -6.412  0.1171E+01  0.8312E+01
     -6.397  0.1205E+01  0.8331E+01
     -6.381  0.1509E+01  0.8355E+01
     -6.366  0.1814E+01  0.8383E+01
     -6.350  0.1829E+01  0.8411E+01
     -6.335  0.1844E+01  0.8440E+01
     -6.319  0.1780E+01  0.8467E+01
     -6.304  0.1716E+01  0.8494E+01
     -6.288  0.1980E+01  0.8525E+01
     -6.273  0.2199E+01  0.8559E+01
     -6.257  0.2286E+01  0.8594E+01
     -6.242  0.2423E+01  0.8632E+01
     -6.226  0.2572E+01  0.8672E+01
     -6.211  0.2564E+01  0.8712E+01
     -6.195  0.3005E+01  0.8758E+01
     -6.180  0.3272E+01  0.8809E+01
     -6.164  0.3667E+01  0.8866E+01
     -6.149  0.3650E+01  0.8922E+01
     -6.133  0.3446E+01  0.8976E+01
     -6.118  0.3595E+01  0.9032E+01
     -6.102  0.3933E+01  0.9093E+01
     -6.087  0.3946E+01  0.9154E+01
     -6.071  0.3970E+01  0.9215E+01
     -6.056  0.3990E+01  0.9277E+01
     -6.040  0.4070E+01  0.9340E+01
     -6.025  0.3933E+01  0.9401E+01
     -6.009  0.3968E+01  0.9463E+01
     -5.994  0.4071E+01  0.9526E+01
     -5.978  0.4177E+01  0.9591E+01
     -5.963  0.4173E+01  0.9656E+01
     -5.947  0.4105E+01  0.9719E+01
     -5.932  0.3970E+01  0.9781E+01
     -5.916  0.3979E+01  0.9843E+01
     -5.901  0.4087E+01  0.9906E+01
     -5.885  0.3937E+01  0.9967E+01
     -5.869  0.3854E+01  0.1003E+02
     -5.854  0.3764E+01  0.1009E+02
     -5.838  0.3835E+01  0.1014E+02
     -5.823  0.4164E+01  0.1021E+02
     -5.807  0.4367E+01  0.1028E+02
     -5.792  0.4570E+01  0.1035E+02
     -5.776  0.4409E+01  0.1042E+02
     -5.761  0.4396E+01  0.1048E+02
     -5.745  0.4250E+01  0.1055E+02
     -5.730  0.3801E+01  0.1061E+02
     -5.714  0.4018E+01  0.1067E+02
     -5.699  0.3986E+01  0.1073E+02
     -5.683  0.4087E+01  0.1080E+02
     -5.668  0.4023E+01  0.1086E+02
     -5.652  0.3775E+01  0.1092E+02
     -5.637  0.3922E+01  0.1098E+02
     -5.621  0.3791E+01  0.1104E+02
     -5.606  0.4235E+01  0.1110E+02
     -5.590  0.4053E+01  0.1117E+02
     -5.575  0.4093E+01  0.1123E+02
     -5.559  0.4006E+01  0.1129E+02
     -5.544  0.4343E+01  0.1136E+02
     -5.528  0.4209E+01  0.1142E+02
     -5.513  0.4249E+01  0.1149E+02
     -5.497  0.4229E+01  0.1156E+02
     -5.482  0.4001E+01  0.1162E+02
     -5.466  0.4328E+01  0.1169E+02
     -5.451  0.4770E+01  0.1176E+02
     -5.435  0.4388E+01  0.1183E+02
     -5.420  0.4534E+01  0.1190E+02
     -5.404  0.4712E+01  0.1197E+02
     -5.389  0.4984E+01  0.1205E+02
     -5.373  0.5063E+01  0.1213E+02
     -5.358  0.4992E+01  0.1220E+02
     -5.342  0.5072E+01  0.1228E+02
     -5.327  0.4758E+01  0.1236E+02
     -5.311  0.4628E+01  0.1243E+02
     -5.296  0.4313E+01  0.1250E+02
     -5.280  0.4542E+01  0.1257E+02
     -5.264  0.4765E+01  0.1264E+02
     -5.249  0.4564E+01  0.1271E+02
     -5.233  0.4359E+01  0.1278E+02
     -5.218  0.4529E+01  0.1285E+02
     -5.202  0.4321E+01  0.1292E+02
     -5.187  0.4012E+01  0.1298E+02
     -5.171  0.3964E+01  0.1304E+02
     -5.156  0.4241E+01  0.1310E+02
     -5.140  0.3949E+01  0.1317E+02
     -5.125  0.3899E+01  0.1323E+02
     -5.109  0.3934E+01  0.1329E+02
     -5.094  0.3751E+01  0.1335E+02
     -5.078  0.3686E+01  0.1340E+02
     -5.063  0.3387E+01  0.1346E+02
     -5.047  0.3498E+01  0.1351E+02
     -5.032  0.3537E+01  0.1356E+02
     -5.016  0.3710E+01  0.1362E+02
     -5.001  0.3489E+01  0.1368E+02
     -4.985  0.3146E+01  0.1373E+02
     -4.970  0.2777E+01  0.1377E+02
     -4.954  0.2502E+01  0.1381E+02
     -4.939  0.2406E+01  0.1384E+02
     -4.923  0.2515E+01  0.1388E+02
     -4.908  0.2344E+01  0.1392E+02
     -4.892  0.2403E+01  0.1396E+02
     -4.877  0.2502E+01  0.1400E+02
     -4.861  0.2287E+01  0.1403E+02
     -4.846  0.1854E+01  0.1406E+02
     -4.830  0.2188E+01  0.1409E+02
     -4.815  0.2733E+01  0.1414E+02
     -4.799  0.2779E+01  0.1418E+02
     -4.784  0.2607E+01  0.1422E+02
     -4.768  0.2730E+01  0.1426E+02
     -4.753  0.2856E+01  0.1431E+02
     -4.737  0.2939E+01  0.1435E+02
     -4.722  0.3161E+01  0.1440E+02
     -4.706  0.3114E+01  0.1445E+02
     -4.690  0.2860E+01  0.1449E+02
     -4.675  0.3187E+01  0.1454E+02
     -4.659  0.3562E+01  0.1460E+02
     -4.644  0.3768E+01  0.1466E+02
     -4.628  0.3479E+01  0.1471E+02
     -4.613  0.3542E+01  0.1477E+02
     -4.597  0.3912E+01  0.1483E+02
     -4.582  0.3713E+01  0.1488E+02
     -4.566  0.3824E+01  0.1494E+02
     -4.551  0.3651E+01  0.1500E+02
     -4.535  0.3588E+01  0.1506E+02
     -4.520  0.3520E+01  0.1511E+02
     -4.504  0.3366E+01  0.1516E+02
     -4.489  0.3482E+01  0.1522E+02
     -4.473  0.3290E+01  0.1527E+02
     -4.458  0.3163E+01  0.1532E+02
     -4.442  0.3093E+01  0.1537E+02
     -4.427  0.3217E+01  0.1541E+02
     -4.411  0.3433E+01  0.1547E+02
     -4.396  0.3404E+01  0.1552E+02
     -4.380  0.3118E+01  0.1557E+02
     -4.365  0.2757E+01  0.1561E+02
     -4.349  0.2922E+01  0.1566E+02
     -4.334  0.2775E+01  0.1570E+02
     -4.318  0.2743E+01  0.1574E+02
     -4.303  0.3079E+01  0.1579E+02
     -4.287  0.3232E+01  0.1584E+02
     -4.272  0.2960E+01  0.1589E+02
     -4.256  0.2773E+01  0.1593E+02
     -4.241  0.2715E+01  0.1597E+02
     -4.225  0.2926E+01  0.1602E+02
     -4.210  0.2727E+01  0.1606E+02
     -4.194  0.2913E+01  0.1610E+02
     -4.179  0.2914E+01  0.1615E+02
     -4.163  0.2834E+01  0.1619E+02
     -4.148  0.3011E+01  0.1624E+02
     -4.132  0.2936E+01  0.1629E+02
     -4.117  0.3000E+01  0.1633E+02
     -4.101  0.3041E+01  0.1638E+02
     -4.085  0.2719E+01  0.1642E+02
     -4.070  0.2986E+01  0.1647E+02
     -4.054  0.2880E+01  0.1651E+02
     -4.039  0.2972E+01  0.1656E+02
     -4.023  0.3027E+01  0.1661E+02
     -4.008  0.2862E+01  0.1665E+02
     -3.992  0.2840E+01  0.1669E+02
     -3.977  0.2737E+01  0.1674E+02
     -3.961  0.3195E+01  0.1679E+02
     -3.946  0.3023E+01  0.1683E+02
     -3.930  0.3032E+01  0.1688E+02
     -3.915  0.3020E+01  0.1693E+02
     -3.899  0.2979E+01  0.1697E+02
     -3.884  0.3311E+01  0.1703E+02
     -3.868  0.3233E+01  0.1708E+02
     -3.853  0.2765E+01  0.1712E+02
     -3.837  0.2906E+01  0.1716E+02
     -3.822  0.2804E+01  0.1721E+02
     -3.806  0.2992E+01  0.1725E+02
     -3.791  0.3050E+01  0.1730E+02
     -3.775  0.3087E+01  0.1735E+02
     -3.760  0.3205E+01  0.1740E+02
     -3.744  0.3018E+01  0.1744E+02
     -3.729  0.2831E+01  0.1749E+02
     -3.713  0.2923E+01  0.1753E+02
     -3.698  0.2952E+01  0.1758E+02
     -3.682  0.3007E+01  0.1763E+02
     -3.667  0.2994E+01  0.1767E+02
     -3.651  0.2778E+01  0.1772E+02
     -3.636  0.2651E+01  0.1776E+02
     -3.620  0.2632E+01  0.1780E+02
     -3.605  0.2743E+01  0.1784E+02
     -3.589  0.2915E+01  0.1789E+02
     -3.574  0.3046E+01  0.1793E+02
     -3.558  0.2924E+01  0.1798E+02
     -3.543  0.2781E+01  0.1802E+02
     -3.527  0.2596E+01  0.1806E+02
     -3.511  0.2608E+01  0.1810E+02
     -3.496  0.2732E+01  0.1814E+02
     -3.480  0.2741E+01  0.1819E+02
     -3.465  0.2704E+01  0.1823E+02
     -3.449  0.2588E+01  0.1827E+02
     -3.434  0.2460E+01  0.1831E+02
     -3.418  0.2512E+01  0.1835E+02
     -3.403  0.2578E+01  0.1839E+02
     -3.387  0.2867E+01  0.1843E+02
     -3.372  0.2816E+01  0.1847E+02
     -3.356  0.2728E+01  0.1852E+02
     -3.341  0.2637E+01  0.1856E+02
     -3.325  0.2737E+01  0.1860E+02
     -3.310  0.2609E+01  0.1864E+02
     -3.294  0.2619E+01  0.1868E+02
     -3.279  0.2423E+01  0.1872E+02
     -3.263  0.2641E+01  0.1876E+02
     -3.248  0.2688E+01  0.1880E+02
     -3.232  0.2617E+01  0.1884E+02
     -3.217  0.2644E+01  0.1888E+02
     -3.201  0.2711E+01  0.1893E+02
     -3.186  0.2841E+01  0.1897E+02
     -3.170  0.2743E+01  0.1901E+02
     -3.155  0.2675E+01  0.1905E+02
     -3.139  0.3049E+01  0.1910E+02
     -3.124  0.2953E+01  0.1915E+02
     -3.108  0.2445E+01  0.1918E+02
     -3.093  0.2502E+01  0.1922E+02
     -3.077  0.2921E+01  0.1927E+02
     -3.062  0.3278E+01  0.1932E+02
     -3.046  0.3296E+01  0.1937E+02
     -3.031  0.3020E+01  0.1942E+02
     -3.015  0.3038E+01  0.1946E+02
     -3.000  0.3381E+01  0.1952E+02
     -2.984  0.3248E+01  0.1957E+02
     -2.969  0.3032E+01  0.1961E+02
     -2.953  0.3060E+01  0.1966E+02
     -2.938  0.2833E+01  0.1971E+02
     -2.922  0.2805E+01  0.1975E+02
     -2.906  0.2851E+01  0.1979E+02
     -2.891  0.2603E+01  0.1983E+02
     -2.875  0.2922E+01  0.1988E+02
     -2.860  0.2939E+01  0.1993E+02
     -2.844  0.2925E+01  0.1997E+02
     -2.829  0.2691E+01  0.2001E+02
     -2.813  0.2667E+01  0.2005E+02
     -2.798  0.2533E+01  0.2009E+02
     -2.782  0.2314E+01  0.2013E+02
     -2.767  0.1902E+01  0.2016E+02
     -2.751  0.1669E+01  0.2018E+02
     -2.736  0.2000E+01  0.2022E+02
     -2.720  0.2243E+01  0.2025E+02