Automatically generated mesh
    4410
Reciprocal lattice
    0.01666666666667    0.01190476190476    0.01785714285715             8
    0.05000000000000    0.01190476190476    0.01785714285715             8
    0.08333333333334    0.01190476190476    0.01785714285715             8
    0.11666666666667    0.01190476190476    0.01785714285715             8
    0.15000000000000    0.01190476190476    0.01785714285715             8
    0.18333333333333    0.01190476190476    0.01785714285715             8
    0.21666666666667    0.01190476190476    0.01785714285715             8
    0.25000000000000    0.01190476190476    0.01785714285715             8
    0.28333333333333    0.01190476190476    0.01785714285715             8
    0.31666666666667    0.01190476190476    0.01785714285715             8
    0.35000000000000    0.01190476190476    0.01785714285715             8
    0.38333333333333    0.01190476190476    0.01785714285715             8
    0.41666666666666    0.01190476190476    0.01785714285715             8
    0.45000000000000    0.01190476190476    0.01785714285715             8
    0.48333333333333    0.01190476190476    0.01785714285715             8
    0.01666666666667    0.03571428571428    0.01785714285715             8
    0.05000000000000    0.03571428571428    0.01785714285715             8
    0.08333333333334    0.03571428571428    0.01785714285715             8
    0.11666666666667    0.03571428571428    0.01785714285715             8
    0.15000000000000    0.03571428571428    0.01785714285715             8
    0.18333333333333    0.03571428571428    0.01785714285715             8
    0.21666666666667    0.03571428571428    0.01785714285715             8
    0.25000000000000    0.03571428571428    0.01785714285715             8
    0.28333333333333    0.03571428571428    0.01785714285715             8
    0.31666666666667    0.03571428571428    0.01785714285715             8
    0.35000000000000    0.03571428571428    0.01785714285715             8
    0.38333333333333    0.03571428571428    0.01785714285715             8
    0.41666666666666    0.03571428571428    0.01785714285715             8
    0.45000000000000    0.03571428571428    0.01785714285715             8
    0.48333333333333    0.03571428571428    0.01785714285715             8
    0.01666666666667    0.05952380952381    0.01785714285715             8
    0.05000000000000    0.05952380952381    0.01785714285715             8
    0.08333333333334    0.05952380952381    0.01785714285715             8
    0.11666666666667    0.05952380952381    0.01785714285715             8
    0.15000000000000    0.05952380952381    0.01785714285715             8
    0.18333333333333    0.05952380952381    0.01785714285715             8
    0.21666666666667    0.05952380952381    0.01785714285715             8
    0.25000000000000    0.05952380952381    0.01785714285715             8
    0.28333333333333    0.05952380952381    0.01785714285715             8
    0.31666666666667    0.05952380952381    0.01785714285715             8
    0.35000000000000    0.05952380952381    0.01785714285715             8
    0.38333333333333    0.05952380952381    0.01785714285715             8
    0.41666666666666    0.05952380952381    0.01785714285715             8
    0.45000000000000    0.05952380952381    0.01785714285715             8
    0.48333333333333    0.05952380952381    0.01785714285715             8
    0.01666666666667    0.08333333333334    0.01785714285715             8
    0.05000000000000    0.08333333333334    0.01785714285715             8
    0.08333333333334    0.08333333333334    0.01785714285715             8
    0.11666666666667    0.08333333333334    0.01785714285715             8
    0.15000000000000    0.08333333333334    0.01785714285715             8
    0.18333333333333    0.08333333333334    0.01785714285715             8
    0.21666666666667    0.08333333333334    0.01785714285715             8
    0.25000000000000    0.08333333333334    0.01785714285715             8
    0.28333333333333    0.08333333333334    0.01785714285715             8
    0.31666666666667    0.08333333333334    0.01785714285715             8
    0.35000000000000    0.08333333333334    0.01785714285715             8
    0.38333333333333    0.08333333333334    0.01785714285715             8
    0.41666666666666    0.08333333333334    0.01785714285715             8
    0.45000000000000    0.08333333333334    0.01785714285715             8
    0.48333333333333    0.08333333333334    0.01785714285715             8
    0.01666666666667    0.10714285714285    0.01785714285715             8
    0.05000000000000    0.10714285714285    0.01785714285715             8
    0.08333333333334    0.10714285714285    0.01785714285715             8
    0.11666666666667    0.10714285714285    0.01785714285715             8
    0.15000000000000    0.10714285714285    0.01785714285715             8
    0.18333333333333    0.10714285714285    0.01785714285715             8
    0.21666666666667    0.10714285714285    0.01785714285715             8
    0.25000000000000    0.10714285714285    0.01785714285715             8
    0.28333333333333    0.10714285714285    0.01785714285715             8
    0.31666666666667    0.10714285714285    0.01785714285715             8
    0.35000000000000    0.10714285714285    0.01785714285715             8
    0.38333333333333    0.10714285714285    0.01785714285715             8
    0.41666666666666    0.10714285714285    0.01785714285715             8
    0.45000000000000    0.10714285714285    0.01785714285715             8
    0.48333333333333    0.10714285714285    0.01785714285715             8
    0.01666666666667    0.13095238095238    0.01785714285715             8
    0.05000000000000    0.13095238095238    0.01785714285715             8
    0.08333333333334    0.13095238095238    0.01785714285715             8
    0.11666666666667    0.13095238095238    0.01785714285715             8
    0.15000000000000    0.13095238095238    0.01785714285715             8
    0.18333333333333    0.13095238095238    0.01785714285715             8
    0.21666666666667    0.13095238095238    0.01785714285715             8
    0.25000000000000    0.13095238095238    0.01785714285715             8
    0.28333333333333    0.13095238095238    0.01785714285715             8
    0.31666666666667    0.13095238095238    0.01785714285715             8
    0.35000000000000    0.13095238095238    0.01785714285715             8
    0.38333333333333    0.13095238095238    0.01785714285715             8
    0.41666666666666    0.13095238095238    0.01785714285715             8
    0.45000000000000    0.13095238095238    0.01785714285715             8
    0.48333333333333    0.13095238095238    0.01785714285715             8
    0.01666666666667    0.15476190476191    0.01785714285715             8
    0.05000000000000    0.15476190476191    0.01785714285715             8
    0.08333333333334    0.15476190476191    0.01785714285715             8
    0.11666666666667    0.15476190476191    0.01785714285715             8
    0.15000000000000    0.15476190476191    0.01785714285715             8
    0.18333333333333    0.15476190476191    0.01785714285715             8
    0.21666666666667    0.15476190476191    0.01785714285715             8
    0.25000000000000    0.15476190476191    0.01785714285715             8
    0.28333333333333    0.15476190476191    0.01785714285715             8
    0.31666666666667    0.15476190476191    0.01785714285715             8
    0.35000000000000    0.15476190476191    0.01785714285715             8
    0.38333333333333    0.15476190476191    0.01785714285715             8
    0.41666666666666    0.15476190476191    0.01785714285715             8
    0.45000000000000    0.15476190476191    0.01785714285715             8
    0.48333333333333    0.15476190476191    0.01785714285715             8
    0.01666666666667    0.17857142857143    0.01785714285715             8
    0.05000000000000    0.17857142857143    0.01785714285715             8
    0.08333333333334    0.17857142857143    0.01785714285715             8
    0.11666666666667    0.17857142857143    0.01785714285715             8
    0.15000000000000    0.17857142857143    0.01785714285715             8
    0.18333333333333    0.17857142857143    0.01785714285715             8
    0.21666666666667    0.17857142857143    0.01785714285715             8
    0.25000000000000    0.17857142857143    0.01785714285715             8
    0.28333333333333    0.17857142857143    0.01785714285715             8
    0.31666666666667    0.17857142857143    0.01785714285715             8
    0.35000000000000    0.17857142857143    0.01785714285715             8
    0.38333333333333    0.17857142857143    0.01785714285715             8
    0.41666666666666    0.17857142857143    0.01785714285715             8
    0.45000000000000    0.17857142857143    0.01785714285715             8
    0.48333333333333    0.17857142857143    0.01785714285715             8
    0.01666666666667    0.20238095238095    0.01785714285715             8
    0.05000000000000    0.20238095238095    0.01785714285715             8
    0.08333333333334    0.20238095238095    0.01785714285715             8
    0.11666666666667    0.20238095238095    0.01785714285715             8
    0.15000000000000    0.20238095238095    0.01785714285715             8
    0.18333333333333    0.20238095238095    0.01785714285715             8
    0.21666666666667    0.20238095238095    0.01785714285715             8
    0.25000000000000    0.20238095238095    0.01785714285715             8
    0.28333333333333    0.20238095238095    0.01785714285715             8
    0.31666666666667    0.20238095238095    0.01785714285715             8
    0.35000000000000    0.20238095238095    0.01785714285715             8
    0.38333333333333    0.20238095238095    0.01785714285715             8
    0.41666666666666    0.20238095238095    0.01785714285715             8
    0.45000000000000    0.20238095238095    0.01785714285715             8
    0.48333333333333    0.20238095238095    0.01785714285715             8
    0.01666666666667    0.22619047619047    0.01785714285715             8
    0.05000000000000    0.22619047619047    0.01785714285715             8
    0.08333333333334    0.22619047619047    0.01785714285715             8
    0.11666666666667    0.22619047619047    0.01785714285715             8
    0.15000000000000    0.22619047619047    0.01785714285715             8
    0.18333333333333    0.22619047619047    0.01785714285715             8
    0.21666666666667    0.22619047619047    0.01785714285715             8
    0.25000000000000    0.22619047619047    0.01785714285715             8
    0.28333333333333    0.22619047619047    0.01785714285715             8
    0.31666666666667    0.22619047619047    0.01785714285715             8
    0.35000000000000    0.22619047619047    0.01785714285715             8
    0.38333333333333    0.22619047619047    0.01785714285715             8
    0.41666666666666    0.22619047619047    0.01785714285715             8
    0.45000000000000    0.22619047619047    0.01785714285715             8
    0.48333333333333    0.22619047619047    0.01785714285715             8
    0.01666666666667    0.25000000000000    0.01785714285715             8
    0.05000000000000    0.25000000000000    0.01785714285715             8
    0.08333333333334    0.25000000000000    0.01785714285715             8
    0.11666666666667    0.25000000000000    0.01785714285715             8
    0.15000000000000    0.25000000000000    0.01785714285715             8
    0.18333333333333    0.25000000000000    0.01785714285715             8
    0.21666666666667    0.25000000000000    0.01785714285715             8
    0.25000000000000    0.25000000000000    0.01785714285715             8
    0.28333333333333    0.25000000000000    0.01785714285715             8
    0.31666666666667    0.25000000000000    0.01785714285715             8
    0.35000000000000    0.25000000000000    0.01785714285715             8
    0.38333333333333    0.25000000000000    0.01785714285715             8
    0.41666666666666    0.25000000000000    0.01785714285715             8
    0.45000000000000    0.25000000000000    0.01785714285715             8
    0.48333333333333    0.25000000000000    0.01785714285715             8
    0.01666666666667    0.27380952380953    0.01785714285715             8
    0.05000000000000    0.27380952380953    0.01785714285715             8
    0.08333333333334    0.27380952380953    0.01785714285715             8
    0.11666666666667    0.27380952380953    0.01785714285715             8
    0.15000000000000    0.27380952380953    0.01785714285715             8
    0.18333333333333    0.27380952380953    0.01785714285715             8
    0.21666666666667    0.27380952380953    0.01785714285715             8
    0.25000000000000    0.27380952380953    0.01785714285715             8
    0.28333333333333    0.27380952380953    0.01785714285715             8
    0.31666666666667    0.27380952380953    0.01785714285715             8
    0.35000000000000    0.27380952380953    0.01785714285715             8
    0.38333333333333    0.27380952380953    0.01785714285715             8
    0.41666666666666    0.27380952380953    0.01785714285715             8
    0.45000000000000    0.27380952380953    0.01785714285715             8
    0.48333333333333    0.27380952380953    0.01785714285715             8
    0.01666666666667    0.29761904761905    0.01785714285715             8
    0.05000000000000    0.29761904761905    0.01785714285715             8
    0.08333333333334    0.29761904761905    0.01785714285715             8
    0.11666666666667    0.29761904761905    0.01785714285715             8
    0.15000000000000    0.29761904761905    0.01785714285715             8
    0.18333333333333    0.29761904761905    0.01785714285715             8
    0.21666666666667    0.29761904761905    0.01785714285715             8
    0.25000000000000    0.29761904761905    0.01785714285715             8
    0.28333333333333    0.29761904761905    0.01785714285715             8
    0.31666666666667    0.29761904761905    0.01785714285715             8
    0.35000000000000    0.29761904761905    0.01785714285715             8
    0.38333333333333    0.29761904761905    0.01785714285715             8
    0.41666666666666    0.29761904761905    0.01785714285715             8
    0.45000000000000    0.29761904761905    0.01785714285715             8
    0.48333333333333    0.29761904761905    0.01785714285715             8
    0.01666666666667    0.32142857142857    0.01785714285715             8
    0.05000000000000    0.32142857142857    0.01785714285715             8
    0.08333333333334    0.32142857142857    0.01785714285715             8
    0.11666666666667    0.32142857142857    0.01785714285715             8
    0.15000000000000    0.32142857142857    0.01785714285715             8
    0.18333333333333    0.32142857142857    0.01785714285715             8
    0.21666666666667    0.32142857142857    0.01785714285715             8
    0.25000000000000    0.32142857142857    0.01785714285715             8
    0.28333333333333    0.32142857142857    0.01785714285715             8
    0.31666666666667    0.32142857142857    0.01785714285715             8
    0.35000000000000    0.32142857142857    0.01785714285715             8
    0.38333333333333    0.32142857142857    0.01785714285715             8
    0.41666666666666    0.32142857142857    0.01785714285715             8
    0.45000000000000    0.32142857142857    0.01785714285715             8
    0.48333333333333    0.32142857142857    0.01785714285715             8
    0.01666666666667    0.34523809523809    0.01785714285715             8
    0.05000000000000    0.34523809523809    0.01785714285715             8
    0.08333333333334    0.34523809523809    0.01785714285715             8
    0.11666666666667    0.34523809523809    0.01785714285715             8
    0.15000000000000    0.34523809523809    0.01785714285715             8
    0.18333333333333    0.34523809523809    0.01785714285715             8
    0.21666666666667    0.34523809523809    0.01785714285715             8
    0.25000000000000    0.34523809523809    0.01785714285715             8
    0.28333333333333    0.34523809523809    0.01785714285715             8
    0.31666666666667    0.34523809523809    0.01785714285715             8
    0.35000000000000    0.34523809523809    0.01785714285715             8
    0.38333333333333    0.34523809523809    0.01785714285715             8
    0.41666666666666    0.34523809523809    0.01785714285715             8
    0.45000000000000    0.34523809523809    0.01785714285715             8
    0.48333333333333    0.34523809523809    0.01785714285715             8
    0.01666666666667    0.36904761904762    0.01785714285715             8
    0.05000000000000    0.36904761904762    0.01785714285715             8
    0.08333333333334    0.36904761904762    0.01785714285715             8
    0.11666666666667    0.36904761904762    0.01785714285715             8
    0.15000000000000    0.36904761904762    0.01785714285715             8
    0.18333333333333    0.36904761904762    0.01785714285715             8
    0.21666666666667    0.36904761904762    0.01785714285715             8
    0.25000000000000    0.36904761904762    0.01785714285715             8
    0.28333333333333    0.36904761904762    0.01785714285715             8
    0.31666666666667    0.36904761904762    0.01785714285715             8
    0.35000000000000    0.36904761904762    0.01785714285715             8
    0.38333333333333    0.36904761904762    0.01785714285715             8
    0.41666666666666    0.36904761904762    0.01785714285715             8
    0.45000000000000    0.36904761904762    0.01785714285715             8
    0.48333333333333    0.36904761904762    0.01785714285715             8
    0.01666666666667    0.39285714285715    0.01785714285715             8
    0.05000000000000    0.39285714285715    0.01785714285715             8
    0.08333333333334    0.39285714285715    0.01785714285715             8
    0.11666666666667    0.39285714285715    0.01785714285715             8
    0.15000000000000    0.39285714285715    0.01785714285715             8
    0.18333333333333    0.39285714285715    0.01785714285715             8
    0.21666666666667    0.39285714285715    0.01785714285715             8
    0.25000000000000    0.39285714285715    0.01785714285715             8
    0.28333333333333    0.39285714285715    0.01785714285715             8
    0.31666666666667    0.39285714285715    0.01785714285715             8
    0.35000000000000    0.39285714285715    0.01785714285715             8
    0.38333333333333    0.39285714285715    0.01785714285715             8
    0.41666666666666    0.39285714285715    0.01785714285715             8
    0.45000000000000    0.39285714285715    0.01785714285715             8
    0.48333333333333    0.39285714285715    0.01785714285715             8
    0.01666666666667    0.41666666666666    0.01785714285715             8
    0.05000000000000    0.41666666666666    0.01785714285715             8
    0.08333333333334    0.41666666666666    0.01785714285715             8
    0.11666666666667    0.41666666666666    0.01785714285715             8
    0.15000000000000    0.41666666666666    0.01785714285715             8
    0.18333333333333    0.41666666666666    0.01785714285715             8
    0.21666666666667    0.41666666666666    0.01785714285715             8
    0.25000000000000    0.41666666666666    0.01785714285715             8
    0.28333333333333    0.41666666666666    0.01785714285715             8
    0.31666666666667    0.41666666666666    0.01785714285715             8
    0.35000000000000    0.41666666666666    0.01785714285715             8
    0.38333333333333    0.41666666666666    0.01785714285715             8
    0.41666666666666    0.41666666666666    0.01785714285715             8
    0.45000000000000    0.41666666666666    0.01785714285715             8
    0.48333333333333    0.41666666666666    0.01785714285715             8
    0.01666666666667    0.44047619047619    0.01785714285715             8
    0.05000000000000    0.44047619047619    0.01785714285715             8
    0.08333333333334    0.44047619047619    0.01785714285715             8
    0.11666666666667    0.44047619047619    0.01785714285715             8
    0.15000000000000    0.44047619047619    0.01785714285715             8
    0.18333333333333    0.44047619047619    0.01785714285715             8
    0.21666666666667    0.44047619047619    0.01785714285715             8
    0.25000000000000    0.44047619047619    0.01785714285715             8
    0.28333333333333    0.44047619047619    0.01785714285715             8
    0.31666666666667    0.44047619047619    0.01785714285715             8
    0.35000000000000    0.44047619047619    0.01785714285715             8
    0.38333333333333    0.44047619047619    0.01785714285715             8
    0.41666666666666    0.44047619047619    0.01785714285715             8
    0.45000000000000    0.44047619047619    0.01785714285715             8
    0.48333333333333    0.44047619047619    0.01785714285715             8
    0.01666666666667    0.46428571428572    0.01785714285715             8
    0.05000000000000    0.46428571428572    0.01785714285715             8
    0.08333333333334    0.46428571428572    0.01785714285715             8
    0.11666666666667    0.46428571428572    0.01785714285715             8
    0.15000000000000    0.46428571428572    0.01785714285715             8
    0.18333333333333    0.46428571428572    0.01785714285715             8
    0.21666666666667    0.46428571428572    0.01785714285715             8
    0.25000000000000    0.46428571428572    0.01785714285715             8
    0.28333333333333    0.46428571428572    0.01785714285715             8
    0.31666666666667    0.46428571428572    0.01785714285715             8
    0.35000000000000    0.46428571428572    0.01785714285715             8
    0.38333333333333    0.46428571428572    0.01785714285715             8
    0.41666666666666    0.46428571428572    0.01785714285715             8
    0.45000000000000    0.46428571428572    0.01785714285715             8
    0.48333333333333    0.46428571428572    0.01785714285715             8
    0.01666666666667    0.48809523809524    0.01785714285715             8
    0.05000000000000    0.48809523809524    0.01785714285715             8
    0.08333333333334    0.48809523809524    0.01785714285715             8
    0.11666666666667    0.48809523809524    0.01785714285715             8
    0.15000000000000    0.48809523809524    0.01785714285715             8
    0.18333333333333    0.48809523809524    0.01785714285715             8
    0.21666666666667    0.48809523809524    0.01785714285715             8
    0.25000000000000    0.48809523809524    0.01785714285715             8
    0.28333333333333    0.48809523809524    0.01785714285715             8
    0.31666666666667    0.48809523809524    0.01785714285715             8
    0.35000000000000    0.48809523809524    0.01785714285715             8
    0.38333333333333    0.48809523809524    0.01785714285715             8
    0.41666666666666    0.48809523809524    0.01785714285715             8
    0.45000000000000    0.48809523809524    0.01785714285715             8
    0.48333333333333    0.48809523809524    0.01785714285715             8
    0.01666666666667    0.01190476190476    0.05357142857143             8
    0.05000000000000    0.01190476190476    0.05357142857143             8
    0.08333333333334    0.01190476190476    0.05357142857143             8
    0.11666666666667    0.01190476190476    0.05357142857143             8
    0.15000000000000    0.01190476190476    0.05357142857143             8
    0.18333333333333    0.01190476190476    0.05357142857143             8
    0.21666666666667    0.01190476190476    0.05357142857143             8
    0.25000000000000    0.01190476190476    0.05357142857143             8
    0.28333333333333    0.01190476190476    0.05357142857143             8
    0.31666666666667    0.01190476190476    0.05357142857143             8
    0.35000000000000    0.01190476190476    0.05357142857143             8
    0.38333333333333    0.01190476190476    0.05357142857143             8
    0.41666666666666    0.01190476190476    0.05357142857143             8
    0.45000000000000    0.01190476190476    0.05357142857143             8
    0.48333333333333    0.01190476190476    0.05357142857143             8
    0.01666666666667    0.03571428571428    0.05357142857143             8
    0.05000000000000    0.03571428571428    0.05357142857143             8
    0.08333333333334    0.03571428571428    0.05357142857143             8
    0.11666666666667    0.03571428571428    0.05357142857143             8
    0.15000000000000    0.03571428571428    0.05357142857143             8
    0.18333333333333    0.03571428571428    0.05357142857143             8
    0.21666666666667    0.03571428571428    0.05357142857143             8
    0.25000000000000    0.03571428571428    0.05357142857143             8
    0.28333333333333    0.03571428571428    0.05357142857143             8
    0.31666666666667    0.03571428571428    0.05357142857143             8
    0.35000000000000    0.03571428571428    0.05357142857143             8
    0.38333333333333    0.03571428571428    0.05357142857143             8
    0.41666666666666    0.03571428571428    0.05357142857143             8
    0.45000000000000    0.03571428571428    0.05357142857143             8
    0.48333333333333    0.03571428571428    0.05357142857143             8
    0.01666666666667    0.05952380952381    0.05357142857143             8
    0.05000000000000    0.05952380952381    0.05357142857143             8
    0.08333333333334    0.05952380952381    0.05357142857143             8
    0.11666666666667    0.05952380952381    0.05357142857143             8
    0.15000000000000    0.05952380952381    0.05357142857143             8
    0.18333333333333    0.05952380952381    0.05357142857143             8
    0.21666666666667    0.05952380952381    0.05357142857143             8
    0.25000000000000    0.05952380952381    0.05357142857143             8
    0.28333333333333    0.05952380952381    0.05357142857143             8
    0.31666666666667    0.05952380952381    0.05357142857143             8
    0.35000000000000    0.05952380952381    0.05357142857143             8
    0.38333333333333    0.05952380952381    0.05357142857143             8
    0.41666666666666    0.05952380952381    0.05357142857143             8
    0.45000000000000    0.05952380952381    0.05357142857143             8
    0.48333333333333    0.05952380952381    0.05357142857143             8
    0.01666666666667    0.08333333333334    0.05357142857143             8
    0.05000000000000    0.08333333333334    0.05357142857143             8
    0.08333333333334    0.08333333333334    0.05357142857143             8
    0.11666666666667    0.08333333333334    0.05357142857143             8
    0.15000000000000    0.08333333333334    0.05357142857143             8
    0.18333333333333    0.08333333333334    0.05357142857143             8
    0.21666666666667    0.08333333333334    0.05357142857143             8
    0.25000000000000    0.08333333333334    0.05357142857143             8
    0.28333333333333    0.08333333333334    0.05357142857143             8
    0.31666666666667    0.08333333333334    0.05357142857143             8
    0.35000000000000    0.08333333333334    0.05357142857143             8
    0.38333333333333    0.08333333333334    0.05357142857143             8
    0.41666666666666    0.08333333333334    0.05357142857143             8
    0.45000000000000    0.08333333333334    0.05357142857143             8
    0.48333333333333    0.08333333333334    0.05357142857143             8
    0.01666666666667    0.10714285714285    0.05357142857143             8
    0.05000000000000    0.10714285714285    0.05357142857143             8
    0.08333333333334    0.10714285714285    0.05357142857143             8
    0.11666666666667    0.10714285714285    0.05357142857143             8
    0.15000000000000    0.10714285714285    0.05357142857143             8
    0.18333333333333    0.10714285714285    0.05357142857143             8
    0.21666666666667    0.10714285714285    0.05357142857143             8
    0.25000000000000    0.10714285714285    0.05357142857143             8
    0.28333333333333    0.10714285714285    0.05357142857143             8
    0.31666666666667    0.10714285714285    0.05357142857143             8
    0.35000000000000    0.10714285714285    0.05357142857143             8
    0.38333333333333    0.10714285714285    0.05357142857143             8
    0.41666666666666    0.10714285714285    0.05357142857143             8
    0.45000000000000    0.10714285714285    0.05357142857143             8
    0.48333333333333    0.10714285714285    0.05357142857143             8
    0.01666666666667    0.13095238095238    0.05357142857143             8
    0.05000000000000    0.13095238095238    0.05357142857143             8
    0.08333333333334    0.13095238095238    0.05357142857143             8
    0.11666666666667    0.13095238095238    0.05357142857143             8
    0.15000000000000    0.13095238095238    0.05357142857143             8
    0.18333333333333    0.13095238095238    0.05357142857143             8
    0.21666666666667    0.13095238095238    0.05357142857143             8
    0.25000000000000    0.13095238095238    0.05357142857143             8
    0.28333333333333    0.13095238095238    0.05357142857143             8