 running   48 mpi-ranks, with    1 threads/rank, on    1 nodes
 distrk:  each k-point on   48 cores,    1 groups
 distr:  one band on   16 cores,    3 groups
 vasp.6.4.3 19Mar24 (build May 31 2024 16:31:43) complex                        
  
 POSCAR found type information on POSCAR B 
 POSCAR found :  1 types and      14 ions
 Reading from existing POTCAR
 scaLAPACK will be used
 Reading from existing POTCAR
 LDA part: xc-table for (Slater+PW92), standard interpolation
 -----------------------------------------------------------------------------
|                                                                             |
|           W    W    AA    RRRRR   N    N  II  N    N   GGGG   !!!           |
|           W    W   A  A   R    R  NN   N  II  NN   N  G    G  !!!           |
|           W    W  A    A  R    R  N N  N  II  N N  N  G       !!!           |
|           W WW W  AAAAAA  RRRRR   N  N N  II  N  N N  G  GGG   !            |
|           WW  WW  A    A  R   R   N   NN  II  N   NN  G    G                |
|           W    W  A    A  R    R  N    N  II  N    N   GGGG   !!!           |
|                                                                             |
|     The number of bands has been changed from the values supplied in        |
|     the INCAR file. This is a result of running the parallel version.       |
|     The orbitals not found in the WAVECAR file will be initialized with     |
|     random numbers, which is usually adequate. For correlated               |
|     calculations, however, you should redo the groundstate calculation.     |
|     I found NBANDS = 128. Now, NBANDS = 129.                                |
|                                                                             |
 -----------------------------------------------------------------------------

 found WAVECAR, reading the header
  number of bands has changed, file:    48 present:   129
  trying to continue reading WAVECAR, but it might fail
 POSCAR, INCAR and KPOINTS ok, starting setup
 FFT: planning ... GRIDC
 FFT: planning ... GRID_SOFT
 FFT: planning ... GRID
 reading WAVECAR
 random initialization beyond band           48
 the WAVECAR file was read successfully
 entering main loop
       N       E                     dE             d eps       ncg     rms          rms(c)
DAV:   1    -0.971421920478E+02   -0.97142E+02   -0.33129E+00******   0.443E+00    0.119E+01
DAV:   2    -0.924039721630E+02    0.47382E+01   -0.24853E+00******   0.437E+00    0.692E+00
DAV:   3    -0.905975176918E+02    0.18065E+01   -0.12634E+00******   0.291E+00    0.150E+00
DAV:   4    -0.906108880812E+02   -0.13370E-01   -0.26528E-01******   0.841E-01    0.934E-01
DAV:   5    -0.906267699477E+02   -0.15882E-01   -0.10952E-02******   0.206E-01    0.200E-01
DAV:   6    -0.906307490693E+02   -0.39791E-02   -0.15995E-03******   0.764E-02    0.951E-02
DAV:   7    -0.906324755083E+02   -0.17264E-02   -0.53928E-04******   0.463E-02    0.390E-02
DAV:   8    -0.906324975910E+02   -0.22083E-04   -0.36340E-05******   0.148E-02    0.883E-03
DAV:   9    -0.906325077841E+02   -0.10193E-04   -0.52026E-06******   0.463E-03    0.270E-03
DAV:  10    -0.906325081073E+02   -0.32326E-06   -0.20797E-07******   0.976E-04
   1 F= -.90632508E+02 E0= -.90632436E+02  d E =-.144679E-03
 writing wavefunctions
 optical routines
 imaginary and real dielectric function
 recalculating local potential from charge density
 direction            1
 direction            2
 direction            3
