  14  14   0   0
  0.1021960E+02  0.5697000E-09  0.4047900E-09  0.6204200E-09  0.5000000E-15
  1.000000000000000E-004
  CAR 
 Convergence                             
     18.05438327    -14.19854769  301      1.88962604      1.00000000
    -14.199  0.0000E+00  0.0000E+00
    -14.091  0.0000E+00  0.0000E+00
    -13.984  0.0000E+00  0.0000E+00
    -13.876  0.0000E+00  0.0000E+00
    -13.769  0.0000E+00  0.0000E+00
    -13.661  0.0000E+00  0.0000E+00
    -13.553  0.0000E+00  0.0000E+00
    -13.446  0.0000E+00  0.0000E+00
    -13.338  0.0000E+00  0.0000E+00
    -13.231  0.0000E+00  0.0000E+00
    -13.123  0.0000E+00  0.0000E+00
    -13.016  0.8110E-17  0.8719E-18
    -12.908  0.9217E-08  0.9910E-09
    -12.801  0.2056E-02  0.2210E-03
    -12.693  0.4140E+00  0.4473E-01
    -12.586  0.2261E+01  0.2878E+00
    -12.478  0.3516E+01  0.6658E+00
    -12.371  0.4342E+01  0.1133E+01
    -12.263  0.3567E+01  0.1516E+01
    -12.156  0.2870E+01  0.1825E+01
    -12.048  0.2632E+01  0.2108E+01
    -11.941  0.2589E+01  0.2386E+01
    -11.833  0.2742E+01  0.2681E+01
    -11.726  0.3320E+01  0.3038E+01
    -11.618  0.3622E+01  0.3427E+01
    -11.511  0.3128E+01  0.3763E+01
    -11.403  0.1729E+01  0.3949E+01
    -11.296  0.4625E+00  0.3999E+01
    -11.188  0.9278E-02  0.4000E+01
    -11.081  0.3773E-06  0.4000E+01
    -10.973  0.4052E-14  0.4000E+01
    -10.866  0.0000E+00  0.4000E+01
    -10.758  0.0000E+00  0.4000E+01
    -10.651  0.0000E+00  0.4000E+01
    -10.543  0.0000E+00  0.4000E+01
    -10.436  0.0000E+00  0.4000E+01
    -10.328  0.0000E+00  0.4000E+01
    -10.221  0.0000E+00  0.4000E+01
    -10.113  0.0000E+00  0.4000E+01
    -10.006  0.0000E+00  0.4000E+01
     -9.898  0.0000E+00  0.4000E+01
     -9.791  0.0000E+00  0.4000E+01
     -9.683  0.0000E+00  0.4000E+01
     -9.576  0.0000E+00  0.4000E+01
     -9.468  0.0000E+00  0.4000E+01
     -9.361  0.0000E+00  0.4000E+01
     -9.253  0.0000E+00  0.4000E+01
     -9.146  0.0000E+00  0.4000E+01
     -9.038  0.1262E-08  0.4000E+01
     -8.931  0.7693E-03  0.4000E+01
     -8.823  0.3106E+00  0.4033E+01
     -8.716  0.2186E+01  0.4269E+01
     -8.608  0.5445E+01  0.4854E+01
     -8.501  0.7009E+01  0.5607E+01
     -8.393  0.6203E+01  0.6274E+01
     -8.286  0.5291E+01  0.6843E+01
     -8.178  0.4865E+01  0.7366E+01
     -8.070  0.3714E+01  0.7766E+01
     -7.963  0.1606E+01  0.7938E+01
     -7.855  0.5356E+00  0.7996E+01
     -7.748  0.3906E-01  0.8000E+01
     -7.640  0.2229E-04  0.8000E+01
     -7.533  0.5550E-11  0.8000E+01
     -7.425  0.0000E+00  0.8000E+01
     -7.318  0.0000E+00  0.8000E+01
     -7.210  0.2231E-13  0.8000E+01
     -7.103  0.5943E-06  0.8000E+01
     -6.995  0.4278E-02  0.8000E+01
     -6.888  0.1120E+00  0.8013E+01
     -6.780  0.2969E+00  0.8044E+01
     -6.673  0.4667E+00  0.8095E+01
     -6.565  0.7119E+00  0.8171E+01
     -6.458  0.9133E+00  0.8269E+01
     -6.350  0.1471E+01  0.8427E+01
     -6.243  0.2131E+01  0.8657E+01
     -6.135  0.3050E+01  0.8985E+01
     -6.028  0.3888E+01  0.9402E+01
     -5.920  0.4082E+01  0.9841E+01
     -5.813  0.3917E+01  0.1026E+02
     -5.705  0.4195E+01  0.1071E+02
     -5.598  0.3948E+01  0.1114E+02
     -5.490  0.4153E+01  0.1158E+02
     -5.383  0.4479E+01  0.1207E+02
     -5.275  0.4759E+01  0.1258E+02
     -5.168  0.4391E+01  0.1305E+02
     -5.060  0.3895E+01  0.1347E+02
     -4.953  0.3300E+01  0.1382E+02
     -4.845  0.2448E+01  0.1409E+02
     -4.738  0.2450E+01  0.1435E+02
     -4.630  0.3066E+01  0.1468E+02
     -4.523  0.3590E+01  0.1507E+02
     -4.415  0.3461E+01  0.1544E+02
     -4.308  0.3075E+01  0.1577E+02
     -4.200  0.2941E+01  0.1608E+02
     -4.093  0.2885E+01  0.1639E+02
     -3.985  0.2976E+01  0.1671E+02
     -3.878  0.3056E+01  0.1704E+02
     -3.770  0.2913E+01  0.1736E+02
     -3.663  0.2990E+01  0.1768E+02
     -3.555  0.2722E+01  0.1797E+02
     -3.448  0.2863E+01  0.1828E+02
     -3.340  0.2783E+01  0.1858E+02
     -3.233  0.2744E+01  0.1887E+02
     -3.125  0.2701E+01  0.1916E+02
     -3.018  0.3081E+01  0.1949E+02
     -2.910  0.2948E+01  0.1981E+02
     -2.803  0.2811E+01  0.2011E+02
     -2.695  0.2484E+01  0.2038E+02
     -2.587  0.2497E+01  0.2065E+02
     -2.480  0.3081E+01  0.2098E+02
     -2.372  0.3186E+01  0.2132E+02
     -2.265  0.3708E+01  0.2172E+02
     -2.157  0.3451E+01  0.2209E+02
     -2.050  0.3307E+01  0.2245E+02
     -1.942  0.4224E+01  0.2290E+02
     -1.835  0.4887E+01  0.2343E+02
     -1.727  0.5545E+01  0.2402E+02
     -1.620  0.5956E+01  0.2466E+02
     -1.512  0.6058E+01  0.2531E+02
     -1.405  0.5923E+01  0.2595E+02
     -1.297  0.5926E+01  0.2659E+02
     -1.190  0.4843E+01  0.2711E+02
     -1.082  0.5411E+01  0.2769E+02
     -0.975  0.3787E+01  0.2810E+02
     -0.867  0.2620E+01  0.2838E+02
     -0.760  0.2433E+01  0.2864E+02
     -0.652  0.3551E+01  0.2902E+02
     -0.545  0.5208E+01  0.2958E+02
     -0.437  0.6074E+01  0.3024E+02
     -0.330  0.6287E+01  0.3091E+02
     -0.222  0.6215E+01  0.3158E+02
     -0.115  0.6911E+01  0.3232E+02
     -0.007  0.6788E+01  0.3305E+02
      0.100  0.6264E+01  0.3373E+02
      0.208  0.6881E+01  0.3447E+02
      0.315  0.8787E+01  0.3541E+02
      0.423  0.8414E+01  0.3632E+02
      0.530  0.8116E+01  0.3719E+02
      0.638  0.4347E+01  0.3766E+02
      0.745  0.2769E+01  0.3795E+02
      0.853  0.3214E+01  0.3830E+02
      0.960  0.3170E+01  0.3864E+02
      1.068  0.3713E+01  0.3904E+02
      1.175  0.3556E+01  0.3942E+02
      1.283  0.3653E+01  0.3981E+02
      1.390  0.3924E+01  0.4024E+02
      1.498  0.3712E+01  0.4063E+02
      1.605  0.4019E+01  0.4107E+02
      1.713  0.3792E+01  0.4147E+02
      1.820  0.3197E+01  0.4182E+02
      1.928  0.2683E+01  0.4211E+02
      2.035  0.2817E+01  0.4241E+02
      2.143  0.2729E+01  0.4270E+02
      2.250  0.2057E+01  0.4292E+02
      2.358  0.1969E+01  0.4314E+02
      2.465  0.1461E+01  0.4329E+02
      2.573  0.8596E+00  0.4338E+02
      2.680  0.6021E+00  0.4345E+02
      2.788  0.6759E+00  0.4352E+02
      2.896  0.6621E+00  0.4359E+02
      3.003  0.4245E+00  0.4364E+02
      3.111  0.4712E+00  0.4369E+02
      3.218  0.5231E+00  0.4375E+02
      3.326  0.4183E+00  0.4379E+02
      3.433  0.3435E+00  0.4383E+02
      3.541  0.3775E+00  0.4387E+02
      3.648  0.3764E+00  0.4391E+02
      3.756  0.2507E+00  0.4394E+02
      3.863  0.2955E+00  0.4397E+02
      3.971  0.2266E+00  0.4399E+02
      4.078  0.7108E-01  0.4400E+02
      4.186  0.3834E-02  0.4400E+02
      4.293  0.8262E-01  0.4401E+02
      4.401  0.2659E+00  0.4404E+02
      4.508  0.3861E+00  0.4408E+02
      4.616  0.5645E+00  0.4414E+02
      4.723  0.7575E+00  0.4422E+02
      4.831  0.8203E+00  0.4431E+02
      4.938  0.9002E+00  0.4441E+02
      5.046  0.1011E+01  0.4451E+02
      5.153  0.1164E+01  0.4464E+02
      5.261  0.1418E+01  0.4479E+02
      5.368  0.1799E+01  0.4499E+02
      5.476  0.2255E+01  0.4523E+02
      5.583  0.2576E+01  0.4551E+02
      5.691  0.3089E+01  0.4584E+02
      5.798  0.3335E+01  0.4620E+02
      5.906  0.3759E+01  0.4660E+02
      6.013  0.4296E+01  0.4706E+02
      6.121  0.4554E+01  0.4755E+02
      6.228  0.4469E+01  0.4803E+02
      6.336  0.4188E+01  0.4848E+02
      6.443  0.4219E+01  0.4894E+02
      6.551  0.4324E+01  0.4940E+02
      6.658  0.3796E+01  0.4981E+02
      6.766  0.3563E+01  0.5019E+02
      6.873  0.4101E+01  0.5063E+02
      6.981  0.4495E+01  0.5112E+02
      7.088  0.4902E+01  0.5164E+02
      7.196  0.5055E+01  0.5219E+02
      7.303  0.5017E+01  0.5273E+02
      7.411  0.4491E+01  0.5321E+02
      7.518  0.4432E+01  0.5369E+02
      7.626  0.4068E+01  0.5412E+02
      7.733  0.3211E+01  0.5447E+02
      7.841  0.3124E+01  0.5480E+02
      7.948  0.3296E+01  0.5516E+02
      8.056  0.3276E+01  0.5551E+02
      8.163  0.3707E+01  0.5591E+02
      8.271  0.4015E+01  0.5634E+02
      8.379  0.3944E+01  0.5676E+02
      8.486  0.4231E+01  0.5722E+02
      8.594  0.3920E+01  0.5764E+02
      8.701  0.4428E+01  0.5812E+02
      8.809  0.5016E+01  0.5866E+02
      8.916  0.5206E+01  0.5922E+02
      9.024  0.4886E+01  0.5974E+02
      9.131  0.5127E+01  0.6029E+02
      9.239  0.5204E+01  0.6085E+02
      9.346  0.4818E+01  0.6137E+02
      9.454  0.4735E+01  0.6188E+02
      9.561  0.4597E+01  0.6237E+02
      9.669  0.4826E+01  0.6289E+02
      9.776  0.5148E+01  0.6345E+02
      9.884  0.5061E+01  0.6399E+02
      9.991  0.4832E+01  0.6451E+02
     10.099  0.3944E+01  0.6493E+02
     10.206  0.4205E+01  0.6538E+02
     10.314  0.4459E+01  0.6586E+02
     10.421  0.5313E+01  0.6644E+02
     10.529  0.5586E+01  0.6704E+02
     10.636  0.4839E+01  0.6756E+02
     10.744  0.4157E+01  0.6800E+02
     10.851  0.3664E+01  0.6840E+02
     10.959  0.3770E+01  0.6880E+02
     11.066  0.4951E+01  0.6933E+02
     11.174  0.5639E+01  0.6994E+02
     11.281  0.6326E+01  0.7062E+02
     11.389  0.5514E+01  0.7121E+02
     11.496  0.4825E+01  0.7173E+02
     11.604  0.4607E+01  0.7223E+02
     11.711  0.4728E+01  0.7274E+02
     11.819  0.4810E+01  0.7325E+02
     11.926  0.5409E+01  0.7383E+02
     12.034  0.6174E+01  0.7450E+02
     12.141  0.5955E+01  0.7514E+02
     12.249  0.5272E+01  0.7571E+02
     12.356  0.5351E+01  0.7628E+02
     12.464  0.5607E+01  0.7688E+02
     12.571  0.6090E+01  0.7754E+02
     12.679  0.5769E+01  0.7816E+02
     12.786  0.5917E+01  0.7879E+02
     12.894  0.5895E+01  0.7943E+02
     13.001  0.5962E+01  0.8007E+02
     13.109  0.6035E+01  0.8072E+02
     13.216  0.6370E+01  0.8140E+02
     13.324  0.5690E+01  0.8201E+02
     13.431  0.5506E+01  0.8261E+02
     13.539  0.5530E+01  0.8320E+02
     13.646  0.5286E+01  0.8377E+02
     13.754  0.5503E+01  0.8436E+02
     13.862  0.5900E+01  0.8500E+02
     13.969  0.5450E+01  0.8558E+02
     14.077  0.5203E+01  0.8614E+02
     14.184  0.5237E+01  0.8670E+02
     14.292  0.5002E+01  0.8724E+02
     14.399  0.4669E+01  0.8774E+02
     14.507  0.4979E+01  0.8828E+02
     14.614  0.5483E+01  0.8887E+02
     14.722  0.4900E+01  0.8939E+02
     14.829  0.4390E+01  0.8987E+02
     14.937  0.4514E+01  0.9035E+02
     15.044  0.5871E+01  0.9098E+02
     15.152  0.6107E+01  0.9164E+02
     15.259  0.5727E+01  0.9226E+02
     15.367  0.5854E+01  0.9288E+02
     15.474  0.5891E+01  0.9352E+02
     15.582  0.5998E+01  0.9416E+02
     15.689  0.4712E+01  0.9467E+02
     15.797  0.3442E+01  0.9504E+02
     15.904  0.2573E+01  0.9532E+02
     16.012  0.1874E+01  0.9552E+02
     16.119  0.1405E+01  0.9567E+02
     16.227  0.1038E+01  0.9578E+02
     16.334  0.9330E+00  0.9588E+02
     16.442  0.7583E+00  0.9596E+02
     16.549  0.3131E+00  0.9600E+02
     16.657  0.3595E-01  0.9600E+02
     16.764  0.4121E-03  0.9600E+02
     16.872  0.3591E-08  0.9600E+02
     16.979  0.4831E-17  0.9600E+02
     17.087  0.0000E+00  0.9600E+02
     17.194  0.0000E+00  0.9600E+02
     17.302  0.0000E+00  0.9600E+02
     17.409  0.0000E+00  0.9600E+02
     17.517  0.0000E+00  0.9600E+02
     17.624  0.0000E+00  0.9600E+02
     17.732  0.0000E+00  0.9600E+02
     17.839  0.0000E+00  0.9600E+02
     17.947  0.0000E+00  0.9600E+02
     18.054  0.0000E+00  0.9600E+02
