 vasp.6.4.3 19Mar24 (build May 31 2024 16:31:43) complex                        
  
 executed on             LinuxIFC date 2024.11.03  00:50:16
 running   24 mpi-ranks, with    1 threads/rank, on    1 nodes
 distrk:  each k-point on   24 cores,    1 groups
 distr:  one band on NCORE=   1 cores,   24 groups


--------------------------------------------------------------------------------------------------------


 INCAR:
   SYSTEM = Convergence
   ISTART = 0
   ICHARG = 2
   PREC = Accurate
   ENCUT = 480
   LCHARG = .FALSE.
   LWAVE = .FALSE.
   ALGO = Normal
   NELM = 100
   EDIFF = 1E-6
   EDIFFG = -1E-3
   SIGMA = 0.05
   ISMEAR = 0
   ISPIN = 1
   NSW = 0
   IBRION = -1
   POTIM = .5
   ISIF = 2
   GGA = PE

 POTCAR:    PAW_PBE B 06Sep2000                   
 POTCAR:    PAW_PBE B 06Sep2000                   
   SHA256 =  a32ced30f5ae56fd4d10b4325ff17eb3e4e38ee0f4288bc219fb012fddfa6e97 B/POTCAR              
   COPYR  = (c) Copyright 06Sep2000 Georg Kresse                                                    
   COPYR  = This file is part of the software VASP. Any use, copying, and all other rights are regul
   COPYR  = If you do not have a valid VASP license, you may not use, copy or distribute this file. 
   VRHFIN =B: s2p1                                                                                  
   LEXCH  = PE                                                                                      
   EATOM  =    71.1703 eV,    5.2309 Ry                                                             
                                                                                                    
   TITEL  = PAW_PBE B 06Sep2000                                                                     
   LULTRA =        F    use ultrasoft PP ?                                                          
   IUNSCR =        1    unscreen: 0-lin 1-nonlin 2-no                                               
   RPACOR =    1.200    partial core radius                                                         
   POMASS =   10.811; ZVAL   =    3.000    mass and valenz                                          
   RCORE  =    1.700    outmost cutoff radius                                                       
   RWIGS  =    1.710; RWIGS  =    0.905    wigner-seitz radius (au A)                               
   ENMAX  =  318.614; ENMIN  =  238.960 eV                                                          
   ICORE  =        2    local potential                                                             
   LCOR   =        T    correct aug charges                                                         
   LPAW   =        T    paw PP                                                                      
   EAUG   =  535.514                                                                                
   DEXC   =    0.000                                                                                
   RMAX   =    1.732    core radius for proj-oper                                                   
   RAUG   =    1.300    factor for augmentation sphere                                              
   RDEP   =    1.757    radius for radial grids                                                     
   RDEPT  =    1.436    core radius for aug-charge                                                  
                                                                                                    
   Atomic configuration                                                                             
    4 entries                                                                                       
     n  l   j            E        occ.                                                              
     1  0  0.50      -180.5896   2.0000                                                             
     2  0  0.50        -9.4431   2.0000                                                             
     2  1  0.50        -3.6068   1.0000                                                             
     3  2  1.50        -4.0817   0.0000                                                             
   Description                                                                                      
     l       E           TYP  RCUT    TYP  RCUT                                                     
     0     -9.4430752     23  1.500                                                                 
     0      0.8675899     23  1.500                                                                 
     1     -3.6067955     23  1.700                                                                 
     1      6.1086146     23  1.700                                                                 
     2     -4.0817478      7  1.700                                                                 
  local pseudopotential read in
  partial core-charges read in
  partial kinetic energy density read in
  atomic valenz-charges read in
  non local Contribution for L=           0  read in
    real space projection operators read in
  non local Contribution for L=           0  read in
    real space projection operators read in
  non local Contribution for L=           1  read in
    real space projection operators read in
  non local Contribution for L=           1  read in
    real space projection operators read in
    PAW grid and wavefunctions read in
 
   number of l-projection  operators is LMAX  =           4
   number of lm-projection operators is LMMAX =           8
 
  PAW_PBE B 06Sep2000                   :
 energy of atom  1       EATOM=  -71.1703
 kinetic energy error for atom=    0.0013 (will be added to EATOM!!)
 
 
 POSCAR: o-B14
  positions in direct lattice
  No initial velocities read in


 exchange-correlation table for PE
   RHO(1)=    0.500       N(1)  =     2000
   RHO(2)=  100.500       N(2)  =     4000
 


--------------------------------------------------------------------------------------------------------


 ion  position               nearest neighbor table
   1  0.521  0.500  0.638-  14 1.64   5 1.69  13 1.70   2 1.73   9 1.85  11 1.85
   2  0.479  0.500  0.362-  13 1.64   6 1.69  14 1.70   1 1.73  10 1.85  12 1.85
   3  0.979  0.500  0.638-  14 1.64   7 1.69  13 1.70   4 1.73   9 1.85  11 1.85
   4  0.021  0.500  0.362-  13 1.64   8 1.69  14 1.70   3 1.73  10 1.85  12 1.85
   5  0.601  0.500  0.900-   1 1.69   6 1.69   7 1.70   9 1.80  11 1.80
   6  0.399  0.500  0.100-   2 1.69   5 1.69   8 1.70  10 1.80  12 1.80
   7  0.899  0.500  0.900-   3 1.69   8 1.69   5 1.70   9 1.80  11 1.80
   8  0.101  0.500  0.100-   4 1.69   7 1.69   6 1.70  10 1.80  12 1.80
   9  0.750  0.792  0.730-  11 1.69   7 1.80   5 1.80   3 1.85   1 1.85  14 1.97
  10  0.250  0.208  0.270-  12 1.69   8 1.80   6 1.80   4 1.85   2 1.85  13 1.97
  11  0.750  0.208  0.730-   9 1.69   7 1.80   5 1.80   3 1.85   1 1.85  14 1.97
  12  0.250  0.792  0.270-  10 1.69   8 1.80   6 1.80   4 1.85   2 1.85  13 1.97
  13  0.250  0.500  0.524-   2 1.64   4 1.64   3 1.70   1 1.70  10 1.97  12 1.97
  14  0.750  0.500  0.476-   1 1.64   3 1.64   2 1.70   4 1.70   9 1.97  11 1.97
 
  LATTYP: Found a simple orthorhombic cell.
 ALAT       =     4.0479000000
 B/A-ratio  =     1.4073964278
 C/A-ratio  =     1.5326959658
  
  Lattice vectors:
  
 A1 = (   0.0000000000,  -4.0479000000,   0.0000000000)
 A2 = (   5.6970000000,   0.0000000000,   0.0000000000)
 A3 = (   0.0000000000,   0.0000000000,   6.2042000000)


Analysis of symmetry for initial positions (statically):
=====================================================================
 Subroutine PRICEL returns:
 Original cell was already a primitive cell.
 

 Routine SETGRP: Setting up the symmetry group for a 
 simple orthorhombic supercell.


 Subroutine GETGRP returns: Found  8 space group operations
 (whereof  4 operations were pure point group operations)
 out of a pool of  8 trial point group operations.


The static configuration has the point symmetry C_2h.
 The point group associated with its full space group is D_2h.


Analysis of symmetry for dynamics (positions and initial velocities):
=====================================================================
 Subroutine PRICEL returns:
 Original cell was already a primitive cell.
 

 Routine SETGRP: Setting up the symmetry group for a 
 simple orthorhombic supercell.


 Subroutine GETGRP returns: Found  8 space group operations
 (whereof  4 operations were pure point group operations)
 out of a pool of  8 trial point group operations.


The dynamic configuration has the point symmetry C_2h.
 The point group associated with its full space group is D_2h.


 Subroutine INISYM returns: Found  8 space group operations
 (whereof  4 operations are pure point group operations),
 and found     1 'primitive' translations


----------------------------------------------------------------------------------------

                                     Primitive cell                                     

  volume of cell :     143.0744

  direct lattice vectors                    reciprocal lattice vectors
     5.697000000  0.000000000  0.000000000     0.175530981  0.000000000  0.000000000
     0.000000000  4.047900000  0.000000000     0.000000000  0.247041676  0.000000000
     0.000000000  0.000000000  6.204200000     0.000000000  0.000000000  0.161181135

  length of vectors
     5.697000000  4.047900000  6.204200000     0.175530981  0.247041676  0.161181135

  position of ions in fractional coordinates (direct lattice)
     0.521230000  0.500000000  0.637960000
     0.478770000  0.500000000  0.362040000
     0.978770000  0.500000000  0.637960000
     0.021230000  0.500000000  0.362040000
     0.600900000  0.500000000  0.899910000
     0.399100000  0.500000000  0.100090000
     0.899100000  0.500000000  0.899910000
     0.100900000  0.500000000  0.100090000
     0.750000000  0.791710000  0.729730000
     0.250000000  0.208290000  0.270270000
     0.750000000  0.208290000  0.729730000
     0.250000000  0.791710000  0.270270000
     0.250000000  0.500000000  0.523670000
     0.750000000  0.500000000  0.476330000

  ion indices of the primitive-cell ions
   primitive index   ion index
                 1           1
                 2           2
                 3           3
                 4           4
                 5           5
                 6           6
                 7           7
                 8           8
                 9           9
                10          10
                11          11
                12          12
                13          13
                14          14

----------------------------------------------------------------------------------------

 
 
 KPOINTS: k-points                                

Automatic generation of k-mesh.
 Grid dimensions read from file:
 generate k-points for:   21   30   19

 Generating k-lattice:

  Cartesian coordinates                     Fractional coordinates (reciprocal lattice)
     0.008358618  0.000000000  0.000000000     0.047619048  0.000000000  0.000000000
     0.000000000  0.008234723  0.000000000     0.000000000  0.033333333  0.000000000
     0.000000000  0.000000000  0.008483218     0.000000000  0.000000000  0.052631579

  Length of vectors
     0.008358618  0.008234723  0.008483218

  Shift w.r.t. Gamma in fractional coordinates (k-lattice)
     0.000000000  0.500000000  0.000000000

 
 Subroutine IBZKPT returns following result:
 ===========================================
 
 Found   1650 irreducible k-points:
 
 Following reciprocal coordinates:
            Coordinates               Weight
  0.000000  0.016667  0.000000      2.000000
  0.047619  0.016667  0.000000      4.000000
  0.095238  0.016667  0.000000      4.000000
  0.142857  0.016667  0.000000      4.000000
  0.190476  0.016667  0.000000      4.000000
  0.238095  0.016667  0.000000      4.000000
  0.285714  0.016667  0.000000      4.000000
  0.333333  0.016667  0.000000      4.000000
  0.380952  0.016667  0.000000      4.000000
  0.428571  0.016667  0.000000      4.000000
  0.476190  0.016667  0.000000      4.000000
  0.000000  0.050000  0.000000      2.000000
  0.047619  0.050000  0.000000      4.000000
  0.095238  0.050000  0.000000      4.000000
  0.142857  0.050000  0.000000      4.000000
  0.190476  0.050000  0.000000      4.000000
  0.238095  0.050000  0.000000      4.000000
  0.285714  0.050000  0.000000      4.000000
  0.333333  0.050000  0.000000      4.000000
  0.380952  0.050000  0.000000      4.000000
  0.428571  0.050000  0.000000      4.000000
  0.476190  0.050000  0.000000      4.000000
  0.000000  0.083333  0.000000      2.000000
  0.047619  0.083333  0.000000      4.000000
  0.095238  0.083333  0.000000      4.000000
  0.142857  0.083333  0.000000      4.000000
  0.190476  0.083333  0.000000      4.000000
  0.238095  0.083333  0.000000      4.000000
  0.285714  0.083333  0.000000      4.000000
  0.333333  0.083333  0.000000      4.000000
  0.380952  0.083333  0.000000      4.000000
  0.428571  0.083333  0.000000      4.000000
  0.476190  0.083333  0.000000      4.000000
  0.000000  0.116667  0.000000      2.000000
  0.047619  0.116667  0.000000      4.000000
  0.095238  0.116667  0.000000      4.000000
  0.142857  0.116667  0.000000      4.000000
  0.190476  0.116667  0.000000      4.000000
  0.238095  0.116667  0.000000      4.000000
  0.285714  0.116667  0.000000      4.000000
  0.333333  0.116667  0.000000      4.000000
  0.380952  0.116667  0.000000      4.000000
  0.428571  0.116667  0.000000      4.000000
  0.476190  0.116667  0.000000      4.000000
  0.000000  0.150000  0.000000      2.000000
  0.047619  0.150000  0.000000      4.000000
  0.095238  0.150000  0.000000      4.000000
  0.142857  0.150000  0.000000      4.000000
  0.190476  0.150000  0.000000      4.000000
  0.238095  0.150000  0.000000      4.000000
  0.285714  0.150000  0.000000      4.000000
  0.333333  0.150000  0.000000      4.000000
  0.380952  0.150000  0.000000      4.000000
  0.428571  0.150000  0.000000      4.000000
  0.476190  0.150000  0.000000      4.000000
  0.000000  0.183333  0.000000      2.000000
  0.047619  0.183333  0.000000      4.000000
  0.095238  0.183333  0.000000      4.000000
  0.142857  0.183333  0.000000      4.000000
  0.190476  0.183333  0.000000      4.000000
  0.238095  0.183333  0.000000      4.000000
  0.285714  0.183333  0.000000      4.000000
  0.333333  0.183333  0.000000      4.000000
  0.380952  0.183333  0.000000      4.000000
  0.428571  0.183333  0.000000      4.000000
  0.476190  0.183333  0.000000      4.000000
  0.000000  0.216667  0.000000      2.000000
  0.047619  0.216667  0.000000      4.000000
  0.095238  0.216667  0.000000      4.000000
  0.142857  0.216667  0.000000      4.000000
  0.190476  0.216667  0.000000      4.000000
  0.238095  0.216667  0.000000      4.000000
  0.285714  0.216667  0.000000      4.000000
  0.333333  0.216667  0.000000      4.000000
  0.380952  0.216667  0.000000      4.000000
  0.428571  0.216667  0.000000      4.000000
  0.476190  0.216667  0.000000      4.000000
  0.000000  0.250000  0.000000      2.000000
  0.047619  0.250000  0.000000      4.000000
  0.095238  0.250000  0.000000      4.000000
  0.142857  0.250000  0.000000      4.000000
  0.190476  0.250000  0.000000      4.000000
  0.238095  0.250000  0.000000      4.000000
  0.285714  0.250000  0.000000      4.000000
  0.333333  0.250000  0.000000      4.000000
  0.380952  0.250000  0.000000      4.000000
  0.428571  0.250000  0.000000      4.000000
  0.476190  0.250000  0.000000      4.000000
  0.000000  0.283333  0.000000      2.000000
  0.047619  0.283333  0.000000      4.000000
  0.095238  0.283333  0.000000      4.000000
  0.142857  0.283333  0.000000      4.000000
  0.190476  0.283333  0.000000      4.000000
  0.238095  0.283333  0.000000      4.000000
  0.285714  0.283333  0.000000      4.000000
  0.333333  0.283333  0.000000      4.000000
  0.380952  0.283333  0.000000      4.000000
  0.428571  0.283333  0.000000      4.000000
  0.476190  0.283333  0.000000      4.000000
  0.000000  0.316667  0.000000      2.000000
  0.047619  0.316667  0.000000      4.000000
  0.095238  0.316667  0.000000      4.000000
  0.142857  0.316667  0.000000      4.000000
  0.190476  0.316667  0.000000      4.000000
  0.238095  0.316667  0.000000      4.000000
  0.285714  0.316667  0.000000      4.000000
  0.333333  0.316667  0.000000      4.000000
  0.380952  0.316667  0.000000      4.000000
  0.428571  0.316667  0.000000      4.000000
  0.476190  0.316667  0.000000      4.000000
  0.000000  0.350000  0.000000      2.000000
  0.047619  0.350000  0.000000      4.000000
  0.095238  0.350000  0.000000      4.000000
  0.142857  0.350000  0.000000      4.000000
  0.190476  0.350000  0.000000      4.000000
  0.238095  0.350000  0.000000      4.000000
  0.285714  0.350000  0.000000      4.000000
  0.333333  0.350000  0.000000      4.000000
  0.380952  0.350000  0.000000      4.000000
  0.428571  0.350000  0.000000      4.000000
  0.476190  0.350000  0.000000      4.000000
  0.000000  0.383333  0.000000      2.000000
  0.047619  0.383333  0.000000      4.000000
  0.095238  0.383333  0.000000      4.000000
  0.142857  0.383333  0.000000      4.000000
  0.190476  0.383333  0.000000      4.000000
  0.238095  0.383333  0.000000      4.000000
  0.285714  0.383333  0.000000      4.000000
  0.333333  0.383333  0.000000      4.000000
  0.380952  0.383333  0.000000      4.000000
  0.428571  0.383333  0.000000      4.000000
  0.476190  0.383333  0.000000      4.000000
  0.000000  0.416667  0.000000      2.000000
  0.047619  0.416667  0.000000      4.000000
  0.095238  0.416667  0.000000      4.000000
  0.142857  0.416667  0.000000      4.000000
  0.190476  0.416667  0.000000      4.000000
  0.238095  0.416667  0.000000      4.000000
  0.285714  0.416667  0.000000      4.000000
  0.333333  0.416667  0.000000      4.000000
  0.380952  0.416667  0.000000      4.000000
  0.428571  0.416667  0.000000      4.000000
  0.476190  0.416667  0.000000      4.000000
  0.000000  0.450000  0.000000      2.000000
  0.047619  0.450000  0.000000      4.000000
  0.095238  0.450000  0.000000      4.000000
  0.142857  0.450000  0.000000      4.000000
  0.190476  0.450000  0.000000      4.000000
  0.238095  0.450000  0.000000      4.000000
  0.285714  0.450000  0.000000      4.000000
  0.333333  0.450000  0.000000      4.000000
  0.380952  0.450000  0.000000      4.000000
  0.428571  0.450000  0.000000      4.000000
  0.476190  0.450000  0.000000      4.000000
  0.000000  0.483333  0.000000      2.000000
  0.047619  0.483333  0.000000      4.000000
  0.095238  0.483333  0.000000      4.000000
  0.142857  0.483333  0.000000      4.000000
  0.190476  0.483333  0.000000      4.000000
  0.238095  0.483333  0.000000      4.000000
  0.285714  0.483333  0.000000      4.000000
  0.333333  0.483333  0.000000      4.000000
  0.380952  0.483333  0.000000      4.000000
  0.428571  0.483333  0.000000      4.000000
  0.476190  0.483333  0.000000      4.000000
  0.000000  0.016667  0.052632      4.000000
  0.047619  0.016667  0.052632      8.000000
  0.095238  0.016667  0.052632      8.000000
  0.142857  0.016667  0.052632      8.000000
  0.190476  0.016667  0.052632      8.000000
  0.238095  0.016667  0.052632      8.000000
  0.285714  0.016667  0.052632      8.000000
  0.333333  0.016667  0.052632      8.000000
  0.380952  0.016667  0.052632      8.000000
  0.428571  0.016667  0.052632      8.000000
  0.476190  0.016667  0.052632      8.000000
  0.000000  0.050000  0.052632      4.000000
  0.047619  0.050000  0.052632      8.000000
  0.095238  0.050000  0.052632      8.000000
  0.142857  0.050000  0.052632      8.000000
  0.190476  0.050000  0.052632      8.000000
  0.238095  0.050000  0.052632      8.000000
  0.285714  0.050000  0.052632      8.000000
  0.333333  0.050000  0.052632      8.000000
  0.380952  0.050000  0.052632      8.000000
  0.428571  0.050000  0.052632      8.000000
  0.476190  0.050000  0.052632      8.000000
  0.000000  0.083333  0.052632      4.000000
  0.047619  0.083333  0.052632      8.000000
  0.095238  0.083333  0.052632      8.000000
  0.142857  0.083333  0.052632      8.000000
  0.190476  0.083333  0.052632      8.000000
  0.238095  0.083333  0.052632      8.000000
  0.285714  0.083333  0.052632      8.000000
  0.333333  0.083333  0.052632      8.000000
  0.380952  0.083333  0.052632      8.000000
  0.428571  0.083333  0.052632      8.000000
  0.476190  0.083333  0.052632      8.000000
  0.000000  0.116667  0.052632      4.000000
  0.047619  0.116667  0.052632      8.000000
  0.095238  0.116667  0.052632      8.000000
  0.142857  0.116667  0.052632      8.000000
  0.190476  0.116667  0.052632      8.000000
  0.238095  0.116667  0.052632      8.000000
  0.285714  0.116667  0.052632      8.000000
  0.333333  0.116667  0.052632      8.000000
  0.380952  0.116667  0.052632      8.000000
  0.428571  0.116667  0.052632      8.000000
  0.476190  0.116667  0.052632      8.000000
  0.000000  0.150000  0.052632      4.000000
  0.047619  0.150000  0.052632      8.000000
  0.095238  0.150000  0.052632      8.000000
  0.142857  0.150000  0.052632      8.000000
  0.190476  0.150000  0.052632      8.000000
  0.238095  0.150000  0.052632      8.000000
  0.285714  0.150000  0.052632      8.000000
  0.333333  0.150000  0.052632      8.000000
  0.380952  0.150000  0.052632      8.000000
  0.428571  0.150000  0.052632      8.000000
  0.476190  0.150000  0.052632      8.000000
  0.000000  0.183333  0.052632      4.000000
  0.047619  0.183333  0.052632      8.000000
  0.095238  0.183333  0.052632      8.000000
  0.142857  0.183333  0.052632      8.000000
  0.190476  0.183333  0.052632      8.000000
  0.238095  0.183333  0.052632      8.000000
  0.285714  0.183333  0.052632      8.000000
  0.333333  0.183333  0.052632      8.000000
  0.380952  0.183333  0.052632      8.000000
  0.428571  0.183333  0.052632      8.000000
  0.476190  0.183333  0.052632      8.000000
  0.000000  0.216667  0.052632      4.000000
  0.047619  0.216667  0.052632      8.000000
  0.095238  0.216667  0.052632      8.000000
  0.142857  0.216667  0.052632      8.000000
  0.190476  0.216667  0.052632      8.000000
  0.238095  0.216667  0.052632      8.000000
  0.285714  0.216667  0.052632      8.000000
  0.333333  0.216667  0.052632      8.000000
  0.380952  0.216667  0.052632      8.000000
  0.428571  0.216667  0.052632      8.000000
  0.476190  0.216667  0.052632      8.000000
  0.000000  0.250000  0.052632      4.000000
  0.047619  0.250000  0.052632      8.000000
  0.095238  0.250000  0.052632      8.000000
  0.142857  0.250000  0.052632      8.000000
  0.190476  0.250000  0.052632      8.000000
  0.238095  0.250000  0.052632      8.000000
  0.285714  0.250000  0.052632      8.000000
  0.333333  0.250000  0.052632      8.000000
  0.380952  0.250000  0.052632      8.000000
  0.428571  0.250000  0.052632      8.000000
  0.476190  0.250000  0.052632      8.000000
  0.000000  0.283333  0.052632      4.000000
  0.047619  0.283333  0.052632      8.000000
  0.095238  0.283333  0.052632      8.000000
  0.142857  0.283333  0.052632      8.000000
  0.190476  0.283333  0.052632      8.000000
  0.238095  0.283333  0.052632      8.000000
  0.285714  0.283333  0.052632      8.000000
  0.333333  0.283333  0.052632      8.000000
  0.380952  0.283333  0.052632      8.000000
  0.428571  0.283333  0.052632      8.000000
  0.476190  0.283333  0.052632      8.000000
  0.000000  0.316667  0.052632      4.000000
  0.047619  0.316667  0.052632      8.000000
  0.095238  0.316667  0.052632      8.000000
  0.142857  0.316667  0.052632      8.000000
  0.190476  0.316667  0.052632      8.000000
  0.238095  0.316667  0.052632      8.000000
  0.285714  0.316667  0.052632      8.000000
  0.333333  0.316667  0.052632      8.000000
  0.380952  0.316667  0.052632      8.000000
  0.428571  0.316667  0.052632      8.000000
  0.476190  0.316667  0.052632      8.000000
  0.000000  0.350000  0.052632      4.000000
  0.047619  0.350000  0.052632      8.000000
  0.095238  0.350000  0.052632      8.000000
  0.142857  0.350000  0.052632      8.000000
  0.190476  0.350000  0.052632      8.000000
  0.238095  0.350000  0.052632      8.000000
  0.285714  0.350000  0.052632      8.000000
  0.333333  0.350000  0.052632      8.000000
  0.380952  0.350000  0.052632      8.000000
  0.428571  0.350000  0.052632      8.000000
  0.476190  0.350000  0.052632      8.000000
  0.000000  0.383333  0.052632      4.000000
  0.047619  0.383333  0.052632      8.000000
  0.095238  0.383333  0.052632      8.000000
  0.142857  0.383333  0.052632      8.000000
  0.190476  0.383333  0.052632      8.000000
  0.238095  0.383333  0.052632      8.000000
  0.285714  0.383333  0.052632      8.000000
  0.333333  0.383333  0.052632      8.000000
  0.380952  0.383333  0.052632      8.000000
  0.428571  0.383333  0.052632      8.000000
  0.476190  0.383333  0.052632      8.000000
  0.000000  0.416667  0.052632      4.000000
  0.047619  0.416667  0.052632      8.000000
  0.095238  0.416667  0.052632      8.000000
  0.142857  0.416667  0.052632      8.000000
  0.190476  0.416667  0.052632      8.000000
  0.238095  0.416667  0.052632      8.000000
  0.285714  0.416667  0.052632      8.000000
  0.333333  0.416667  0.052632      8.000000
  0.380952  0.416667  0.052632      8.000000
  0.428571  0.416667  0.052632      8.000000
  0.476190  0.416667  0.052632      8.000000
  0.000000  0.450000  0.052632      4.000000
  0.047619  0.450000  0.052632      8.000000
  0.095238  0.450000  0.052632      8.000000
  0.142857  0.450000  0.052632      8.000000
  0.190476  0.450000  0.052632      8.000000
  0.238095  0.450000  0.052632      8.000000
  0.285714  0.450000  0.052632      8.000000
  0.333333  0.450000  0.052632      8.000000
  0.380952  0.450000  0.052632      8.000000
  0.428571  0.450000  0.052632      8.000000
  0.476190  0.450000  0.052632      8.000000
  0.000000  0.483333  0.052632      4.000000
  0.047619  0.483333  0.052632      8.000000
  0.095238  0.483333  0.052632      8.000000
  0.142857  0.483333  0.052632      8.000000
  0.190476  0.483333  0.052632      8.000000
  0.238095  0.483333  0.052632      8.000000
  0.285714  0.483333  0.052632      8.000000
  0.333333  0.483333  0.052632      8.000000
  0.380952  0.483333  0.052632      8.000000
  0.428571  0.483333  0.052632      8.000000
  0.476190  0.483333  0.052632      8.000000
  0.000000  0.016667  0.105263      4.000000
  0.047619  0.016667  0.105263      8.000000
  0.095238  0.016667  0.105263      8.000000
  0.142857  0.016667  0.105263      8.000000
  0.190476  0.016667  0.105263      8.000000
  0.238095  0.016667  0.105263      8.000000
  0.285714  0.016667  0.105263      8.000000
  0.333333  0.016667  0.105263      8.000000
  0.380952  0.016667  0.105263      8.000000
  0.428571  0.016667  0.105263      8.000000
  0.476190  0.016667  0.105263      8.000000
  0.000000  0.050000  0.105263      4.000000
  0.047619  0.050000  0.105263      8.000000
  0.095238  0.050000  0.105263      8.000000
  0.142857  0.050000  0.105263      8.000000
  0.190476  0.050000  0.105263      8.000000
  0.238095  0.050000  0.105263      8.000000
  0.285714  0.050000  0.105263      8.000000
  0.333333  0.050000  0.105263      8.000000
  0.380952  0.050000  0.105263      8.000000
  0.428571  0.050000  0.105263      8.000000
  0.476190  0.050000  0.105263      8.000000
  0.000000  0.083333  0.105263      4.000000
  0.047619  0.083333  0.105263      8.000000
  0.095238  0.083333  0.105263      8.000000
  0.142857  0.083333  0.105263      8.000000
  0.190476  0.083333  0.105263      8.000000
  0.238095  0.083333  0.105263      8.000000
  0.285714  0.083333  0.105263      8.000000
  0.333333  0.083333  0.105263      8.000000
  0.380952  0.083333  0.105263      8.000000
  0.428571  0.083333  0.105263      8.000000
  0.476190  0.083333  0.105263      8.000000
  0.000000  0.116667  0.105263      4.000000
  0.047619  0.116667  0.105263      8.000000
  0.095238  0.116667  0.105263      8.000000
  0.142857  0.116667  0.105263      8.000000
  0.190476  0.116667  0.105263      8.000000
  0.238095  0.116667  0.105263      8.000000
  0.285714  0.116667  0.105263      8.000000
  0.333333  0.116667  0.105263      8.000000
  0.380952  0.116667  0.105263      8.000000
  0.428571  0.116667  0.105263      8.000000
  0.476190  0.116667  0.105263      8.000000
  0.000000  0.150000  0.105263      4.000000
  0.047619  0.150000  0.105263      8.000000
  0.095238  0.150000  0.105263      8.000000
  0.142857  0.150000  0.105263      8.000000
  0.190476  0.150000  0.105263      8.000000
  0.238095  0.150000  0.105263      8.000000
  0.285714  0.150000  0.105263      8.000000
  0.333333  0.150000  0.105263      8.000000
  0.380952  0.150000  0.105263      8.000000
  0.428571  0.150000  0.105263      8.000000
  0.476190  0.150000  0.105263      8.000000
  0.000000  0.183333  0.105263      4.000000
  0.047619  0.183333  0.105263      8.000000
  0.095238  0.183333  0.105263      8.000000
  0.142857  0.183333  0.105263      8.000000
  0.190476  0.183333  0.105263      8.000000
  0.238095  0.183333  0.105263      8.000000
  0.285714  0.183333  0.105263      8.000000
  0.333333  0.183333  0.105263      8.000000
  0.380952  0.183333  0.105263      8.000000
  0.428571  0.183333  0.105263      8.000000
  0.476190  0.183333  0.105263      8.000000
  0.000000  0.216667  0.105263      4.000000
  0.047619  0.216667  0.105263      8.000000
  0.095238  0.216667  0.105263      8.000000
  0.142857  0.216667  0.105263      8.000000
  0.190476  0.216667  0.105263      8.000000
  0.238095  0.216667  0.105263      8.000000
  0.285714  0.216667  0.105263      8.000000
  0.333333  0.216667  0.105263      8.000000
  0.380952  0.216667  0.105263      8.000000
  0.428571  0.216667  0.105263      8.000000
  0.476190  0.216667  0.105263      8.000000
  0.000000  0.250000  0.105263      4.000000
  0.047619  0.250000  0.105263      8.000000
  0.095238  0.250000  0.105263      8.000000
  0.142857  0.250000  0.105263      8.000000
  0.190476  0.250000  0.105263      8.000000
  0.238095  0.250000  0.105263      8.000000
  0.285714  0.250000  0.105263      8.000000
  0.333333  0.250000  0.105263      8.000000
  0.380952  0.250000  0.105263      8.000000
  0.428571  0.250000  0.105263      8.000000
  0.476190  0.250000  0.105263      8.000000
  0.000000  0.283333  0.105263      4.000000
  0.047619  0.283333  0.105263      8.000000
  0.095238  0.283333  0.105263      8.000000
  0.142857  0.283333  0.105263      8.000000
  0.190476  0.283333  0.105263      8.000000
  0.238095  0.283333  0.105263      8.000000
  0.285714  0.283333  0.105263      8.000000
  0.333333  0.283333  0.105263      8.000000
  0.380952  0.283333  0.105263      8.000000
  0.428571  0.283333  0.105263      8.000000
  0.476190  0.283333  0.105263      8.000000
  0.000000  0.316667  0.105263      4.000000
  0.047619  0.316667  0.105263      8.000000
  0.095238  0.316667  0.105263      8.000000
  0.142857  0.316667  0.105263      8.000000
  0.190476  0.316667  0.105263      8.000000
  0.238095  0.316667  0.105263      8.000000
  0.285714  0.316667  0.105263      8.000000
  0.333333  0.316667  0.105263      8.000000
  0.380952  0.316667  0.105263      8.000000
  0.428571  0.316667  0.105263      8.000000
  0.476190  0.316667  0.105263      8.000000
  0.000000  0.350000  0.105263      4.000000
  0.047619  0.350000  0.105263      8.000000
  0.095238  0.350000  0.105263      8.000000
  0.142857  0.350000  0.105263      8.000000
  0.190476  0.350000  0.105263      8.000000
  0.238095  0.350000  0.105263      8.000000
  0.285714  0.350000  0.105263      8.000000
  0.333333  0.350000  0.105263      8.000000
  0.380952  0.350000  0.105263      8.000000
  0.428571  0.350000  0.105263      8.000000
  0.476190  0.350000  0.105263      8.000000
  0.000000  0.383333  0.105263      4.000000
  0.047619  0.383333  0.105263      8.000000
  0.095238  0.383333  0.105263      8.000000
  0.142857  0.383333  0.105263      8.000000
  0.190476  0.383333  0.105263      8.000000
  0.238095  0.383333  0.105263      8.000000
  0.285714  0.383333  0.105263      8.000000
  0.333333  0.383333  0.105263      8.000000
  0.380952  0.383333  0.105263      8.000000
  0.428571  0.383333  0.105263      8.000000
  0.476190  0.383333  0.105263      8.000000
  0.000000  0.416667  0.105263      4.000000
  0.047619  0.416667  0.105263      8.000000
  0.095238  0.416667  0.105263      8.000000
  0.142857  0.416667  0.105263      8.000000
  0.190476  0.416667  0.105263      8.000000
  0.238095  0.416667  0.105263      8.000000
  0.285714  0.416667  0.105263      8.000000
  0.333333  0.416667  0.105263      8.000000
  0.380952  0.416667  0.105263      8.000000
  0.428571  0.416667  0.105263      8.000000
  0.476190  0.416667  0.105263      8.000000
  0.000000  0.450000  0.105263      4.000000
  0.047619  0.450000  0.105263      8.000000
  0.095238  0.450000  0.105263      8.000000
  0.142857  0.450000  0.105263      8.000000
  0.190476  0.450000  0.105263      8.000000
  0.238095  0.450000  0.105263      8.000000
  0.285714  0.450000  0.105263      8.000000
  0.333333  0.450000  0.105263      8.000000
  0.380952  0.450000  0.105263      8.000000
  0.428571  0.450000  0.105263      8.000000
  0.476190  0.450000  0.105263      8.000000
  0.000000  0.483333  0.105263      4.000000
  0.047619  0.483333  0.105263      8.000000
  0.095238  0.483333  0.105263      8.000000
  0.142857  0.483333  0.105263      8.000000
  0.190476  0.483333  0.105263      8.000000
  0.238095  0.483333  0.105263      8.000000
  0.285714  0.483333  0.105263      8.000000
  0.333333  0.483333  0.105263      8.000000
  0.380952  0.483333  0.105263      8.000000
  0.428571  0.483333  0.105263      8.000000
  0.476190  0.483333  0.105263      8.000000
  0.000000  0.016667  0.157895      4.000000
  0.047619  0.016667  0.157895      8.000000
  0.095238  0.016667  0.157895      8.000000
  0.142857  0.016667  0.157895      8.000000
  0.190476  0.016667  0.157895      8.000000
  0.238095  0.016667  0.157895      8.000000
  0.285714  0.016667  0.157895      8.000000
  0.333333  0.016667  0.157895      8.000000
  0.380952  0.016667  0.157895      8.000000
  0.428571  0.016667  0.157895      8.000000
  0.476190  0.016667  0.157895      8.000000
  0.000000  0.050000  0.157895      4.000000
  0.047619  0.050000  0.157895      8.000000
  0.095238  0.050000  0.157895      8.000000
  0.142857  0.050000  0.157895      8.000000
  0.190476  0.050000  0.157895      8.000000
  0.238095  0.050000  0.157895      8.000000
  0.285714  0.050000  0.157895      8.000000
  0.333333  0.050000  0.157895      8.000000
  0.380952  0.050000  0.157895      8.000000
  0.428571  0.050000  0.157895      8.000000
  0.476190  0.050000  0.157895      8.000000
  0.000000  0.083333  0.157895      4.000000
  0.047619  0.083333  0.157895      8.000000
  0.095238  0.083333  0.157895      8.000000
  0.142857  0.083333  0.157895      8.000000
  0.190476  0.083333  0.157895      8.000000
  0.238095  0.083333  0.157895      8.000000
  0.285714  0.083333  0.157895      8.000000
  0.333333  0.083333  0.157895      8.000000
  0.380952  0.083333  0.157895      8.000000
  0.428571  0.083333  0.157895      8.000000
  0.476190  0.083333  0.157895      8.000000
  0.000000  0.116667  0.157895      4.000000
  0.047619  0.116667  0.157895      8.000000
  0.095238  0.116667  0.157895      8.000000
  0.142857  0.116667  0.157895      8.000000
  0.190476  0.116667  0.157895      8.000000
  0.238095  0.116667  0.157895      8.000000
  0.285714  0.116667  0.157895      8.000000
  0.333333  0.116667  0.157895      8.000000
  0.380952  0.116667  0.157895      8.000000
  0.428571  0.116667  0.157895      8.000000
  0.476190  0.116667  0.157895      8.000000
  0.000000  0.150000  0.157895      4.000000
  0.047619  0.150000  0.157895      8.000000
  0.095238  0.150000  0.157895      8.000000
  0.142857  0.150000  0.157895      8.000000
  0.190476  0.150000  0.157895      8.000000
  0.238095  0.150000  0.157895      8.000000
  0.285714  0.150000  0.157895      8.000000
  0.333333  0.150000  0.157895      8.000000
  0.380952  0.150000  0.157895      8.000000
  0.428571  0.150000  0.157895      8.000000
  0.476190  0.150000  0.157895      8.000000
  0.000000  0.183333  0.157895      4.000000
  0.047619  0.183333  0.157895      8.000000
  0.095238  0.183333  0.157895      8.000000
  0.142857  0.183333  0.157895      8.000000
  0.190476  0.183333  0.157895      8.000000
  0.238095  0.183333  0.157895      8.000000
  0.285714  0.183333  0.157895      8.000000
  0.333333  0.183333  0.157895      8.000000
  0.380952  0.183333  0.157895      8.000000
  0.428571  0.183333  0.157895      8.000000
  0.476190  0.183333  0.157895      8.000000
  0.000000  0.216667  0.157895      4.000000
  0.047619  0.216667  0.157895      8.000000
  0.095238  0.216667  0.157895      8.000000
  0.142857  0.216667  0.157895      8.000000
  0.190476  0.216667  0.157895      8.000000
  0.238095  0.216667  0.157895      8.000000
  0.285714  0.216667  0.157895      8.000000
  0.333333  0.216667  0.157895      8.000000
  0.380952  0.216667  0.157895      8.000000
  0.428571  0.216667  0.157895      8.000000
  0.476190  0.216667  0.157895      8.000000
  0.000000  0.250000  0.157895      4.000000
  0.047619  0.250000  0.157895      8.000000
  0.095238  0.250000  0.157895      8.000000
  0.142857  0.250000  0.157895      8.000000
  0.190476  0.250000  0.157895      8.000000
  0.238095  0.250000  0.157895      8.000000
  0.285714  0.250000  0.157895      8.000000
  0.333333  0.250000  0.157895      8.000000
  0.380952  0.250000  0.157895      8.000000
  0.428571  0.250000  0.157895      8.000000
  0.476190  0.250000  0.157895      8.000000
  0.000000  0.283333  0.157895      4.000000
  0.047619  0.283333  0.157895      8.000000
  0.095238  0.283333  0.157895      8.000000
  0.142857  0.283333  0.157895      8.000000
  0.190476  0.283333  0.157895      8.000000
  0.238095  0.283333  0.157895      8.000000
  0.285714  0.283333  0.157895      8.000000
  0.333333  0.283333  0.157895      8.000000
  0.380952  0.283333  0.157895      8.000000
  0.428571  0.283333  0.157895      8.000000
  0.476190  0.283333  0.157895      8.000000
  0.000000  0.316667  0.157895      4.000000
  0.047619  0.316667  0.157895      8.000000
  0.095238  0.316667  0.157895      8.000000
  0.142857  0.316667  0.157895      8.000000
  0.190476  0.316667  0.157895      8.000000
  0.238095  0.316667  0.157895      8.000000
  0.285714  0.316667  0.157895      8.000000
  0.333333  0.316667  0.157895      8.000000
  0.380952  0.316667  0.157895      8.000000
  0.428571  0.316667  0.157895      8.000000
  0.476190  0.316667  0.157895      8.000000
  0.000000  0.350000  0.157895      4.000000
  0.047619  0.350000  0.157895      8.000000
  0.095238  0.350000  0.157895      8.000000
  0.142857  0.350000  0.157895      8.000000
  0.190476  0.350000  0.157895      8.000000
  0.238095  0.350000  0.157895      8.000000
  0.285714  0.350000  0.157895      8.000000
  0.333333  0.350000  0.157895      8.000000
  0.380952  0.350000  0.157895      8.000000
  0.428571  0.350000  0.157895      8.000000
  0.476190  0.350000  0.157895      8.000000
  0.000000  0.383333  0.157895      4.000000
  0.047619  0.383333  0.157895      8.000000
  0.095238  0.383333  0.157895      8.000000
  0.142857  0.383333  0.157895      8.000000
  0.190476  0.383333  0.157895      8.000000
  0.238095  0.383333  0.157895      8.000000
  0.285714  0.383333  0.157895      8.000000
  0.333333  0.383333  0.157895      8.000000
  0.380952  0.383333  0.157895      8.000000
  0.428571  0.383333  0.157895      8.000000
  0.476190  0.383333  0.157895      8.000000
  0.000000  0.416667  0.157895      4.000000
  0.047619  0.416667  0.157895      8.000000
  0.095238  0.416667  0.157895      8.000000
  0.142857  0.416667  0.157895      8.000000
  0.190476  0.416667  0.157895      8.000000
  0.238095  0.416667  0.157895      8.000000
  0.285714  0.416667  0.157895      8.000000
  0.333333  0.416667  0.157895      8.000000
  0.380952  0.416667  0.157895      8.000000
  0.428571  0.416667  0.157895      8.000000
  0.476190  0.416667  0.157895      8.000000
  0.000000  0.450000  0.157895      4.000000
  0.047619  0.450000  0.157895      8.000000
  0.095238  0.450000  0.157895      8.000000
  0.142857  0.450000  0.157895      8.000000
  0.190476  0.450000  0.157895      8.000000
  0.238095  0.450000  0.157895      8.000000
  0.285714  0.450000  0.157895      8.000000
  0.333333  0.450000  0.157895      8.000000
  0.380952  0.450000  0.157895      8.000000
  0.428571  0.450000  0.157895      8.000000
  0.476190  0.450000  0.157895      8.000000
  0.000000  0.483333  0.157895      4.000000
  0.047619  0.483333  0.157895      8.000000
  0.095238  0.483333  0.157895      8.000000
  0.142857  0.483333  0.157895      8.000000
  0.190476  0.483333  0.157895      8.000000
  0.238095  0.483333  0.157895      8.000000
  0.285714  0.483333  0.157895      8.000000
  0.333333  0.483333  0.157895      8.000000
  0.380952  0.483333  0.157895      8.000000
  0.428571  0.483333  0.157895      8.000000
  0.476190  0.483333  0.157895      8.000000
  0.000000  0.016667  0.210526      4.000000
  0.047619  0.016667  0.210526      8.000000
  0.095238  0.016667  0.210526      8.000000
  0.142857  0.016667  0.210526      8.000000
  0.190476  0.016667  0.210526      8.000000
  0.238095  0.016667  0.210526      8.000000
  0.285714  0.016667  0.210526      8.000000
  0.333333  0.016667  0.210526      8.000000
  0.380952  0.016667  0.210526      8.000000
  0.428571  0.016667  0.210526      8.000000
  0.476190  0.016667  0.210526      8.000000
  0.000000  0.050000  0.210526      4.000000
  0.047619  0.050000  0.210526      8.000000
  0.095238  0.050000  0.210526      8.000000
  0.142857  0.050000  0.210526      8.000000
  0.190476  0.050000  0.210526      8.000000
  0.238095  0.050000  0.210526      8.000000
  0.285714  0.050000  0.210526      8.000000
  0.333333  0.050000  0.210526      8.000000
  0.380952  0.050000  0.210526      8.000000
  0.428571  0.050000  0.210526      8.000000
  0.476190  0.050000  0.210526      8.000000
  0.000000  0.083333  0.210526      4.000000
  0.047619  0.083333  0.210526      8.000000
  0.095238  0.083333  0.210526      8.000000
  0.142857  0.083333  0.210526      8.000000
  0.190476  0.083333  0.210526      8.000000
  0.238095  0.083333  0.210526      8.000000
  0.285714  0.083333  0.210526      8.000000
  0.333333  0.083333  0.210526      8.000000
  0.380952  0.083333  0.210526      8.000000
  0.428571  0.083333  0.210526      8.000000
  0.476190  0.083333  0.210526      8.000000
  0.000000  0.116667  0.210526      4.000000
  0.047619  0.116667  0.210526      8.000000
  0.095238  0.116667  0.210526      8.000000
  0.142857  0.116667  0.210526      8.000000
  0.190476  0.116667  0.210526      8.000000
  0.238095  0.116667  0.210526      8.000000
  0.285714  0.116667  0.210526      8.000000
  0.333333  0.116667  0.210526      8.000000
  0.380952  0.116667  0.210526      8.000000
  0.428571  0.116667  0.210526      8.000000
  0.476190  0.116667  0.210526      8.000000
  0.000000  0.150000  0.210526      4.000000
  0.047619  0.150000  0.210526      8.000000
  0.095238  0.150000  0.210526      8.000000
  0.142857  0.150000  0.210526      8.000000
  0.190476  0.150000  0.210526      8.000000
  0.238095  0.150000  0.210526      8.000000
  0.285714  0.150000  0.210526      8.000000
  0.333333  0.150000  0.210526      8.000000
  0.380952  0.150000  0.210526      8.000000
  0.428571  0.150000  0.210526      8.000000
  0.476190  0.150000  0.210526      8.000000
  0.000000  0.183333  0.210526      4.000000
  0.047619  0.183333  0.210526      8.000000
  0.095238  0.183333  0.210526      8.000000
  0.142857  0.183333  0.210526      8.000000
  0.190476  0.183333  0.210526      8.000000
  0.238095  0.183333  0.210526      8.000000
  0.285714  0.183333  0.210526      8.000000
  0.333333  0.183333  0.210526      8.000000
  0.380952  0.183333  0.210526      8.000000
  0.428571  0.183333  0.210526      8.000000
  0.476190  0.183333  0.210526      8.000000
  0.000000  0.216667  0.210526      4.000000
  0.047619  0.216667  0.210526      8.000000
  0.095238  0.216667  0.210526      8.000000
  0.142857  0.216667  0.210526      8.000000
  0.190476  0.216667  0.210526      8.000000
  0.238095  0.216667  0.210526      8.000000
  0.285714  0.216667  0.210526      8.000000
  0.333333  0.216667  0.210526      8.000000
  0.380952  0.216667  0.210526      8.000000
  0.428571  0.216667  0.210526      8.000000
  0.476190  0.216667  0.210526      8.000000
  0.000000  0.250000  0.210526      4.000000
  0.047619  0.250000  0.210526      8.000000
  0.095238  0.250000  0.210526      8.000000
  0.142857  0.250000  0.210526      8.000000
  0.190476  0.250000  0.210526      8.000000
  0.238095  0.250000  0.210526      8.000000
  0.285714  0.250000  0.210526      8.000000
  0.333333  0.250000  0.210526      8.000000
  0.380952  0.250000  0.210526      8.000000
  0.428571  0.250000  0.210526      8.000000
  0.476190  0.250000  0.210526      8.000000
  0.000000  0.283333  0.210526      4.000000
  0.047619  0.283333  0.210526      8.000000
  0.095238  0.283333  0.210526      8.000000
  0.142857  0.283333  0.210526      8.000000
  0.190476  0.283333  0.210526      8.000000
  0.238095  0.283333  0.210526      8.000000
  0.285714  0.283333  0.210526      8.000000
  0.333333  0.283333  0.210526      8.000000
  0.380952  0.283333  0.210526      8.000000
  0.428571  0.283333  0.210526      8.000000
  0.476190  0.283333  0.210526      8.000000
  0.000000  0.316667  0.210526      4.000000
  0.047619  0.316667  0.210526      8.000000
  0.095238  0.316667  0.210526      8.000000
  0.142857  0.316667  0.210526      8.000000
  0.190476  0.316667  0.210526      8.000000
  0.238095  0.316667  0.210526      8.000000
  0.285714  0.316667  0.210526      8.000000
  0.333333  0.316667  0.210526      8.000000
  0.380952  0.316667  0.210526      8.000000
  0.428571  0.316667  0.210526      8.000000
  0.476190  0.316667  0.210526      8.000000
  0.000000  0.350000  0.210526      4.000000
  0.047619  0.350000  0.210526      8.000000
  0.095238  0.350000  0.210526      8.000000
  0.142857  0.350000  0.210526      8.000000
  0.190476  0.350000  0.210526      8.000000
  0.238095  0.350000  0.210526      8.000000
  0.285714  0.350000  0.210526      8.000000
  0.333333  0.350000  0.210526      8.000000
  0.380952  0.350000  0.210526      8.000000
  0.428571  0.350000  0.210526      8.000000
  0.476190  0.350000  0.210526      8.000000
  0.000000  0.383333  0.210526      4.000000
  0.047619  0.383333  0.210526      8.000000
  0.095238  0.383333  0.210526      8.000000
  0.142857  0.383333  0.210526      8.000000
  0.190476  0.383333  0.210526      8.000000
  0.238095  0.383333  0.210526      8.000000
  0.285714  0.383333  0.210526      8.000000
  0.333333  0.383333  0.210526      8.000000
  0.380952  0.383333  0.210526      8.000000
  0.428571  0.383333  0.210526      8.000000
  0.476190  0.383333  0.210526      8.000000
  0.000000  0.416667  0.210526      4.000000
  0.047619  0.416667  0.210526      8.000000
  0.095238  0.416667  0.210526      8.000000
  0.142857  0.416667  0.210526      8.000000
  0.190476  0.416667  0.210526      8.000000
  0.238095  0.416667  0.210526      8.000000
  0.285714  0.416667  0.210526      8.000000
  0.333333  0.416667  0.210526      8.000000
  0.380952  0.416667  0.210526      8.000000
  0.428571  0.416667  0.210526      8.000000
  0.476190  0.416667  0.210526      8.000000
  0.000000  0.450000  0.210526      4.000000
  0.047619  0.450000  0.210526      8.000000
  0.095238  0.450000  0.210526      8.000000
  0.142857  0.450000  0.210526      8.000000
  0.190476  0.450000  0.210526      8.000000
  0.238095  0.450000  0.210526      8.000000
  0.285714  0.450000  0.210526      8.000000
  0.333333  0.450000  0.210526      8.000000
  0.380952  0.450000  0.210526      8.000000
  0.428571  0.450000  0.210526      8.000000
  0.476190  0.450000  0.210526      8.000000
  0.000000  0.483333  0.210526      4.000000
  0.047619  0.483333  0.210526      8.000000
  0.095238  0.483333  0.210526      8.000000
  0.142857  0.483333  0.210526      8.000000
  0.190476  0.483333  0.210526      8.000000
  0.238095  0.483333  0.210526      8.000000
  0.285714  0.483333  0.210526      8.000000
  0.333333  0.483333  0.210526      8.000000
  0.380952  0.483333  0.210526      8.000000
  0.428571  0.483333  0.210526      8.000000
  0.476190  0.483333  0.210526      8.000000
  0.000000  0.016667  0.263158      4.000000
  0.047619  0.016667  0.263158      8.000000
  0.095238  0.016667  0.263158      8.000000
  0.142857  0.016667  0.263158      8.000000
  0.190476  0.016667  0.263158      8.000000
  0.238095  0.016667  0.263158      8.000000
  0.285714  0.016667  0.263158      8.000000
  0.333333  0.016667  0.263158      8.000000
  0.380952  0.016667  0.263158      8.000000
  0.428571  0.016667  0.263158      8.000000
  0.476190  0.016667  0.263158      8.000000
  0.000000  0.050000  0.263158      4.000000
  0.047619  0.050000  0.263158      8.000000
  0.095238  0.050000  0.263158      8.000000
  0.142857  0.050000  0.263158      8.000000
  0.190476  0.050000  0.263158      8.000000
  0.238095  0.050000  0.263158      8.000000
  0.285714  0.050000  0.263158      8.000000
  0.333333  0.050000  0.263158      8.000000
  0.380952  0.050000  0.263158      8.000000
  0.428571  0.050000  0.263158      8.000000
  0.476190  0.050000  0.263158      8.000000
  0.000000  0.083333  0.263158      4.000000
  0.047619  0.083333  0.263158      8.000000
  0.095238  0.083333  0.263158      8.000000
  0.142857  0.083333  0.263158      8.000000
  0.190476  0.083333  0.263158      8.000000
  0.238095  0.083333  0.263158      8.000000
  0.285714  0.083333  0.263158      8.000000
  0.333333  0.083333  0.263158      8.000000
  0.380952  0.083333  0.263158      8.000000
  0.428571  0.083333  0.263158      8.000000
  0.476190  0.083333  0.263158      8.000000
  0.000000  0.116667  0.263158      4.000000
  0.047619  0.116667  0.263158      8.000000
  0.095238  0.116667  0.263158      8.000000
  0.142857  0.116667  0.263158      8.000000
  0.190476  0.116667  0.263158      8.000000
  0.238095  0.116667  0.263158      8.000000
  0.285714  0.116667  0.263158      8.000000
  0.333333  0.116667  0.263158      8.000000
  0.380952  0.116667  0.263158      8.000000
  0.428571  0.116667  0.263158      8.000000
  0.476190  0.116667  0.263158      8.000000
  0.000000  0.150000  0.263158      4.000000
  0.047619  0.150000  0.263158      8.000000
  0.095238  0.150000  0.263158      8.000000
  0.142857  0.150000  0.263158      8.000000
  0.190476  0.150000  0.263158      8.000000
  0.238095  0.150000  0.263158      8.000000
  0.285714  0.150000  0.263158      8.000000
  0.333333  0.150000  0.263158      8.000000
  0.380952  0.150000  0.263158      8.000000
  0.428571  0.150000  0.263158      8.000000
  0.476190  0.150000  0.263158      8.000000
  0.000000  0.183333  0.263158      4.000000
  0.047619  0.183333  0.263158      8.000000
  0.095238  0.183333  0.263158      8.000000
  0.142857  0.183333  0.263158      8.000000
  0.190476  0.183333  0.263158      8.000000
  0.238095  0.183333  0.263158      8.000000
  0.285714  0.183333  0.263158      8.000000
  0.333333  0.183333  0.263158      8.000000
  0.380952  0.183333  0.263158      8.000000
  0.428571  0.183333  0.263158      8.000000
  0.476190  0.183333  0.263158      8.000000
  0.000000  0.216667  0.263158      4.000000
  0.047619  0.216667  0.263158      8.000000
  0.095238  0.216667  0.263158      8.000000
  0.142857  0.216667  0.263158      8.000000
  0.190476  0.216667  0.263158      8.000000
  0.238095  0.216667  0.263158      8.000000
  0.285714  0.216667  0.263158      8.000000
  0.333333  0.216667  0.263158      8.000000
  0.380952  0.216667  0.263158      8.000000
  0.428571  0.216667  0.263158      8.000000
  0.476190  0.216667  0.263158      8.000000
  0.000000  0.250000  0.263158      4.000000
  0.047619  0.250000  0.263158      8.000000
  0.095238  0.250000  0.263158      8.000000
  0.142857  0.250000  0.263158      8.000000
  0.190476  0.250000  0.263158      8.000000
  0.238095  0.250000  0.263158      8.000000
  0.285714  0.250000  0.263158      8.000000
  0.333333  0.250000  0.263158      8.000000
  0.380952  0.250000  0.263158      8.000000
  0.428571  0.250000  0.263158      8.000000
  0.476190  0.250000  0.263158      8.000000
  0.000000  0.283333  0.263158      4.000000
  0.047619  0.283333  0.263158      8.000000
  0.095238  0.283333  0.263158      8.000000
  0.142857  0.283333  0.263158      8.000000
  0.190476  0.283333  0.263158      8.000000
  0.238095  0.283333  0.263158      8.000000
  0.285714  0.283333  0.263158      8.000000
  0.333333  0.283333  0.263158      8.000000
  0.380952  0.283333  0.263158      8.000000
  0.428571  0.283333  0.263158      8.000000
  0.476190  0.283333  0.263158      8.000000
  0.000000  0.316667  0.263158      4.000000
  0.047619  0.316667  0.263158      8.000000
  0.095238  0.316667  0.263158      8.000000
  0.142857  0.316667  0.263158      8.000000
  0.190476  0.316667  0.263158      8.000000
  0.238095  0.316667  0.263158      8.000000
  0.285714  0.316667  0.263158      8.000000
  0.333333  0.316667  0.263158      8.000000
  0.380952  0.316667  0.263158      8.000000
  0.428571  0.316667  0.263158      8.000000
  0.476190  0.316667  0.263158      8.000000
  0.000000  0.350000  0.263158      4.000000
  0.047619  0.350000  0.263158      8.000000
  0.095238  0.350000  0.263158      8.000000
  0.142857  0.350000  0.263158      8.000000
  0.190476  0.350000  0.263158      8.000000
  0.238095  0.350000  0.263158      8.000000
  0.285714  0.350000  0.263158      8.000000
  0.333333  0.350000  0.263158      8.000000
  0.380952  0.350000  0.263158      8.000000
  0.428571  0.350000  0.263158      8.000000
  0.476190  0.350000  0.263158      8.000000
  0.000000  0.383333  0.263158      4.000000
  0.047619  0.383333  0.263158      8.000000
  0.095238  0.383333  0.263158      8.000000
  0.142857  0.383333  0.263158      8.000000
  0.190476  0.383333  0.263158      8.000000
  0.238095  0.383333  0.263158      8.000000
  0.285714  0.383333  0.263158      8.000000
  0.333333  0.383333  0.263158      8.000000
  0.380952  0.383333  0.263158      8.000000
  0.428571  0.383333  0.263158      8.000000
  0.476190  0.383333  0.263158      8.000000
  0.000000  0.416667  0.263158      4.000000
  0.047619  0.416667  0.263158      8.000000
  0.095238  0.416667  0.263158      8.000000
  0.142857  0.416667  0.263158      8.000000
  0.190476  0.416667  0.263158      8.000000
  0.238095  0.416667  0.263158      8.000000
  0.285714  0.416667  0.263158      8.000000
  0.333333  0.416667  0.263158      8.000000
  0.380952  0.416667  0.263158      8.000000
  0.428571  0.416667  0.263158      8.000000
  0.476190  0.416667  0.263158      8.000000
  0.000000  0.450000  0.263158      4.000000
  0.047619  0.450000  0.263158      8.000000
  0.095238  0.450000  0.263158      8.000000
  0.142857  0.450000  0.263158      8.000000
  0.190476  0.450000  0.263158      8.000000
  0.238095  0.450000  0.263158      8.000000
  0.285714  0.450000  0.263158      8.000000
  0.333333  0.450000  0.263158      8.000000
  0.380952  0.450000  0.263158      8.000000
  0.428571  0.450000  0.263158      8.000000
  0.476190  0.450000  0.263158      8.000000
  0.000000  0.483333  0.263158      4.000000
  0.047619  0.483333  0.263158      8.000000
  0.095238  0.483333  0.263158      8.000000
  0.142857  0.483333  0.263158      8.000000
  0.190476  0.483333  0.263158      8.000000
  0.238095  0.483333  0.263158      8.000000
  0.285714  0.483333  0.263158      8.000000
  0.333333  0.483333  0.263158      8.000000
  0.380952  0.483333  0.263158      8.000000
  0.428571  0.483333  0.263158      8.000000
  0.476190  0.483333  0.263158      8.000000
  0.000000  0.016667  0.315789      4.000000
  0.047619  0.016667  0.315789      8.000000
  0.095238  0.016667  0.315789      8.000000
  0.142857  0.016667  0.315789      8.000000
  0.190476  0.016667  0.315789      8.000000
  0.238095  0.016667  0.315789      8.000000
  0.285714  0.016667  0.315789      8.000000
  0.333333  0.016667  0.315789      8.000000
  0.380952  0.016667  0.315789      8.000000
  0.428571  0.016667  0.315789      8.000000
  0.476190  0.016667  0.315789      8.000000
  0.000000  0.050000  0.315789      4.000000
  0.047619  0.050000  0.315789      8.000000
  0.095238  0.050000  0.315789      8.000000
  0.142857  0.050000  0.315789      8.000000
  0.190476  0.050000  0.315789      8.000000
  0.238095  0.050000  0.315789      8.000000
  0.285714  0.050000  0.315789      8.000000
  0.333333  0.050000  0.315789      8.000000
  0.380952  0.050000  0.315789      8.000000
  0.428571  0.050000  0.315789      8.000000
  0.476190  0.050000  0.315789      8.000000
  0.000000  0.083333  0.315789      4.000000
  0.047619  0.083333  0.315789      8.000000
  0.095238  0.083333  0.315789      8.000000
  0.142857  0.083333  0.315789      8.000000
  0.190476  0.083333  0.315789      8.000000
  0.238095  0.083333  0.315789      8.000000
  0.285714  0.083333  0.315789      8.000000
  0.333333  0.083333  0.315789      8.000000
  0.380952  0.083333  0.315789      8.000000
  0.428571  0.083333  0.315789      8.000000
  0.476190  0.083333  0.315789      8.000000
  0.000000  0.116667  0.315789      4.000000
  0.047619  0.116667  0.315789      8.000000
  0.095238  0.116667  0.315789      8.000000
  0.142857  0.116667  0.315789      8.000000
  0.190476  0.116667  0.315789      8.000000
  0.238095  0.116667  0.315789      8.000000
  0.285714  0.116667  0.315789      8.000000
  0.333333  0.116667  0.315789      8.000000
  0.380952  0.116667  0.315789      8.000000
  0.428571  0.116667  0.315789      8.000000
  0.476190  0.116667  0.315789      8.000000
  0.000000  0.150000  0.315789      4.000000
  0.047619  0.150000  0.315789      8.000000
  0.095238  0.150000  0.315789      8.000000
  0.142857  0.150000  0.315789      8.000000
  0.190476  0.150000  0.315789      8.000000
  0.238095  0.150000  0.315789      8.000000
  0.285714  0.150000  0.315789      8.000000
  0.333333  0.150000  0.315789      8.000000
  0.380952  0.150000  0.315789      8.000000
  0.428571  0.150000  0.315789      8.000000
  0.476190  0.150000  0.315789      8.000000
  0.000000  0.183333  0.315789      4.000000
  0.047619  0.183333  0.315789      8.000000
  0.095238  0.183333  0.315789      8.000000
  0.142857  0.183333  0.315789      8.000000
  0.190476  0.183333  0.315789      8.000000
  0.238095  0.183333  0.315789      8.000000
  0.285714  0.183333  0.315789      8.000000
  0.333333  0.183333  0.315789      8.000000
  0.380952  0.183333  0.315789      8.000000
  0.428571  0.183333  0.315789      8.000000
  0.476190  0.183333  0.315789      8.000000
  0.000000  0.216667  0.315789      4.000000
  0.047619  0.216667  0.315789      8.000000
  0.095238  0.216667  0.315789      8.000000
  0.142857  0.216667  0.315789      8.000000
  0.190476  0.216667  0.315789      8.000000
  0.238095  0.216667  0.315789      8.000000
  0.285714  0.216667  0.315789      8.000000
  0.333333  0.216667  0.315789      8.000000
  0.380952  0.216667  0.315789      8.000000
  0.428571  0.216667  0.315789      8.000000
  0.476190  0.216667  0.315789      8.000000
  0.000000  0.250000  0.315789      4.000000
  0.047619  0.250000  0.315789      8.000000
  0.095238  0.250000  0.315789      8.000000
  0.142857  0.250000  0.315789      8.000000
  0.190476  0.250000  0.315789      8.000000
  0.238095  0.250000  0.315789      8.000000
  0.285714  0.250000  0.315789      8.000000
  0.333333  0.250000  0.315789      8.000000
  0.380952  0.250000  0.315789      8.000000
  0.428571  0.250000  0.315789      8.000000
  0.476190  0.250000  0.315789      8.000000
  0.000000  0.283333  0.315789      4.000000
  0.047619  0.283333  0.315789      8.000000
  0.095238  0.283333  0.315789      8.000000
  0.142857  0.283333  0.315789      8.000000
  0.190476  0.283333  0.315789      8.000000
  0.238095  0.283333  0.315789      8.000000
  0.285714  0.283333  0.315789      8.000000
  0.333333  0.283333  0.315789      8.000000
  0.380952  0.283333  0.315789      8.000000
  0.428571  0.283333  0.315789      8.000000
  0.476190  0.283333  0.315789      8.000000
  0.000000  0.316667  0.315789      4.000000
  0.047619  0.316667  0.315789      8.000000
  0.095238  0.316667  0.315789      8.000000
  0.142857  0.316667  0.315789      8.000000
  0.190476  0.316667  0.315789      8.000000
  0.238095  0.316667  0.315789      8.000000
  0.285714  0.316667  0.315789      8.000000
  0.333333  0.316667  0.315789      8.000000
  0.380952  0.316667  0.315789      8.000000
  0.428571  0.316667  0.315789      8.000000
  0.476190  0.316667  0.315789      8.000000
  0.000000  0.350000  0.315789      4.000000
  0.047619  0.350000  0.315789      8.000000
  0.095238  0.350000  0.315789      8.000000
  0.142857  0.350000  0.315789      8.000000
  0.190476  0.350000  0.315789      8.000000
  0.238095  0.350000  0.315789      8.000000
  0.285714  0.350000  0.315789      8.000000
  0.333333  0.350000  0.315789      8.000000
  0.380952  0.350000  0.315789      8.000000
  0.428571  0.350000  0.315789      8.000000
  0.476190  0.350000  0.315789      8.000000
  0.000000  0.383333  0.315789      4.000000
  0.047619  0.383333  0.315789      8.000000
  0.095238  0.383333  0.315789      8.000000
  0.142857  0.383333  0.315789      8.000000
  0.190476  0.383333  0.315789      8.000000
  0.238095  0.383333  0.315789      8.000000
  0.285714  0.383333  0.315789      8.000000
  0.333333  0.383333  0.315789      8.000000
  0.380952  0.383333  0.315789      8.000000
  0.428571  0.383333  0.315789      8.000000
  0.476190  0.383333  0.315789      8.000000
  0.000000  0.416667  0.315789      4.000000
  0.047619  0.416667  0.315789      8.000000
  0.095238  0.416667  0.315789      8.000000
  0.142857  0.416667  0.315789      8.000000
  0.190476  0.416667  0.315789      8.000000
  0.238095  0.416667  0.315789      8.000000
  0.285714  0.416667  0.315789      8.000000
  0.333333  0.416667  0.315789      8.000000
  0.380952  0.416667  0.315789      8.000000
  0.428571  0.416667  0.315789      8.000000
  0.476190  0.416667  0.315789      8.000000
  0.000000  0.450000  0.315789      4.000000
  0.047619  0.450000  0.315789      8.000000
  0.095238  0.450000  0.315789      8.000000
  0.142857  0.450000  0.315789      8.000000
  0.190476  0.450000  0.315789      8.000000
  0.238095  0.450000  0.315789      8.000000
  0.285714  0.450000  0.315789      8.000000
  0.333333  0.450000  0.315789      8.000000
  0.380952  0.450000  0.315789      8.000000
  0.428571  0.450000  0.315789      8.000000
  0.476190  0.450000  0.315789      8.000000
  0.000000  0.483333  0.315789      4.000000
  0.047619  0.483333  0.315789      8.000000
  0.095238  0.483333  0.315789      8.000000
  0.142857  0.483333  0.315789      8.000000
  0.190476  0.483333  0.315789      8.000000
  0.238095  0.483333  0.315789      8.000000
  0.285714  0.483333  0.315789      8.000000
  0.333333  0.483333  0.315789      8.000000
  0.380952  0.483333  0.315789      8.000000
  0.428571  0.483333  0.315789      8.000000
  0.476190  0.483333  0.315789      8.000000
  0.000000  0.016667  0.368421      4.000000
  0.047619  0.016667  0.368421      8.000000
  0.095238  0.016667  0.368421      8.000000
  0.142857  0.016667  0.368421      8.000000
  0.190476  0.016667  0.368421      8.000000
  0.238095  0.016667  0.368421      8.000000
  0.285714  0.016667  0.368421      8.000000
  0.333333  0.016667  0.368421      8.000000
  0.380952  0.016667  0.368421      8.000000
  0.428571  0.016667  0.368421      8.000000
  0.476190  0.016667  0.368421      8.000000
  0.000000  0.050000  0.368421      4.000000
  0.047619  0.050000  0.368421      8.000000
  0.095238  0.050000  0.368421      8.000000
  0.142857  0.050000  0.368421      8.000000
  0.190476  0.050000  0.368421      8.000000
  0.238095  0.050000  0.368421      8.000000
  0.285714  0.050000  0.368421      8.000000
  0.333333  0.050000  0.368421      8.000000
  0.380952  0.050000  0.368421      8.000000
  0.428571  0.050000  0.368421      8.000000
  0.476190  0.050000  0.368421      8.000000
  0.000000  0.083333  0.368421      4.000000
  0.047619  0.083333  0.368421      8.000000
  0.095238  0.083333  0.368421      8.000000
  0.142857  0.083333  0.368421      8.000000
  0.190476  0.083333  0.368421      8.000000
  0.238095  0.083333  0.368421      8.000000
  0.285714  0.083333  0.368421      8.000000
  0.333333  0.083333  0.368421      8.000000
  0.380952  0.083333  0.368421      8.000000
  0.428571  0.083333  0.368421      8.000000
  0.476190  0.083333  0.368421      8.000000
  0.000000  0.116667  0.368421      4.000000
  0.047619  0.116667  0.368421      8.000000
  0.095238  0.116667  0.368421      8.000000
  0.142857  0.116667  0.368421      8.000000
  0.190476  0.116667  0.368421      8.000000
  0.238095  0.116667  0.368421      8.000000
  0.285714  0.116667  0.368421      8.000000
  0.333333  0.116667  0.368421      8.000000
  0.380952  0.116667  0.368421      8.000000
  0.428571  0.116667  0.368421      8.000000
  0.476190  0.116667  0.368421      8.000000
  0.000000  0.150000  0.368421      4.000000
  0.047619  0.150000  0.368421      8.000000
  0.095238  0.150000  0.368421      8.000000
  0.142857  0.150000  0.368421      8.000000
  0.190476  0.150000  0.368421      8.000000
  0.238095  0.150000  0.368421      8.000000
  0.285714  0.150000  0.368421      8.000000
  0.333333  0.150000  0.368421      8.000000
  0.380952  0.150000  0.368421      8.000000
  0.428571  0.150000  0.368421      8.000000
  0.476190  0.150000  0.368421      8.000000
  0.000000  0.183333  0.368421      4.000000
  0.047619  0.183333  0.368421      8.000000
  0.095238  0.183333  0.368421      8.000000
  0.142857  0.183333  0.368421      8.000000
  0.190476  0.183333  0.368421      8.000000
  0.238095  0.183333  0.368421      8.000000
  0.285714  0.183333  0.368421      8.000000
  0.333333  0.183333  0.368421      8.000000
  0.380952  0.183333  0.368421      8.000000
  0.428571  0.183333  0.368421      8.000000
  0.476190  0.183333  0.368421      8.000000
  0.000000  0.216667  0.368421      4.000000
  0.047619  0.216667  0.368421      8.000000
  0.095238  0.216667  0.368421      8.000000
  0.142857  0.216667  0.368421      8.000000
  0.190476  0.216667  0.368421      8.000000
  0.238095  0.216667  0.368421      8.000000
  0.285714  0.216667  0.368421      8.000000
  0.333333  0.216667  0.368421      8.000000
  0.380952  0.216667  0.368421      8.000000
  0.428571  0.216667  0.368421      8.000000
  0.476190  0.216667  0.368421      8.000000
  0.000000  0.250000  0.368421      4.000000
  0.047619  0.250000  0.368421      8.000000
  0.095238  0.250000  0.368421      8.000000
  0.142857  0.250000  0.368421      8.000000
  0.190476  0.250000  0.368421      8.000000
  0.238095  0.250000  0.368421      8.000000
  0.285714  0.250000  0.368421      8.000000
  0.333333  0.250000  0.368421      8.000000
  0.380952  0.250000  0.368421      8.000000
  0.428571  0.250000  0.368421      8.000000
  0.476190  0.250000  0.368421      8.000000
  0.000000  0.283333  0.368421      4.000000
  0.047619  0.283333  0.368421      8.000000
  0.095238  0.283333  0.368421      8.000000
  0.142857  0.283333  0.368421      8.000000
  0.190476  0.283333  0.368421      8.000000
  0.238095  0.283333  0.368421      8.000000
  0.285714  0.283333  0.368421      8.000000
  0.333333  0.283333  0.368421      8.000000
  0.380952  0.283333  0.368421      8.000000
  0.428571  0.283333  0.368421      8.000000
  0.476190  0.283333  0.368421      8.000000
  0.000000  0.316667  0.368421      4.000000
  0.047619  0.316667  0.368421      8.000000
  0.095238  0.316667  0.368421      8.000000
  0.142857  0.316667  0.368421      8.000000
  0.190476  0.316667  0.368421      8.000000
  0.238095  0.316667  0.368421      8.000000
  0.285714  0.316667  0.368421      8.000000
  0.333333  0.316667  0.368421      8.000000
  0.380952  0.316667  0.368421      8.000000
  0.428571  0.316667  0.368421      8.000000
  0.476190  0.316667  0.368421      8.000000
  0.000000  0.350000  0.368421      4.000000
  0.047619  0.350000  0.368421      8.000000
  0.095238  0.350000  0.368421      8.000000
  0.142857  0.350000  0.368421      8.000000
  0.190476  0.350000  0.368421      8.000000
  0.238095  0.350000  0.368421      8.000000
  0.285714  0.350000  0.368421      8.000000
  0.333333  0.350000  0.368421      8.000000
  0.380952  0.350000  0.368421      8.000000
  0.428571  0.350000  0.368421      8.000000
  0.476190  0.350000  0.368421      8.000000
  0.000000  0.383333  0.368421      4.000000
  0.047619  0.383333  0.368421      8.000000
  0.095238  0.383333  0.368421      8.000000
  0.142857  0.383333  0.368421      8.000000
  0.190476  0.383333  0.368421      8.000000
  0.238095  0.383333  0.368421      8.000000
  0.285714  0.383333  0.368421      8.000000
  0.333333  0.383333  0.368421      8.000000
  0.380952  0.383333  0.368421      8.000000
  0.428571  0.383333  0.368421      8.000000
  0.476190  0.383333  0.368421      8.000000
  0.000000  0.416667  0.368421      4.000000
  0.047619  0.416667  0.368421      8.000000
  0.095238  0.416667  0.368421      8.000000
  0.142857  0.416667  0.368421      8.000000
  0.190476  0.416667  0.368421      8.000000
  0.238095  0.416667  0.368421      8.000000
  0.285714  0.416667  0.368421      8.000000
  0.333333  0.416667  0.368421      8.000000
  0.380952  0.416667  0.368421      8.000000
  0.428571  0.416667  0.368421      8.000000
  0.476190  0.416667  0.368421      8.000000
  0.000000  0.450000  0.368421      4.000000
  0.047619  0.450000  0.368421      8.000000
  0.095238  0.450000  0.368421      8.000000
  0.142857  0.450000  0.368421      8.000000
  0.190476  0.450000  0.368421      8.000000
  0.238095  0.450000  0.368421      8.000000
  0.285714  0.450000  0.368421      8.000000
  0.333333  0.450000  0.368421      8.000000
  0.380952  0.450000  0.368421      8.000000
  0.428571  0.450000  0.368421      8.000000
  0.476190  0.450000  0.368421      8.000000
  0.000000  0.483333  0.368421      4.000000
  0.047619  0.483333  0.368421      8.000000
  0.095238  0.483333  0.368421      8.000000
  0.142857  0.483333  0.368421      8.000000
  0.190476  0.483333  0.368421      8.000000
  0.238095  0.483333  0.368421      8.000000
  0.285714  0.483333  0.368421      8.000000
  0.333333  0.483333  0.368421      8.000000
  0.380952  0.483333  0.368421      8.000000
  0.428571  0.483333  0.368421      8.000000
  0.476190  0.483333  0.368421      8.000000
  0.000000  0.016667  0.421053      4.000000
  0.047619  0.016667  0.421053      8.000000
  0.095238  0.016667  0.421053      8.000000
  0.142857  0.016667  0.421053      8.000000
  0.190476  0.016667  0.421053      8.000000
  0.238095  0.016667  0.421053      8.000000
  0.285714  0.016667  0.421053      8.000000
  0.333333  0.016667  0.421053      8.000000
  0.380952  0.016667  0.421053      8.000000
  0.428571  0.016667  0.421053      8.000000
  0.476190  0.016667  0.421053      8.000000
  0.000000  0.050000  0.421053      4.000000
  0.047619  0.050000  0.421053      8.000000
  0.095238  0.050000  0.421053      8.000000
  0.142857  0.050000  0.421053      8.000000
  0.190476  0.050000  0.421053      8.000000
  0.238095  0.050000  0.421053      8.000000
  0.285714  0.050000  0.421053      8.000000
  0.333333  0.050000  0.421053      8.000000
  0.380952  0.050000  0.421053      8.000000
  0.428571  0.050000  0.421053      8.000000
  0.476190  0.050000  0.421053      8.000000
  0.000000  0.083333  0.421053      4.000000
  0.047619  0.083333  0.421053      8.000000
  0.095238  0.083333  0.421053      8.000000
  0.142857  0.083333  0.421053      8.000000
  0.190476  0.083333  0.421053      8.000000
  0.238095  0.083333  0.421053      8.000000
  0.285714  0.083333  0.421053      8.000000
  0.333333  0.083333  0.421053      8.000000
  0.380952  0.083333  0.421053      8.000000
  0.428571  0.083333  0.421053      8.000000
  0.476190  0.083333  0.421053      8.000000
  0.000000  0.116667  0.421053      4.000000
  0.047619  0.116667  0.421053      8.000000
  0.095238  0.116667  0.421053      8.000000
  0.142857  0.116667  0.421053      8.000000
  0.190476  0.116667  0.421053      8.000000
  0.238095  0.116667  0.421053      8.000000
  0.285714  0.116667  0.421053      8.000000
  0.333333  0.116667  0.421053      8.000000
  0.380952  0.116667  0.421053      8.000000
  0.428571  0.116667  0.421053      8.000000
  0.476190  0.116667  0.421053      8.000000
  0.000000  0.150000  0.421053      4.000000
  0.047619  0.150000  0.421053      8.000000
  0.095238  0.150000  0.421053      8.000000
  0.142857  0.150000  0.421053      8.000000
  0.190476  0.150000  0.421053      8.000000
  0.238095  0.150000  0.421053      8.000000
  0.285714  0.150000  0.421053      8.000000
  0.333333  0.150000  0.421053      8.000000
  0.380952  0.150000  0.421053      8.000000
  0.428571  0.150000  0.421053      8.000000
  0.476190  0.150000  0.421053      8.000000
  0.000000  0.183333  0.421053      4.000000
  0.047619  0.183333  0.421053      8.000000
  0.095238  0.183333  0.421053      8.000000
  0.142857  0.183333  0.421053      8.000000
  0.190476  0.183333  0.421053      8.000000
  0.238095  0.183333  0.421053      8.000000
  0.285714  0.183333  0.421053      8.000000
  0.333333  0.183333  0.421053      8.000000
  0.380952  0.183333  0.421053      8.000000
  0.428571  0.183333  0.421053      8.000000
  0.476190  0.183333  0.421053      8.000000
  0.000000  0.216667  0.421053      4.000000
  0.047619  0.216667  0.421053      8.000000
  0.095238  0.216667  0.421053      8.000000
  0.142857  0.216667  0.421053      8.000000
  0.190476  0.216667  0.421053      8.000000
  0.238095  0.216667  0.421053      8.000000
  0.285714  0.216667  0.421053      8.000000
  0.333333  0.216667  0.421053      8.000000
  0.380952  0.216667  0.421053      8.000000
  0.428571  0.216667  0.421053      8.000000
  0.476190  0.216667  0.421053      8.000000
  0.000000  0.250000  0.421053      4.000000
  0.047619  0.250000  0.421053      8.000000
  0.095238  0.250000  0.421053      8.000000
  0.142857  0.250000  0.421053      8.000000
  0.190476  0.250000  0.421053      8.000000
  0.238095  0.250000  0.421053      8.000000
  0.285714  0.250000  0.421053      8.000000
  0.333333  0.250000  0.421053      8.000000
  0.380952  0.250000  0.421053      8.000000
  0.428571  0.250000  0.421053      8.000000
  0.476190  0.250000  0.421053      8.000000
  0.000000  0.283333  0.421053      4.000000
  0.047619  0.283333  0.421053      8.000000
  0.095238  0.283333  0.421053      8.000000
  0.142857  0.283333  0.421053      8.000000
  0.190476  0.283333  0.421053      8.000000
  0.238095  0.283333  0.421053      8.000000
  0.285714  0.283333  0.421053      8.000000
  0.333333  0.283333  0.421053      8.000000
  0.380952  0.283333  0.421053      8.000000
  0.428571  0.283333  0.421053      8.000000
  0.476190  0.283333  0.421053      8.000000
  0.000000  0.316667  0.421053      4.000000
  0.047619  0.316667  0.421053      8.000000
  0.095238  0.316667  0.421053      8.000000
  0.142857  0.316667  0.421053      8.000000
  0.190476  0.316667  0.421053      8.000000
  0.238095  0.316667  0.421053      8.000000
  0.285714  0.316667  0.421053      8.000000
  0.333333  0.316667  0.421053      8.000000
  0.380952  0.316667  0.421053      8.000000
  0.428571  0.316667  0.421053      8.000000
  0.476190  0.316667  0.421053      8.000000
  0.000000  0.350000  0.421053      4.000000
  0.047619  0.350000  0.421053      8.000000
  0.095238  0.350000  0.421053      8.000000
  0.142857  0.350000  0.421053      8.000000
  0.190476  0.350000  0.421053      8.000000
  0.238095  0.350000  0.421053      8.000000
  0.285714  0.350000  0.421053      8.000000
  0.333333  0.350000  0.421053      8.000000
  0.380952  0.350000  0.421053      8.000000
  0.428571  0.350000  0.421053      8.000000
  0.476190  0.350000  0.421053      8.000000
  0.000000  0.383333  0.421053      4.000000
  0.047619  0.383333  0.421053      8.000000
  0.095238  0.383333  0.421053      8.000000
  0.142857  0.383333  0.421053      8.000000
  0.190476  0.383333  0.421053      8.000000
  0.238095  0.383333  0.421053      8.000000
  0.285714  0.383333  0.421053      8.000000
  0.333333  0.383333  0.421053      8.000000
  0.380952  0.383333  0.421053      8.000000
  0.428571  0.383333  0.421053      8.000000
  0.476190  0.383333  0.421053      8.000000
  0.000000  0.416667  0.421053      4.000000
  0.047619  0.416667  0.421053      8.000000
  0.095238  0.416667  0.421053      8.000000
  0.142857  0.416667  0.421053      8.000000
  0.190476  0.416667  0.421053      8.000000
  0.238095  0.416667  0.421053      8.000000
  0.285714  0.416667  0.421053      8.000000
  0.333333  0.416667  0.421053      8.000000
  0.380952  0.416667  0.421053      8.000000
  0.428571  0.416667  0.421053      8.000000
  0.476190  0.416667  0.421053      8.000000
  0.000000  0.450000  0.421053      4.000000
  0.047619  0.450000  0.421053      8.000000
  0.095238  0.450000  0.421053      8.000000
  0.142857  0.450000  0.421053      8.000000
  0.190476  0.450000  0.421053      8.000000
  0.238095  0.450000  0.421053      8.000000
  0.285714  0.450000  0.421053      8.000000
  0.333333  0.450000  0.421053      8.000000
  0.380952  0.450000  0.421053      8.000000
  0.428571  0.450000  0.421053      8.000000
  0.476190  0.450000  0.421053      8.000000
  0.000000  0.483333  0.421053      4.000000
  0.047619  0.483333  0.421053      8.000000
  0.095238  0.483333  0.421053      8.000000
  0.142857  0.483333  0.421053      8.000000
  0.190476  0.483333  0.421053      8.000000
  0.238095  0.483333  0.421053      8.000000
  0.285714  0.483333  0.421053      8.000000
  0.333333  0.483333  0.421053      8.000000
  0.380952  0.483333  0.421053      8.000000
  0.428571  0.483333  0.421053      8.000000
  0.476190  0.483333  0.421053      8.000000
  0.000000  0.016667  0.473684      4.000000
  0.047619  0.016667  0.473684      8.000000
  0.095238  0.016667  0.473684      8.000000
  0.142857  0.016667  0.473684      8.000000
  0.190476  0.016667  0.473684      8.000000
  0.238095  0.016667  0.473684      8.000000
  0.285714  0.016667  0.473684      8.000000
  0.333333  0.016667  0.473684      8.000000
  0.380952  0.016667  0.473684      8.000000
  0.428571  0.016667  0.473684      8.000000
  0.476190  0.016667  0.473684      8.000000
  0.000000  0.050000  0.473684      4.000000
  0.047619  0.050000  0.473684      8.000000
  0.095238  0.050000  0.473684      8.000000
  0.142857  0.050000  0.473684      8.000000
  0.190476  0.050000  0.473684      8.000000
  0.238095  0.050000  0.473684      8.000000
  0.285714  0.050000  0.473684      8.000000
  0.333333  0.050000  0.473684      8.000000
  0.380952  0.050000  0.473684      8.000000
  0.428571  0.050000  0.473684      8.000000
  0.476190  0.050000  0.473684      8.000000
  0.000000  0.083333  0.473684      4.000000
  0.047619  0.083333  0.473684      8.000000
  0.095238  0.083333  0.473684      8.000000
  0.142857  0.083333  0.473684      8.000000
  0.190476  0.083333  0.473684      8.000000
  0.238095  0.083333  0.473684      8.000000
  0.285714  0.083333  0.473684      8.000000
  0.333333  0.083333  0.473684      8.000000
  0.380952  0.083333  0.473684      8.000000
  0.428571  0.083333  0.473684      8.000000
  0.476190  0.083333  0.473684      8.000000
[...]
     43      13.5709      0.00000
     44      13.6473      0.00000
     45      14.4871      0.00000
     46      14.5847      0.00000
     47      15.4158      0.00000
     48      15.4553      0.00000

 k-point  1645 :       0.2381    0.4833    0.4737
  band No.  band energies     occupation 
      1     -12.2597      2.00000
      2     -11.6184      2.00000
      3      -8.5708      2.00000
      4      -8.0905      2.00000
      5      -6.1498      2.00000
      6      -5.9657      2.00000
      7      -5.6817      2.00000
      8      -5.1416      2.00000
      9      -3.6781      2.00000
     10      -2.7799      2.00000
     11      -2.5065      2.00000
     12      -1.9702      2.00000
     13      -1.7627      2.00000
     14      -1.3692      2.00000
     15      -1.1746      2.00000
     16      -0.5273      2.00000
     17      -0.1256      2.00000
     18       0.0500      2.00000
     19       0.4512      2.00000
     20       1.7133      2.00000
     21       2.0358      0.00004
     22       2.5119      0.00000
     23       5.0546      0.00000
     24       6.3719      0.00000
     25       6.6840      0.00000
     26       6.8255      0.00000
     27       7.9141      0.00000
     28       8.5172      0.00000
     29       8.6240      0.00000
     30       8.9927      0.00000
     31       9.5898      0.00000
     32      10.1365      0.00000
     33      10.8337      0.00000
     34      11.0834      0.00000
     35      11.3118      0.00000
     36      11.4490      0.00000
     37      11.8348      0.00000
     38      12.1597      0.00000
     39      12.5039      0.00000
     40      12.6313      0.00000
     41      13.2950      0.00000
     42      13.4910      0.00000
     43      13.7478      0.00000
     44      13.8485      0.00000
     45      14.1550      0.00000
     46      14.7226      0.00000
     47      15.3712      0.00000
     48      15.4222      0.00000

 k-point  1646 :       0.2857    0.4833    0.4737
  band No.  band energies     occupation 
      1     -12.2148      2.00000
      2     -11.6677      2.00000
      3      -8.5928      2.00000
      4      -8.1715      2.00000
      5      -6.1077      2.00000
      6      -5.7261      2.00000
      7      -5.7022      2.00000
      8      -5.0448      2.00000
      9      -3.8325      2.00000
     10      -3.0512      2.00000
     11      -2.4289      2.00000
     12      -2.0656      2.00000
     13      -1.8784      2.00000
     14      -1.3508      2.00000
     15      -1.0736      2.00000
     16      -0.3745      2.00000
     17       0.0266      2.00000
     18       0.1855      2.00000
     19       0.4790      2.00000
     20       1.6864      2.00000
     21       1.9764      0.01410
     22       2.1104      0.00000
     23       5.2387      0.00000
     24       6.2935      0.00000
     25       6.6181      0.00000
     26       7.0456      0.00000
     27       7.8828      0.00000
     28       8.6377      0.00000
     29       8.7646      0.00000
     30       8.8172      0.00000
     31       9.6896      0.00000
     32       9.9874      0.00000
     33      10.7969      0.00000
     34      11.0151      0.00000
     35      11.2920      0.00000
     36      11.4292      0.00000
     37      11.7394      0.00000
     38      12.0143      0.00000
     39      12.6417      0.00000
     40      12.8535      0.00000
     41      13.5412      0.00000
     42      13.6522      0.00000
     43      13.7992      0.00000
     44      13.9342      0.00000
     45      14.0770      0.00000
     46      14.9129      0.00000
     47      15.2890      0.00000
     48      15.4415      0.00000

 k-point  1647 :       0.3333    0.4833    0.4737
  band No.  band energies     occupation 
      1     -12.1635      2.00000
      2     -11.7235      2.00000
      3      -8.6000      2.00000
      4      -8.2539      2.00000
      5      -6.0610      2.00000
      6      -5.7359      2.00000
      7      -5.4608      2.00000
      8      -4.9358      2.00000
      9      -3.9897      2.00000
     10      -3.3369      2.00000
     11      -2.3366      2.00000
     12      -2.1388      2.00000
     13      -1.9817      2.00000
     14      -1.4484      2.00000
     15      -0.8566      2.00000
     16      -0.2269      2.00000
     17       0.1653      2.00000
     18       0.3033      2.00000
     19       0.5047      2.00000
     20       1.6629      2.00000
     21       1.7170      2.00000
     22       1.9101      0.56325
     23       5.4370      0.00000
     24       6.2186      0.00000
     25       6.5945      0.00000
     26       7.2133      0.00000
     27       7.7741      0.00000
     28       8.3586      0.00000
     29       8.9533      0.00000
     30       9.0696      0.00000
     31       9.7428      0.00000
     32       9.9142      0.00000
     33      10.7056      0.00000
     34      11.0137      0.00000
     35      11.2325      0.00000
     36      11.4322      0.00000
     37      11.6438      0.00000
     38      11.8836      0.00000
     39      12.7751      0.00000
     40      13.1113      0.00000
     41      13.4764      0.00000
     42      13.8331      0.00000
     43      13.8828      0.00000
     44      14.0574      0.00000
     45      14.2681      0.00000
     46      15.0592      0.00000
     47      15.1620      0.00000
     48      15.3797      0.00000

 k-point  1648 :       0.3810    0.4833    0.4737
  band No.  band energies     occupation 
      1     -12.1066      2.00000
      2     -11.7845      2.00000
      3      -8.5912      2.00000
      4      -8.3337      2.00000
      5      -6.0111      2.00000
      6      -5.7716      2.00000
      7      -5.1883      2.00000
      8      -4.8144      2.00000
      9      -4.1464      2.00000
     10      -3.6302      2.00000
     11      -2.2327      2.00000
     12      -2.1867      2.00000
     13      -2.0692      2.00000
     14      -1.5764      2.00000
     15      -0.6048      2.00000
     16      -0.0981      2.00000
     17       0.2850      2.00000
     18       0.3948      2.00000
     19       0.5229      2.00000
     20       1.3414      2.00000
     21       1.6487      2.00000
     22       1.8404      1.83585
     23       5.6291      0.00000
     24       6.1457      0.00000
     25       6.6370      0.00000
     26       7.3279      0.00000
     27       7.6652      0.00000
     28       8.0007      0.00000
     29       9.1593      0.00000
     30       9.3838      0.00000
     31       9.7522      0.00000
     32       9.9072      0.00000
     33      10.5911      0.00000
     34      11.0615      0.00000
     35      11.1034      0.00000
     36      11.4468      0.00000
     37      11.5687      0.00000
     38      11.7586      0.00000
     39      12.9159      0.00000
     40      13.2982      0.00000
     41      13.3758      0.00000
     42      14.0180      0.00000
     43      14.1163      0.00000
     44      14.2224      0.00000
     45      14.3829      0.00000
     46      14.9722      0.00000
     47      15.1158      0.00000
     48      15.2700      0.00000

 k-point  1649 :       0.4286    0.4833    0.4737
  band No.  band energies     occupation 
      1     -12.0453      2.00000
      2     -11.8488      2.00000
      3      -8.5663      2.00000
      4      -8.4077      2.00000
      5      -5.9597      2.00000
      6      -5.8129      2.00000
      7      -4.9160      2.00000
      8      -4.6774      2.00000
      9      -4.2989      2.00000
     10      -3.9249      2.00000
     11      -2.2133      2.00000
     12      -2.1383      2.00000
     13      -2.1137      2.00000
     14      -1.7143      2.00000
     15      -0.3444      2.00000
     16      -0.0079      2.00000
     17       0.3798      2.00000
     18       0.4518      2.00000
     19       0.5387      2.00000
     20       1.0001      2.00000
     21       1.6502      2.00000
     22       1.7730      1.99903
     23       5.7901      0.00000
     24       6.0734      0.00000
     25       6.7684      0.00000
     26       7.4019      0.00000
     27       7.5751      0.00000
     28       7.6386      0.00000
     29       9.3518      0.00000
     30       9.6640      0.00000
     31       9.7408      0.00000
     32       9.9382      0.00000
     33      10.4929      0.00000
     34      10.8952      0.00000
     35      11.1614      0.00000
     36      11.4657      0.00000
     37      11.5237      0.00000
     38      11.6165      0.00000
     39      13.0440      0.00000
     40      13.2130      0.00000
     41      13.6475      0.00000
     42      14.1386      0.00000
     43      14.2447      0.00000
     44      14.3658      0.00000
     45      14.5039      0.00000
     46      14.7994      0.00000
     47      15.0008      0.00000
     48      15.1085      0.00000

 k-point  1650 :       0.4762    0.4833    0.4737
  band No.  band energies     occupation 
      1     -11.9809      2.00000
      2     -11.9149      2.00000
      3      -8.5263      2.00000
      4      -8.4727      2.00000
      5      -5.9084      2.00000
      6      -5.8589      2.00000
      7      -4.6760      2.00000
      8      -4.5476      2.00000
      9      -4.4042      2.00000
     10      -4.2085      2.00000
     11      -2.2119      2.00000
     12      -2.1865      2.00000
     13      -1.9875      2.00000
     14      -1.8532      2.00000
     15      -0.1160      2.00000
     16       0.0043      2.00000
     17       0.4431      2.00000
     18       0.4684      2.00000
     19       0.5837      2.00000
     20       0.7298      2.00000
     21       1.6721      2.00000
     22       1.7145      2.00000
     23       5.9091      0.00000
     24       5.9979      0.00000
     25       6.9936      0.00000
     26       7.2919      0.00000
     27       7.4562      0.00000
     28       7.5104      0.00000
     29       9.5174      0.00000
     30       9.6427      0.00000
     31       9.8907      0.00000
     32       9.9668      0.00000
     33      10.4972      0.00000
     34      10.6663      0.00000
     35      11.2914      0.00000
     36      11.4425      0.00000
     37      11.4857      0.00000
     38      11.5108      0.00000
     39      13.1341      0.00000
     40      13.1795      0.00000
     41      13.9235      0.00000
     42      14.1647      0.00000
     43      14.2594      0.00000
     44      14.3032      0.00000
     45      14.6934      0.00000
     46      14.7704      0.00000
     47      14.8236      0.00000
     48      14.9403      0.00000


--------------------------------------------------------------------------------------------------------


 soft charge-density along one line, spin component           1
         0         1         2         3         4         5         6         7         8         9
 total charge-density along one line
 
 pseudopotential strength for first ion, spin component:           1
  6.446   9.815   0.000  -0.009   0.005   0.000  -0.014   0.008
  9.815  14.939   0.000  -0.013   0.007   0.000  -0.021   0.011
  0.000   0.000  -2.174   0.000   0.000  -3.695   0.000   0.000
 -0.009  -0.013   0.000  -2.179  -0.001   0.000  -3.705  -0.002
  0.005   0.007   0.000  -0.001  -2.177   0.000  -0.002  -3.703
  0.000   0.000  -3.695   0.000   0.000  -6.081   0.000   0.000
 -0.014  -0.021   0.000  -3.705  -0.002   0.000  -6.103  -0.004
  0.008   0.011   0.000  -0.002  -3.703   0.000  -0.004  -6.099
 total augmentation occupancy for first ion, spin component:           1
  3.642  -0.977   0.000  -0.245   0.416   0.000   0.124  -0.176
 -0.977   0.286   0.000   0.161  -0.197   0.000  -0.056   0.073
  0.000   0.000   2.278   0.000  -0.000  -0.543   0.000   0.000
 -0.245   0.161   0.000   3.774   0.327   0.000  -1.053  -0.120
  0.416  -0.197  -0.000   0.327   3.601   0.000  -0.120  -0.979
  0.000  -0.000  -0.543   0.000   0.000   0.134  -0.000   0.000
  0.124  -0.056   0.000  -1.053  -0.120  -0.000   0.303   0.043
 -0.176   0.073   0.000  -0.120  -0.979   0.000   0.043   0.276


------------------------ aborting loop because EDIFF is reached ----------------------------------------


    CHARGE:  cpu time      0.7821: real time      0.7859
    FORLOC:  cpu time      0.0011: real time      0.0011
    FORNL :  cpu time      5.7727: real time      5.8013
    STRESS:  cpu time     29.1036: real time     29.2622
    FORCOR:  cpu time      0.0096: real time      0.0097
    FORHAR:  cpu time      0.0030: real time      0.0030
    MIXING:  cpu time      0.0007: real time      0.0007
    OFIELD:  cpu time      0.0000: real time      0.0000

  FORCE on cell =-STRESS in cart. coord.  units (eV):
  Direction    XX          YY          ZZ          XY          YZ          ZX
  --------------------------------------------------------------------------------------
  Alpha Z    94.24358    94.24358    94.24358
  Ewald     -90.05465  -558.27634  -147.43815    -0.00000    -0.00000     0.00000
  Hartree   186.96431     5.99883   156.13423    -0.00000    -0.00000    -0.00000
  E(xc)    -134.90836  -135.88019  -134.87090    -0.00000    -0.00000    -0.00000
  Local    -493.78971   125.92134  -405.82653    -0.00000     0.00000     0.00000
  n-local    -8.86422   -10.90877    -9.26094    -0.00532    -0.00639     0.06165
  augment     1.32033     1.36579     1.34884     0.00000    -0.00000    -0.00000
  Kinetic   446.32663   477.72448   445.10910     0.24509     0.06683    -1.08413
  Fock        0.00000     0.00000     0.00000     0.00000     0.00000     0.00000
  -------------------------------------------------------------------------------------
  Total       1.23792     0.18872    -0.56078     0.00000     0.00000     0.00000
  in kB      13.86249     2.11337    -6.27970     0.00000     0.00000     0.00000
  external pressure =        3.23 kB  Pullay stress =        0.00 kB


 VOLUME and BASIS-vectors are now :
 -----------------------------------------------------------------------------
  energy-cutoff  :      480.00
  volume of cell :      143.07
      direct lattice vectors                 reciprocal lattice vectors
     5.697000000  0.000000000  0.000000000     0.175530981  0.000000000  0.000000000
     0.000000000  4.047900000  0.000000000     0.000000000  0.247041676  0.000000000
     0.000000000  0.000000000  6.204200000     0.000000000  0.000000000  0.161181135

  length of vectors
     5.697000000  4.047900000  6.204200000     0.175530981  0.247041676  0.161181135


 FORCES acting on ions
    electron-ion (+dipol)            ewald-force                    non-local-force                 convergence-correction
 -----------------------------------------------------------------------------------------------
   0.497E+02 -.320E-12 -.250E+02   -.515E+02 0.211E-14 0.284E+02   0.181E+01 -.318E-19 -.332E+01   -.882E-04 0.411E-14 0.100E-03
   -.497E+02 -.313E-12 0.250E+02   0.515E+02 0.448E-16 -.284E+02   -.181E+01 0.247E-19 0.332E+01   0.882E-04 0.342E-14 -.100E-03
   -.497E+02 -.283E-12 -.250E+02   0.515E+02 0.587E-14 0.284E+02   -.181E+01 0.412E-19 -.332E+01   0.882E-04 0.402E-14 0.100E-03
   0.497E+02 0.300E-14 0.250E+02   -.515E+02 0.181E-14 -.284E+02   0.181E+01 -.108E-19 0.332E+01   -.882E-04 0.351E-14 -.100E-03
   0.313E+02 0.816E-12 -.527E+02   -.341E+02 0.342E-14 0.571E+02   0.194E+01 -.601E-19 -.409E+01   -.641E-04 0.403E-14 -.166E-04
   -.313E+02 0.246E-12 0.527E+02   0.341E+02 0.354E-14 -.571E+02   -.194E+01 -.805E-19 0.409E+01   0.641E-04 0.233E-14 0.166E-04
   -.313E+02 0.846E-12 -.527E+02   0.341E+02 0.299E-14 0.571E+02   -.194E+01 0.591E-19 -.409E+01   0.641E-04 0.404E-14 -.166E-04
   0.313E+02 -.933E-15 0.527E+02   -.341E+02 0.353E-14 -.571E+02   0.194E+01 -.274E-19 0.409E+01   -.641E-04 0.261E-14 0.166E-04
   -.198E-13 -.558E+02 -.155E+02   -.720E-14 0.613E+02 0.166E+02   -.110E-17 -.540E+01 -.112E+01   0.103E-14 0.299E-03 0.975E-04
   -.369E-13 0.558E+02 0.155E+02   0.108E-13 -.613E+02 -.166E+02   0.518E-18 0.540E+01 0.112E+01   0.123E-13 -.299E-03 -.975E-04
   -.200E-13 0.558E+02 -.155E+02   0.393E-14 -.613E+02 0.166E+02   0.238E-18 0.540E+01 -.112E+01   0.118E-14 -.299E-03 0.975E-04
   -.365E-13 -.558E+02 0.155E+02   0.643E-14 0.613E+02 -.166E+02   -.136E-18 -.540E+01 0.112E+01   0.119E-13 0.299E-03 -.975E-04
   -.134E-13 0.111E-13 -.623E+02   0.123E-13 0.532E-14 0.649E+02   -.309E-18 0.188E-18 -.256E+01   -.675E-14 0.413E-14 0.994E-04
   -.156E-13 0.656E-12 0.623E+02   0.173E-13 0.235E-14 -.649E+02   -.744E-18 0.112E-18 0.256E+01   0.337E-14 0.339E-14 -.994E-04
 -----------------------------------------------------------------------------------------------
   -.824E-13 0.124E-11 -.151E-11   0.152E-13 0.767E-14 -.284E-13   -.154E-17 -.888E-15 -.133E-14   0.377E-13 0.316E-13 -.332E-13
 
 
 POSITION                                       TOTAL-FORCE (eV/Angst)
 -----------------------------------------------------------------------------------
      2.96945      2.02395      3.95803         0.000646     -0.000000      0.046053
      2.72755      2.02395      2.24617        -0.000646     -0.000000     -0.046053
      5.57605      2.02395      3.95803        -0.000646     -0.000000      0.046053
      0.12095      2.02395      2.24617         0.000646     -0.000000     -0.046053
      3.42333      2.02395      5.58322        -0.826527     -0.000000      0.282427
      2.27367      2.02395      0.62098         0.826527     -0.000000     -0.282427
      5.12217      2.02395      5.58322         0.826527     -0.000000      0.282427
      0.57483      2.02395      0.62098        -0.826527     -0.000000     -0.282427
      4.27275      3.20476      4.52739        -0.000000      0.062347     -0.077895
      1.42425      0.84314      1.67681        -0.000000     -0.062347      0.077895
      4.27275      0.84314      4.52739        -0.000000     -0.062347     -0.077895
      1.42425      3.20476      1.67681        -0.000000      0.062347      0.077895
      1.42425      2.02395      3.24895        -0.000000     -0.000000      0.059298
      4.27275      2.02395      2.95525        -0.000000     -0.000000     -0.059298
 -----------------------------------------------------------------------------------
    total drift:                               -0.000000      0.000000     -0.000000


--------------------------------------------------------------------------------------------------------



  FREE ENERGIE OF THE ION-ELECTRON SYSTEM (eV)
  ---------------------------------------------------
  free  energy   TOTEN  =       -90.58352207 eV

  energy  without entropy=      -90.58018105  energy(sigma->0) =      -90.58185156
 


--------------------------------------------------------------------------------------------------------


    POTLOK:  cpu time      0.0182: real time      0.0186


--------------------------------------------------------------------------------------------------------


     LOOP+:  cpu time   1091.6621: real time   1099.9886
    4ORBIT:  cpu time      0.0000: real time      0.0000

 total amount of memory used by VASP MPI-rank0   589161. kBytes
=======================================================================

   base      :      30000. kBytes
   nonl-proj :     365727. kBytes
   fftplans  :       1019. kBytes
   grid      :       3560. kBytes
   one-center:         43. kBytes
   wavefun   :     188812. kBytes
 
  
  
 General timing and accounting informations for this job:
 ========================================================
  
                  Total CPU time used (sec):     1132.249
                            User time (sec):     1116.076
                          System time (sec):       16.173
                         Elapsed time (sec):     1172.231
  
                   Maximum memory used (kb):     1102244.
                   Average memory used (kb):          N/A
  
                          Minor page faults:      4440987
                          Major page faults:         1426
                 Voluntary context switches:        42384
