  14  14   0   0
  0.1021653E+02  0.5696430E-09  0.4047495E-09  0.6203580E-09  0.5000000E-15
  1.000000000000000E-004
  CAR 
 Convergence                             
     17.98003531    -14.18735420  301      1.88583763      1.00000000
    -14.187  0.0000E+00  0.0000E+00
    -14.080  0.0000E+00  0.0000E+00
    -13.973  0.0000E+00  0.0000E+00
    -13.866  0.0000E+00  0.0000E+00
    -13.758  0.0000E+00  0.0000E+00
    -13.651  0.0000E+00  0.0000E+00
    -13.544  0.0000E+00  0.0000E+00
    -13.437  0.0000E+00  0.0000E+00
    -13.330  0.0000E+00  0.0000E+00
    -13.222  0.0000E+00  0.0000E+00
    -13.115  0.0000E+00  0.0000E+00
    -13.008  0.4602E-16  0.4934E-17
    -12.901  0.2951E-07  0.3164E-08
    -12.793  0.3812E-02  0.4088E-03
    -12.686  0.5084E+00  0.5492E-01
    -12.579  0.2390E+01  0.3112E+00
    -12.472  0.3563E+01  0.6933E+00
    -12.365  0.4371E+01  0.1162E+01
    -12.257  0.3539E+01  0.1541E+01
    -12.150  0.2735E+01  0.1835E+01
    -12.043  0.2751E+01  0.2130E+01
    -11.936  0.2505E+01  0.2398E+01
    -11.828  0.2771E+01  0.2695E+01
    -11.721  0.3428E+01  0.3063E+01
    -11.614  0.3535E+01  0.3442E+01
    -11.507  0.3113E+01  0.3776E+01
    -11.400  0.1665E+01  0.3954E+01
    -11.292  0.4191E+00  0.3999E+01
    -11.185  0.7100E-02  0.4000E+01
    -11.078  0.1663E-06  0.4000E+01
    -10.971  0.8546E-15  0.4000E+01
    -10.863  0.0000E+00  0.4000E+01
    -10.756  0.0000E+00  0.4000E+01
    -10.649  0.0000E+00  0.4000E+01
    -10.542  0.0000E+00  0.4000E+01
    -10.434  0.0000E+00  0.4000E+01
    -10.327  0.0000E+00  0.4000E+01
    -10.220  0.0000E+00  0.4000E+01
    -10.113  0.0000E+00  0.4000E+01
    -10.006  0.0000E+00  0.4000E+01
     -9.898  0.0000E+00  0.4000E+01
     -9.791  0.0000E+00  0.4000E+01
     -9.684  0.0000E+00  0.4000E+01
     -9.577  0.0000E+00  0.4000E+01
     -9.469  0.0000E+00  0.4000E+01
     -9.362  0.0000E+00  0.4000E+01
     -9.255  0.0000E+00  0.4000E+01
     -9.148  0.0000E+00  0.4000E+01
     -9.041  0.9268E-09  0.4000E+01
     -8.933  0.6193E-03  0.4000E+01
     -8.826  0.2757E+00  0.4030E+01
     -8.719  0.2089E+01  0.4254E+01
     -8.612  0.5328E+01  0.4825E+01
     -8.504  0.6986E+01  0.5574E+01
     -8.397  0.6299E+01  0.6249E+01
     -8.290  0.5325E+01  0.6820E+01
     -8.183  0.4834E+01  0.7339E+01
     -8.076  0.3873E+01  0.7754E+01
     -7.968  0.1666E+01  0.7933E+01
     -7.861  0.5767E+00  0.7994E+01
     -7.754  0.5175E-01  0.8000E+01
     -7.647  0.2375E-04  0.8000E+01
     -7.539  0.2633E-11  0.8000E+01
     -7.432  0.0000E+00  0.8000E+01
     -7.325  0.0000E+00  0.8000E+01
     -7.218  0.0000E+00  0.8000E+01
     -7.111  0.4897E-09  0.8000E+01
     -7.003  0.3996E-03  0.8000E+01
     -6.896  0.1132E+00  0.8012E+01
     -6.789  0.2576E+00  0.8040E+01
     -6.682  0.4263E+00  0.8086E+01
     -6.574  0.7661E+00  0.8168E+01
     -6.467  0.8515E+00  0.8259E+01
     -6.360  0.1446E+01  0.8414E+01
     -6.253  0.1965E+01  0.8625E+01
     -6.146  0.3057E+01  0.8952E+01
     -6.038  0.3782E+01  0.9358E+01
     -5.931  0.4113E+01  0.9799E+01
     -5.824  0.4045E+01  0.1023E+02
     -5.717  0.3860E+01  0.1065E+02
     -5.609  0.4072E+01  0.1108E+02
     -5.502  0.4221E+01  0.1154E+02
     -5.395  0.4543E+01  0.1202E+02
     -5.288  0.4597E+01  0.1252E+02
     -5.180  0.4490E+01  0.1300E+02
     -5.073  0.3868E+01  0.1341E+02
     -4.966  0.3228E+01  0.1376E+02
     -4.859  0.2951E+01  0.1407E+02
     -4.752  0.2339E+01  0.1433E+02
     -4.644  0.2896E+01  0.1464E+02
     -4.537  0.3369E+01  0.1500E+02
     -4.430  0.3474E+01  0.1537E+02
     -4.323  0.3330E+01  0.1573E+02
     -4.215  0.2953E+01  0.1604E+02
     -4.108  0.2907E+01  0.1636E+02
     -4.001  0.2947E+01  0.1667E+02
     -3.894  0.2859E+01  0.1698E+02
     -3.787  0.3120E+01  0.1731E+02
     -3.679  0.2873E+01  0.1762E+02
     -3.572  0.2705E+01  0.1791E+02
     -3.465  0.3064E+01  0.1824E+02
     -3.358  0.2636E+01  0.1852E+02
     -3.250  0.2864E+01  0.1883E+02
     -3.143  0.2740E+01  0.1912E+02
     -3.036  0.2742E+01  0.1942E+02
     -2.929  0.3042E+01  0.1974E+02
     -2.822  0.2974E+01  0.2006E+02
     -2.714  0.2429E+01  0.2032E+02
     -2.607  0.2659E+01  0.2061E+02
     -2.500  0.3022E+01  0.2093E+02
     -2.393  0.2984E+01  0.2125E+02
     -2.285  0.3194E+01  0.2159E+02
     -2.178  0.4010E+01  0.2202E+02
     -2.071  0.3656E+01  0.2242E+02
     -1.964  0.3279E+01  0.2277E+02
     -1.857  0.5139E+01  0.2332E+02
     -1.749  0.5582E+01  0.2392E+02
     -1.642  0.5601E+01  0.2452E+02
     -1.535  0.6184E+01  0.2518E+02
     -1.428  0.6107E+01  0.2584E+02
     -1.320  0.5564E+01  0.2643E+02
     -1.213  0.4683E+01  0.2693E+02
     -1.106  0.6497E+01  0.2763E+02
     -0.999  0.3961E+01  0.2806E+02
     -0.891  0.2269E+01  0.2830E+02
     -0.784  0.2698E+01  0.2859E+02
     -0.677  0.2880E+01  0.2890E+02
     -0.570  0.4531E+01  0.2938E+02
     -0.463  0.6866E+01  0.3012E+02
     -0.355  0.5657E+01  0.3073E+02
     -0.248  0.6710E+01  0.3144E+02
     -0.141  0.6359E+01  0.3213E+02
     -0.034  0.6748E+01  0.3285E+02
      0.074  0.6749E+01  0.3357E+02
      0.181  0.6304E+01  0.3425E+02
      0.288  0.8802E+01  0.3519E+02
      0.395  0.7974E+01  0.3605E+02
      0.502  0.8699E+01  0.3698E+02
      0.610  0.5230E+01  0.3754E+02
      0.717  0.2928E+01  0.3786E+02
      0.824  0.3298E+01  0.3821E+02
      0.931  0.3587E+01  0.3859E+02
      1.039  0.3558E+01  0.3898E+02
      1.146  0.2790E+01  0.3927E+02
      1.253  0.3395E+01  0.3964E+02
      1.360  0.4499E+01  0.4012E+02
      1.467  0.3775E+01  0.4053E+02
      1.575  0.3726E+01  0.4093E+02
      1.682  0.4575E+01  0.4142E+02
      1.789  0.3218E+01  0.4176E+02
      1.896  0.2481E+01  0.4203E+02
      2.004  0.2658E+01  0.4231E+02
      2.111  0.2092E+01  0.4254E+02
      2.218  0.2653E+01  0.4282E+02
      2.325  0.2567E+01  0.4310E+02
      2.432  0.1931E+01  0.4330E+02
      2.540  0.8453E+00  0.4339E+02
      2.647  0.3782E+00  0.4343E+02
      2.754  0.5720E+00  0.4350E+02
      2.861  0.4195E+00  0.4354E+02
      2.969  0.3056E+00  0.4357E+02
      3.076  0.7617E+00  0.4366E+02
      3.183  0.1013E+01  0.4376E+02
      3.290  0.5331E+00  0.4382E+02
      3.397  0.1257E-01  0.4382E+02
      3.505  0.1328E+00  0.4384E+02
      3.612  0.3963E+00  0.4388E+02
      3.719  0.3286E+00  0.4391E+02
      3.826  0.3735E+00  0.4395E+02
      3.934  0.4003E+00  0.4400E+02
      4.041  0.2580E-01  0.4400E+02
      4.148  0.3088E-04  0.4400E+02
      4.255  0.3250E-01  0.4400E+02
      4.363  0.1772E+00  0.4402E+02
      4.470  0.4035E+00  0.4407E+02
      4.577  0.4728E+00  0.4412E+02
      4.684  0.6352E+00  0.4418E+02
      4.791  0.8901E+00  0.4428E+02
      4.899  0.8420E+00  0.4437E+02
      5.006  0.8568E+00  0.4446E+02
      5.113  0.1279E+01  0.4460E+02
      5.220  0.1150E+01  0.4472E+02
      5.328  0.1636E+01  0.4490E+02
      5.435  0.2195E+01  0.4513E+02
      5.542  0.2486E+01  0.4540E+02
      5.649  0.2788E+01  0.4570E+02
      5.756  0.3373E+01  0.4606E+02
      5.864  0.3216E+01  0.4641E+02
      5.971  0.4319E+01  0.4687E+02
      6.078  0.4753E+01  0.4738E+02
      6.185  0.4042E+01  0.4781E+02
      6.293  0.4625E+01  0.4831E+02
      6.400  0.4142E+01  0.4875E+02
      6.507  0.4023E+01  0.4918E+02
      6.614  0.4475E+01  0.4966E+02
      6.721  0.3225E+01  0.5001E+02
      6.829  0.4001E+01  0.5044E+02
      6.936  0.4613E+01  0.5093E+02
      7.043  0.4549E+01  0.5142E+02
      7.150  0.4341E+01  0.5189E+02
      7.258  0.5602E+01  0.5249E+02
      7.365  0.4916E+01  0.5301E+02
      7.472  0.4451E+01  0.5349E+02
      7.579  0.4187E+01  0.5394E+02
      7.686  0.3564E+01  0.5432E+02
      7.794  0.3126E+01  0.5466E+02
      7.901  0.3008E+01  0.5498E+02
      8.008  0.2980E+01  0.5530E+02
      8.115  0.4169E+01  0.5575E+02
      8.223  0.3885E+01  0.5616E+02
      8.330  0.3685E+01  0.5656E+02
      8.437  0.3990E+01  0.5699E+02
      8.544  0.4212E+01  0.5744E+02
      8.651  0.4455E+01  0.5791E+02
      8.759  0.4216E+01  0.5837E+02
      8.866  0.5259E+01  0.5893E+02
      8.973  0.4954E+01  0.5946E+02
      9.080  0.5293E+01  0.6003E+02
      9.188  0.5238E+01  0.6059E+02
      9.295  0.4966E+01  0.6112E+02
      9.402  0.4692E+01  0.6163E+02
      9.509  0.4367E+01  0.6209E+02
      9.617  0.5106E+01  0.6264E+02
      9.724  0.5026E+01  0.6318E+02
      9.831  0.5302E+01  0.6375E+02
      9.938  0.4479E+01  0.6423E+02
     10.045  0.3632E+01  0.6462E+02
     10.153  0.5176E+01  0.6517E+02
     10.260  0.4715E+01  0.6568E+02
     10.367  0.4114E+01  0.6612E+02
     10.474  0.5423E+01  0.6670E+02
     10.582  0.5808E+01  0.6733E+02
     10.689  0.4064E+01  0.6776E+02
     10.796  0.3883E+01  0.6818E+02
     10.903  0.3233E+01  0.6852E+02
     11.010  0.4666E+01  0.6902E+02
     11.118  0.5489E+01  0.6961E+02
     11.225  0.6182E+01  0.7028E+02
     11.332  0.5992E+01  0.7092E+02
     11.439  0.5292E+01  0.7149E+02
     11.547  0.4293E+01  0.7195E+02
     11.654  0.4473E+01  0.7243E+02
     11.761  0.4929E+01  0.7295E+02
     11.868  0.4804E+01  0.7347E+02
     11.975  0.6038E+01  0.7412E+02
     12.083  0.5956E+01  0.7476E+02
     12.190  0.5984E+01  0.7540E+02
     12.297  0.5621E+01  0.7600E+02
     12.404  0.5009E+01  0.7654E+02
     12.512  0.5684E+01  0.7715E+02
     12.619  0.5991E+01  0.7779E+02
     12.726  0.6027E+01  0.7843E+02
     12.833  0.5884E+01  0.7907E+02
     12.940  0.5861E+01  0.7969E+02
     13.048  0.5594E+01  0.8029E+02
     13.155  0.6348E+01  0.8097E+02
     13.262  0.6261E+01  0.8165E+02
     13.369  0.5382E+01  0.8222E+02
     13.477  0.6135E+01  0.8288E+02
     13.584  0.5335E+01  0.8345E+02
     13.691  0.4809E+01  0.8397E+02
     13.798  0.6126E+01  0.8463E+02
     13.905  0.5524E+01  0.8522E+02
     14.013  0.5343E+01  0.8579E+02
     14.120  0.5475E+01  0.8638E+02
     14.227  0.4687E+01  0.8688E+02
     14.334  0.4901E+01  0.8741E+02
     14.442  0.5023E+01  0.8794E+02
     14.549  0.4963E+01  0.8848E+02
     14.656  0.5273E+01  0.8904E+02
     14.763  0.5164E+01  0.8960E+02
     14.871  0.4092E+01  0.9003E+02
     14.978  0.5086E+01  0.9058E+02
     15.085  0.6190E+01  0.9124E+02
     15.192  0.5636E+01  0.9185E+02
     15.299  0.5670E+01  0.9246E+02
     15.407  0.6031E+01  0.9310E+02
     15.514  0.5732E+01  0.9372E+02
     15.621  0.5947E+01  0.9435E+02
     15.728  0.4591E+01  0.9485E+02
     15.836  0.2466E+01  0.9511E+02
     15.943  0.2705E+01  0.9540E+02
     16.050  0.1862E+01  0.9560E+02
     16.157  0.1146E+01  0.9572E+02
     16.264  0.8892E+00  0.9582E+02
     16.372  0.6988E+00  0.9589E+02
     16.479  0.8141E+00  0.9598E+02
     16.586  0.1757E+00  0.9600E+02
     16.693  0.1681E-02  0.9600E+02
     16.801  0.2060E-07  0.9600E+02
     16.908  0.3944E-16  0.9600E+02
     17.015  0.0000E+00  0.9600E+02
     17.122  0.0000E+00  0.9600E+02
     17.229  0.0000E+00  0.9600E+02
     17.337  0.0000E+00  0.9600E+02
     17.444  0.0000E+00  0.9600E+02
     17.551  0.0000E+00  0.9600E+02
     17.658  0.0000E+00  0.9600E+02
     17.766  0.0000E+00  0.9600E+02
     17.873  0.0000E+00  0.9600E+02
     17.980  0.0000E+00  0.9600E+02
