   14   14    1    1
  0.1021653E+02  0.5696430E-09  0.4047495E-09  0.6203580E-09  0.5000000E-15
  1.000000000000000E-004
  CAR 
 Convergence                             
     42    175     48
 
  0.5000000E-01  0.3571429E-01  0.0000000E+00  0.3174603E-02
      1        -12.725200   1.000000
      2        -11.583229   1.000000
      3         -8.657466   1.000000
      4         -8.420698   1.000000
      5         -6.062783   1.000000
      6         -5.129042   1.000000
      7         -4.664651   1.000000
      8         -4.274251   1.000000
      9         -4.032057   1.000000
     10         -3.542760   1.000000
     11         -2.592145   1.000000
     12         -2.323048   1.000000
     13         -1.831938   1.000000
     14         -1.094451   1.000000
     15         -0.068436   1.000000
     16         -0.038285   1.000000
     17          0.157976   1.000000
     18          0.179684   1.000000
     19          0.567465   1.000000
     20          2.020587   0.000069
     21          2.083705   0.000000
     22          2.219152   0.000000
     23          5.460287   0.000000
     24          5.751517   0.000000
     25          5.840765   0.000000
     26          5.961616   0.000000
     27          6.817170   0.000000
     28          7.551182   0.000000
     29          7.880621   0.000000
     30          8.538873   0.000000
     31          8.806279   0.000000
     32          8.953278   0.000000
     33          9.056524   0.000000
     34         10.126061   0.000000
     35         11.186583   0.000000
     36         11.338207   0.000000
     37         11.668587   0.000000
     38         11.785376   0.000000
     39         11.944162   0.000000
     40         12.406259   0.000000
     41         12.872391   0.000000
     42         13.456324   0.000000
     43         13.483569   0.000000
     44         15.386328   0.000000
     45         15.575321   0.000000
     46         16.066193   0.000000
     47         16.337214   0.000000
     48         16.360535   0.000000
 
  0.1500000E+00  0.3571429E-01  0.0000000E+00  0.3174603E-02
      1        -12.681450   1.000000
      2        -11.657014   1.000000
      3         -8.636385   1.000000
      4         -8.409196   1.000000
      5         -5.994555   1.000000
      6         -5.470239   1.000000
      7         -4.787301   1.000000
      8         -4.008746   1.000000
      9         -3.791092   1.000000
     10         -3.205073   1.000000
     11         -2.662416   1.000000
     12         -2.302936   1.000000
     13         -1.910676   1.000000
     14         -1.401431   1.000000
     15         -0.028098   1.000000
     16         -0.016639   1.000000
     17          0.095422   1.000000
     18          0.199897   1.000000
     19          0.472384   1.000000
     20          1.934351   0.085007
     21          2.005753   0.000347
     22          2.097908   0.000000
     23          5.549025   0.000000
     24          5.760192   0.000000
     25          5.868300   0.000000
     26          6.307352   0.000000
     27          6.731608   0.000000
     28          7.189301   0.000000
     29          8.090802   0.000000
     30          8.675222   0.000000
     31          9.063460   0.000000
     32          9.135324   0.000000
     33          9.207676   0.000000
     34         10.239229   0.000000
     35         10.945715   0.000000
     36         11.134172   0.000000
     37         11.259638   0.000000
     38         11.702431   0.000000
     39         12.161425   0.000000
     40         12.495786   0.000000
     41         13.125205   0.000000
     42         13.131760   0.000000
     43         14.015264   0.000000
     44         14.874396   0.000000
     45         15.754572   0.000000
     46         15.833292   0.000000
     47         16.231155   0.000000
     48         16.517881   0.000000
 
  0.2500000E+00  0.3571429E-01  0.0000000E+00  0.3174603E-02
      1        -12.595816   1.000000
      2        -11.789964   1.000000
      3         -8.592814   1.000000
      4         -8.394477   1.000000
      5         -5.972982   1.000000
      6         -5.796926   1.000000
      7         -4.741433   1.000000
      8         -3.881219   1.000000
      9         -3.280050   1.000000
     10         -2.831279   1.000000
     11         -2.712632   1.000000
     12         -2.262458   1.000000
     13         -2.021422   1.000000
     14         -1.905772   1.000000
     15         -0.217286   1.000000
     16          0.015617   1.000000
     17          0.145409   1.000000
     18          0.158587   1.000000
     19          0.442152   1.000000
     20          1.786729   0.997470
     21          1.868162   0.691438
     22          1.872982   0.641925
     23          5.669840   0.000000
     24          5.716732   0.000000
     25          6.177406   0.000000
     26          6.605531   0.000000
     27          6.765993   0.000000
     28          6.934670   0.000000
     29          8.241898   0.000000
     30          8.823629   0.000000
     31          9.004384   0.000000
     32          9.579398   0.000000
     33          9.651561   0.000000
     34         10.284287   0.000000
     35         10.489683   0.000000
     36         10.629615   0.000000
     37         11.380133   0.000000
     38         11.844428   0.000000
     39         12.396400   0.000000
     40         12.570059   0.000000
     41         12.796421   0.000000
     42         12.922679   0.000000
     43         14.641059   0.000000
     44         14.922751   0.000000
     45         15.229795   0.000000
     46         15.987709   0.000000
     47         16.006631   0.000000
     48         16.295872   0.000000
 
  0.3500000E+00  0.3571429E-01  0.0000000E+00  0.3174603E-02
      1        -12.472298   1.000000
      2        -11.959324   1.000000
      3         -8.531009   1.000000
      4         -8.391285   1.000000
      5         -6.053805   1.000000
      6         -6.030024   1.000000
      7         -4.413918   1.000000
      8         -3.712170   1.000000
      9         -3.025459   1.000000
     10         -2.895445   1.000000
     11         -2.442730   1.000000
     12         -2.251161   1.000000
     13         -2.143950   1.000000
     14         -2.122598   1.000000
     15         -0.516387   1.000000
     16         -0.243217   1.000000
     17          0.174233   1.000000
     18          0.249763   1.000000
     19          0.615343   1.000000
     20          1.532378   1.000000
     21          1.663882   1.000000
     22          1.724616   0.999997
     23          5.701411   0.000000
     24          5.755180   0.000000
     25          6.504111   0.000000
     26          6.675612   0.000000
     27          6.701541   0.000000
     28          7.415981   0.000000
     29          8.366385   0.000000
     30          8.692187   0.000000
     31          8.813143   0.000000
     32          9.538431   0.000000
     33         10.060064   0.000000
     34         10.122023   0.000000
     35         10.402411   0.000000
     36         11.153427   0.000000
     37         11.408043   0.000000
     38         11.950188   0.000000
     39         12.208142   0.000000
     40         12.279734   0.000000
     41         12.524849   0.000000
     42         13.260939   0.000000
     43         14.717133   0.000000
     44         14.981189   0.000000
     45         15.268561   0.000000
     46         15.379193   0.000000
     47         15.577735   0.000000
     48         16.382025   0.000000
 
  0.4500000E+00  0.3571429E-01  0.0000000E+00  0.3174603E-02
      1        -12.317551   1.000000
      2        -12.141700   1.000000
      3         -8.464893   1.000000
      4         -8.413904   1.000000
      5         -6.143617   1.000000
      6         -6.139151   1.000000
      7         -3.898465   1.000000
      8         -3.502829   1.000000
      9         -3.298997   1.000000
     10         -3.264644   1.000000
     11         -2.360449   1.000000
     12         -2.231767   1.000000
     13         -1.959728   1.000000
     14         -1.906852   1.000000
     15         -0.736902   1.000000
     16         -0.601485   1.000000
     17          0.257516   1.000000
     18          0.291161   1.000000
     19          0.876110   1.000000
     20          1.193531   1.000000
     21          1.583282   1.000000
     22          1.610738   1.000000
     23          5.729328   0.000000
     24          5.766610   0.000000
     25          6.482557   0.000000
     26          6.546465   0.000000
     27          7.370866   0.000000
     28          8.077111   0.000000
     29          8.098581   0.000000
     30          8.484259   0.000000
     31          8.623069   0.000000
     32          8.792965   0.000000
     33         10.505042   0.000000
     34         10.521579   0.000000
     35         10.765196   0.000000
     36         11.223308   0.000000
     37         11.407839   0.000000
     38         11.604404   0.000000
     39         11.938105   0.000000
     40         12.486648   0.000000
     41         12.720252   0.000000
     42         13.256508   0.000000
     43         14.594638   0.000000
     44         14.739780   0.000000
     45         14.873600   0.000000
     46         14.932252   0.000000
     47         16.107116   0.000000
     48         16.451598   0.000000
 
  0.5000000E-01  0.1071429E+00  0.0000000E+00  0.3174603E-02
      1        -12.701179   1.000000
      2        -11.561666   1.000000
      3         -8.638670   1.000000
      4         -8.397545   1.000000
      5         -6.035995   1.000000
      6         -5.095297   1.000000
      7         -4.642576   1.000000
      8         -4.572431   1.000000
      9         -4.176018   1.000000
     10         -3.519884   1.000000
     11         -3.285507   1.000000
     12         -1.792186   1.000000
     13         -1.089867   1.000000
     14         -1.032981   1.000000
     15         -0.302289   1.000000
     16         -0.274287   1.000000
     17          0.171473   1.000000
     18          0.249958   1.000000
     19          0.645861   1.000000
     20          1.752733   0.999917
     21          1.832731   0.933463
     22          2.271379   0.000000
     23          5.578512   0.000000
     24          5.710370   0.000000
     25          5.743970   0.000000
     26          6.009703   0.000000
     27          7.103319   0.000000
     28          7.836811   0.000000
     29          8.080299   0.000000
     30          8.190928   0.000000
     31          8.810413   0.000000
     32          9.103460   0.000000
     33          9.154335   0.000000
     34         10.578522   0.000000
     35         11.269536   0.000000
     36         11.401876   0.000000
     37         11.602448   0.000000
     38         11.888227   0.000000
     39         12.054831   0.000000
     40         12.686650   0.000000
     41         12.872496   0.000000
     42         13.192865   0.000000
     43         13.199181   0.000000
     44         15.335688   0.000000
     45         15.385544   0.000000
     46         15.862584   0.000000
     47         15.873846   0.000000
     48         16.224963   0.000000
 
  0.1500000E+00  0.1071429E+00  0.0000000E+00  0.3174603E-02
      1        -12.657525   1.000000
      2        -11.635302   1.000000
      3         -8.617444   1.000000
      4         -8.386423   1.000000
      5         -5.965979   1.000000
      6         -5.440149   1.000000
      7         -4.767249   1.000000
      8         -4.489506   1.000000
      9         -3.751675   1.000000
     10         -3.366331   1.000000
     11         -3.166950   1.000000
     12         -1.770464   1.000000
     13         -1.396016   1.000000
     14         -1.152328   1.000000
     15         -0.263294   1.000000
     16         -0.193404   1.000000
     17          0.139084   1.000000
     18          0.221310   1.000000
     19          0.543149   1.000000
     20          1.672187   1.000000
     21          1.756248   0.999876
     22          2.140501   0.000000
     23          5.654335   0.000000
     24          5.808951   0.000000
     25          5.937862   0.000000
     26          6.114172   0.000000
     27          7.019819   0.000000
     28          7.511593   0.000000
     29          8.226145   0.000000
     30          8.361763   0.000000
     31          9.134595   0.000000
     32          9.164495   0.000000
     33          9.419827   0.000000
     34         10.503807   0.000000
     35         10.876831   0.000000
     36         11.086708   0.000000
     37         11.456453   0.000000
     38         11.875290   0.000000
     39         12.274542   0.000000
     40         12.741953   0.000000
     41         12.870542   0.000000
     42         13.155847   0.000000
     43         13.732464   0.000000
     44         14.959589   0.000000
     45         15.402884   0.000000
     46         15.754266   0.000000
     47         15.800505   0.000000
     48         16.405095   0.000000
 
  0.2500000E+00  0.1071429E+00  0.0000000E+00  0.3174603E-02
      1        -12.572088   1.000000
      2        -11.767986   1.000000
      3         -8.573667   1.000000
      4         -8.372409   1.000000
      5         -5.941641   1.000000
      6         -5.766514   1.000000
      7         -4.724777   1.000000
      8         -4.380826   1.000000
      9         -3.488404   1.000000
     10         -3.225668   1.000000
     11         -2.700362   1.000000
     12         -1.901198   1.000000
     13         -1.726127   1.000000
     14         -1.315663   1.000000
     15         -0.219643   1.000000
     16         -0.216058   1.000000
     17          0.054115   1.000000
     18          0.208498   1.000000
     19          0.466733   1.000000
     20          1.537149   1.000000
     21          1.626119   1.000000
     22          1.892164   0.428992
     23          5.858355   0.000000
     24          5.936544   0.000000
     25          6.014243   0.000000
     26          6.563105   0.000000
     27          6.899030   0.000000
     28          7.283628   0.000000
     29          8.432303   0.000000
     30          8.494967   0.000000
     31          9.104722   0.000000
     32          9.617100   0.000000
     33          9.877367   0.000000
     34         10.127999   0.000000
     35         10.356772   0.000000
     36         10.827085   0.000000
     37         11.522403   0.000000
     38         12.109700   0.000000
     39         12.312200   0.000000
     40         12.558458   0.000000
     41         12.962287   0.000000
     42         13.026597   0.000000
     43         14.309533   0.000000
     44         15.090884   0.000000
     45         15.166327   0.000000
     46         15.650071   0.000000
     47         15.713132   0.000000
     48         16.425250   0.000000
 
  0.3500000E+00  0.1071429E+00  0.0000000E+00  0.3174603E-02
      1        -12.448839   1.000000
      2        -11.936978   1.000000
      3         -8.511612   1.000000
      4         -8.370106   1.000000
      5         -6.021251   1.000000
      6         -5.998720   1.000000
      7         -4.399399   1.000000
      8         -4.233577   1.000000
      9         -3.660158   1.000000
     10         -2.845807   1.000000
     11         -2.361022   1.000000
     12         -2.217047   1.000000
     13         -1.661801   1.000000
     14         -1.478997   1.000000
     15         -0.477806   1.000000
     16         -0.306373   1.000000
     17          0.086183   1.000000
     18          0.116024   1.000000
     19          0.626035   1.000000
     20          1.397538   1.000000
     21          1.480658   1.000000
     22          1.568034   1.000000
     23          5.876447   0.000000
     24          6.010167   0.000000
     25          6.519536   0.000000
     26          6.809343   0.000000
     27          6.882175   0.000000
     28          7.374643   0.000000
     29          8.420749   0.000000
     30          8.602973   0.000000
     31          8.943103   0.000000
     32          9.373739   0.000000
     33         10.075822   0.000000
     34         10.102507   0.000000
     35         10.444943   0.000000
     36         11.230666   0.000000
     37         11.367410   0.000000
     38         11.845279   0.000000
     39         12.297503   0.000000
     40         12.549057   0.000000
     41         12.724989   0.000000
     42         13.463515   0.000000
     43         14.769906   0.000000
     44         14.777454   0.000000
     45         15.158630   0.000000
     46         15.311901   0.000000
     47         15.656719   0.000000
     48         16.395015   0.000000
 
  0.4500000E+00  0.1071429E+00  0.0000000E+00  0.3174603E-02
      1        -12.294432   1.000000
      2        -12.118964   1.000000
      3         -8.445154   1.000000
      4         -8.393573   1.000000
      5         -6.111494   1.000000
      6         -6.106576   1.000000
      7         -4.054380   1.000000
      8         -3.891183   1.000000
      9         -3.850071   1.000000
     10         -3.286148   1.000000
     11         -2.106988   1.000000
     12         -1.912953   1.000000
     13         -1.593653   1.000000
     14         -1.591047   1.000000
     15         -0.698600   1.000000
     16         -0.597720   1.000000
     17          0.119054   1.000000
     18          0.150284   1.000000
     19          0.885512   1.000000
     20          1.199903   1.000000
     21          1.343951   1.000000
     22          1.368131   1.000000
     23          5.927493   0.000000
     24          5.993123   0.000000
     25          6.798229   0.000000
     26          6.848676   0.000000
     27          7.187347   0.000000
     28          7.900084   0.000000
     29          7.945411   0.000000
     30          8.628170   0.000000
     31          8.695729   0.000000
     32          8.808644   0.000000
     33         10.323930   0.000000
     34         10.572185   0.000000
     35         10.808855   0.000000
     36         10.913604   0.000000
     37         11.555029   0.000000
     38         11.663690   0.000000
     39         12.017376   0.000000
     40         12.656001   0.000000
     41         13.028981   0.000000
     42         13.488043   0.000000
     43         14.553038   0.000000
     44         14.737621   0.000000
     45         14.834431   0.000000
     46         15.051904   0.000000
     47         16.131383   0.000000
     48         16.425818   0.000000
 
  0.5000000E-01  0.1785714E+00  0.0000000E+00  0.3174603E-02
      1        -12.656798   1.000000
      2        -11.521897   1.000000
      3         -8.604251   1.000000
      4         -8.354827   1.000000
      5         -5.986465   1.000000
      6         -5.129381   1.000000
      7         -5.004353   1.000000
      8         -4.600730   1.000000
      9         -4.159886   1.000000
     10         -3.907729   1.000000
     11         -3.466609   1.000000
     12         -1.203157   1.000000
     13         -1.080528   1.000000
     14         -0.646472   1.000000
     15         -0.540367   1.000000
     16         -0.174298   1.000000
     17          0.192679   1.000000
     18          0.302931   1.000000
     19          0.724351   1.000000
     20          1.369765   1.000000
     21          1.433492   1.000000
     22          2.309525   0.000000
     23          5.289008   0.000000
     24          5.454755   0.000000
     25          6.125594   0.000000
     26          6.198235   0.000000
     27          7.539060   0.000000
     28          7.627828   0.000000
     29          8.319575   0.000000
     30          8.729737   0.000000
     31          8.885723   0.000000
     32          9.245405   0.000000
     33          9.374727   0.000000
     34         10.884209   0.000000
     35         11.321160   0.000000
     36         11.575300   0.000000
     37         11.703304   0.000000
     38         12.088969   0.000000
     39         12.271054   0.000000
     40         12.749056   0.000000
     41         12.762564   0.000000
     42         13.009793   0.000000
     43         13.226999   0.000000
     44         14.680070   0.000000
     45         15.164777   0.000000
     46         15.347040   0.000000
     47         15.433675   0.000000
     48         15.965784   0.000000
 
  0.1500000E+00  0.1785714E+00  0.0000000E+00  0.3174603E-02
      1        -12.613329   1.000000
      2        -11.595254   1.000000
      3         -8.582727   1.000000
      4         -8.344408   1.000000
      5         -5.913036   1.000000
      6         -5.392046   1.000000
      7         -5.030550   1.000000
      8         -4.729495   1.000000
      9         -3.973938   1.000000
     10         -3.709511   1.000000
     11         -3.127522   1.000000
     12         -1.387763   1.000000
     13         -1.176725   1.000000
     14         -0.753593   1.000000
     15         -0.502349   1.000000
     16         -0.093302   1.000000
     17          0.173388   1.000000
     18          0.246480   1.000000
     19          0.611905   1.000000
     20          1.290615   1.000000
     21          1.363753   1.000000
     22          2.173636   0.000000
     23          5.369261   0.000000
     24          5.800887   0.000000
     25          6.144268   0.000000
     26          6.239995   0.000000
     27          7.458284   0.000000
     28          7.784379   0.000000
     29          8.051830   0.000000
     30          8.820536   0.000000
     31          9.257069   0.000000
     32          9.289582   0.000000
     33          9.659440   0.000000
     34         10.519667   0.000000
     35         10.782126   0.000000
     36         11.279068   0.000000
     37         11.721301   0.000000
     38         12.201075   0.000000
     39         12.433875   0.000000
     40         12.503404   0.000000
     41         13.165672   0.000000
     42         13.275572   0.000000
     43         13.440711   0.000000
     44         14.690111   0.000000
     45         14.826170   0.000000
     46         15.288281   0.000000
     47         15.497468   0.000000
     48         15.991426   0.000000
 
  0.2500000E+00  0.1785714E+00  0.0000000E+00  0.3174603E-02
      1        -12.528242   1.000000
      2        -11.727420   1.000000
      3         -8.538531   1.000000
      4         -8.331726   1.000000
      5         -5.883289   1.000000
      6         -5.711666   1.000000
      7         -4.938860   1.000000
      8         -4.693657   1.000000
      9         -4.097701   1.000000
     10         -3.175311   1.000000
     11         -2.656371   1.000000
     12         -1.884800   1.000000
     13         -1.136055   1.000000
     14         -0.892363   1.000000
     15         -0.449357   1.000000
     16         -0.084005   1.000000
     17          0.015121   1.000000
     18          0.258437   1.000000
     19          0.496741   1.000000
     20          1.159090   1.000000
     21          1.245412   1.000000
     22          1.917002   0.189031
     23          5.690563   0.000000
     24          6.099286   0.000000
     25          6.277351   0.000000
     26          6.369777   0.000000
     27          7.355808   0.000000
     28          7.862479   0.000000
     29          8.018250   0.000000
     30          8.949104   0.000000
     31          9.250417   0.000000
     32          9.722774   0.000000
     33          9.854590   0.000000
     34         10.141454   0.000000
     35         10.257076   0.000000
     36         11.066017   0.000000
     37         11.589543   0.000000
     38         12.108084   0.000000
     39         12.512431   0.000000
     40         12.804182   0.000000
     41         13.048188   0.000000
     42         13.449673   0.000000
     43         13.963184   0.000000
     44         14.598593   0.000000
     45         14.875886   0.000000
     46         15.308211   0.000000
     47         15.516741   0.000000
     48         16.202040   0.000000
 
  0.3500000E+00  0.1785714E+00  0.0000000E+00  0.3174603E-02
      1        -12.405506   1.000000
      2        -11.895749   1.000000
      3         -8.476035   1.000000
      4         -8.331137   1.000000
      5         -5.960597   1.000000
      6         -5.940993   1.000000
      7         -4.802889   1.000000
      8         -4.372646   1.000000
      9         -4.262449   1.000000
     10         -2.807090   1.000000
     11         -2.319935   1.000000
     12         -2.175894   1.000000
     13         -1.079456   1.000000
     14         -1.029168   1.000000
     15         -0.454527   1.000000
     16         -0.370116   1.000000
     17          0.059044   1.000000
     18          0.063005   1.000000
     19          0.643671   1.000000
     20          1.029462   1.000000
     21          1.112617   1.000000
     22          1.581935   1.000000
     23          6.110500   0.000000
     24          6.225956   0.000000
     25          6.401413   0.000000
     26          6.804663   0.000000
     27          7.299769   0.000000
     28          7.783624   0.000000
     29          8.073132   0.000000
     30          9.048687   0.000000
     31          9.106776   0.000000
     32          9.179462   0.000000
     33          9.891383   0.000000
     34         10.190366   0.000000
     35         10.704543   0.000000
     36         11.081158   0.000000
     37         11.329781   0.000000
     38         11.954201   0.000000
     39         12.360038   0.000000
     40         12.988865   0.000000
     41         13.039838   0.000000
     42         13.793960   0.000000
     43         14.384898   0.000000
     44         14.400494   0.000000
     45         15.034436   0.000000
     46         15.127772   0.000000
     47         15.618563   0.000000
     48         16.379198   0.000000
 
  0.4500000E+00  0.1785714E+00  0.0000000E+00  0.3174603E-02
      1        -12.251739   1.000000
      2        -12.076993   1.000000
      3         -8.408914   1.000000
      4         -8.356216   1.000000
      5         -6.051860   1.000000
      6         -6.045913   1.000000
      7         -4.634916   1.000000
      8         -4.449032   1.000000
      9         -3.859920   1.000000
     10         -3.263548   1.000000
     11         -2.038012   1.000000
     12         -1.872327   1.000000
     13         -1.100699   1.000000
     14         -1.038960   1.000000
     15         -0.627764   1.000000
     16         -0.621034   1.000000
     17          0.009353   1.000000
     18          0.052903   1.000000
     19          0.901178   1.000000
     20          0.967176   1.000000
     21          1.008011   1.000000
     22          1.228401   1.000000
     23          6.202134   0.000000
     24          6.320241   0.000000
     25          6.879022   0.000000
     26          7.218932   0.000000
     27          7.277597   0.000000
     28          7.623727   0.000000
     29          7.930788   0.000000
     30          8.442426   0.000000
     31          9.104769   0.000000
     32          9.136972   0.000000
     33         10.015152   0.000000
     34         10.487113   0.000000
     35         10.711428   0.000000
     36         10.981443   0.000000
     37         11.735302   0.000000
     38         11.753918   0.000000
     39         12.138469   0.000000
     40         12.913699   0.000000
     41         13.419093   0.000000
     42         13.766635   0.000000
     43         14.232175   0.000000
     44         14.386776   0.000000
     45         14.997009   0.000000
     46         15.136976   0.000000
     47         15.994927   0.000000
     48         16.298933   0.000000
 
  0.5000000E-01  0.2500000E+00  0.0000000E+00  0.3174603E-02
      1        -12.599301   1.000000
      2        -11.470528   1.000000
      3         -8.560278   1.000000
      4         -8.299570   1.000000
      5         -5.922168   1.000000
      6         -5.610449   1.000000
      7         -4.934029   1.000000
      8         -4.544430   1.000000
      9         -4.428027   1.000000
     10         -4.120547   1.000000
     11         -3.404571   1.000000
     12         -1.219097   1.000000
     13         -1.066321   1.000000
     14         -1.001283   1.000000
     15         -0.192793   1.000000
     16          0.220950   1.000000
     17          0.346366   1.000000
     18          0.596579   1.000000
     19          0.788092   1.000000
     20          0.984514   1.000000
     21          0.998696   1.000000
     22          2.343775   0.000000
     23          4.945189   0.000000
     24          5.160982   0.000000
     25          6.358717   0.000000
     26          6.588178   0.000000
     27          7.269190   0.000000
     28          7.970477   0.000000
     29          8.704311   0.000000
     30          9.060923   0.000000
     31          9.468177   0.000000
     32          9.582070   0.000000
     33          9.655949   0.000000
     34         10.745670   0.000000
     35         11.271835   0.000000
     36         11.968708   0.000000
     37         12.019861   0.000000
     38         12.297950   0.000000
     39         12.426148   0.000000
     40         12.450359   0.000000
     41         12.567761   0.000000
     42         12.995177   0.000000
     43         13.797543   0.000000
     44         13.883037   0.000000
     45         14.421400   0.000000
     46         15.105759   0.000000
     47         15.406071   0.000000
     48         15.864518   0.000000
 
  0.1500000E+00  0.2500000E+00  0.0000000E+00  0.3174603E-02
      1        -12.556069   1.000000
      2        -11.543517   1.000000
      3         -8.538357   1.000000
      4         -8.290109   1.000000
      5         -5.844113   1.000000
      6         -5.575711   1.000000
      7         -5.271382   1.000000
      8         -4.679536   1.000000