 running   24 mpi-ranks, with    1 threads/rank, on    1 nodes
 distrk:  each k-point on   24 cores,    1 groups
 distr:  one band on    1 cores,   24 groups
 vasp.6.4.3 19Mar24 (build May 31 2024 16:31:43) complex                        
  
 POSCAR found type information on POSCAR B 
 POSCAR found :  1 types and      14 ions
 Reading from existing POTCAR
 scaLAPACK will be used
 Reading from existing POTCAR
 LDA part: xc-table for (Slater+PW92), standard interpolation
 POSCAR, INCAR and KPOINTS ok, starting setup
 FFT: planning ... GRIDC
 FFT: planning ... GRID_SOFT
 FFT: planning ... GRID
 WAVECAR not read
 entering main loop
       N       E                     dE             d eps       ncg     rms          rms(c)
DAV:   1     0.791495726846E+02    0.79150E+02   -0.20052E+04 16800   0.863E+02
DAV:   2    -0.917828873285E+02   -0.17093E+03   -0.16019E+03 23160   0.168E+02
DAV:   3    -0.976138958536E+02   -0.58310E+01   -0.57976E+01 24720   0.276E+01
DAV:   4    -0.976482413864E+02   -0.34346E-01   -0.34344E-01 20208   0.245E+00
DAV:   5    -0.976486270532E+02   -0.38567E-03   -0.38566E-03 24624   0.248E-01    0.123E+01
DAV:   6    -0.922285017783E+02    0.54201E+01   -0.39511E+00 24288   0.659E+00    0.681E+00
DAV:   7    -0.905757990792E+02    0.16527E+01   -0.32219E+00 25176   0.586E+00    0.171E+00
DAV:   8    -0.905882281116E+02   -0.12429E-01   -0.23535E-01 18648   0.168E+00    0.705E-01
DAV:   9    -0.906023923275E+02   -0.14164E-01   -0.16917E-02 23424   0.439E-01    0.198E-01
DAV:  10    -0.906064400628E+02   -0.40477E-02   -0.20963E-03 19200   0.161E-01    0.610E-02
DAV:  11    -0.906075074449E+02   -0.10674E-02   -0.62635E-04 21600   0.868E-02    0.321E-02
DAV:  12    -0.906076232503E+02   -0.11581E-03   -0.93013E-05 20640   0.371E-02    0.429E-03
DAV:  13    -0.906076281201E+02   -0.48698E-05   -0.41308E-06 23424   0.883E-03    0.182E-03
DAV:  14    -0.906076288036E+02   -0.68355E-06   -0.28778E-07 20424   0.231E-03
   1 F= -.90607629E+02 E0= -.90606022E+02  d E =-.321326E-02
