 running    8 mpi-ranks, with    1 threads/rank, on    1 nodes
 distrk:  each k-point on    8 cores,    1 groups
 distr:  one band on    1 cores,    8 groups
 vasp.6.4.3 19Mar24 (build May 31 2024 16:31:43) complex                        
  
 POSCAR found type information on POSCAR B 
 POSCAR found :  1 types and       1 ions
 Reading from existing POTCAR
 scaLAPACK will be used
 Reading from existing POTCAR
 LDA part: xc-table for (Slater+PW92), standard interpolation
 POSCAR, INCAR and KPOINTS ok, starting setup
 FFT: planning ... GRIDC
 FFT: planning ... GRID_SOFT
 FFT: planning ... GRID
 WAVECAR not read
 entering main loop
       N       E                     dE             d eps       ncg     rms          rms(c)
DAV:   1     0.959845645956E+01    0.95985E+01   -0.32591E+02  2888   0.109E+02
DAV:   2     0.962216708055E+00   -0.86362E+01   -0.81931E+01  4192   0.174E+01
DAV:   3    -0.181848315180E-01   -0.98040E+00   -0.95962E+00  4744   0.861E+00
DAV:   4    -0.566562005137E-01   -0.38471E-01   -0.22952E-01  2800   0.915E-01
DAV:   5    -0.582178571783E-01   -0.15617E-02   -0.15093E-02  3640   0.244E-01    0.907E-03
DAV:   6    -0.582753729597E-01   -0.57516E-04   -0.57205E-04  4368   0.415E-02    0.508E-03
DAV:   7    -0.582764746848E-01   -0.11017E-05   -0.89257E-06  4352   0.642E-03    0.266E-03
DAV:   8    -0.582793409401E-01   -0.28663E-05   -0.52351E-07  4112   0.493E-03    0.429E-04
DAV:   9    -0.582793855496E-01   -0.44610E-07   -0.10253E-08  4592   0.544E-04
   1 F= -.58279386E-01 E0= -.31778715E-01  d E =-.530013E-01
