<?xml version="1.0" encoding="ISO-8859-1"?>
<modeling>
 <generator>
  <i name="program" type="string">vasp </i>
  <i name="version" type="string">6.4.3  </i>
  <i name="subversion" type="string">19Mar24 (build May 31 2024 16:31:43) complex                          parallel </i>
  <i name="platform" type="string">LinuxIFC </i>
  <i name="date" type="string">2024 11 01 </i>
  <i name="time" type="string">16:32:49 </i>
 </generator>
 <incar>
  <i type="string" name="SYSTEM">Convergence</i>
  <i type="int" name="ISTART">     0</i>
  <i type="string" name="PREC">Accurate</i>
  <i type="string" name="ALGO">Normal</i>
  <i type="int" name="ISPIN">     1</i>
  <i type="int" name="ICHARG">     2</i>
  <i type="int" name="NELM">   100</i>
  <i type="int" name="IBRION">    -1</i>
  <i name="EDIFF">      0.00000100</i>
  <i name="EDIFFG">     -0.00100000</i>
  <i type="int" name="NSW">     0</i>
  <i type="int" name="ISIF">     2</i>
  <i name="ENCUT">    520.00000000</i>
  <i name="POTIM">      0.50000000</i>
  <i type="int" name="ISMEAR">     0</i>
  <i name="SIGMA">      0.05000000</i>
  <i type="logical" name="LWAVE"> F  </i>
  <i type="logical" name="LCHARG"> F  </i>
  <i type="string" name="GGA">PE</i>
 </incar>
 <primitive_cell>
  <structure name="primitive_cell" >
   <crystal>
    <varray name="basis" >
     <v>      15.00000000       0.00000000       0.00000000 </v>
     <v>       0.00000000      12.50000000       0.00000000 </v>
     <v>       0.00000000       0.00000000      18.00000000 </v>
    </varray>
    <i name="volume">   3375.00000000 </i>
    <varray name="rec_basis" >
     <v>       0.06666667       0.00000000       0.00000000 </v>
     <v>       0.00000000       0.08000000       0.00000000 </v>
     <v>       0.00000000       0.00000000       0.05555556 </v>
    </varray>
   </crystal>
   <varray name="positions" >
    <v>       0.52123000       0.54500000       0.63796000 </v>
   </varray>
  </structure>
  <varray name="primitive_index" >
   <v type="int" >        1 </v>
  </varray>
 </primitive_cell>
 <kpoints>
  <generation param="Monkhorst-Pack">
   <v type="int" name="divisions">      10       14        9 </v>
   <v name="usershift">      0.00000000       0.00000000       0.00000000 </v>
   <v name="genvec1">      0.10000000       0.00000000       0.00000000 </v>
   <v name="genvec2">      0.00000000       0.07142857       0.00000000 </v>
   <v name="genvec3">      0.00000000       0.00000000       0.11111111 </v>
   <v name="shift">      0.50000000       0.50000000       0.00000000 </v>
  </generation>
  <varray name="kpointlist" >
   <v>       0.05000000       0.03571429       0.00000000 </v>
   <v>       0.15000000       0.03571429       0.00000000 </v>
   <v>       0.25000000       0.03571429       0.00000000 </v>
   <v>       0.35000000       0.03571429       0.00000000 </v>
   <v>       0.45000000       0.03571429       0.00000000 </v>
   <v>       0.05000000       0.10714286       0.00000000 </v>
   <v>       0.15000000       0.10714286       0.00000000 </v>
   <v>       0.25000000       0.10714286       0.00000000 </v>
   <v>       0.35000000       0.10714286       0.00000000 </v>
   <v>       0.45000000       0.10714286       0.00000000 </v>
   <v>       0.05000000       0.17857143       0.00000000 </v>
   <v>       0.15000000       0.17857143       0.00000000 </v>
   <v>       0.25000000       0.17857143       0.00000000 </v>
   <v>       0.35000000       0.17857143       0.00000000 </v>
   <v>       0.45000000       0.17857143       0.00000000 </v>
   <v>       0.05000000       0.25000000       0.00000000 </v>
   <v>       0.15000000       0.25000000       0.00000000 </v>
   <v>       0.25000000       0.25000000       0.00000000 </v>
   <v>       0.35000000       0.25000000       0.00000000 </v>
   <v>       0.45000000       0.25000000       0.00000000 </v>
   <v>       0.05000000       0.32142857       0.00000000 </v>
   <v>       0.15000000       0.32142857       0.00000000 </v>
   <v>       0.25000000       0.32142857       0.00000000 </v>
   <v>       0.35000000       0.32142857       0.00000000 </v>
   <v>       0.45000000       0.32142857       0.00000000 </v>
   <v>       0.05000000       0.39285714       0.00000000 </v>
   <v>       0.15000000       0.39285714       0.00000000 </v>
   <v>       0.25000000       0.39285714       0.00000000 </v>
   <v>       0.35000000       0.39285714       0.00000000 </v>
   <v>       0.45000000       0.39285714       0.00000000 </v>
   <v>       0.05000000       0.46428571       0.00000000 </v>
   <v>       0.15000000       0.46428571       0.00000000 </v>
   <v>       0.25000000       0.46428571       0.00000000 </v>
   <v>       0.35000000       0.46428571       0.00000000 </v>
   <v>       0.45000000       0.46428571       0.00000000 </v>
   <v>       0.05000000       0.03571429       0.11111111 </v>
   <v>       0.15000000       0.03571429       0.11111111 </v>
   <v>       0.25000000       0.03571429       0.11111111 </v>
   <v>       0.35000000       0.03571429       0.11111111 </v>
   <v>       0.45000000       0.03571429       0.11111111 </v>
   <v>       0.05000000       0.10714286       0.11111111 </v>
   <v>       0.15000000       0.10714286       0.11111111 </v>
   <v>       0.25000000       0.10714286       0.11111111 </v>
   <v>       0.35000000       0.10714286       0.11111111 </v>
   <v>       0.45000000       0.10714286       0.11111111 </v>
   <v>       0.05000000       0.17857143       0.11111111 </v>
   <v>       0.15000000       0.17857143       0.11111111 </v>
   <v>       0.25000000       0.17857143       0.11111111 </v>
   <v>       0.35000000       0.17857143       0.11111111 </v>
   <v>       0.45000000       0.17857143       0.11111111 </v>
   <v>       0.05000000       0.25000000       0.11111111 </v>
   <v>       0.15000000       0.25000000       0.11111111 </v>
   <v>       0.25000000       0.25000000       0.11111111 </v>
   <v>       0.35000000       0.25000000       0.11111111 </v>
   <v>       0.45000000       0.25000000       0.11111111 </v>
   <v>       0.05000000       0.32142857       0.11111111 </v>
   <v>       0.15000000       0.32142857       0.11111111 </v>
   <v>       0.25000000       0.32142857       0.11111111 </v>
   <v>       0.35000000       0.32142857       0.11111111 </v>
   <v>       0.45000000       0.32142857       0.11111111 </v>
   <v>       0.05000000       0.39285714       0.11111111 </v>
   <v>       0.15000000       0.39285714       0.11111111 </v>
   <v>       0.25000000       0.39285714       0.11111111 </v>
   <v>       0.35000000       0.39285714       0.11111111 </v>
   <v>       0.45000000       0.39285714       0.11111111 </v>
   <v>       0.05000000       0.46428571       0.11111111 </v>
   <v>       0.15000000       0.46428571       0.11111111 </v>
   <v>       0.25000000       0.46428571       0.11111111 </v>
   <v>       0.35000000       0.46428571       0.11111111 </v>
   <v>       0.45000000       0.46428571       0.11111111 </v>
   <v>       0.05000000       0.03571429       0.22222222 </v>
   <v>       0.15000000       0.03571429       0.22222222 </v>
   <v>       0.25000000       0.03571429       0.22222222 </v>
   <v>       0.35000000       0.03571429       0.22222222 </v>
   <v>       0.45000000       0.03571429       0.22222222 </v>
   <v>       0.05000000       0.10714286       0.22222222 </v>
   <v>       0.15000000       0.10714286       0.22222222 </v>
   <v>       0.25000000       0.10714286       0.22222222 </v>
   <v>       0.35000000       0.10714286       0.22222222 </v>
   <v>       0.45000000       0.10714286       0.22222222 </v>
   <v>       0.05000000       0.17857143       0.22222222 </v>
   <v>       0.15000000       0.17857143       0.22222222 </v>
   <v>       0.25000000       0.17857143       0.22222222 </v>
   <v>       0.35000000       0.17857143       0.22222222 </v>
   <v>       0.45000000       0.17857143       0.22222222 </v>
   <v>       0.05000000       0.25000000       0.22222222 </v>
   <v>       0.15000000       0.25000000       0.22222222 </v>
   <v>       0.25000000       0.25000000       0.22222222 </v>
   <v>       0.35000000       0.25000000       0.22222222 </v>
   <v>       0.45000000       0.25000000       0.22222222 </v>
   <v>       0.05000000       0.32142857       0.22222222 </v>
   <v>       0.15000000       0.32142857       0.22222222 </v>
   <v>       0.25000000       0.32142857       0.22222222 </v>
   <v>       0.35000000       0.32142857       0.22222222 </v>
   <v>       0.45000000       0.32142857       0.22222222 </v>
   <v>       0.05000000       0.39285714       0.22222222 </v>
   <v>       0.15000000       0.39285714       0.22222222 </v>
   <v>       0.25000000       0.39285714       0.22222222 </v>
   <v>       0.35000000       0.39285714       0.22222222 </v>
   <v>       0.45000000       0.39285714       0.22222222 </v>
   <v>       0.05000000       0.46428571       0.22222222 </v>
   <v>       0.15000000       0.46428571       0.22222222 </v>
   <v>       0.25000000       0.46428571       0.22222222 </v>
   <v>       0.35000000       0.46428571       0.22222222 </v>
   <v>       0.45000000       0.46428571       0.22222222 </v>
   <v>       0.05000000       0.03571429       0.33333333 </v>
   <v>       0.15000000       0.03571429       0.33333333 </v>
   <v>       0.25000000       0.03571429       0.33333333 </v>
   <v>       0.35000000       0.03571429       0.33333333 </v>
   <v>       0.45000000       0.03571429       0.33333333 </v>
   <v>       0.05000000       0.10714286       0.33333333 </v>
   <v>       0.15000000       0.10714286       0.33333333 </v>
   <v>       0.25000000       0.10714286       0.33333333 </v>
   <v>       0.35000000       0.10714286       0.33333333 </v>
   <v>       0.45000000       0.10714286       0.33333333 </v>
   <v>       0.05000000       0.17857143       0.33333333 </v>
   <v>       0.15000000       0.17857143       0.33333333 </v>
   <v>       0.25000000       0.17857143       0.33333333 </v>
   <v>       0.35000000       0.17857143       0.33333333 </v>
   <v>       0.45000000       0.17857143       0.33333333 </v>
   <v>       0.05000000       0.25000000       0.33333333 </v>
   <v>       0.15000000       0.25000000       0.33333333 </v>
   <v>       0.25000000       0.25000000       0.33333333 </v>
   <v>       0.35000000       0.25000000       0.33333333 </v>
   <v>       0.45000000       0.25000000       0.33333333 </v>
   <v>       0.05000000       0.32142857       0.33333333 </v>
   <v>       0.15000000       0.32142857       0.33333333 </v>
   <v>       0.25000000       0.32142857       0.33333333 </v>
   <v>       0.35000000       0.32142857       0.33333333 </v>
   <v>       0.45000000       0.32142857       0.33333333 </v>
   <v>       0.05000000       0.39285714       0.33333333 </v>
   <v>       0.15000000       0.39285714       0.33333333 </v>
   <v>       0.25000000       0.39285714       0.33333333 </v>
   <v>       0.35000000       0.39285714       0.33333333 </v>
   <v>       0.45000000       0.39285714       0.33333333 </v>
   <v>       0.05000000       0.46428571       0.33333333 </v>
   <v>       0.15000000       0.46428571       0.33333333 </v>
   <v>       0.25000000       0.46428571       0.33333333 </v>
   <v>       0.35000000       0.46428571       0.33333333 </v>
   <v>       0.45000000       0.46428571       0.33333333 </v>
   <v>       0.05000000       0.03571429       0.44444444 </v>
   <v>       0.15000000       0.03571429       0.44444444 </v>
   <v>       0.25000000       0.03571429       0.44444444 </v>
   <v>       0.35000000       0.03571429       0.44444444 </v>
   <v>       0.45000000       0.03571429       0.44444444 </v>
   <v>       0.05000000       0.10714286       0.44444444 </v>
   <v>       0.15000000       0.10714286       0.44444444 </v>
   <v>       0.25000000       0.10714286       0.44444444 </v>
   <v>       0.35000000       0.10714286       0.44444444 </v>
   <v>       0.45000000       0.10714286       0.44444444 </v>
   <v>       0.05000000       0.17857143       0.44444444 </v>
   <v>       0.15000000       0.17857143       0.44444444 </v>
   <v>       0.25000000       0.17857143       0.44444444 </v>
   <v>       0.35000000       0.17857143       0.44444444 </v>
   <v>       0.45000000       0.17857143       0.44444444 </v>
   <v>       0.05000000       0.25000000       0.44444444 </v>
   <v>       0.15000000       0.25000000       0.44444444 </v>
   <v>       0.25000000       0.25000000       0.44444444 </v>
   <v>       0.35000000       0.25000000       0.44444444 </v>
   <v>       0.45000000       0.25000000       0.44444444 </v>
   <v>       0.05000000       0.32142857       0.44444444 </v>
   <v>       0.15000000       0.32142857       0.44444444 </v>
   <v>       0.25000000       0.32142857       0.44444444 </v>
   <v>       0.35000000       0.32142857       0.44444444 </v>
   <v>       0.45000000       0.32142857       0.44444444 </v>
   <v>       0.05000000       0.39285714       0.44444444 </v>
   <v>       0.15000000       0.39285714       0.44444444 </v>
   <v>       0.25000000       0.39285714       0.44444444 </v>
   <v>       0.35000000       0.39285714       0.44444444 </v>
   <v>       0.45000000       0.39285714       0.44444444 </v>
   <v>       0.05000000       0.46428571       0.44444444 </v>
   <v>       0.15000000       0.46428571       0.44444444 </v>
   <v>       0.25000000       0.46428571       0.44444444 </v>
   <v>       0.35000000       0.46428571       0.44444444 </v>
   <v>       0.45000000       0.46428571       0.44444444 </v>
  </varray>
  <varray name="weights" >
   <v>       0.00317460 </v>
   <v>       0.00317460 </v>
   <v>       0.00317460 </v>
   <v>       0.00317460 </v>
   <v>       0.00317460 </v>
   <v>       0.00317460 </v>
   <v>       0.00317460 </v>
   <v>       0.00317460 </v>
   <v>       0.00317460 </v>
   <v>       0.00317460 </v>
   <v>       0.00317460 </v>
   <v>       0.00317460 </v>
   <v>       0.00317460 </v>
   <v>       0.00317460 </v>
   <v>       0.00317460 </v>
   <v>       0.00317460 </v>
   <v>       0.00317460 </v>
   <v>       0.00317460 </v>
   <v>       0.00317460 </v>
   <v>       0.00317460 </v>
   <v>       0.00317460 </v>
   <v>       0.00317460 </v>
   <v>       0.00317460 </v>
   <v>       0.00317460 </v>
   <v>       0.00317460 </v>
   <v>       0.00317460 </v>
   <v>       0.00317460 </v>
   <v>       0.00317460 </v>
   <v>       0.00317460 </v>
   <v>       0.00317460 </v>
   <v>       0.00317460 </v>
   <v>       0.00317460 </v>
   <v>       0.00317460 </v>
   <v>       0.00317460 </v>
   <v>       0.00317460 </v>
   <v>       0.00634921 </v>
   <v>       0.00634921 </v>
   <v>       0.00634921 </v>
   <v>       0.00634921 </v>
   <v>       0.00634921 </v>
   <v>       0.00634921 </v>
   <v>       0.00634921 </v>
   <v>       0.00634921 </v>
   <v>       0.00634921 </v>
   <v>       0.00634921 </v>
   <v>       0.00634921 </v>
   <v>       0.00634921 </v>
   <v>       0.00634921 </v>
   <v>       0.00634921 </v>
   <v>       0.00634921 </v>
   <v>       0.00634921 </v>
   <v>       0.00634921 </v>
   <v>       0.00634921 </v>
   <v>       0.00634921 </v>
   <v>       0.00634921 </v>
   <v>       0.00634921 </v>
   <v>       0.00634921 </v>
   <v>       0.00634921 </v>
   <v>       0.00634921 </v>
   <v>       0.00634921 </v>
   <v>       0.00634921 </v>
   <v>       0.00634921 </v>
   <v>       0.00634921 </v>
   <v>       0.00634921 </v>
   <v>       0.00634921 </v>
   <v>       0.00634921 </v>
   <v>       0.00634921 </v>
   <v>       0.00634921 </v>
   <v>       0.00634921 </v>
   <v>       0.00634921 </v>
   <v>       0.00634921 </v>
   <v>       0.00634921 </v>
   <v>       0.00634921 </v>
   <v>       0.00634921 </v>
   <v>       0.00634921 </v>
   <v>       0.00634921 </v>
   <v>       0.00634921 </v>
   <v>       0.00634921 </v>
   <v>       0.00634921 </v>
   <v>       0.00634921 </v>
   <v>       0.00634921 </v>
   <v>       0.00634921 </v>
   <v>       0.00634921 </v>
   <v>       0.00634921 </v>
   <v>       0.00634921 </v>
   <v>       0.00634921 </v>
   <v>       0.00634921 </v>
   <v>       0.00634921 </v>
   <v>       0.00634921 </v>
   <v>       0.00634921 </v>
   <v>       0.00634921 </v>
   <v>       0.00634921 </v>
   <v>       0.00634921 </v>
   <v>       0.00634921 </v>
   <v>       0.00634921 </v>
   <v>       0.00634921 </v>
   <v>       0.00634921 </v>
   <v>       0.00634921 </v>
   <v>       0.00634921 </v>
   <v>       0.00634921 </v>
   <v>       0.00634921 </v>
   <v>       0.00634921 </v>
   <v>       0.00634921 </v>
   <v>       0.00634921 </v>
   <v>       0.00634921 </v>
   <v>       0.00634921 </v>
   <v>       0.00634921 </v>
   <v>       0.00634921 </v>
   <v>       0.00634921 </v>
   <v>       0.00634921 </v>
   <v>       0.00634921 </v>
   <v>       0.00634921 </v>
   <v>       0.00634921 </v>
   <v>       0.00634921 </v>
   <v>       0.00634921 </v>
   <v>       0.00634921 </v>
   <v>       0.00634921 </v>
   <v>       0.00634921 </v>
   <v>       0.00634921 </v>
   <v>       0.00634921 </v>
   <v>       0.00634921 </v>
   <v>       0.00634921 </v>
   <v>       0.00634921 </v>
   <v>       0.00634921 </v>
   <v>       0.00634921 </v>
   <v>       0.00634921 </v>
   <v>       0.00634921 </v>
   <v>       0.00634921 </v>
   <v>       0.00634921 </v>
   <v>       0.00634921 </v>
   <v>       0.00634921 </v>
   <v>       0.00634921 </v>
   <v>       0.00634921 </v>
   <v>       0.00634921 </v>
   <v>       0.00634921 </v>
   <v>       0.00634921 </v>
   <v>       0.00634921 </v>
   <v>       0.00634921 </v>
   <v>       0.00634921 </v>
   <v>       0.00634921 </v>
   <v>       0.00634921 </v>
   <v>       0.00634921 </v>
   <v>       0.00634921 </v>
   <v>       0.00634921 </v>
   <v>       0.00634921 </v>
   <v>       0.00634921 </v>
   <v>       0.00634921 </v>
   <v>       0.00634921 </v>
   <v>       0.00634921 </v>
   <v>       0.00634921 </v>
   <v>       0.00634921 </v>
   <v>       0.00634921 </v>
   <v>       0.00634921 </v>
   <v>       0.00634921 </v>
   <v>       0.00634921 </v>
   <v>       0.00634921 </v>
   <v>       0.00634921 </v>
   <v>       0.00634921 </v>
   <v>       0.00634921 </v>
   <v>       0.00634921 </v>
   <v>       0.00634921 </v>
   <v>       0.00634921 </v>
   <v>       0.00634921 </v>
   <v>       0.00634921 </v>
   <v>       0.00634921 </v>
   <v>       0.00634921 </v>
   <v>       0.00634921 </v>
   <v>       0.00634921 </v>
   <v>       0.00634921 </v>
   <v>       0.00634921 </v>
   <v>       0.00634921 </v>
   <v>       0.00634921 </v>
   <v>       0.00634921 </v>
   <v>       0.00634921 </v>
   <v>       0.00634921 </v>
  </varray>
 </kpoints>
 <parameters>
  <separator name="general" >
   <i type="string" name="SYSTEM">Convergence</i>
   <i type="logical" name="LCOMPAT"> F  </i>
  </separator>
  <separator name="electronic" >
   <i type="string" name="PREC">accura</i>
   <i name="ENMAX">    520.00000000</i>
   <i name="ENAUG">    535.51400000</i>
   <i name="EDIFF">      0.00000100</i>
   <i type="int" name="IALGO">    38</i>
   <i type="int" name="IWAVPR">    10</i>
   <i type="int" name="NBANDS">     8</i>
   <i type="int" name="NBANDSLOW">    -1</i>
   <i type="int" name="NBANDSHIGH">    -1</i>
   <i name="NELECT">      3.00000000</i>
   <i type="int" name="TURBO">     0</i>
   <i type="int" name="IRESTART">     0</i>
   <i type="int" name="NREBOOT">     0</i>
   <i type="int" name="NMIN">     0</i>
   <i name="EREF">      0.00000000</i>
   <separator name="electronic smearing" >
    <i type="int" name="ISMEAR">     0</i>
    <i name="SIGMA">      0.05000000</i>
    <i name="KSPACING">      0.50000000</i>
    <i type="logical" name="KGAMMA"> T  </i>
    <i type="logical" name="KBLOWUP"> T  </i>
   </separator>
   <separator name="electronic projectors" >
    <i type="logical" name="LREAL"> F  </i>
    <v name="ROPT">      0.00000000</v>
    <i type="int" name="LMAXPAW">  -100</i>
    <i type="int" name="LMAXMIX">     2</i>
    <i type="logical" name="NLSPLINE"> F  </i>
   </separator>
   <separator name="electronic startup" >
    <i type="int" name="ISTART">     0</i>
    <i type="int" name="ICHARG">     2</i>
    <i type="int" name="INIWAV">     1</i>
   </separator>
   <separator name="electronic spin" >
    <i type="int" name="ISPIN">     1</i>
    <i type="logical" name="LNONCOLLINEAR"> F  </i>
    <v name="MAGMOM">      1.00000000</v>
    <i name="NUPDOWN">     -1.00000000</i>
    <i type="logical" name="LSORBIT"> F  </i>
    <v name="SAXIS">      0.00000000      0.00000000      1.00000000</v>
    <i type="logical" name="LSPIRAL"> F  </i>
    <v name="QSPIRAL">      0.00000000      0.00000000      0.00000000</v>
    <i type="logical" name="LZEROZ"> F  </i>
   </separator>
   <separator name="electronic exchange-correlation" >
    <i type="logical" name="LASPH"> F  </i>
   </separator>
   <separator name="electronic convergence" >
    <i type="int" name="NELM">   100</i>
    <i type="int" name="NELMDL">    -5</i>
    <i type="int" name="NELMIN">     2</i>
    <i name="ENINI">    520.00000000</i>
    <separator name="electronic convergence detail" >
     <i type="logical" name="LDIAG"> T  </i>
     <i type="logical" name="LSUBROT"> F  </i>
     <i name="WEIMIN">      0.00000000</i>
     <i name="EBREAK">      0.00000003</i>
     <i name="DEPER">      0.30000000</i>
     <i type="int" name="NRMM">     4</i>
     <i name="TIME">      0.40000000</i>
    </separator>
   </separator>
   <separator name="electronic mixer" >
    <i name="AMIX">      0.40000000</i>
    <i name="BMIX">      1.00000000</i>
    <i name="AMIN">      0.10000000</i>
    <i name="AMIX_MAG">      1.60000000</i>
    <i name="BMIX_MAG">      1.00000000</i>
    <separator name="electronic mixer details" >
     <i type="int" name="IMIX">     4</i>
     <i type="logical" name="MIXFIRST"> F  </i>
     <i type="int" name="MAXMIX">   -45</i>
     <i name="WC">    100.00000000</i>
     <i type="int" name="INIMIX">     1</i>
     <i type="int" name="MIXPRE">     1</i>
     <i type="int" name="MREMOVE">     5</i>
    </separator>
   </separator>
   <separator name="electronic dipolcorrection" >
    <i type="logical" name="LDIPOL"> F  </i>
    <i type="logical" name="LMONO"> F  </i>
    <i type="int" name="IDIPOL">     0</i>
    <i name="EPSILON">      1.00000000</i>
    <v name="DIPOL">   -100.00000000   -100.00000000   -100.00000000</v>
    <i name="EFIELD">      0.00000000</i>
    <i type="logical" name="LVACPOTAV"> F  </i>
   </separator>
  </separator>
  <separator name="grids" >
   <i type="int" name="NGX">   112</i>
   <i type="int" name="NGY">    96</i>
   <i type="int" name="NGZ">   140</i>
   <i type="int" name="NGXF">   224</i>
   <i type="int" name="NGYF">   192</i>
   <i type="int" name="NGZF">   280</i>
   <i type="logical" name="ADDGRID"> F  </i>
  </separator>
  <separator name="ionic" >
   <i type="int" name="NSW">     0</i>
   <i type="int" name="IBRION">    -1</i>
   <i type="int" name="MDALGO">     0</i>
   <i type="int" name="ISIF">     2</i>
   <i name="PSTRESS">      0.00000000</i>
   <i name="EDIFFG">     -0.00100000</i>
   <i type="int" name="NFREE">     0</i>
   <i name="POTIM">      0.50000000</i>
   <i name="SMASS">     -3.00000000</i>
   <i name="SCALEE">      1.00000000</i>
  </separator>
  <separator name="ionic md" >
   <i name="TEBEG">      0.00010000</i>
   <i name="TEEND">      0.00010000</i>
   <i type="int" name="NBLOCK">     1</i>
   <i type="int" name="KBLOCK">     1</i>
   <i type="int" name="NPACO">   256</i>
   <i name="APACO">     10.00000000</i>
  </separator>
  <separator name="symmetry" >
   <i type="int" name="ISYM">     2</i>
   <i name="SYMPREC">      0.00001000</i>
  </separator>
  <separator name="dos" >
   <i type="int" name="LORBIT">     0</i>
   <v name="RWIGS">     -1.00000000</v>
   <i type="int" name="NEDOS">   301</i>
   <i name="EMIN">     10.00000000</i>
   <i name="EMAX">    -10.00000000</i>
   <i name="EFERMI">      0.00000000</i>
  </separator>
  <separator name="writing" >
   <i type="int" name="NWRITE">     2</i>
   <i type="logical" name="LWAVE"> F  </i>
   <i type="logical" name="LDOWNSAMPLE"> F  </i>
   <i type="logical" name="LCHARG"> F  </i>
   <i type="logical" name="LPARD"> F  </i>
   <i type="logical" name="LVTOT"> F  </i>
   <i type="logical" name="LVHAR"> F  </i>
   <i type="logical" name="LELF"> F  </i>
   <i type="logical" name="LOPTICS"> F  </i>
   <v name="STM">      0.00000000      0.00000000      0.00000000      0.00000000      0.00000000      0.00000000      0.00000000</v>
  </separator>
  <separator name="performance" >
   <i type="int" name="NPAR">     8</i>
   <i type="int" name="NSIM">     4</i>
   <i type="int" name="NBLK">    -1</i>
   <i type="logical" name="LPLANE"> T  </i>
   <i type="logical" name="LSCALAPACK"> T  </i>
   <i type="logical" name="LSCAAWARE"> F  </i>
   <i type="logical" name="LSCALU"> F  </i>
   <i type="logical" name="LASYNC"> F  </i>
   <i type="logical" name="LORBITALREAL"> F  </i>
  </separator>
  <separator name="miscellaneous" >
   <i type="int" name="IDIOT">     3</i>
   <i type="int" name="PHON_NSTRUCT">    -1</i>
   <i type="logical" name="LMUSIC"> F  </i>
   <v name="POMASS">     10.81100000</v>
   <v name="DARWINR">      0.00000000</v>
   <v name="DARWINV">      1.00000000</v>
   <i type="logical" name="LCORR"> T  </i>
  </separator>
  <i type="logical" name="GGA_COMPAT"> T  </i>
  <i type="logical" name="LBERRY"> F  </i>
  <i type="int" name="ICORELEVEL">     0</i>
  <i type="logical" name="LDAU"> F  </i>
  <i type="int" name="I_CONSTRAINED_M">     0</i>
  <separator name="electronic exchange-correlation" >
   <i type="string" name="GGA    ">PE</i>
   <i type="string" name="XC_C">1</i>
   <i type="int" name="VOSKOWN">     0</i>
   <i type="logical" name="LHFCALC"> F  </i>
   <i type="string" name="PRECFOCK"></i>
   <i type="logical" name="LSYMGRAD"> F  </i>
   <i type="logical" name="LHFONE"> F  </i>
   <i type="logical" name="LRHFCALC"> F  </i>
   <i type="logical" name="LTHOMAS"> F  </i>
   <i type="logical" name="LMODELHF"> F  </i>
   <i type="logical" name="LFOCKACE"> F  </i>
   <i name="ENCUT4O">     -1.00000000</i>
   <i type="int" name="EXXOEP">     0</i>
   <i type="int" name="FOURORBIT">     0</i>
   <i name="AEXX">      0.00000000</i>
   <i name="HFALPHA">      0.00000000</i>
   <i name="MCALPHA">      0.00000000</i>
   <i name="ALDAX">      1.00000000</i>
   <i name="AGGAX">      1.00000000</i>
   <i name="AMGGAX">      1.00000000</i>
   <i name="ALDAC">      1.00000000</i>
   <i name="AGGAC">      1.00000000</i>
   <i name="AMGGAC">      1.00000000</i>
   <i type="int" name="NKREDX">     1</i>
   <i type="int" name="NKREDY">     1</i>
   <i type="int" name="NKREDZ">     1</i>
   <i type="logical" name="SHIFTRED"> F  </i>
   <i type="logical" name="ODDONLY"> F  </i>
   <i type="logical" name="EVENONLY"> F  </i>
   <i type="int" name="LMAXFOCK">     0</i>
   <i type="int" name="NMAXFOCKAE">     0</i>
   <i type="logical" name="LFOCKAEDFT"> F  </i>
   <i name="HFSCREEN">      0.00000000</i>
   <i name="HFSCREENC">      0.00000000</i>
   <i type="int" name="NBANDSGWLOW">     0</i>
  </separator>
  <separator name="vdW DFT" >
   <i type="logical" name="LUSE_VDW"> F  </i>
   <i type="int" name="IVDW_NL">    -1</i>
   <i type="logical" name="LSPIN_VDW"> F  </i>
   <i name="ZAB_VDW">     -0.84910000</i>
   <i name="GAMMA_VDW">      1.39626340</i>
   <i name="ALPHA_VDW">      0.00000000</i>
   <i name="PARAM1">      0.12340000</i>
   <i name="PARAM2">      1.00000000</i>
   <i name="BPARAM">      6.30000000</i>
   <i name="CPARAM">      0.00930000</i>
  </separator>
  <separator name="model GW" >
   <i type="int" name="MODEL_GW">     0</i>
   <i name="MODEL_EPS0">   2025.00000000</i>
   <i name="MODEL_ALPHA">      1.00000000</i>
  </separator>
  <separator name="linear response parameters" >
   <i type="logical" name="LEPSILON"> F  </i>
   <i type="logical" name="LRPA"> F  </i>
   <i type="logical" name="LNABLA"> F  </i>
   <i type="logical" name="LVEL"> F  </i>
   <i name="CSHIFT">      0.10000000</i>
   <i name="OMEGAMAX">     -1.00000000</i>
   <i name="DEG_THRESHOLD">      0.00200000</i>
   <i name="RTIME">     -0.10000000</i>
   <i name="WPLASMAI">      0.00000000</i>
   <v name="DFIELD">      0.00000000      0.00000000      0.00000000</v>
   <v name="WPLASMA">      0.00000000      0.00000000      0.00000000      0.00000000      0.00000000      0.00000000      0.00000000      0.00000000      0.00000000</v>
  </separator>
  <separator name="orbital magnetization" >
   <i type="logical" name="NUCIND"> F  </i>
   <v name="MAGPOS">      0.00000000      0.00000000      0.00000000</v>
   <i type="logical" name="LNICSALL"> T  </i>
   <i type="logical" name="ORBITALMAG"> F  </i>
   <i type="logical" name="LMAGBLOCH"> F  </i>
   <i type="logical" name="LCHIMAG"> F  </i>
   <i type="logical" name="LGAUGE"> T  </i>
   <i type="int" name="MAGATOM">     0</i>
   <v name="MAGDIPOL">      0.00000000      0.00000000      0.00000000</v>
   <v name="AVECCONST">      0.00000000      0.00000000      0.00000000</v>
  </separator>
  <separator name="response functions" >
   <i type="logical" name="LALL_IN_ONE"> F  </i>
   <i type="int" name="IALL_IN_ONE">    -1</i>
   <i type="int" name="NBANDS_WAVE">    -1</i>
   <i type="logical" name="LFINITE_TEMPERATURE"> F  </i>
   <i type="logical" name="LADDER"> F  </i>
   <i type="logical" name="LRPAFORCE"> F  </i>
   <i type="logical" name="LFXC"> F  </i>
   <i type="logical" name="LHARTREE"> T  </i>
   <i type="int" name="IBSE">     0</i>
   <v type="int" name="KPOINT">    -1     0     0     0</v>
   <i type="logical" name="LTCTC"> F  </i>
   <i type="logical" name="LTCTE"> F  </i>
   <i type="logical" name="LTETE"> F  </i>
   <i type="logical" name="LTRIPLET"> F  </i>
   <i type="logical" name="LFXCEPS"> F  </i>
   <i type="logical" name="LFXHEG"> F  </i>
   <i type="int" name="NATURALO">     2</i>
   <i type="logical" name="LHOLEGF"> F  </i>
   <i type="logical" name="L2ORDER"> F  </i>
   <i type="logical" name="LDMP1"> F  </i>
   <i type="logical" name="LMP2LT"> F  </i>
   <i type="logical" name="LSMP2LT"> F  </i>
   <i type="logical" name="LGWLF"> F  </i>
   <i name="ENCUTGW">     -1.60000002</i>
   <i name="ENCUTGWSOFT">     -1.60000002</i>
   <i name="ENCUTLF">     -1.00000000</i>
   <i type="logical" name="ESF_SPLINES"> F  </i>
   <i name="ESF_CONV">      0.01000000</i>
   <i type="int" name="ESF_NINTER">    15</i>
   <i type="int" name="LMAXMP2">    -1</i>
   <i name="SCISSOR">      0.00000000</i>
   <i type="int" name="NOMEGA">     0</i>
   <i type="int" name="NOMEGAR">     0</i>
   <i type="int" name="NBANDSGW">    -1</i>
   <i type="int" name="NBANDSO">    -1</i>
   <i type="int" name="NBANDSV">    -1</i>
   <i type="int" name="NELMGW">     1</i>
   <i type="int" name="NELMHF">     1</i>
   <i type="int" name="DIM">     3</i>
   <i type="int" name="IESPILON">     4</i>
   <i type="int" name="ANTIRES">     0</i>
   <i name="OMEGAMAX">    -30.00000000</i>
   <i name="OMEGAMIN">    -30.00000000</i>
   <i name="OMEGATL">   -200.00000000</i>
   <i type="int" name="OMEGAGRID">     0</i>
   <i name="CSHIFT">     -0.10000000</i>
   <i type="logical" name="LSELFENERGY"> F  </i>
   <i type="logical" name="LSPECTRAL"> F  </i>
   <i type="logical" name="LSPECTRALGW"> F  </i>
   <i type="logical" name="LSINGLES"> F  </i>
   <i type="logical" name="LFERMIGW"> F  </i>
   <i type="logical" name="ODDONLYGW"> F  </i>
   <i type="logical" name="EVENONLYGW"> F  </i>
   <i type="int" name="NKREDLFX">     1</i>
   <i type="int" name="NKREDLFY">     1</i>
   <i type="int" name="NKREDLFZ">     1</i>
   <i type="int" name="MAXMEM">  2800</i>
   <i type="int" name="TELESCOPE">     0</i>
   <i type="int" name="NTAUPAR">    -1</i>
   <i type="int" name="NOMEGAPAR">    -1</i>
   <i name="DAMP_NEWTON">      0.80000001</i>
   <i name="LAMBDA">      1.00000000</i>
  </separator>
  <separator name="External order field" >
   <i name="OFIELD_KAPPA">      0.00000000</i>
   <v name="OFIELD_K">      0.00000000      0.00000000      0.00000000</v>
   <i name="OFIELD_Q6_NEAR">      0.00000000</i>
   <i name="OFIELD_Q6_FAR">      0.00000000</i>
   <i name="OFIELD_A">      0.00000000</i>
  </separator>
  <separator name="optional k-points parameters" >
   <i type="int" name="KPOINTS_OPT_MODE">     1</i>
   <i type="logical" name="LKPOINTS_OPT"> F  </i>
  </separator>
 </parameters>
 <atominfo>
  <atoms>       1 </atoms>
  <types>       1 </types>
  <array name="atoms" >
   <dimension dim="1">ion</dimension>
   <field type="string">element</field>
   <field type="int">atomtype</field>
   <set>
    <rc><c>B </c><c>   1</c></rc>
   </set>
  </array>
  <array name="atomtypes" >
   <dimension dim="1">type</dimension>
   <field type="int">atomspertype</field>
   <field type="string">element</field>
   <field>mass</field>
   <field>valence</field>
   <field type="string">pseudopotential</field>
   <set>
    <rc><c>   1</c><c>B </c><c>     10.81100000</c><c>      3.00000000</c><c>  PAW_PBE B 06Sep2000                   </c></rc>
   </set>
  </array>
 </atominfo>
 <structure name="initialpos" >
  <crystal>
   <varray name="basis" >
    <v>      15.00000000       0.00000000       0.00000000 </v>
    <v>       0.00000000      12.50000000       0.00000000 </v>
    <v>       0.00000000       0.00000000      18.00000000 </v>
   </varray>
   <i name="volume">   3375.00000000 </i>
   <varray name="rec_basis" >
    <v>       0.06666667       0.00000000       0.00000000 </v>
    <v>       0.00000000       0.08000000       0.00000000 </v>
    <v>       0.00000000       0.00000000       0.05555556 </v>
   </varray>
  </crystal>
  <varray name="positions" >
   <v>       0.52123000       0.54500000       0.63796000 </v>
  </varray>
 </structure>
 <calculation>
  <scstep>
   <time name="dav">   41.57   41.67</time>
   <time name="total">   42.47   42.57</time>
   <energy>
    <i name="alphaZ">      0.02038373 </i>
    <i name="ewald">    -11.82901664 </i>
    <i name="hartreedc">    -42.58396533 </i>
    <i name="XCdc">      4.75549663 </i>
    <i name="pawpsdc">     43.49986551 </i>
    <i name="pawaedc">    -42.64454556 </i>
    <i name="eentropy">     -0.00660157 </i>
    <i name="bandstr">    -12.78237941 </i>
    <i name="atom">     71.16921910 </i>
    <i name="e_fr_energy">      9.59845646 </i>
    <i name="e_wo_entrp">      9.60505803 </i>
    <i name="e_0_energy">      9.60175724 </i>
   </energy>
  </scstep>
  <scstep>
   <time name="dav">   42.95   43.05</time>
   <time name="total">   42.95   43.05</time>
   <energy>
    <i name="e_fr_energy">      0.96221671 </i>
    <i name="e_wo_entrp">      0.96533708 </i>
    <i name="e_0_energy">      0.96377689 </i>
   </energy>
  </scstep>
  <scstep>
   <time name="dav">   47.27   47.36</time>
   <time name="total">   47.27   47.36</time>
   <energy>
    <i name="e_fr_energy">     -0.01818483 </i>
    <i name="e_wo_entrp">      0.01812729 </i>
    <i name="e_0_energy">     -0.00002877 </i>
   </energy>
  </scstep>
  <scstep>
   <time name="dav">   32.22   32.32</time>
   <time name="total">   32.22   32.32</time>
   <energy>
    <i name="e_fr_energy">     -0.05665620 </i>
    <i name="e_wo_entrp">     -0.00371209 </i>
    <i name="e_0_energy">     -0.03018415 </i>
   </energy>
  </scstep>
  <scstep>
   <time name="dav">   36.51   36.61</time>
   <time name="total">   41.26   41.37</time>
   <energy>
    <i name="e_fr_energy">     -0.05821786 </i>
    <i name="e_wo_entrp">     -0.00521665 </i>
    <i name="e_0_energy">     -0.03171725 </i>
   </energy>
  </scstep>
  <scstep>
   <time name="dav">   41.27   41.31</time>
   <time name="total">   48.49   48.52</time>
   <energy>
    <i name="e_fr_energy">     -0.05827537 </i>
    <i name="e_wo_entrp">     -0.00527403 </i>
    <i name="e_0_energy">     -0.03177470 </i>
   </energy>
  </scstep>
  <scstep>
   <time name="dav">   41.75   41.82</time>
   <time name="total">   48.11   48.18</time>
   <energy>
    <i name="e_fr_energy">     -0.05827647 </i>
    <i name="e_wo_entrp">     -0.00527513 </i>
    <i name="e_0_energy">     -0.03177580 </i>
   </energy>
  </scstep>
  <scstep>
   <time name="dav">   39.98   40.06</time>
   <time name="total">   46.64   46.73</time>
   <energy>
    <i name="e_fr_energy">     -0.05827934 </i>
    <i name="e_wo_entrp">     -0.00527800 </i>
    <i name="e_0_energy">     -0.03177867 </i>
   </energy>
  </scstep>
  <scstep>
   <time name="dav">   45.58   45.68</time>
   <time name="total">   46.82   46.93</time>
   <energy>
    <i name="alphaZ">      0.02038373 </i>
    <i name="ewald">    -11.82901664 </i>
    <i name="hartreedc">    -42.58401995 </i>
    <i name="XCdc">      4.75525559 </i>
    <i name="pawpsdc">     43.61631631 </i>
    <i name="pawaedc">    -42.76117633 </i>
    <i name="eentropy">     -0.05300134 </i>
    <i name="bandstr">    -22.39223985 </i>
    <i name="atom">     71.16921910 </i>
    <i name="e_fr_energy">     -0.05827939 </i>
    <i name="e_wo_entrp">     -0.00527805 </i>
    <i name="e_0_energy">     -0.03177872 </i>
   </energy>
  </scstep>
  <structure>
   <crystal>
    <varray name="basis" >
     <v>      15.00000000       0.00000000       0.00000000 </v>
     <v>       0.00000000      12.50000000       0.00000000 </v>
     <v>       0.00000000       0.00000000      18.00000000 </v>
    </varray>
    <i name="volume">   3375.00000000 </i>
    <varray name="rec_basis" >
     <v>       0.06666667       0.00000000       0.00000000 </v>
     <v>       0.00000000       0.08000000       0.00000000 </v>
     <v>       0.00000000       0.00000000       0.05555556 </v>
    </varray>
   </crystal>
   <varray name="positions" >
    <v>       0.52123000       0.54500000       0.63796000 </v>
   </varray>
  </structure>
  <varray name="forces" >
   <v>       0.00000000       0.00000000       0.00000000 </v>
  </varray>
  <varray name="stress" >
   <v>      -0.00093954      -0.00000000       0.00000000 </v>
   <v>       0.00000000      -0.00094169       0.00000000 </v>
   <v>       0.00000000       0.00000000      -0.00095623 </v>
  </varray>
  <energy>
   <i name="e_fr_energy">     -0.05827939 </i>
   <i name="e_wo_entrp">     -0.00527805 </i>
   <i name="e_0_energy">     -0.03177872 </i>
  </energy>
  <time name="totalsc">  443.02  443.87</time>
  <eigenvalues>
   <array>
    <dimension dim="1">band</dimension>
    <dimension dim="2">kpoint</dimension>
    <dimension dim="3">spin</dimension>
    <field>eigene</field>
    <field>occ</field>
    <set>
     <set comment="spin 1">
      <set comment="kpoint 1">
       <r>   -9.4098    1.0000 </r>
       <r>   -3.5726    0.1667 </r>
       <r>   -3.5726    0.1667 </r>
       <r>   -3.5725    0.1659 </r>
       <r>   -0.2617    0.0000 </r>
       <r>    0.2969    0.0000 </r>
       <r>    0.3100    0.0000 </r>
       <r>    0.4400    0.0000 </r>
      </set>
      <set comment="kpoint 2">
       <r>   -9.4098    1.0000 </r>
       <r>   -3.5726    0.1667 </r>
       <r>   -3.5726    0.1667 </r>
       <r>   -3.5725    0.1659 </r>
       <r>   -0.2519    0.0000 </r>
       <r>    0.2703    0.0000 </r>
       <r>    0.3213    0.0000 </r>
       <r>    0.3760    0.0000 </r>
      </set>
      <set comment="kpoint 3">
       <r>   -9.4098    1.0000 </r>
       <r>   -3.5726    0.1667 </r>
       <r>   -3.5726    0.1667 </r>
       <r>   -3.5725    0.1659 </r>
       <r>   -0.2338    0.0000 </r>
       <r>    0.1999    0.0000 </r>
       <r>    0.3428    0.0000 </r>
       <r>    0.3788    0.0000 </r>
      </set>
      <set comment="kpoint 4">
       <r>   -9.4098    1.0000 </r>
       <r>   -3.5726    0.1668 </r>
       <r>   -3.5726    0.1667 </r>
       <r>   -3.5725    0.1659 </r>
       <r>   -0.2116    0.0000 </r>
       <r>    0.1321    0.0000 </r>
       <r>    0.3719    0.0000 </r>
       <r>    0.4104    0.0000 </r>
      </set>
      <set comment="kpoint 5">
       <r>   -9.4098    1.0000 </r>
       <r>   -3.5726    0.1668 </r>
       <r>   -3.5726    0.1667 </r>
       <r>   -3.5725    0.1659 </r>
       <r>   -0.1946    0.0000 </r>
       <r>    0.0909    0.0000 </r>
       <r>    0.3983    0.0000 </r>
       <r>    0.4493    0.0000 </r>
      </set>
      <set comment="kpoint 6">
       <r>   -9.4098    1.0000 </r>
       <r>   -3.5726    0.1667 </r>
       <r>   -3.5726    0.1667 </r>
       <r>   -3.5725    0.1660 </r>
       <r>   -0.2526    0.0000 </r>
       <r>    0.3050    0.0000 </r>
       <r>    0.3190    0.0000 </r>
       <r>    0.4488    0.0000 </r>
      </set>
      <set comment="kpoint 7">
       <r>   -9.4098    1.0000 </r>
       <r>   -3.5726    0.1667 </r>
       <r>   -3.5726    0.1667 </r>
       <r>   -3.5725    0.1660 </r>
       <r>   -0.2428    0.0000 </r>
       <r>    0.2788    0.0000 </r>
       <r>    0.3302    0.0000 </r>
       <r>    0.3850    0.0000 </r>
      </set>
      <set comment="kpoint 8">
       <r>   -9.4098    1.0000 </r>
       <r>   -3.5726    0.1667 </r>
       <r>   -3.5726    0.1667 </r>
       <r>   -3.5725    0.1660 </r>
       <r>   -0.2247    0.0000 </r>
       <r>    0.2089    0.0000 </r>
       <r>    0.3517    0.0000 </r>
       <r>    0.3874    0.0000 </r>
      </set>
      <set comment="kpoint 9">
       <r>   -9.4098    1.0000 </r>
       <r>   -3.5726    0.1668 </r>
       <r>   -3.5726    0.1667 </r>
       <r>   -3.5725    0.1660 </r>
       <r>   -0.2026    0.0000 </r>
       <r>    0.1413    0.0000 </r>
       <r>    0.3807    0.0000 </r>
       <r>    0.4189    0.0000 </r>
      </set>
      <set comment="kpoint 10">
       <r>   -9.4098    1.0000 </r>
       <r>   -3.5726    0.1668 </r>
       <r>   -3.5726    0.1667 </r>
       <r>   -3.5725    0.1660 </r>
       <r>   -0.1856    0.0000 </r>
       <r>    0.1003    0.0000 </r>
       <r>    0.4069    0.0000 </r>
       <r>    0.4577    0.0000 </r>
      </set>
      <set comment="kpoint 11">
       <r>   -9.4098    1.0000 </r>
       <r>   -3.5726    0.1667 </r>
       <r>   -3.5726    0.1666 </r>
       <r>   -3.5725    0.1663 </r>
       <r>   -0.2347    0.0000 </r>
       <r>    0.3178    0.0000 </r>
       <r>    0.3368    0.0000 </r>
       <r>    0.4625    0.0000 </r>
      </set>
      <set comment="kpoint 12">
       <r>   -9.4098    1.0000 </r>
       <r>   -3.5726    0.1667 </r>
       <r>   -3.5726    0.1667 </r>
       <r>   -3.5725    0.1663 </r>
       <r>   -0.2249    0.0000 </r>
       <r>    0.2940    0.0000 </r>
       <r>    0.3480    0.0000 </r>
       <r>    0.4012    0.0000 </r>
      </set>
      <set comment="kpoint 13">
       <r>   -9.4098    1.0000 </r>
       <r>   -3.5726    0.1667 </r>
       <r>   -3.5726    0.1667 </r>
       <r>   -3.5725    0.1663 </r>
       <r>   -0.2068    0.0000 </r>
       <r>    0.2266    0.0000 </r>
       <r>    0.3694    0.0000 </r>
       <r>    0.4012    0.0000 </r>
      </set>
      <set comment="kpoint 14">
       <r>   -9.4098    1.0000 </r>
       <r>   -3.5726    0.1667 </r>
       <r>   -3.5726    0.1667 </r>
       <r>   -3.5725    0.1663 </r>
       <r>   -0.1849    0.0000 </r>
       <r>    0.1598    0.0000 </r>
       <r>    0.3981    0.0000 </r>
       <r>    0.4315    0.0000 </r>
      </set>
      <set comment="kpoint 15">
       <r>   -9.4098    1.0000 </r>
       <r>   -3.5726    0.1668 </r>
       <r>   -3.5726    0.1667 </r>
       <r>   -3.5725    0.1663 </r>
       <r>   -0.1680    0.0000 </r>
       <r>    0.1191    0.0000 </r>
       <r>    0.4240    0.0000 </r>
       <r>    0.4684    0.0000 </r>
      </set>
      <set comment="kpoint 16">
       <r>   -9.4098    1.0000 </r>
       <r>   -3.5726    0.1667 </r>
       <r>   -3.5726    0.1667 </r>
       <r>   -3.5726    0.1666 </r>
       <r>   -0.2087    0.0000 </r>
       <r>    0.3087    0.0000 </r>
       <r>    0.3632    0.0000 </r>
       <r>    0.4012    0.0000 </r>
      </set>
      <set comment="kpoint 17">
       <r>   -9.4098    1.0000 </r>
       <r>   -3.5726    0.1667 </r>
       <r>   -3.5726    0.1667 </r>
       <r>   -3.5726    0.1666 </r>
       <r>   -0.1990    0.0000 </r>
       <r>    0.3017    0.0000 </r>
       <r>    0.3743    0.0000 </r>
       <r>    0.3847    0.0000 </r>
      </set>
      <set comment="kpoint 18">
       <r>   -9.4098    1.0000 </r>
       <r>   -3.5726    0.1667 </r>
       <r>   -3.5726    0.1667 </r>
       <r>   -3.5726    0.1667 </r>
       <r>   -0.1811    0.0000 </r>
       <r>    0.2506    0.0000 </r>
       <r>    0.3751    0.0000 </r>
       <r>    0.3955    0.0000 </r>
      </set>
      <set comment="kpoint 19">
       <r>   -9.4098    1.0000 </r>
       <r>   -3.5726    0.1667 </r>
       <r>   -3.5726    0.1667 </r>
       <r>   -3.5726    0.1667 </r>
       <r>   -0.1594    0.0000 </r>
       <r>    0.1868    0.0000 </r>
       <r>    0.3977    0.0000 </r>
       <r>    0.4238    0.0000 </r>
      </set>
      <set comment="kpoint 20">
       <r>   -9.4098    1.0000 </r>
       <r>   -3.5726    0.1667 </r>
       <r>   -3.5726    0.1667 </r>
       <r>   -3.5726    0.1667 </r>
       <r>   -0.1428    0.0000 </r>
       <r>    0.1470    0.0000 </r>
       <r>    0.4222    0.0000 </r>
       <r>    0.4491    0.0000 </r>
      </set>
      <set comment="kpoint 21">
       <r>   -9.4098    1.0000 </r>
       <r>   -3.5726    0.1670 </r>
       <r>   -3.5726    0.1667 </r>
       <r>   -3.5726    0.1666 </r>
       <r>   -0.1766    0.0000 </r>
       <r>    0.2436    0.0000 </r>
       <r>    0.3974    0.0000 </r>
       <r>    0.4162    0.0000 </r>
      </set>
      <set comment="kpoint 22">
       <r>   -9.4098    1.0000 </r>
       <r>   -3.5726    0.1670 </r>
       <r>   -3.5726    0.1666 </r>
       <r>   -3.5726    0.1666 </r>
       <r>   -0.1670    0.0000 </r>
       <r>    0.2525    0.0000 </r>
       <r>    0.3852    0.0000 </r>
       <r>    0.4083    0.0000 </r>
      </set>
      <set comment="kpoint 23">
       <r>   -9.4098    1.0000 </r>
       <r>   -3.5726    0.1670 </r>
       <r>   -3.5726    0.1666 </r>
       <r>   -3.5726    0.1666 </r>
       <r>   -0.1494    0.0000 </r>
       <r>    0.2591    0.0000 </r>
       <r>    0.3217    0.0000 </r>
       <r>    0.4291    0.0000 </r>
      </set>
      <set comment="kpoint 24">
       <r>   -9.4098    1.0000 </r>
       <r>   -3.5726    0.1670 </r>
       <r>   -3.5726    0.1667 </r>
       <r>   -3.5726    0.1666 </r>
       <r>   -0.1281    0.0000 </r>
       <r>    0.2204    0.0000 </r>
       <r>    0.3197    0.0000 </r>
       <r>    0.4568    0.0000 </r>
      </set>
      <set comment="kpoint 25">
       <r>   -9.4098    1.0000 </r>
       <r>   -3.5726    0.1670 </r>
       <r>   -3.5726    0.1667 </r>
       <r>   -3.5726    0.1666 </r>
       <r>   -0.1120    0.0000 </r>
       <r>    0.1836    0.0000 </r>
       <r>    0.3407    0.0000 </r>
       <r>    0.4812    0.0000 </r>
      </set>
      <set comment="kpoint 26">
       <r>   -9.4098    1.0000 </r>
       <r>   -3.5727    0.1673 </r>
       <r>   -3.5726    0.1666 </r>
       <r>   -3.5726    0.1666 </r>
       <r>   -0.1426    0.0000 </r>
       <r>    0.1765    0.0000 </r>
       <r>    0.4368    0.0000 </r>
       <r>    0.4587    0.0000 </r>
      </set>
      <set comment="kpoint 27">
       <r>   -9.4098    1.0000 </r>
       <r>   -3.5727    0.1673 </r>
       <r>   -3.5726    0.1666 </r>
       <r>   -3.5726    0.1666 </r>
       <r>   -0.1332    0.0000 </r>
       <r>    0.1875    0.0000 </r>
       <r>    0.4228    0.0000 </r>
       <r>    0.4475    0.0000 </r>
      </set>
      <set comment="kpoint 28">
       <r>   -9.4098    1.0000 </r>
       <r>   -3.5727    0.1673 </r>
       <r>   -3.5726    0.1666 </r>
       <r>   -3.5726    0.1666 </r>
       <r>   -0.1161    0.0000 </r>
       <r>    0.2083    0.0000 </r>
       <r>    0.3452    0.0000 </r>
       <r>    0.4677    0.0000 </r>
      </set>
      <set comment="kpoint 29">
       <r>   -9.4098    1.0000 </r>
       <r>   -3.5727    0.1673 </r>
       <r>   -3.5726    0.1667 </r>
       <r>   -3.5726    0.1666 </r>
       <r>   -0.0957    0.0000 </r>
       <r>    0.2324    0.0000 </r>
       <r>    0.2818    0.0000 </r>
       <r>    0.4977    0.0000 </r>
      </set>
      <set comment="kpoint 30">
       <r>   -9.4098    1.0000 </r>
       <r>   -3.5727    0.1673 </r>
       <r>   -3.5726    0.1667 </r>
       <r>   -3.5726    0.1666 </r>
       <r>   -0.0804    0.0000 </r>
       <r>    0.2268    0.0000 </r>
       <r>    0.2734    0.0000 </r>
       <r>    0.4481    0.0000 </r>
      </set>
      <set comment="kpoint 31">
       <r>   -9.4098    1.0000 </r>
       <r>   -3.5727    0.1675 </r>
       <r>   -3.5726    0.1666 </r>
       <r>   -3.5726    0.1665 </r>
       <r>   -0.1174    0.0000 </r>
       <r>    0.1336    0.0000 </r>
       <r>    0.4717    0.0000 </r>
       <r>    0.5070    0.0000 </r>
      </set>
      <set comment="kpoint 32">
       <r>   -9.4098    1.0000 </r>
       <r>   -3.5727    0.1675 </r>
       <r>   -3.5726    0.1666 </r>
       <r>   -3.5726    0.1666 </r>
       <r>   -0.1083    0.0000 </r>
       <r>    0.1453    0.0000 </r>
       <r>    0.4627    0.0000 </r>
       <r>    0.4820    0.0000 </r>
      </set>
      <set comment="kpoint 33">
       <r>   -9.4098    1.0000 </r>
       <r>   -3.5727    0.1675 </r>
       <r>   -3.5726    0.1666 </r>
       <r>   -3.5726    0.1666 </r>
       <r>   -0.0918    0.0000 </r>
       <r>    0.1680    0.0000 </r>
       <r>    0.3820    0.0000 </r>
       <r>    0.5033    0.0000 </r>
      </set>
      <set comment="kpoint 34">
       <r>   -9.4098    1.0000 </r>
       <r>   -3.5727    0.1675 </r>
       <r>   -3.5726    0.1666 </r>
       <r>   -3.5726    0.1666 </r>
       <r>   -0.0723    0.0000 </r>
       <r>    0.1991    0.0000 </r>
       <r>    0.3141    0.0000 </r>
       <r>    0.4391    0.0000 </r>
      </set>
      <set comment="kpoint 35">
       <r>   -9.4098    1.0000 </r>
       <r>   -3.5727    0.1675 </r>
       <r>   -3.5726    0.1667 </r>
       <r>   -3.5726    0.1666 </r>
       <r>   -0.0579    0.0000 </r>
       <r>    0.2296    0.0000 </r>
       <r>    0.2737    0.0000 </r>
       <r>    0.3859    0.0000 </r>
      </set>
      <set comment="kpoint 36">
       <r>   -9.4098    1.0000 </r>
       <r>   -3.5726    0.1667 </r>
       <r>   -3.5726    0.1667 </r>
       <r>   -3.5725    0.1659 </r>
       <r>   -0.2587    0.0000 </r>
       <r>    0.2192    0.0000 </r>
       <r>    0.3889    0.0000 </r>
       <r>    0.4534    0.0000 </r>
      </set>
      <set comment="kpoint 37">
       <r>   -9.4098    1.0000 </r>
       <r>   -3.5726    0.1667 </r>
       <r>   -3.5726    0.1667 </r>
       <r>   -3.5725    0.1659 </r>
       <r>   -0.2489    0.0000 </r>
       <r>    0.2245    0.0000 </r>
       <r>    0.3195    0.0000 </r>
       <r>    0.4402    0.0000 </r>
      </set>
      <set comment="kpoint 38">
       <r>   -9.4098    1.0000 </r>
       <r>   -3.5726    0.1667 </r>
       <r>   -3.5726    0.1667 </r>
       <r>   -3.5725    0.1659 </r>
       <r>   -0.2309    0.0000 </r>
       <r>    0.1980    0.0000 </r>
       <r>    0.2801    0.0000 </r>
       <r>    0.4601    0.0000 </r>
      </set>
      <set comment="kpoint 39">
       <r>   -9.4098    1.0000 </r>
       <r>   -3.5726    0.1668 </r>
       <r>   -3.5726    0.1667 </r>
       <r>   -3.5725    0.1659 </r>
       <r>   -0.2089    0.0000 </r>
       <r>    0.1361    0.0000 </r>
       <r>    0.3029    0.0000 </r>
       <r>    0.4887    0.0000 </r>
      </set>
      <set comment="kpoint 40">
       <r>   -9.4098    1.0000 </r>
       <r>   -3.5726    0.1668 </r>
       <r>   -3.5726    0.1667 </r>
       <r>   -3.5725    0.1659 </r>
       <r>   -0.1921    0.0000 </r>
       <r>    0.0958    0.0000 </r>
       <r>    0.3334    0.0000 </r>
       <r>    0.4730    0.0000 </r>
      </set>
      <set comment="kpoint 41">
       <r>   -9.4098    1.0000 </r>
       <r>   -3.5726    0.1667 </r>
       <r>   -3.5726    0.1667 </r>
       <r>   -3.5725    0.1660 </r>
       <r>   -0.2496    0.0000 </r>
       <r>    0.2282    0.0000 </r>
       <r>    0.3964    0.0000 </r>
       <r>    0.4621    0.0000 </r>
      </set>
      <set comment="kpoint 42">
       <r>   -9.4098    1.0000 </r>
       <r>   -3.5726    0.1667 </r>
       <r>   -3.5726    0.1667 </r>
       <r>   -3.5725    0.1660 </r>
       <r>   -0.2398    0.0000 </r>
       <r>    0.2334    0.0000 </r>
       <r>    0.3284    0.0000 </r>
       <r>    0.4481    0.0000 </r>
      </set>
      <set comment="kpoint 43">
       <r>   -9.4098    1.0000 </r>
       <r>   -3.5726    0.1667 </r>
       <r>   -3.5726    0.1667 </r>
       <r>   -3.5725    0.1660 </r>
       <r>   -0.2218    0.0000 </r>
       <r>    0.2070    0.0000 </r>
       <r>    0.2892    0.0000 </r>
       <r>    0.4678    0.0000 </r>
      </set>
      <set comment="kpoint 44">
       <r>   -9.4098    1.0000 </r>
       <r>   -3.5726    0.1667 </r>
       <r>   -3.5726    0.1667 </r>
       <r>   -3.5725    0.1660 </r>
       <r>   -0.1999    0.0000 </r>
       <r>    0.1453    0.0000 </r>
       <r>    0.3119    0.0000 </r>
       <r>    0.4965    0.0000 </r>
      </set>
      <set comment="kpoint 45">
       <r>   -9.4098    1.0000 </r>
       <r>   -3.5726    0.1668 </r>
       <r>   -3.5726    0.1667 </r>
       <r>   -3.5725    0.1660 </r>
       <r>   -0.1831    0.0000 </r>
       <r>    0.1052    0.0000 </r>
       <r>    0.3423    0.0000 </r>
       <r>    0.4823    0.0000 </r>
      </set>
      <set comment="kpoint 46">
       <r>   -9.4098    1.0000 </r>
       <r>   -3.5726    0.1667 </r>
       <r>   -3.5726    0.1666 </r>
       <r>   -3.5725    0.1663 </r>
       <r>   -0.2317    0.0000 </r>
       <r>    0.2456    0.0000 </r>
       <r>    0.4029    0.0000 </r>
       <r>    0.4714    0.0000 </r>
      </set>
      <set comment="kpoint 47">
       <r>   -9.4098    1.0000 </r>
       <r>   -3.5726    0.1667 </r>
       <r>   -3.5726    0.1667 </r>
       <r>   -3.5725    0.1663 </r>
       <r>   -0.2219    0.0000 </r>
       <r>    0.2506    0.0000 </r>
       <r>    0.3453    0.0000 </r>
       <r>    0.4502    0.0000 </r>
      </set>
      <set comment="kpoint 48">
       <r>   -9.4098    1.0000 </r>
       <r>   -3.5726    0.1667 </r>
       <r>   -3.5726    0.1667 </r>
       <r>   -3.5725    0.1663 </r>
       <r>   -0.2040    0.0000 </r>
       <r>    0.2247    0.0000 </r>
       <r>    0.3073    0.0000 </r>
       <r>    0.4677    0.0000 </r>
      </set>
      <set comment="kpoint 49">
       <r>   -9.4098    1.0000 </r>
       <r>   -3.5726    0.1667 </r>
       <r>   -3.5726    0.1667 </r>
       <r>   -3.5725    0.1663 </r>
       <r>   -0.1822    0.0000 </r>
       <r>    0.1637    0.0000 </r>
       <r>    0.3296    0.0000 </r>
       <r>    0.4960    0.0000 </r>
      </set>
      <set comment="kpoint 50">
       <r>   -9.4098    1.0000 </r>
       <r>   -3.5726    0.1668 </r>
       <r>   -3.5726    0.1667 </r>
       <r>   -3.5725    0.1663 </r>
       <r>   -0.1656    0.0000 </r>
       <r>    0.1239    0.0000 </r>
       <r>    0.3597    0.0000 </r>
       <r>    0.5005    0.0000 </r>
      </set>
      <set comment="kpoint 51">
       <r>   -9.4098    1.0000 </r>
       <r>   -3.5726    0.1667 </r>
       <r>   -3.5726    0.1667 </r>
       <r>   -3.5726    0.1666 </r>
       <r>   -0.2058    0.0000 </r>
       <r>    0.2668    0.0000 </r>
       <r>    0.3520    0.0000 </r>
       <r>    0.4589    0.0000 </r>
      </set>
      <set comment="kpoint 52">
       <r>   -9.4098    1.0000 </r>
       <r>   -3.5726    0.1667 </r>
       <r>   -3.5726    0.1667 </r>
       <r>   -3.5726    0.1666 </r>
       <r>   -0.1961    0.0000 </r>
       <r>    0.2714    0.0000 </r>
       <r>    0.3560    0.0000 </r>
       <r>    0.3904    0.0000 </r>
      </set>
      <set comment="kpoint 53">
       <r>   -9.4098    1.0000 </r>
       <r>   -3.5726    0.1667 </r>
       <r>   -3.5726    0.1667 </r>
       <r>   -3.5726    0.1667 </r>
       <r>   -0.1783    0.0000 </r>
       <r>    0.2488    0.0000 </r>
       <r>    0.3334    0.0000 </r>
       <r>    0.3894    0.0000 </r>
      </set>
      <set comment="kpoint 54">
       <r>   -9.4098    1.0000 </r>
       <r>   -3.5726    0.1667 </r>
       <r>   -3.5726    0.1667 </r>
       <r>   -3.5726    0.1667 </r>
       <r>   -0.1568    0.0000 </r>
       <r>    0.1908    0.0000 </r>
       <r>    0.3532    0.0000 </r>
       <r>    0.4156    0.0000 </r>
      </set>
      <set comment="kpoint 55">
       <r>   -9.4098    1.0000 </r>
       <r>   -3.5726    0.1667 </r>
       <r>   -3.5726    0.1667 </r>
       <r>   -3.5726    0.1667 </r>
       <r>   -0.1404    0.0000 </r>
       <r>    0.1518    0.0000 </r>
       <r>    0.3820    0.0000 </r>
       <r>    0.4394    0.0000 </r>
      </set>
      <set comment="kpoint 56">
       <r>   -9.4098    1.0000 </r>
       <r>   -3.5726    0.1670 </r>
       <r>   -3.5726    0.1666 </r>
       <r>   -3.5726    0.1666 </r>
       <r>   -0.1737    0.0000 </r>
       <r>    0.2439    0.0000 </r>
       <r>    0.3276    0.0000 </r>
       <r>    0.4900    0.0000 </r>
      </set>
      <set comment="kpoint 57">
       <r>   -9.4098    1.0000 </r>
       <r>   -3.5726    0.1670 </r>
       <r>   -3.5726    0.1666 </r>
       <r>   -3.5726    0.1666 </r>
       <r>   -0.1642    0.0000 </r>
       <r>    0.2526    0.0000 </r>
       <r>    0.3368    0.0000 </r>
       <r>    0.4127    0.0000 </r>
      </set>
      <set comment="kpoint 58">
       <r>   -9.4098    1.0000 </r>
       <r>   -3.5726    0.1670 </r>
       <r>   -3.5726    0.1666 </r>
       <r>   -3.5726    0.1666 </r>
       <r>   -0.1467    0.0000 </r>
       <r>    0.2596    0.0000 </r>
       <r>    0.3249    0.0000 </r>
       <r>    0.3719    0.0000 </r>
      </set>
      <set comment="kpoint 59">
       <r>   -9.4098    1.0000 </r>
       <r>   -3.5726    0.1670 </r>
       <r>   -3.5726    0.1667 </r>
       <r>   -3.5726    0.1666 </r>
       <r>   -0.1256    0.0000 </r>
       <r>    0.2243    0.0000 </r>
       <r>    0.3223    0.0000 </r>
       <r>    0.3982    0.0000 </r>
      </set>
      <set comment="kpoint 60">
       <r>   -9.4098    1.0000 </r>
       <r>   -3.5726    0.1670 </r>
       <r>   -3.5726    0.1667 </r>
       <r>   -3.5726    0.1666 </r>
       <r>   -0.1097    0.0000 </r>
       <r>    0.1883    0.0000 </r>
       <r>    0.3427    0.0000 </r>
       <r>    0.4274    0.0000 </r>
      </set>
      <set comment="kpoint 61">
       <r>   -9.4098    1.0000 </r>
       <r>   -3.5727    0.1673 </r>
       <r>   -3.5726    0.1666 </r>
       <r>   -3.5726    0.1666 </r>
       <r>   -0.1399    0.0000 </r>
       <r>    0.1804    0.0000 </r>
       <r>    0.3640    0.0000 </r>
       <r>    0.5300    0.0000 </r>
      </set>
      <set comment="kpoint 62">
       <r>   -9.4098    1.0000 </r>
       <r>   -3.5727    0.1673 </r>
       <r>   -3.5726    0.1666 </r>
       <r>   -3.5726    0.1666 </r>
       <r>   -0.1306    0.0000 </r>
       <r>    0.1914    0.0000 </r>
       <r>    0.3715    0.0000 </r>
       <r>    0.4521    0.0000 </r>
      </set>
      <set comment="kpoint 63">
       <r>   -9.4098    1.0000 </r>
       <r>   -3.5727    0.1673 </r>
       <r>   -3.5726    0.1666 </r>
       <r>   -3.5726    0.1666 </r>
       <r>   -0.1136    0.0000 </r>
       <r>    0.2121    0.0000 </r>
       <r>    0.3453    0.0000 </r>
       <r>    0.4125    0.0000 </r>
      </set>
      <set comment="kpoint 64">
       <r>   -9.4098    1.0000 </r>
       <r>   -3.5727    0.1673 </r>
       <r>   -3.5726    0.1667 </r>
       <r>   -3.5726    0.1666 </r>
       <r>   -0.0933    0.0000 </r>
       <r>    0.2363    0.0000 </r>
       <r>    0.2858    0.0000 </r>
       <r>    0.4372    0.0000 </r>
      </set>
      <set comment="kpoint 65">
       <r>   -9.4098    1.0000 </r>
       <r>   -3.5727    0.1673 </r>
       <r>   -3.5726    0.1667 </r>
       <r>   -3.5726    0.1666 </r>
       <r>   -0.0782    0.0000 </r>
       <r>    0.2315    0.0000 </r>
       <r>    0.2770    0.0000 </r>
       <r>    0.4526    0.0000 </r>
      </set>
      <set comment="kpoint 66">
       <r>   -9.4098    1.0000 </r>
       <r>   -3.5727    0.1675 </r>
       <r>   -3.5726    0.1666 </r>
       <r>   -3.5726    0.1665 </r>
       <r>   -0.1149    0.0000 </r>
       <r>    0.1381    0.0000 </r>
       <r>    0.4047    0.0000 </r>
       <r>    0.5256    0.0000 </r>
      </set>
      <set comment="kpoint 67">
       <r>   -9.4098    1.0000 </r>
       <r>   -3.5727    0.1675 </r>
       <r>   -3.5726    0.1666 </r>
       <r>   -3.5726    0.1666 </r>
       <r>   -0.1058    0.0000 </r>
       <r>    0.1497    0.0000 </r>
       <r>    0.4116    0.0000 </r>
       <r>    0.4883    0.0000 </r>
      </set>
      <set comment="kpoint 68">
       <r>   -9.4098    1.0000 </r>
       <r>   -3.5727    0.1675 </r>
       <r>   -3.5726    0.1666 </r>
       <r>   -3.5726    0.1666 </r>
       <r>   -0.0894    0.0000 </r>
       <r>    0.1723    0.0000 </r>
       <r>    0.3821    0.0000 </r>
       <r>    0.4510    0.0000 </r>
      </set>
      <set comment="kpoint 69">
       <r>   -9.4098    1.0000 </r>
       <r>   -3.5727    0.1675 </r>
       <r>   -3.5726    0.1666 </r>
       <r>   -3.5726    0.1666 </r>
       <r>   -0.0700    0.0000 </r>
       <r>    0.2033    0.0000 </r>
       <r>    0.3179    0.0000 </r>
       <r>    0.4434    0.0000 </r>
      </set>
      <set comment="kpoint 70">
       <r>   -9.4098    1.0000 </r>
       <r>   -3.5727    0.1675 </r>
       <r>   -3.5726    0.1667 </r>
       <r>   -3.5726    0.1666 </r>
       <r>   -0.0558    0.0000 </r>
       <r>    0.2334    0.0000 </r>
       <r>    0.2781    0.0000 </r>
       <r>    0.3910    0.0000 </r>
      </set>
      <set comment="kpoint 71">
       <r>   -9.4098    1.0000 </r>
       <r>   -3.5726    0.1667 </r>
       <r>   -3.5726    0.1667 </r>
       <r>   -3.5725    0.1659 </r>
       <r>   -0.2505    0.0000 </r>
       <r>    0.1481    0.0000 </r>
       <r>    0.4334    0.0000 </r>
       <r>    0.5166    0.0000 </r>
      </set>
      <set comment="kpoint 72">
       <r>   -9.4098    1.0000 </r>
       <r>   -3.5726    0.1667 </r>
       <r>   -3.5726    0.1667 </r>
       <r>   -3.5725    0.1659 </r>
       <r>   -0.2409    0.0000 </r>
       <r>    0.1586    0.0000 </r>
       <r>    0.3303    0.0000 </r>
       <r>    0.5415    0.0000 </r>
      </set>
      <set comment="kpoint 73">
       <r>   -9.4098    1.0000 </r>
       <r>   -3.5726    0.1667 </r>
       <r>   -3.5726    0.1667 </r>
       <r>   -3.5725    0.1659 </r>
       <r>   -0.2232    0.0000 </r>
       <r>    0.1729    0.0000 </r>
       <r>    0.2470    0.0000 </r>
       <r>    0.5299    0.0000 </r>
      </set>
      <set comment="kpoint 74">
       <r>   -9.4098    1.0000 </r>
       <r>   -3.5726    0.1668 </r>
       <r>   -3.5726    0.1667 </r>
       <r>   -3.5725    0.1659 </r>
       <r>   -0.2017    0.0000 </r>
       <r>    0.1465    0.0000 </r>
       <r>    0.2347    0.0000 </r>
       <r>    0.4532    0.0000 </r>
      </set>
      <set comment="kpoint 75">
       <r>   -9.4098    1.0000 </r>
       <r>   -3.5726    0.1668 </r>
       <r>   -3.5726    0.1667 </r>
       <r>   -3.5725    0.1659 </r>
       <r>   -0.1854    0.0000 </r>
       <r>    0.1100    0.0000 </r>
       <r>    0.2638    0.0000 </r>
       <r>    0.3939    0.0000 </r>
      </set>
      <set comment="kpoint 76">
       <r>   -9.4098    1.0000 </r>
       <r>   -3.5726    0.1667 </r>
       <r>   -3.5726    0.1667 </r>
       <r>   -3.5725    0.1660 </r>
       <r>   -0.2414    0.0000 </r>
       <r>    0.1574    0.0000 </r>
       <r>    0.4411    0.0000 </r>
       <r>    0.5204    0.0000 </r>
      </set>
      <set comment="kpoint 77">
       <r>   -9.4098    1.0000 </r>
       <r>   -3.5726    0.1667 </r>
       <r>   -3.5726    0.1667 </r>
       <r>   -3.5725    0.1660 </r>
       <r>   -0.2318    0.0000 </r>
       <r>    0.1679    0.0000 </r>
       <r>    0.3390    0.0000 </r>
       <r>    0.5445    0.0000 </r>
      </set>
      <set comment="kpoint 78">
       <r>   -9.4098    1.0000 </r>
       <r>   -3.5726    0.1667 </r>
       <r>   -3.5726    0.1667 </r>
       <r>   -3.5725    0.1660 </r>
       <r>   -0.2141    0.0000 </r>
       <r>    0.1821    0.0000 </r>
       <r>    0.2562    0.0000 </r>
       <r>    0.5383    0.0000 </r>
      </set>
      <set comment="kpoint 79">
       <r>   -9.4098    1.0000 </r>
       <r>   -3.5726    0.1667 </r>
       <r>   -3.5726    0.1667 </r>
       <r>   -3.5725    0.1660 </r>
       <r>   -0.1927    0.0000 </r>
       <r>    0.1557    0.0000 </r>
       <r>    0.2439    0.0000 </r>
       <r>    0.4625    0.0000 </r>
      </set>
      <set comment="kpoint 80">
       <r>   -9.4098    1.0000 </r>
       <r>   -3.5726    0.1668 </r>
       <r>   -3.5726    0.1667 </r>
       <r>   -3.5725    0.1660 </r>
       <r>   -0.1765    0.0000 </r>
       <r>    0.1193    0.0000 </r>
       <r>    0.2729    0.0000 </r>
       <r>    0.4033    0.0000 </r>
      </set>
      <set comment="kpoint 81">
       <r>   -9.4098    1.0000 </r>
       <r>   -3.5726    0.1667 </r>
       <r>   -3.5726    0.1666 </r>
       <r>   -3.5725    0.1663 </r>
       <r>   -0.2236    0.0000 </r>
       <r>    0.1757    0.0000 </r>
       <r>    0.4404    0.0000 </r>
       <r>    0.4819    0.0000 </r>
      </set>
      <set comment="kpoint 82">
       <r>   -9.4098    1.0000 </r>
       <r>   -3.5726    0.1667 </r>
       <r>   -3.5726    0.1667 </r>
       <r>   -3.5725    0.1663 </r>
       <r>   -0.2140    0.0000 </r>
       <r>    0.1862    0.0000 </r>
       <r>    0.3556    0.0000 </r>
       <r>    0.4763    0.0000 </r>
      </set>
      <set comment="kpoint 83">
       <r>   -9.4098    1.0000 </r>
       <r>   -3.5726    0.1667 </r>
       <r>   -3.5726    0.1667 </r>
       <r>   -3.5725    0.1663 </r>
       <r>   -0.1964    0.0000 </r>
       <r>    0.2003    0.0000 </r>
       <r>    0.2743    0.0000 </r>
       <r>    0.4956    0.0000 </r>
      </set>
      <set comment="kpoint 84">
       <r>   -9.4098    1.0000 </r>
       <r>   -3.5726    0.1667 </r>
       <r>   -3.5726    0.1667 </r>
       <r>   -3.5725    0.1663 </r>
       <r>   -0.1751    0.0000 </r>
       <r>    0.1741    0.0000 </r>
       <r>    0.2622    0.0000 </r>
       <r>    0.4810    0.0000 </r>
      </set>
      <set comment="kpoint 85">
       <r>   -9.4098    1.0000 </r>
       <r>   -3.5726    0.1668 </r>
       <r>   -3.5726    0.1667 </r>
       <r>   -3.5725    0.1663 </r>
       <r>   -0.1590    0.0000 </r>
       <r>    0.1380    0.0000 </r>
       <r>    0.2910    0.0000 </r>
       <r>    0.4222    0.0000 </r>
      </set>
      <set comment="kpoint 86">
       <r>   -9.4098    1.0000 </r>
       <r>   -3.5726    0.1667 </r>
       <r>   -3.5726    0.1667 </r>
       <r>   -3.5726    0.1666 </r>
       <r>   -0.1978    0.0000 </r>
       <r>    0.2021    0.0000 </r>
       <r>    0.3600    0.0000 </r>
       <r>    0.4930    0.0000 </r>
      </set>
      <set comment="kpoint 87">
       <r>   -9.4098    1.0000 </r>
       <r>   -3.5726    0.1667 </r>
       <r>   -3.5726    0.1667 </r>
       <r>   -3.5726    0.1666 </r>
       <r>   -0.1883    0.0000 </r>
       <r>    0.2124    0.0000 </r>
       <r>    0.3600    0.0000 </r>
       <r>    0.4017    0.0000 </r>
      </set>
      <set comment="kpoint 88">
       <r>   -9.4098    1.0000 </r>
       <r>   -3.5726    0.1667 </r>
       <r>   -3.5726    0.1667 </r>
       <r>   -3.5726    0.1667 </r>
       <r>   -0.1708    0.0000 </r>
       <r>    0.2262    0.0000 </r>
       <r>    0.3008    0.0000 </r>
       <r>    0.3991    0.0000 </r>
      </set>
      <set comment="kpoint 89">
       <r>   -9.4098    1.0000 </r>
       <r>   -3.5726    0.1667 </r>
       <r>   -3.5726    0.1667 </r>
       <r>   -3.5726    0.1667 </r>
       <r>   -0.1498    0.0000 </r>
       <r>    0.2011    0.0000 </r>
       <r>    0.2891    0.0000 </r>
       <r>    0.4243    0.0000 </r>
      </set>
      <set comment="kpoint 90">
       <r>   -9.4098    1.0000 </r>
       <r>   -3.5726    0.1667 </r>
       <r>   -3.5726    0.1667 </r>
       <r>   -3.5726    0.1667 </r>
       <r>   -0.1339    0.0000 </r>
       <r>    0.1658    0.0000 </r>
       <r>    0.3171    0.0000 </r>
       <r>    0.4482    0.0000 </r>
      </set>
      <set comment="kpoint 91">
       <r>   -9.4098    1.0000 </r>
       <r>   -3.5726    0.1670 </r>
       <r>   -3.5726    0.1666 </r>
       <r>   -3.5726    0.1666 </r>
       <r>   -0.1660    0.0000 </r>
       <r>    0.2273    0.0000 </r>
       <r>    0.2852    0.0000 </r>
       <r>    0.5255    0.0000 </r>
      </set>
      <set comment="kpoint 92">
       <r>   -9.4098    1.0000 </r>
       <r>   -3.5726    0.1670 </r>
       <r>   -3.5726    0.1666 </r>
       <r>   -3.5726    0.1666 </r>
       <r>   -0.1566    0.0000 </r>
       <r>    0.2373    0.0000 </r>
       <r>    0.2963    0.0000 </r>
       <r>    0.4242    0.0000 </r>
      </set>
      <set comment="kpoint 93">
       <r>   -9.4098    1.0000 </r>
       <r>   -3.5726    0.1670 </r>
       <r>   -3.5726    0.1666 </r>
       <r>   -3.5726    0.1666 </r>
       <r>   -0.1394    0.0000 </r>
       <r>    0.2512    0.0000 </r>
       <r>    0.3174    0.0000 </r>
       <r>    0.3417    0.0000 </r>
      </set>
      <set comment="kpoint 94">
       <r>   -9.4098    1.0000 </r>
       <r>   -3.5726    0.1670 </r>
       <r>   -3.5726    0.1667 </r>
       <r>   -3.5726    0.1666 </r>
       <r>   -0.1188    0.0000 </r>
       <r>    0.2345    0.0000 </r>
       <r>    0.3178    0.0000 </r>
       <r>    0.3470    0.0000 </r>
      </set>
      <set comment="kpoint 95">
       <r>   -9.4098    1.0000 </r>
       <r>   -3.5726    0.1670 </r>
       <r>   -3.5726    0.1667 </r>
       <r>   -3.5726    0.1666 </r>
       <r>   -0.1034    0.0000 </r>
       <r>    0.2022    0.0000 </r>
       <r>    0.3386    0.0000 </r>
       <r>    0.3743    0.0000 </r>
      </set>
      <set comment="kpoint 96">
       <r>   -9.4098    1.0000 </r>
       <r>   -3.5727    0.1673 </r>
       <r>   -3.5726    0.1666 </r>
       <r>   -3.5726    0.1666 </r>
       <r>   -0.1326    0.0000 </r>
       <r>    0.1911    0.0000 </r>
       <r>    0.2950    0.0000 </r>
       <r>    0.5120    0.0000 </r>
      </set>
      <set comment="kpoint 97">
       <r>   -9.4098    1.0000 </r>
       <r>   -3.5727    0.1673 </r>
       <r>   -3.5726    0.1666 </r>
       <r>   -3.5726    0.1666 </r>
       <r>   -0.1234    0.0000 </r>
       <r>    0.2020    0.0000 </r>
       <r>    0.3060    0.0000 </r>
       <r>    0.4633    0.0000 </r>
      </set>
      <set comment="kpoint 98">
       <r>   -9.4098    1.0000 </r>
       <r>   -3.5727    0.1673 </r>
       <r>   -3.5726    0.1666 </r>
       <r>   -3.5726    0.1666 </r>
       <r>   -0.1068    0.0000 </r>
       <r>    0.2226    0.0000 </r>
       <r>    0.3229    0.0000 </r>
       <r>    0.3792    0.0000 </r>
      </set>
      <set comment="kpoint 99">
       <r>   -9.4098    1.0000 </r>
       <r>   -3.5727    0.1673 </r>
       <r>   -3.5726    0.1667 </r>
       <r>   -3.5726    0.1666 </r>
       <r>   -0.0869    0.0000 </r>
       <r>    0.2469    0.0000 </r>
       <r>    0.2970    0.0000 </r>
       <r>    0.3709    0.0000 </r>
      </set>
      <set comment="kpoint 100">
       <r>   -9.4098    1.0000 </r>
       <r>   -3.5727    0.1673 </r>
       <r>   -3.5726    0.1667 </r>
       <r>   -3.5726    0.1666 </r>
       <r>   -0.0722    0.0000 </r>
       <r>    0.2449    0.0000 </r>
       <r>    0.2869    0.0000 </r>
       <r>    0.3998    0.0000 </r>
      </set>
      <set comment="kpoint 101">
       <r>   -9.4098    1.0000 </r>
       <r>   -3.5727    0.1675 </r>
       <r>   -3.5726    0.1666 </r>
       <r>   -3.5726    0.1665 </r>
       <r>   -0.1082    0.0000 </r>
       <r>    0.1508    0.0000 </r>
       <r>    0.3358    0.0000 </r>
       <r>    0.4504    0.0000 </r>
      </set>
      <set comment="kpoint 102">
       <r>   -9.4098    1.0000 </r>
       <r>   -3.5727    0.1675 </r>
       <r>   -3.5726    0.1666 </r>
       <r>   -3.5726    0.1666 </r>
       <r>   -0.0992    0.0000 </r>
       <r>    0.1623    0.0000 </r>
       <r>    0.3463    0.0000 </r>
       <r>    0.4617    0.0000 </r>
      </set>
      <set comment="kpoint 103">
       <r>   -9.4098    1.0000 </r>
       <r>   -3.5727    0.1675 </r>
       <r>   -3.5726    0.1666 </r>
       <r>   -3.5726    0.1666 </r>
       <r>   -0.0831    0.0000 </r>
       <r>    0.1846    0.0000 </r>
       <r>    0.3611    0.0000 </r>
       <r>    0.4166    0.0000 </r>
      </set>
      <set comment="kpoint 104">
       <r>   -9.4098    1.0000 </r>
       <r>   -3.5727    0.1675 </r>
       <r>   -3.5726    0.1666 </r>
       <r>   -3.5726    0.1666 </r>
       <r>   -0.0641    0.0000 </r>
       <r>    0.2151    0.0000 </r>
       <r>    0.3283    0.0000 </r>
       <r>    0.4107    0.0000 </r>
      </set>
      <set comment="kpoint 105">
       <r>   -9.4098    1.0000 </r>
       <r>   -3.5727    0.1675 </r>
       <r>   -3.5726    0.1667 </r>
       <r>   -3.5726    0.1666 </r>
       <r>   -0.0502    0.0000 </r>
       <r>    0.2443    0.0000 </r>
       <r>    0.2907    0.0000 </r>
       <r>    0.4062    0.0000 </r>
      </set>
      <set comment="kpoint 106">
       <r>   -9.4098    1.0000 </r>
       <r>   -3.5726    0.1667 </r>
       <r>   -3.5726    0.1667 </r>
       <r>   -3.5725    0.1659 </r>
       <r>   -0.2400    0.0000 </r>
       <r>    0.0949    0.0000 </r>
       <r>    0.4544    0.0000 </r>
       <r>    0.5763    0.0000 </r>
      </set>
      <set comment="kpoint 107">
       <r>   -9.4098    1.0000 </r>
       <r>   -3.5726    0.1667 </r>
       <r>   -3.5726    0.1667 </r>
       <r>   -3.5725    0.1659 </r>
       <r>   -0.2306    0.0000 </r>
       <r>    0.1070    0.0000 </r>
       <r>    0.3469    0.0000 </r>
       <r>    0.5735    0.0000 </r>
      </set>
      <set comment="kpoint 108">
       <r>   -9.4098    1.0000 </r>
       <r>   -3.5726    0.1667 </r>
       <r>   -3.5726    0.1667 </r>
       <r>   -3.5725    0.1659 </r>
       <r>   -0.2134    0.0000 </r>
       <r>    0.1299    0.0000 </r>
       <r>    0.2550    0.0000 </r>
       <r>    0.4773    0.0000 </r>
      </set>
      <set comment="kpoint 109">
       <r>   -9.4098    1.0000 </r>
       <r>   -3.5726    0.1668 </r>
       <r>   -3.5726    0.1667 </r>
       <r>   -3.5725    0.1659 </r>
       <r>   -0.1927    0.0000 </r>
       <r>    0.1523    0.0000 </r>
       <r>    0.1954    0.0000 </r>
       <r>    0.3916    0.0000 </r>
      </set>
      <set comment="kpoint 110">
       <r>   -9.4098    1.0000 </r>
       <r>   -3.5726    0.1668 </r>
       <r>   -3.5726    0.1667 </r>
       <r>   -3.5725    0.1659 </r>
       <r>   -0.1772    0.0000 </r>
       <r>    0.1315    0.0000 </r>
       <r>    0.2122    0.0000 </r>
       <r>    0.3287    0.0000 </r>
      </set>
      <set comment="kpoint 111">
       <r>   -9.4098    1.0000 </r>
       <r>   -3.5726    0.1667 </r>
       <r>   -3.5726    0.1667 </r>
       <r>   -3.5725    0.1660 </r>
       <r>   -0.2310    0.0000 </r>
       <r>    0.1044    0.0000 </r>
       <r>    0.4623    0.0000 </r>
       <r>    0.5690    0.0000 </r>
      </set>
      <set comment="kpoint 112">
       <r>   -9.4098    1.0000 </r>
       <r>   -3.5726    0.1667 </r>
       <r>   -3.5726    0.1667 </r>
       <r>   -3.5725    0.1660 </r>
       <r>   -0.2216    0.0000 </r>
       <r>    0.1164    0.0000 </r>
       <r>    0.3556    0.0000 </r>
       <r>    0.5812    0.0000 </r>
      </set>
      <set comment="kpoint 113">
       <r>   -9.4098    1.0000 </r>
       <r>   -3.5726    0.1667 </r>
       <r>   -3.5726    0.1667 </r>
       <r>   -3.5725    0.1660 </r>
       <r>   -0.2044    0.0000 </r>
       <r>    0.1393    0.0000 </r>
       <r>    0.2640    0.0000 </r>
       <r>    0.4866    0.0000 </r>
      </set>
      <set comment="kpoint 114">
       <r>   -9.4098    1.0000 </r>
       <r>   -3.5726    0.1668 </r>
       <r>   -3.5726    0.1667 </r>
       <r>   -3.5725    0.1660 </r>
       <r>   -0.1837    0.0000 </r>
       <r>    0.1616    0.0000 </r>
       <r>    0.2046    0.0000 </r>
       <r>    0.4011    0.0000 </r>
      </set>
      <set comment="kpoint 115">
       <r>   -9.4098    1.0000 </r>
       <r>   -3.5726    0.1668 </r>
       <r>   -3.5726    0.1667 </r>
       <r>   -3.5725    0.1660 </r>
       <r>   -0.1682    0.0000 </r>
       <r>    0.1408    0.0000 </r>
       <r>    0.2214    0.0000 </r>
       <r>    0.3383    0.0000 </r>
      </set>
      <set comment="kpoint 116">
       <r>   -9.4098    1.0000 </r>
       <r>   -3.5726    0.1667 </r>
       <r>   -3.5726    0.1666 </r>
       <r>   -3.5725    0.1663 </r>
       <r>   -0.2132    0.0000 </r>
       <r>    0.1231    0.0000 </r>
       <r>    0.4617    0.0000 </r>
       <r>    0.4961    0.0000 </r>
      </set>
      <set comment="kpoint 117">
       <r>   -9.4098    1.0000 </r>
       <r>   -3.5726    0.1667 </r>
       <r>   -3.5726    0.1667 </r>
       <r>   -3.5725    0.1663 </r>
       <r>   -0.2039    0.0000 </r>
       <r>    0.1352    0.0000 </r>
       <r>    0.3720    0.0000 </r>
       <r>    0.4922    0.0000 </r>
      </set>
      <set comment="kpoint 118">
       <r>   -9.4098    1.0000 </r>
       <r>   -3.5726    0.1667 </r>
       <r>   -3.5726    0.1667 </r>
       <r>   -3.5725    0.1663 </r>
       <r>   -0.1867    0.0000 </r>
       <r>    0.1580    0.0000 </r>
       <r>    0.2818    0.0000 </r>
       <r>    0.5050    0.0000 </r>
      </set>
      <set comment="kpoint 119">
       <r>   -9.4098    1.0000 </r>
       <r>   -3.5726    0.1667 </r>
       <r>   -3.5726    0.1667 </r>
       <r>   -3.5725    0.1663 </r>
       <r>   -0.1662    0.0000 </r>
       <r>    0.1802    0.0000 </r>
       <r>    0.2230    0.0000 </r>
       <r>    0.4199    0.0000 </r>
      </set>
      <set comment="kpoint 120">
       <r>   -9.4098    1.0000 </r>
       <r>   -3.5726    0.1668 </r>
       <r>   -3.5726    0.1667 </r>
       <r>   -3.5725    0.1663 </r>
       <r>   -0.1508    0.0000 </r>
       <r>    0.1593    0.0000 </r>
       <r>    0.2398    0.0000 </r>
       <r>    0.3574    0.0000 </r>
      </set>
      <set comment="kpoint 121">
       <r>   -9.4098    1.0000 </r>
       <r>   -3.5726    0.1667 </r>
       <r>   -3.5726    0.1667 </r>
       <r>   -3.5726    0.1666 </r>
       <r>   -0.1877    0.0000 </r>
       <r>    0.1510    0.0000 </r>
       <r>    0.3742    0.0000 </r>
       <r>    0.5107    0.0000 </r>
      </set>
      <set comment="kpoint 122">
       <r>   -9.4098    1.0000 </r>
       <r>   -3.5726    0.1667 </r>
       <r>   -3.5726    0.1667 </r>
       <r>   -3.5726    0.1666 </r>
       <r>   -0.1784    0.0000 </r>
       <r>    0.1630    0.0000 </r>
       <r>    0.3737    0.0000 </r>
       <r>    0.4173    0.0000 </r>
      </set>
      <set comment="kpoint 123">
       <r>   -9.4098    1.0000 </r>
       <r>   -3.5726    0.1667 </r>
       <r>   -3.5726    0.1667 </r>
       <r>   -3.5726    0.1667 </r>
       <r>   -0.1614    0.0000 </r>
       <r>    0.1857    0.0000 </r>
       <r>    0.3070    0.0000 </r>
       <r>    0.4131    0.0000 </r>
      </set>
      <set comment="kpoint 124">
       <r>   -9.4098    1.0000 </r>
       <r>   -3.5726    0.1667 </r>
       <r>   -3.5726    0.1667 </r>
       <r>   -3.5726    0.1667 </r>
       <r>   -0.1410    0.0000 </r>
       <r>    0.2075    0.0000 </r>
       <r>    0.2503    0.0000 </r>
       <r>    0.4374    0.0000 </r>
      </set>
[...]
      <set comment="kpoint 164">
       <r>   -9.4098    1.0000 </r>
       <r>   -3.5726    0.1670 </r>
       <r>   -3.5726    0.1667 </r>
       <r>   -3.5726    0.1666 </r>
       <r>   -0.1044    0.0000 </r>
       <r>    0.2325    0.0000 </r>
       <r>    0.2839    0.0000 </r>
       <r>    0.3624    0.0000 </r>
      </set>
      <set comment="kpoint 165">
       <r>   -9.4098    1.0000 </r>
       <r>   -3.5726    0.1670 </r>
       <r>   -3.5726    0.1667 </r>
       <r>   -3.5726    0.1666 </r>
       <r>   -0.0902    0.0000 </r>
       <r>    0.2436    0.0000 </r>
       <r>    0.2749    0.0000 </r>
       <r>    0.3819    0.0000 </r>
      </set>
      <set comment="kpoint 166">
       <r>   -9.4098    1.0000 </r>
       <r>   -3.5727    0.1673 </r>
       <r>   -3.5726    0.1666 </r>
       <r>   -3.5726    0.1666 </r>
       <r>   -0.1170    0.0000 </r>
       <r>    0.2044    0.0000 </r>
       <r>    0.2308    0.0000 </r>
       <r>    0.4201    0.0000 </r>
      </set>
      <set comment="kpoint 167">
       <r>   -9.4098    1.0000 </r>
       <r>   -3.5727    0.1673 </r>
       <r>   -3.5726    0.1666 </r>
       <r>   -3.5726    0.1666 </r>
       <r>   -0.1081    0.0000 </r>
       <r>    0.2167    0.0000 </r>
       <r>    0.2415    0.0000 </r>
       <r>    0.4326    0.0000 </r>
      </set>
      <set comment="kpoint 168">
       <r>   -9.4098    1.0000 </r>
       <r>   -3.5727    0.1673 </r>
       <r>   -3.5726    0.1666 </r>
       <r>   -3.5726    0.1666 </r>
       <r>   -0.0921    0.0000 </r>
       <r>    0.2408    0.0000 </r>
       <r>    0.2620    0.0000 </r>
       <r>    0.4008    0.0000 </r>
      </set>
      <set comment="kpoint 169">
       <r>   -9.4098    1.0000 </r>
       <r>   -3.5727    0.1673 </r>
       <r>   -3.5726    0.1667 </r>
       <r>   -3.5726    0.1666 </r>
       <r>   -0.0734    0.0000 </r>
       <r>    0.2734    0.0000 </r>
       <r>    0.2893    0.0000 </r>
       <r>    0.3330    0.0000 </r>
      </set>
      <set comment="kpoint 170">
       <r>   -9.4098    1.0000 </r>
       <r>   -3.5727    0.1673 </r>
       <r>   -3.5726    0.1667 </r>
       <r>   -3.5726    0.1666 </r>
       <r>   -0.0598    0.0000 </r>
       <r>    0.2844    0.0000 </r>
       <r>    0.3118    0.0000 </r>
       <r>    0.3209    0.0000 </r>
      </set>
      <set comment="kpoint 171">
       <r>   -9.4098    1.0000 </r>
       <r>   -3.5727    0.1675 </r>
       <r>   -3.5726    0.1666 </r>
       <r>   -3.5726    0.1665 </r>
       <r>   -0.0939    0.0000 </r>
       <r>    0.1862    0.0000 </r>
       <r>    0.2555    0.0000 </r>
       <r>    0.3528    0.0000 </r>
      </set>
      <set comment="kpoint 172">
       <r>   -9.4098    1.0000 </r>
       <r>   -3.5727    0.1675 </r>
       <r>   -3.5726    0.1666 </r>
       <r>   -3.5726    0.1666 </r>
       <r>   -0.0852    0.0000 </r>
       <r>    0.1972    0.0000 </r>
       <r>    0.2677    0.0000 </r>
       <r>    0.3657    0.0000 </r>
      </set>
      <set comment="kpoint 173">
       <r>   -9.4098    1.0000 </r>
       <r>   -3.5727    0.1675 </r>
       <r>   -3.5726    0.1666 </r>
       <r>   -3.5726    0.1666 </r>
       <r>   -0.0697    0.0000 </r>
       <r>    0.2183    0.0000 </r>
       <r>    0.2916    0.0000 </r>
       <r>    0.3913    0.0000 </r>
      </set>
      <set comment="kpoint 174">
       <r>   -9.4098    1.0000 </r>
       <r>   -3.5727    0.1675 </r>
       <r>   -3.5726    0.1666 </r>
       <r>   -3.5726    0.1666 </r>
       <r>   -0.0516    0.0000 </r>
       <r>    0.2464    0.0000 </r>
       <r>    0.3251    0.0000 </r>
       <r>    0.3664    0.0000 </r>
      </set>
      <set comment="kpoint 175">
       <r>   -9.4098    1.0000 </r>
       <r>   -3.5727    0.1675 </r>
       <r>   -3.5726    0.1667 </r>
       <r>   -3.5726    0.1666 </r>
       <r>   -0.0386    0.0000 </r>
       <r>    0.2716    0.0000 </r>
       <r>    0.3257    0.0000 </r>
       <r>    0.3617    0.0000 </r>
      </set>
     </set>
    </set>
   </array>
  </eigenvalues>
  <separator name="orbital magnetization" >
   <v name="MAGDIPOLOUT">      0.00000000      0.00000000      0.00000000</v>
  </separator>
  <dos>
   <i name="efermi">     -3.60678308 </i>
   <total>
    <array>
     <dimension dim="1">gridpoints</dimension>
     <dimension dim="2">spin</dimension>
     <field>energy</field>
     <field>total</field>
     <field>integrated</field>
     <set>
      <set comment="spin 1">
       <r>    -9.9106     0.0000     0.0000 </r>
       <r>    -9.8738     0.0000     0.0000 </r>
       <r>    -9.8371     0.0000     0.0000 </r>
       <r>    -9.8004     0.0000     0.0000 </r>
       <r>    -9.7637     0.0000     0.0000 </r>
       <r>    -9.7270     0.0000     0.0000 </r>
       <r>    -9.6902     0.0000     0.0000 </r>
       <r>    -9.6535     0.0000     0.0000 </r>
       <r>    -9.6168     0.0000     0.0000 </r>
       <r>    -9.5801     0.0000     0.0000 </r>
       <r>    -9.5434     0.0043     0.0002 </r>
       <r>    -9.5066     0.1639     0.0062 </r>
       <r>    -9.4699     2.2614     0.0892 </r>
       <r>    -9.4332    11.4224     0.5086 </r>
       <r>    -9.3965    21.3961     1.2943 </r>
       <r>    -9.3598    14.9505     1.8433 </r>
       <r>    -9.3230     3.8836     1.9859 </r>
       <r>    -9.2863     0.3708     1.9995 </r>
       <r>    -9.2496     0.0128     2.0000 </r>
       <r>    -9.2129     0.0002     2.0000 </r>
       <r>    -9.1762     0.0000     2.0000 </r>
       <r>    -9.1394     0.0000     2.0000 </r>
       <r>    -9.1027     0.0000     2.0000 </r>
       <r>    -9.0660     0.0000     2.0000 </r>
       <r>    -9.0293     0.0000     2.0000 </r>
       <r>    -8.9926     0.0000     2.0000 </r>
       <r>    -8.9558     0.0000     2.0000 </r>
       <r>    -8.9191     0.0000     2.0000 </r>
       <r>    -8.8824     0.0000     2.0000 </r>
       <r>    -8.8457     0.0000     2.0000 </r>
       <r>    -8.8090     0.0000     2.0000 </r>
       <r>    -8.7722     0.0000     2.0000 </r>
       <r>    -8.7355     0.0000     2.0000 </r>
       <r>    -8.6988     0.0000     2.0000 </r>
       <r>    -8.6621     0.0000     2.0000 </r>
       <r>    -8.6254     0.0000     2.0000 </r>
       <r>    -8.5886     0.0000     2.0000 </r>
       <r>    -8.5519     0.0000     2.0000 </r>
       <r>    -8.5152     0.0000     2.0000 </r>
       <r>    -8.4785     0.0000     2.0000 </r>
       <r>    -8.4418     0.0000     2.0000 </r>
       <r>    -8.4050     0.0000     2.0000 </r>
       <r>    -8.3683     0.0000     2.0000 </r>
       <r>    -8.3316     0.0000     2.0000 </r>
       <r>    -8.2949     0.0000     2.0000 </r>
       <r>    -8.2582     0.0000     2.0000 </r>
       <r>    -8.2214     0.0000     2.0000 </r>
       <r>    -8.1847     0.0000     2.0000 </r>
       <r>    -8.1480     0.0000     2.0000 </r>
       <r>    -8.1113     0.0000     2.0000 </r>
       <r>    -8.0746     0.0000     2.0000 </r>
       <r>    -8.0378     0.0000     2.0000 </r>
       <r>    -8.0011     0.0000     2.0000 </r>
       <r>    -7.9644     0.0000     2.0000 </r>
       <r>    -7.9277     0.0000     2.0000 </r>
       <r>    -7.8910     0.0000     2.0000 </r>
       <r>    -7.8542     0.0000     2.0000 </r>
       <r>    -7.8175     0.0000     2.0000 </r>
       <r>    -7.7808     0.0000     2.0000 </r>
       <r>    -7.7441     0.0000     2.0000 </r>
       <r>    -7.7074     0.0000     2.0000 </r>
       <r>    -7.6706     0.0000     2.0000 </r>
       <r>    -7.6339     0.0000     2.0000 </r>
       <r>    -7.5972     0.0000     2.0000 </r>
       <r>    -7.5605     0.0000     2.0000 </r>
       <r>    -7.5238     0.0000     2.0000 </r>
       <r>    -7.4870     0.0000     2.0000 </r>
       <r>    -7.4503     0.0000     2.0000 </r>
       <r>    -7.4136     0.0000     2.0000 </r>
       <r>    -7.3769     0.0000     2.0000 </r>
       <r>    -7.3402     0.0000     2.0000 </r>
       <r>    -7.3034     0.0000     2.0000 </r>
       <r>    -7.2667     0.0000     2.0000 </r>
       <r>    -7.2300     0.0000     2.0000 </r>
       <r>    -7.1933     0.0000     2.0000 </r>
       <r>    -7.1566     0.0000     2.0000 </r>
       <r>    -7.1198     0.0000     2.0000 </r>
       <r>    -7.0831     0.0000     2.0000 </r>
       <r>    -7.0464     0.0000     2.0000 </r>
       <r>    -7.0097     0.0000     2.0000 </r>
       <r>    -6.9729     0.0000     2.0000 </r>
       <r>    -6.9362     0.0000     2.0000 </r>
       <r>    -6.8995     0.0000     2.0000 </r>
       <r>    -6.8628     0.0000     2.0000 </r>
       <r>    -6.8261     0.0000     2.0000 </r>
       <r>    -6.7893     0.0000     2.0000 </r>
       <r>    -6.7526     0.0000     2.0000 </r>
       <r>    -6.7159     0.0000     2.0000 </r>
       <r>    -6.6792     0.0000     2.0000 </r>
       <r>    -6.6425     0.0000     2.0000 </r>
       <r>    -6.6057     0.0000     2.0000 </r>
       <r>    -6.5690     0.0000     2.0000 </r>
       <r>    -6.5323     0.0000     2.0000 </r>
       <r>    -6.4956     0.0000     2.0000 </r>
       <r>    -6.4589     0.0000     2.0000 </r>
       <r>    -6.4221     0.0000     2.0000 </r>
       <r>    -6.3854     0.0000     2.0000 </r>
       <r>    -6.3487     0.0000     2.0000 </r>
       <r>    -6.3120     0.0000     2.0000 </r>
       <r>    -6.2753     0.0000     2.0000 </r>
       <r>    -6.2385     0.0000     2.0000 </r>
       <r>    -6.2018     0.0000     2.0000 </r>
       <r>    -6.1651     0.0000     2.0000 </r>
       <r>    -6.1284     0.0000     2.0000 </r>
       <r>    -6.0917     0.0000     2.0000 </r>
       <r>    -6.0549     0.0000     2.0000 </r>
       <r>    -6.0182     0.0000     2.0000 </r>
       <r>    -5.9815     0.0000     2.0000 </r>
       <r>    -5.9448     0.0000     2.0000 </r>
       <r>    -5.9081     0.0000     2.0000 </r>
       <r>    -5.8713     0.0000     2.0000 </r>
       <r>    -5.8346     0.0000     2.0000 </r>
       <r>    -5.7979     0.0000     2.0000 </r>
       <r>    -5.7612     0.0000     2.0000 </r>
       <r>    -5.7245     0.0000     2.0000 </r>
       <r>    -5.6877     0.0000     2.0000 </r>
       <r>    -5.6510     0.0000     2.0000 </r>
       <r>    -5.6143     0.0000     2.0000 </r>
       <r>    -5.5776     0.0000     2.0000 </r>
       <r>    -5.5409     0.0000     2.0000 </r>
       <r>    -5.5041     0.0000     2.0000 </r>
       <r>    -5.4674     0.0000     2.0000 </r>
       <r>    -5.4307     0.0000     2.0000 </r>
       <r>    -5.3940     0.0000     2.0000 </r>
       <r>    -5.3573     0.0000     2.0000 </r>
       <r>    -5.3205     0.0000     2.0000 </r>
       <r>    -5.2838     0.0000     2.0000 </r>
       <r>    -5.2471     0.0000     2.0000 </r>
       <r>    -5.2104     0.0000     2.0000 </r>
       <r>    -5.1737     0.0000     2.0000 </r>
       <r>    -5.1369     0.0000     2.0000 </r>
       <r>    -5.1002     0.0000     2.0000 </r>
       <r>    -5.0635     0.0000     2.0000 </r>
       <r>    -5.0268     0.0000     2.0000 </r>
       <r>    -4.9901     0.0000     2.0000 </r>
       <r>    -4.9533     0.0000     2.0000 </r>
       <r>    -4.9166     0.0000     2.0000 </r>
       <r>    -4.8799     0.0000     2.0000 </r>
       <r>    -4.8432     0.0000     2.0000 </r>
       <r>    -4.8065     0.0000     2.0000 </r>
       <r>    -4.7697     0.0000     2.0000 </r>
       <r>    -4.7330     0.0000     2.0000 </r>
       <r>    -4.6963     0.0000     2.0000 </r>
       <r>    -4.6596     0.0000     2.0000 </r>
       <r>    -4.6229     0.0000     2.0000 </r>
       <r>    -4.5861     0.0000     2.0000 </r>
       <r>    -4.5494     0.0000     2.0000 </r>
       <r>    -4.5127     0.0000     2.0000 </r>
       <r>    -4.4760     0.0000     2.0000 </r>
       <r>    -4.4393     0.0000     2.0000 </r>
       <r>    -4.4025     0.0000     2.0000 </r>
       <r>    -4.3658     0.0000     2.0000 </r>
       <r>    -4.3291     0.0000     2.0000 </r>
       <r>    -4.2924     0.0000     2.0000 </r>
       <r>    -4.2557     0.0000     2.0000 </r>
       <r>    -4.2189     0.0000     2.0000 </r>
       <r>    -4.1822     0.0000     2.0000 </r>
       <r>    -4.1455     0.0000     2.0000 </r>
       <r>    -4.1088     0.0000     2.0000 </r>
       <r>    -4.0721     0.0000     2.0000 </r>
       <r>    -4.0353     0.0000     2.0000 </r>
       <r>    -3.9986     0.0000     2.0000 </r>
       <r>    -3.9619     0.0000     2.0000 </r>
       <r>    -3.9252     0.0000     2.0000 </r>
       <r>    -3.8885     0.0000     2.0000 </r>
       <r>    -3.8517     0.0000     2.0000 </r>
       <r>    -3.8150     0.0000     2.0000 </r>
       <r>    -3.7783     0.0000     2.0000 </r>
       <r>    -3.7416     0.0001     2.0000 </r>
       <r>    -3.7049     0.0148     2.0005 </r>
       <r>    -3.6681     0.5468     2.0206 </r>
       <r>    -3.6314     7.2872     2.2882 </r>
       <r>    -3.5947    35.5802     3.5947 </r>
       <r>    -3.5580    64.4456     5.9612 </r>
       <r>    -3.5213    43.5452     7.5602 </r>
       <r>    -3.4845    10.9351     7.9617 </r>
       <r>    -3.4478     1.0090     7.9987 </r>
       <r>    -3.4111     0.0337     8.0000 </r>
       <r>    -3.3744     0.0004     8.0000 </r>
       <r>    -3.3377     0.0000     8.0000 </r>
       <r>    -3.3009     0.0000     8.0000 </r>
       <r>    -3.2642     0.0000     8.0000 </r>
       <r>    -3.2275     0.0000     8.0000 </r>
       <r>    -3.1908     0.0000     8.0000 </r>
       <r>    -3.1541     0.0000     8.0000 </r>
       <r>    -3.1173     0.0000     8.0000 </r>
       <r>    -3.0806     0.0000     8.0000 </r>
       <r>    -3.0439     0.0000     8.0000 </r>
       <r>    -3.0072     0.0000     8.0000 </r>
       <r>    -2.9705     0.0000     8.0000 </r>
       <r>    -2.9337     0.0000     8.0000 </r>
       <r>    -2.8970     0.0000     8.0000 </r>
       <r>    -2.8603     0.0000     8.0000 </r>
       <r>    -2.8236     0.0000     8.0000 </r>
       <r>    -2.7869     0.0000     8.0000 </r>
       <r>    -2.7501     0.0000     8.0000 </r>
       <r>    -2.7134     0.0000     8.0000 </r>
       <r>    -2.6767     0.0000     8.0000 </r>
       <r>    -2.6400     0.0000     8.0000 </r>
       <r>    -2.6033     0.0000     8.0000 </r>
       <r>    -2.5665     0.0000     8.0000 </r>
       <r>    -2.5298     0.0000     8.0000 </r>
       <r>    -2.4931     0.0000     8.0000 </r>
       <r>    -2.4564     0.0000     8.0000 </r>
       <r>    -2.4197     0.0000     8.0000 </r>
       <r>    -2.3829     0.0000     8.0000 </r>
       <r>    -2.3462     0.0000     8.0000 </r>
       <r>    -2.3095     0.0000     8.0000 </r>
       <r>    -2.2728     0.0000     8.0000 </r>
       <r>    -2.2361     0.0000     8.0000 </r>
       <r>    -2.1993     0.0000     8.0000 </r>
       <r>    -2.1626     0.0000     8.0000 </r>
       <r>    -2.1259     0.0000     8.0000 </r>
       <r>    -2.0892     0.0000     8.0000 </r>
       <r>    -2.0525     0.0000     8.0000 </r>
       <r>    -2.0157     0.0000     8.0000 </r>
       <r>    -1.9790     0.0000     8.0000 </r>
       <r>    -1.9423     0.0000     8.0000 </r>
       <r>    -1.9056     0.0000     8.0000 </r>
       <r>    -1.8689     0.0000     8.0000 </r>
       <r>    -1.8321     0.0000     8.0000 </r>
       <r>    -1.7954     0.0000     8.0000 </r>
       <r>    -1.7587     0.0000     8.0000 </r>
       <r>    -1.7220     0.0000     8.0000 </r>
       <r>    -1.6853     0.0000     8.0000 </r>
       <r>    -1.6485     0.0000     8.0000 </r>
       <r>    -1.6118     0.0000     8.0000 </r>
       <r>    -1.5751     0.0000     8.0000 </r>
       <r>    -1.5384     0.0000     8.0000 </r>
       <r>    -1.5017     0.0000     8.0000 </r>
       <r>    -1.4649     0.0000     8.0000 </r>
       <r>    -1.4282     0.0000     8.0000 </r>
       <r>    -1.3915     0.0000     8.0000 </r>
       <r>    -1.3548     0.0000     8.0000 </r>
       <r>    -1.3181     0.0000     8.0000 </r>
       <r>    -1.2813     0.0000     8.0000 </r>
       <r>    -1.2446     0.0000     8.0000 </r>
       <r>    -1.2079     0.0000     8.0000 </r>
       <r>    -1.1712     0.0000     8.0000 </r>
       <r>    -1.1344     0.0000     8.0000 </r>
       <r>    -1.0977     0.0000     8.0000 </r>
       <r>    -1.0610     0.0000     8.0000 </r>
       <r>    -1.0243     0.0000     8.0000 </r>
       <r>    -0.9876     0.0000     8.0000 </r>
       <r>    -0.9508     0.0000     8.0000 </r>
       <r>    -0.9141     0.0000     8.0000 </r>
       <r>    -0.8774     0.0000     8.0000 </r>
       <r>    -0.8407     0.0000     8.0000 </r>
       <r>    -0.8040     0.0000     8.0000 </r>
       <r>    -0.7672     0.0000     8.0000 </r>
       <r>    -0.7305     0.0000     8.0000 </r>
       <r>    -0.6938     0.0000     8.0000 </r>
       <r>    -0.6571     0.0000     8.0000 </r>
       <r>    -0.6204     0.0000     8.0000 </r>
       <r>    -0.5836     0.0000     8.0000 </r>
       <r>    -0.5469     0.0000     8.0000 </r>
       <r>    -0.5102     0.0000     8.0000 </r>
       <r>    -0.4735     0.0000     8.0000 </r>
       <r>    -0.4368     0.0000     8.0000 </r>
       <r>    -0.4000     0.0000     8.0000 </r>
       <r>    -0.3633     0.0026     8.0001 </r>
       <r>    -0.3266     0.0623     8.0024 </r>
       <r>    -0.2899     0.6294     8.0255 </r>
       <r>    -0.2532     2.9241     8.1329 </r>
       <r>    -0.2164     7.0635     8.3922 </r>
       <r>    -0.1797    10.3348     8.7717 </r>
       <r>    -0.1430    10.8293     9.1694 </r>
       <r>    -0.1063     9.6084     9.5222 </r>
       <r>    -0.0696     7.3593     9.7924 </r>
       <r>    -0.0328     4.0742     9.9421 </r>
       <r>     0.0039     1.3806     9.9927 </r>
       <r>     0.0406     0.6045    10.0149 </r>
       <r>     0.0773     1.7734    10.0801 </r>
       <r>     0.1140     4.7525    10.2546 </r>
       <r>     0.1508     8.8350    10.5790 </r>
       <r>     0.1875    12.6061    11.0419 </r>
       <r>     0.2242    14.9859    11.5922 </r>
       <r>     0.2609    15.7788    12.1716 </r>
       <r>     0.2976    15.7936    12.7515 </r>
       <r>     0.3344    15.9243    13.3363 </r>
       <r>     0.3711    15.9464    13.9218 </r>
       <r>     0.4078    15.2379    14.4814 </r>
       <r>     0.4445    13.7712    14.9870 </r>
       <r>     0.4812    11.5873    15.4125 </r>
       <r>     0.5180     8.1160    15.7105 </r>
       <r>     0.5547     4.5688    15.8783 </r>
       <r>     0.5914     2.1926    15.9588 </r>
       <r>     0.6281     0.8687    15.9907 </r>
       <r>     0.6648     0.2226    15.9989 </r>
       <r>     0.7016     0.0285    15.9999 </r>
       <r>     0.7383     0.0016    16.0000 </r>
       <r>     0.7750     0.0000    16.0000 </r>
       <r>     0.8117     0.0000    16.0000 </r>
       <r>     0.8484     0.0000    16.0000 </r>
       <r>     0.8852     0.0000    16.0000 </r>
       <r>     0.9219     0.0000    16.0000 </r>
       <r>     0.9586     0.0000    16.0000 </r>
       <r>     0.9953     0.0000    16.0000 </r>
       <r>     1.0320     0.0000    16.0000 </r>
       <r>     1.0688     0.0000    16.0000 </r>
       <r>     1.1055     0.0000    16.0000 </r>
      </set>
     </set>
    </array>
   </total>
  </dos>
 </calculation>
 <structure name="finalpos" >
  <crystal>
   <varray name="basis" >
    <v>      15.00000000       0.00000000       0.00000000 </v>
    <v>       0.00000000      12.50000000       0.00000000 </v>
    <v>       0.00000000       0.00000000      18.00000000 </v>
   </varray>
   <i name="volume">   3375.00000000 </i>
   <varray name="rec_basis" >
    <v>       0.06666667       0.00000000       0.00000000 </v>
    <v>       0.00000000       0.08000000       0.00000000 </v>
    <v>       0.00000000       0.00000000       0.05555556 </v>
   </varray>
  </crystal>
  <varray name="positions" >
   <v>       0.52123000       0.54500000       0.63796000 </v>
  </varray>
 </structure>
</modeling>
