   36   36    1    1
  0.2758619E+02  0.5700971E-09  0.6201871E-09  0.2808812E-08  0.5000000E-15
  1.000000000000000E-004
  CAR 
 Convergence                             
    108     45     80
