   1   1   0   0
  0.3375000E+04  0.1500000E-08  0.1250000E-08  0.1800000E-08  0.5000000E-15
  1.000000000000000E-004
  CAR 
 Convergence                             
      2.44082704     -9.97416559  301     -3.60671635      1.00000000
     -9.974  0.0000E+00  0.0000E+00
     -9.933  0.0000E+00  0.0000E+00
     -9.891  0.0000E+00  0.0000E+00
     -9.850  0.0000E+00  0.0000E+00
     -9.809  0.0000E+00  0.0000E+00
     -9.767  0.0000E+00  0.0000E+00
     -9.726  0.0000E+00  0.0000E+00
     -9.684  0.1932E-12  0.7994E-14
     -9.643  0.1011E-08  0.4186E-10
     -9.602  0.1385E-05  0.5735E-07
     -9.560  0.5007E-03  0.2078E-04
     -9.519  0.4854E-01  0.2030E-02
     -9.478  0.1291E+01  0.5545E-01
     -9.436  0.9688E+01  0.4564E+00
     -9.395  0.2110E+02  0.1330E+01
     -9.353  0.1353E+02  0.1890E+01
     -9.312  0.2532E+01  0.1994E+01
     -9.271  0.1349E+00  0.2000E+01
     -9.229  0.1985E-02  0.2000E+01
     -9.188  0.7875E-05  0.2000E+01
     -9.146  0.8279E-08  0.2000E+01
     -9.105  0.2280E-11  0.2000E+01
     -9.064  0.0000E+00  0.2000E+01
     -9.022  0.0000E+00  0.2000E+01
     -8.981  0.0000E+00  0.2000E+01
     -8.940  0.0000E+00  0.2000E+01
     -8.898  0.0000E+00  0.2000E+01
     -8.857  0.0000E+00  0.2000E+01
     -8.815  0.0000E+00  0.2000E+01
     -8.774  0.0000E+00  0.2000E+01
     -8.733  0.0000E+00  0.2000E+01
     -8.691  0.0000E+00  0.2000E+01
     -8.650  0.0000E+00  0.2000E+01
     -8.609  0.0000E+00  0.2000E+01
     -8.567  0.0000E+00  0.2000E+01
     -8.526  0.0000E+00  0.2000E+01
     -8.484  0.0000E+00  0.2000E+01
     -8.443  0.0000E+00  0.2000E+01
     -8.402  0.0000E+00  0.2000E+01
     -8.360  0.0000E+00  0.2000E+01
     -8.319  0.0000E+00  0.2000E+01
     -8.277  0.0000E+00  0.2000E+01
     -8.236  0.0000E+00  0.2000E+01
     -8.195  0.0000E+00  0.2000E+01
     -8.153  0.0000E+00  0.2000E+01
     -8.112  0.0000E+00  0.2000E+01
     -8.071  0.0000E+00  0.2000E+01
     -8.029  0.0000E+00  0.2000E+01
     -7.988  0.0000E+00  0.2000E+01
     -7.946  0.0000E+00  0.2000E+01
     -7.905  0.0000E+00  0.2000E+01
     -7.864  0.0000E+00  0.2000E+01
     -7.822  0.0000E+00  0.2000E+01
     -7.781  0.0000E+00  0.2000E+01
     -7.739  0.0000E+00  0.2000E+01
     -7.698  0.0000E+00  0.2000E+01
     -7.657  0.0000E+00  0.2000E+01
     -7.615  0.0000E+00  0.2000E+01
     -7.574  0.0000E+00  0.2000E+01
     -7.533  0.0000E+00  0.2000E+01
     -7.491  0.0000E+00  0.2000E+01
     -7.450  0.0000E+00  0.2000E+01
     -7.408  0.0000E+00  0.2000E+01
     -7.367  0.0000E+00  0.2000E+01
     -7.326  0.0000E+00  0.2000E+01
     -7.284  0.0000E+00  0.2000E+01
     -7.243  0.0000E+00  0.2000E+01
     -7.201  0.0000E+00  0.2000E+01
     -7.160  0.0000E+00  0.2000E+01
     -7.119  0.0000E+00  0.2000E+01
     -7.077  0.0000E+00  0.2000E+01
     -7.036  0.0000E+00  0.2000E+01
     -6.995  0.0000E+00  0.2000E+01
     -6.953  0.0000E+00  0.2000E+01
     -6.912  0.0000E+00  0.2000E+01
     -6.870  0.0000E+00  0.2000E+01
     -6.829  0.0000E+00  0.2000E+01
     -6.788  0.0000E+00  0.2000E+01
     -6.746  0.0000E+00  0.2000E+01
     -6.705  0.0000E+00  0.2000E+01
     -6.664  0.0000E+00  0.2000E+01
     -6.622  0.0000E+00  0.2000E+01
     -6.581  0.0000E+00  0.2000E+01
     -6.539  0.0000E+00  0.2000E+01
     -6.498  0.0000E+00  0.2000E+01
     -6.457  0.0000E+00  0.2000E+01
     -6.415  0.0000E+00  0.2000E+01
     -6.374  0.0000E+00  0.2000E+01
     -6.332  0.0000E+00  0.2000E+01
     -6.291  0.0000E+00  0.2000E+01
     -6.250  0.0000E+00  0.2000E+01
     -6.208  0.0000E+00  0.2000E+01
     -6.167  0.0000E+00  0.2000E+01
     -6.126  0.0000E+00  0.2000E+01
     -6.084  0.0000E+00  0.2000E+01
     -6.043  0.0000E+00  0.2000E+01
     -6.001  0.0000E+00  0.2000E+01
     -5.960  0.0000E+00  0.2000E+01
     -5.919  0.0000E+00  0.2000E+01
     -5.877  0.0000E+00  0.2000E+01
     -5.836  0.0000E+00  0.2000E+01
     -5.794  0.0000E+00  0.2000E+01
     -5.753  0.0000E+00  0.2000E+01
     -5.712  0.0000E+00  0.2000E+01
     -5.670  0.0000E+00  0.2000E+01
     -5.629  0.0000E+00  0.2000E+01
     -5.588  0.0000E+00  0.2000E+01
     -5.546  0.0000E+00  0.2000E+01
     -5.505  0.0000E+00  0.2000E+01
     -5.463  0.0000E+00  0.2000E+01
     -5.422  0.0000E+00  0.2000E+01
     -5.381  0.0000E+00  0.2000E+01
     -5.339  0.0000E+00  0.2000E+01
     -5.298  0.0000E+00  0.2000E+01
     -5.256  0.0000E+00  0.2000E+01
     -5.215  0.0000E+00  0.2000E+01
     -5.174  0.0000E+00  0.2000E+01
     -5.132  0.0000E+00  0.2000E+01
     -5.091  0.0000E+00  0.2000E+01
     -5.050  0.0000E+00  0.2000E+01
     -5.008  0.0000E+00  0.2000E+01
     -4.967  0.0000E+00  0.2000E+01
     -4.925  0.0000E+00  0.2000E+01
     -4.884  0.0000E+00  0.2000E+01
     -4.843  0.0000E+00  0.2000E+01
     -4.801  0.0000E+00  0.2000E+01
     -4.760  0.0000E+00  0.2000E+01
     -4.718  0.0000E+00  0.2000E+01
     -4.677  0.0000E+00  0.2000E+01
     -4.636  0.0000E+00  0.2000E+01
     -4.594  0.0000E+00  0.2000E+01
     -4.553  0.0000E+00  0.2000E+01
     -4.512  0.0000E+00  0.2000E+01
     -4.470  0.0000E+00  0.2000E+01
     -4.429  0.0000E+00  0.2000E+01
     -4.387  0.0000E+00  0.2000E+01
     -4.346  0.0000E+00  0.2000E+01
     -4.305  0.0000E+00  0.2000E+01
     -4.263  0.0000E+00  0.2000E+01
     -4.222  0.0000E+00  0.2000E+01
     -4.181  0.0000E+00  0.2000E+01
     -4.139  0.0000E+00  0.2000E+01
     -4.098  0.0000E+00  0.2000E+01
     -4.056  0.0000E+00  0.2000E+01
     -4.015  0.0000E+00  0.2000E+01
     -3.974  0.0000E+00  0.2000E+01
     -3.932  0.0000E+00  0.2000E+01
     -3.891  0.0000E+00  0.2000E+01
     -3.849  0.3461E-12  0.2000E+01
     -3.808  0.1957E-08  0.2000E+01
     -3.767  0.2886E-05  0.2000E+01
     -3.725  0.1123E-02  0.2000E+01
     -3.684  0.1170E+00  0.2005E+01
     -3.643  0.3339E+01  0.2143E+01
     -3.601  0.2686E+02  0.3255E+01
     -3.560  0.6261E+02  0.5845E+01
     -3.518  0.4295E+02  0.7623E+01
     -3.477  0.8610E+01  0.7979E+01
     -3.436  0.4920E+00  0.8000E+01
     -3.394  0.7779E-02  0.8000E+01
     -3.353  0.3320E-04  0.8000E+01
     -3.311  0.3758E-07  0.8000E+01
     -3.270  0.1114E-10  0.8000E+01
     -3.229  0.0000E+00  0.8000E+01
     -3.187  0.0000E+00  0.8000E+01
     -3.146  0.0000E+00  0.8000E+01
     -3.105  0.0000E+00  0.8000E+01
     -3.063  0.0000E+00  0.8000E+01
     -3.022  0.0000E+00  0.8000E+01
     -2.980  0.0000E+00  0.8000E+01
     -2.939  0.0000E+00  0.8000E+01
     -2.898  0.0000E+00  0.8000E+01
     -2.856  0.0000E+00  0.8000E+01
     -2.815  0.0000E+00  0.8000E+01
     -2.773  0.0000E+00  0.8000E+01
     -2.732  0.0000E+00  0.8000E+01
     -2.691  0.0000E+00  0.8000E+01
     -2.649  0.0000E+00  0.8000E+01
     -2.608  0.0000E+00  0.8000E+01
     -2.567  0.0000E+00  0.8000E+01
     -2.525  0.0000E+00  0.8000E+01
     -2.484  0.0000E+00  0.8000E+01
     -2.442  0.0000E+00  0.8000E+01
     -2.401  0.0000E+00  0.8000E+01
     -2.360  0.0000E+00  0.8000E+01
     -2.318  0.0000E+00  0.8000E+01
     -2.277  0.0000E+00  0.8000E+01
     -2.235  0.0000E+00  0.8000E+01
     -2.194  0.0000E+00  0.8000E+01
     -2.153  0.0000E+00  0.8000E+01
     -2.111  0.0000E+00  0.8000E+01
     -2.070  0.0000E+00  0.8000E+01
     -2.029  0.0000E+00  0.8000E+01
     -1.987  0.0000E+00  0.8000E+01
     -1.946  0.0000E+00  0.8000E+01
     -1.904  0.0000E+00  0.8000E+01
     -1.863  0.0000E+00  0.8000E+01
     -1.822  0.0000E+00  0.8000E+01
     -1.780  0.0000E+00  0.8000E+01
     -1.739  0.0000E+00  0.8000E+01
     -1.698  0.0000E+00  0.8000E+01
     -1.656  0.0000E+00  0.8000E+01
     -1.615  0.0000E+00  0.8000E+01
     -1.573  0.0000E+00  0.8000E+01
     -1.532  0.0000E+00  0.8000E+01
     -1.491  0.0000E+00  0.8000E+01
     -1.449  0.0000E+00  0.8000E+01
     -1.408  0.0000E+00  0.8000E+01
     -1.366  0.0000E+00  0.8000E+01
     -1.325  0.0000E+00  0.8000E+01
     -1.284  0.0000E+00  0.8000E+01
     -1.242  0.0000E+00  0.8000E+01
     -1.201  0.0000E+00  0.8000E+01
     -1.160  0.0000E+00  0.8000E+01
     -1.118  0.0000E+00  0.8000E+01
     -1.077  0.0000E+00  0.8000E+01
     -1.035  0.0000E+00  0.8000E+01
     -0.994  0.0000E+00  0.8000E+01
     -0.953  0.0000E+00  0.8000E+01
     -0.911  0.0000E+00  0.8000E+01
     -0.870  0.0000E+00  0.8000E+01
     -0.828  0.0000E+00  0.8000E+01
     -0.787  0.0000E+00  0.8000E+01
     -0.746  0.0000E+00  0.8000E+01
     -0.704  0.0000E+00  0.8000E+01
     -0.663  0.0000E+00  0.8000E+01
     -0.622  0.0000E+00  0.8000E+01
     -0.580  0.0000E+00  0.8000E+01
     -0.539  0.4471E-15  0.8000E+01
     -0.497  0.3845E-11  0.8000E+01
     -0.456  0.8394E-08  0.8000E+01
     -0.415  0.4916E-05  0.8000E+01
     -0.373  0.7970E-03  0.8000E+01
     -0.332  0.3771E-01  0.8002E+01
     -0.290  0.5672E+00  0.8025E+01
     -0.249  0.3132E+01  0.8155E+01
     -0.208  0.7783E+01  0.8477E+01
     -0.166  0.1044E+02  0.8909E+01
     -0.125  0.1015E+02  0.9329E+01
     -0.084  0.9648E+01  0.9728E+01
     -0.042  0.5389E+01  0.9951E+01
     -0.001  0.1120E+01  0.9997E+01
      0.041  0.2630E+00  0.1001E+02
      0.082  0.1463E+01  0.1007E+02
      0.123  0.4834E+01  0.1027E+02
      0.165  0.1016E+02  0.1069E+02
      0.206  0.1513E+02  0.1132E+02
      0.248  0.1789E+02  0.1206E+02
      0.289  0.1852E+02  0.1282E+02
      0.330  0.1689E+02  0.1352E+02
      0.372  0.1164E+02  0.1400E+02
      0.413  0.1140E+02  0.1447E+02
      0.454  0.1369E+02  0.1504E+02
      0.496  0.1723E+02  0.1575E+02
      0.537  0.2409E+02  0.1675E+02
      0.579  0.2708E+02  0.1787E+02
      0.620  0.2459E+02  0.1889E+02
      0.661  0.1904E+02  0.1968E+02
      0.703  0.1573E+02  0.2033E+02
      0.744  0.1742E+02  0.2105E+02
      0.785  0.2418E+02  0.2205E+02
      0.827  0.2225E+02  0.2297E+02
      0.868  0.2144E+02  0.2386E+02
      0.910  0.2488E+02  0.2489E+02
      0.951  0.1997E+02  0.2571E+02
      0.992  0.1887E+02  0.2649E+02
      1.034  0.2766E+02  0.2764E+02
      1.075  0.3419E+02  0.2905E+02
      1.117  0.3548E+02  0.3052E+02
      1.158  0.3570E+02  0.3200E+02
      1.199  0.2671E+02  0.3310E+02
      1.241  0.1421E+02  0.3369E+02
      1.282  0.1651E+02  0.3438E+02
      1.323  0.2557E+02  0.3543E+02
      1.365  0.3279E+02  0.3679E+02
      1.406  0.3597E+02  0.3828E+02
      1.448  0.3168E+02  0.3959E+02
      1.489  0.2970E+02  0.4082E+02
      1.530  0.2832E+02  0.4199E+02
      1.572  0.3009E+02  0.4324E+02
      1.613  0.2771E+02  0.4438E+02
      1.655  0.2652E+02  0.4548E+02
      1.696  0.2713E+02  0.4660E+02
      1.737  0.1656E+02  0.4729E+02
      1.779  0.5438E+01  0.4751E+02
      1.820  0.2760E+01  0.4763E+02
      1.861  0.4014E+01  0.4779E+02
      1.903  0.3549E+01  0.4794E+02
      1.944  0.1253E+01  0.4799E+02
      1.986  0.1507E+00  0.4800E+02
      2.027  0.5478E-02  0.4800E+02
      2.068  0.5589E-04  0.4800E+02
      2.110  0.1541E-06  0.4800E+02
      2.151  0.1124E-09  0.4800E+02
      2.193  0.2146E-13  0.4800E+02
      2.234  0.0000E+00  0.4800E+02
      2.275  0.0000E+00  0.4800E+02
      2.317  0.0000E+00  0.4800E+02
      2.358  0.0000E+00  0.4800E+02
      2.399  0.0000E+00  0.4800E+02
      2.441  0.0000E+00  0.4800E+02
