       N       E                     dE             d eps       ncg     rms          rms(c)
DAV:   1     0.117295591957E+03    0.11730E+03   -0.23538E+04 16800   0.108E+03
DAV:   2    -0.900476935032E+02   -0.20734E+03   -0.19310E+03 22416   0.190E+02
DAV:   3    -0.976098087571E+02   -0.75621E+01   -0.75050E+01 24840   0.321E+01
DAV:   4    -0.976555449078E+02   -0.45736E-01   -0.45733E-01 19080   0.289E+00
DAV:   5    -0.976560256849E+02   -0.48078E-03   -0.48077E-03 24792   0.282E-01    0.123E+01
DAV:   6    -0.922399837585E+02    0.54160E+01   -0.39494E+00 24216   0.659E+00    0.680E+00
DAV:   7    -0.905884154731E+02    0.16516E+01   -0.32193E+00 25176   0.586E+00    0.171E+00
DAV:   8    -0.906008647552E+02   -0.12449E-01   -0.23543E-01 18576   0.168E+00    0.704E-01
DAV:   9    -0.906150396555E+02   -0.14175E-01   -0.16943E-02 23328   0.441E-01    0.198E-01
DAV:  10    -0.906190928727E+02   -0.40532E-02   -0.21031E-03 19008   0.162E-01    0.610E-02
DAV:  11    -0.906201641053E+02   -0.10712E-02   -0.63063E-04 21816   0.882E-02    0.321E-02
DAV:  12    -0.906202793917E+02   -0.11529E-03   -0.92765E-05 20520   0.379E-02    0.429E-03
DAV:  13    -0.906202842483E+02   -0.48566E-05   -0.41228E-06 23496   0.912E-03    0.182E-03
DAV:  14    -0.906202849366E+02   -0.68833E-06   -0.29107E-07 20376   0.242E-03
   1 F= -.90620285E+02 E0= -.90618678E+02  d E =-.321364E-02
