  14  14   0   0
  0.1021960E+02  0.5697000E-09  0.4047900E-09  0.6204200E-09  0.5000000E-15
  1.000000000000000E-004
  CAR 
 Kpoints                                 
     18.00920227    -14.19599950  301      1.91091145      1.00000000
    -14.196  0.0000E+00  0.0000E+00
    -14.089  0.0000E+00  0.0000E+00
    -13.981  0.0000E+00  0.0000E+00
    -13.874  0.0000E+00  0.0000E+00
    -13.767  0.0000E+00  0.0000E+00
    -13.659  0.0000E+00  0.0000E+00
    -13.552  0.0000E+00  0.0000E+00
    -13.445  0.0000E+00  0.0000E+00
    -13.337  0.0000E+00  0.0000E+00
    -13.230  0.0000E+00  0.0000E+00
    -13.122  0.0000E+00  0.0000E+00
    -13.015  0.4268E-16  0.4582E-17
    -12.908  0.2824E-07  0.3032E-08
    -12.800  0.3736E-02  0.4010E-03
    -12.693  0.5012E+00  0.5421E-01
    -12.586  0.2365E+01  0.3081E+00
    -12.478  0.3533E+01  0.6874E+00
    -12.371  0.4344E+01  0.1154E+01
    -12.264  0.3529E+01  0.1533E+01
    -12.156  0.2727E+01  0.1825E+01
    -12.049  0.2738E+01  0.2119E+01
    -11.942  0.2476E+01  0.2385E+01
    -11.834  0.2767E+01  0.2682E+01
    -11.727  0.3355E+01  0.3042E+01
    -11.620  0.3514E+01  0.3419E+01
    -11.512  0.3160E+01  0.3759E+01
    -11.405  0.1745E+01  0.3946E+01
    -11.298  0.4901E+00  0.3999E+01
    -11.190  0.1204E-01  0.4000E+01
    -11.083  0.5171E-06  0.4000E+01
    -10.975  0.5115E-14  0.4000E+01
    -10.868  0.0000E+00  0.4000E+01
    -10.761  0.0000E+00  0.4000E+01
    -10.653  0.0000E+00  0.4000E+01
    -10.546  0.0000E+00  0.4000E+01
    -10.439  0.0000E+00  0.4000E+01
    -10.331  0.0000E+00  0.4000E+01
    -10.224  0.0000E+00  0.4000E+01
    -10.117  0.0000E+00  0.4000E+01
    -10.009  0.0000E+00  0.4000E+01
     -9.902  0.0000E+00  0.4000E+01
     -9.795  0.0000E+00  0.4000E+01
     -9.687  0.0000E+00  0.4000E+01
     -9.580  0.0000E+00  0.4000E+01
     -9.473  0.0000E+00  0.4000E+01
     -9.365  0.0000E+00  0.4000E+01
     -9.258  0.0000E+00  0.4000E+01
     -9.151  0.0000E+00  0.4000E+01
     -9.043  0.1026E-08  0.4000E+01
     -8.936  0.6562E-03  0.4000E+01
     -8.828  0.2798E+00  0.4030E+01
     -8.721  0.2086E+01  0.4254E+01
     -8.614  0.5306E+01  0.4824E+01
     -8.506  0.6988E+01  0.5574E+01
     -8.399  0.6284E+01  0.6248E+01
     -8.292  0.5301E+01  0.6817E+01
     -8.184  0.4813E+01  0.7334E+01
     -8.077  0.3885E+01  0.7751E+01
     -7.970  0.1680E+01  0.7931E+01
     -7.862  0.5847E+00  0.7994E+01
     -7.755  0.5374E-01  0.8000E+01
     -7.648  0.2634E-04  0.8000E+01
     -7.540  0.3096E-11  0.8000E+01
     -7.433  0.0000E+00  0.8000E+01
     -7.326  0.0000E+00  0.8000E+01
     -7.218  0.0000E+00  0.8000E+01
     -7.111  0.3828E-09  0.8000E+01
     -7.004  0.3561E-03  0.8000E+01
     -6.896  0.1106E+00  0.8012E+01
     -6.789  0.2601E+00  0.8040E+01
     -6.681  0.4238E+00  0.8085E+01
     -6.574  0.7668E+00  0.8168E+01
     -6.467  0.8550E+00  0.8259E+01
     -6.359  0.1451E+01  0.8415E+01
     -6.252  0.1970E+01  0.8627E+01
     -6.145  0.3053E+01  0.8954E+01
     -6.037  0.3785E+01  0.9361E+01
     -5.930  0.4110E+01  0.9802E+01
     -5.823  0.4077E+01  0.1024E+02
     -5.715  0.3841E+01  0.1065E+02
     -5.608  0.4080E+01  0.1109E+02
     -5.501  0.4254E+01  0.1155E+02
     -5.393  0.4536E+01  0.1203E+02
     -5.286  0.4565E+01  0.1252E+02
     -5.179  0.4473E+01  0.1300E+02
     -5.071  0.3835E+01  0.1342E+02
     -4.964  0.3232E+01  0.1376E+02
     -4.856  0.2948E+01  0.1408E+02
     -4.749  0.2317E+01  0.1433E+02
     -4.642  0.2873E+01  0.1464E+02
     -4.534  0.3356E+01  0.1500E+02
     -4.427  0.3444E+01  0.1537E+02
     -4.320  0.3335E+01  0.1572E+02
     -4.212  0.2965E+01  0.1604E+02
     -4.105  0.2870E+01  0.1635E+02
     -3.998  0.2934E+01  0.1667E+02
     -3.890  0.2866E+01  0.1697E+02
     -3.783  0.3063E+01  0.1730E+02
     -3.676  0.2920E+01  0.1762E+02
     -3.568  0.2681E+01  0.1790E+02
     -3.461  0.3075E+01  0.1823E+02
     -3.354  0.2642E+01  0.1852E+02
     -3.246  0.2829E+01  0.1882E+02
     -3.139  0.2747E+01  0.1912E+02
     -3.032  0.2719E+01  0.1941E+02
     -2.924  0.3073E+01  0.1974E+02
     -2.817  0.2970E+01  0.2006E+02
     -2.709  0.2429E+01  0.2032E+02
     -2.602  0.2613E+01  0.2060E+02
     -2.495  0.2982E+01  0.2092E+02
     -2.387  0.3011E+01  0.2124E+02
     -2.280  0.3313E+01  0.2160E+02
     -2.173  0.3907E+01  0.2202E+02
     -2.065  0.3619E+01  0.2240E+02
     -1.958  0.3174E+01  0.2275E+02
     -1.851  0.4965E+01  0.2328E+02
     -1.743  0.5613E+01  0.2388E+02
     -1.636  0.5621E+01  0.2448E+02
     -1.529  0.6139E+01  0.2514E+02
     -1.421  0.6095E+01  0.2580E+02
     -1.314  0.5591E+01  0.2640E+02
     -1.207  0.4702E+01  0.2690E+02
     -1.099  0.6484E+01  0.2760E+02
     -0.992  0.4090E+01  0.2804E+02
     -0.885  0.2290E+01  0.2828E+02
     -0.777  0.2701E+01  0.2857E+02
     -0.670  0.2860E+01  0.2888E+02
     -0.562  0.4439E+01  0.2936E+02
     -0.455  0.6801E+01  0.3009E+02
     -0.348  0.5624E+01  0.3069E+02
     -0.240  0.6618E+01  0.3140E+02
     -0.133  0.6325E+01  0.3208E+02
     -0.026  0.6718E+01  0.3280E+02
      0.082  0.6805E+01  0.3353E+02
      0.189  0.6211E+01  0.3420E+02
      0.296  0.8784E+01  0.3514E+02
      0.404  0.8026E+01  0.3600E+02
      0.511  0.8609E+01  0.3693E+02
      0.618  0.5428E+01  0.3751E+02
      0.726  0.3025E+01  0.3783E+02
      0.833  0.3190E+01  0.3818E+02
      0.940  0.3569E+01  0.3856E+02
      1.048  0.3537E+01  0.3894E+02
      1.155  0.2803E+01  0.3924E+02
      1.262  0.3267E+01  0.3959E+02
      1.370  0.4353E+01  0.4006E+02
      1.477  0.3898E+01  0.4048E+02
      1.585  0.3703E+01  0.4088E+02
      1.692  0.4510E+01  0.4136E+02
      1.799  0.3418E+01  0.4173E+02
      1.907  0.2448E+01  0.4199E+02
      2.014  0.2692E+01  0.4228E+02
      2.121  0.2108E+01  0.4250E+02
      2.229  0.2651E+01  0.4279E+02
      2.336  0.2634E+01  0.4307E+02
      2.443  0.2018E+01  0.4329E+02
      2.551  0.9488E+00  0.4339E+02
      2.658  0.3758E+00  0.4343E+02
      2.765  0.5821E+00  0.4349E+02
      2.873  0.4115E+00  0.4354E+02
      2.980  0.3165E+00  0.4357E+02
      3.087  0.7056E+00  0.4365E+02
      3.195  0.1020E+01  0.4376E+02
      3.302  0.5947E+00  0.4382E+02
      3.410  0.2129E-01  0.4382E+02
      3.517  0.1149E+00  0.4383E+02
      3.624  0.3779E+00  0.4388E+02
      3.732  0.3509E+00  0.4391E+02
      3.839  0.3575E+00  0.4395E+02
      3.946  0.4144E+00  0.4400E+02
      4.054  0.4014E-01  0.4400E+02
      4.161  0.2822E-04  0.4400E+02
      4.268  0.2896E-01  0.4400E+02
      4.376  0.1745E+00  0.4402E+02
      4.483  0.4007E+00  0.4406E+02
      4.590  0.4651E+00  0.4411E+02
      4.698  0.6290E+00  0.4418E+02
      4.805  0.8868E+00  0.4428E+02
      4.912  0.8345E+00  0.4437E+02
      5.020  0.8527E+00  0.4446E+02
      5.127  0.1264E+01  0.4459E+02
      5.234  0.1154E+01  0.4472E+02
      5.342  0.1620E+01  0.4489E+02
      5.449  0.2186E+01  0.4513E+02
      5.557  0.2492E+01  0.4539E+02
      5.664  0.2761E+01  0.4569E+02
      5.771  0.3357E+01  0.4605E+02
      5.879  0.3245E+01  0.4640E+02
      5.986  0.4290E+01  0.4686E+02
      6.093  0.4774E+01  0.4737E+02
      6.201  0.3994E+01  0.4780E+02
      6.308  0.4617E+01  0.4830E+02
      6.415  0.4168E+01  0.4874E+02
      6.523  0.4058E+01  0.4918E+02
      6.630  0.4491E+01  0.4966E+02
      6.737  0.3199E+01  0.5001E+02
      6.845  0.4031E+01  0.5044E+02
      6.952  0.4634E+01  0.5094E+02
      7.059  0.4581E+01  0.5143E+02
      7.167  0.4360E+01  0.5190E+02
      7.274  0.5640E+01  0.5250E+02
      7.381  0.4880E+01  0.5302E+02
      7.489  0.4459E+01  0.5350E+02
      7.596  0.4159E+01  0.5395E+02
      7.704  0.3576E+01  0.5433E+02
      7.811  0.3113E+01  0.5467E+02
      7.918  0.2999E+01  0.5499E+02
      8.026  0.3020E+01  0.5531E+02
      8.133  0.4210E+01  0.5577E+02
      8.240  0.3942E+01  0.5619E+02
      8.348  0.3661E+01  0.5658E+02
      8.455  0.4115E+01  0.5702E+02
      8.562  0.4114E+01  0.5747E+02
      8.670  0.4565E+01  0.5796E+02
      8.777  0.4340E+01  0.5842E+02
      8.884  0.5390E+01  0.5900E+02
      8.992  0.4697E+01  0.5950E+02
      9.099  0.5362E+01  0.6008E+02
      9.206  0.5160E+01  0.6063E+02
      9.314  0.4908E+01  0.6116E+02
      9.421  0.4735E+01  0.6167E+02
      9.528  0.4324E+01  0.6213E+02
      9.636  0.5159E+01  0.6269E+02
      9.743  0.4924E+01  0.6322E+02
      9.851  0.5304E+01  0.6379E+02
      9.958  0.4323E+01  0.6425E+02
     10.065  0.3749E+01  0.6465E+02
     10.173  0.5382E+01  0.6523E+02
     10.280  0.4520E+01  0.6571E+02
     10.387  0.4192E+01  0.6616E+02
     10.495  0.5648E+01  0.6677E+02
     10.602  0.5447E+01  0.6736E+02
     10.709  0.4162E+01  0.6780E+02
     10.817  0.3745E+01  0.6820E+02
     10.924  0.3321E+01  0.6856E+02
     11.031  0.4918E+01  0.6909E+02
     11.139  0.5378E+01  0.6967E+02
     11.246  0.6457E+01  0.7036E+02
     11.353  0.5774E+01  0.7098E+02
     11.461  0.5206E+01  0.7154E+02
     11.568  0.4323E+01  0.7200E+02
     11.676  0.4487E+01  0.7248E+02
     11.783  0.4982E+01  0.7302E+02
     11.890  0.4911E+01  0.7355E+02
     11.998  0.5952E+01  0.7418E+02
     12.105  0.6137E+01  0.7484E+02
     12.212  0.5780E+01  0.7546E+02
     12.320  0.5667E+01  0.7607E+02
     12.427  0.4918E+01  0.7660E+02
     12.534  0.5640E+01  0.7721E+02
     12.642  0.6055E+01  0.7786E+02
     12.749  0.5958E+01  0.7850E+02
     12.856  0.5755E+01  0.7911E+02
     12.964  0.5894E+01  0.7975E+02
     13.071  0.5606E+01  0.8035E+02
     13.178  0.6409E+01  0.8104E+02
     13.286  0.6035E+01  0.8168E+02
     13.393  0.5557E+01  0.8228E+02
     13.500  0.6105E+01  0.8294E+02
     13.608  0.5252E+01  0.8350E+02
     13.715  0.4796E+01  0.8401E+02
     13.823  0.6329E+01  0.8469E+02
     13.930  0.5359E+01  0.8527E+02
     14.037  0.5353E+01  0.8584E+02
     14.145  0.5418E+01  0.8643E+02
     14.252  0.4494E+01  0.8691E+02
     14.359  0.5069E+01  0.8745E+02
     14.467  0.5004E+01  0.8799E+02
     14.574  0.4951E+01  0.8852E+02
     14.681  0.5206E+01  0.8908E+02
     14.789  0.5147E+01  0.8963E+02
     14.896  0.4078E+01  0.9007E+02
     15.003  0.5185E+01  0.9063E+02
     15.111  0.6248E+01  0.9130E+02
     15.218  0.5489E+01  0.9189E+02
     15.325  0.5888E+01  0.9252E+02
     15.433  0.5961E+01  0.9316E+02
     15.540  0.5663E+01  0.9377E+02
     15.647  0.5849E+01  0.9439E+02
     15.755  0.4427E+01  0.9487E+02
     15.862  0.2387E+01  0.9513E+02
     15.970  0.2698E+01  0.9542E+02
     16.077  0.1781E+01  0.9561E+02
     16.184  0.1103E+01  0.9572E+02
     16.292  0.8841E+00  0.9582E+02
     16.399  0.6801E+00  0.9589E+02
     16.506  0.8106E+00  0.9598E+02
     16.614  0.1869E+00  0.9600E+02
     16.721  0.1733E-02  0.9600E+02
     16.828  0.2001E-07  0.9600E+02
     16.936  0.3940E-16  0.9600E+02
     17.043  0.0000E+00  0.9600E+02
     17.150  0.0000E+00  0.9600E+02
     17.258  0.0000E+00  0.9600E+02
     17.365  0.0000E+00  0.9600E+02
     17.472  0.0000E+00  0.9600E+02
     17.580  0.0000E+00  0.9600E+02
     17.687  0.0000E+00  0.9600E+02
     17.795  0.0000E+00  0.9600E+02
     17.902  0.0000E+00  0.9600E+02
     18.009  0.0000E+00  0.9600E+02
