 running   24 mpi-ranks, with    1 threads/rank, on    1 nodes
 distrk:  each k-point on   24 cores,    1 groups
 distr:  one band on    1 cores,   24 groups
 vasp.6.4.3 19Mar24 (build May 31 2024 16:31:43) complex                        
  
 POSCAR found type information on POSCAR B 
 POSCAR found :  1 types and      14 ions
 Reading from existing POTCAR
 scaLAPACK will be used
 Reading from existing POTCAR
 LDA part: xc-table for (Slater+PW92), standard interpolation
 POSCAR, INCAR and KPOINTS ok, starting setup
 FFT: planning ... GRIDC
 FFT: planning ... GRID_SOFT
 FFT: planning ... GRID
 WAVECAR not read
 entering main loop
       N       E                     dE             d eps       ncg     rms          rms(c)
DAV:   1     0.153970996708E+01    0.15397E+01   -0.12414E+04 16824   0.447E+02
DAV:   2    -0.943883660260E+02   -0.95928E+02   -0.91067E+02 24504   0.108E+02
DAV:   3    -0.969995890824E+02   -0.26112E+01   -0.26046E+01 23088   0.169E+01
DAV:   4    -0.970147250730E+02   -0.15136E-01   -0.15135E-01 23640   0.134E+00
DAV:   5    -0.970149116587E+02   -0.18659E-03   -0.18658E-03 22536   0.150E-01    0.133E+01
DAV:   6    -0.916854451459E+02    0.53295E+01   -0.38690E+00 24120   0.642E+00    0.740E+00
DAV:   7    -0.900497148128E+02    0.16357E+01   -0.31978E+00 25152   0.576E+00    0.181E+00
