 vasp.6.4.3 19Mar24 (build May 31 2024 16:31:43) complex                        
  
 executed on             LinuxIFC date 2024.11.05  22:41:42
 running   24 mpi-ranks, with    1 threads/rank, on    1 nodes
 distrk:  each k-point on   24 cores,    1 groups
 distr:  one band on NCORE=   1 cores,   24 groups


--------------------------------------------------------------------------------------------------------


 INCAR:
   SYSTEM = Convergence
   ISTART = 0
   ICHARG = 2
   PREC = Accurate
   ENCUT = 600
   LCHARG = .FALSE.
   LWAVE = .FALSE.
   ALGO = Normal
   NELM = 100
   EDIFF = 1E-6
   EDIFFG = -1E-3
   SIGMA = 0.05
   ISMEAR = 0
   ISPIN = 1
   NSW = 0
   IBRION = -1
   POTIM = .5
   ISIF = 2
   GGA = PE

 POTCAR:    PAW_PBE B 06Sep2000                   
 POTCAR:    PAW_PBE B 06Sep2000                   
   SHA256 =  a32ced30f5ae56fd4d10b4325ff17eb3e4e38ee0f4288bc219fb012fddfa6e97 B/POTCAR              
   COPYR  = (c) Copyright 06Sep2000 Georg Kresse                                                    
   COPYR  = This file is part of the software VASP. Any use, copying, and all other rights are regul
   COPYR  = If you do not have a valid VASP license, you may not use, copy or distribute this file. 
   VRHFIN =B: s2p1                                                                                  
   LEXCH  = PE                                                                                      
   EATOM  =    71.1703 eV,    5.2309 Ry                                                             
                                                                                                    
   TITEL  = PAW_PBE B 06Sep2000                                                                     
   LULTRA =        F    use ultrasoft PP ?                                                          
   IUNSCR =        1    unscreen: 0-lin 1-nonlin 2-no                                               
   RPACOR =    1.200    partial core radius                                                         
   POMASS =   10.811; ZVAL   =    3.000    mass and valenz                                          
   RCORE  =    1.700    outmost cutoff radius                                                       
   RWIGS  =    1.710; RWIGS  =    0.905    wigner-seitz radius (au A)                               
   ENMAX  =  318.614; ENMIN  =  238.960 eV                                                          
   ICORE  =        2    local potential                                                             
   LCOR   =        T    correct aug charges                                                         
   LPAW   =        T    paw PP                                                                      
   EAUG   =  535.514                                                                                
   DEXC   =    0.000                                                                                
   RMAX   =    1.732    core radius for proj-oper                                                   
   RAUG   =    1.300    factor for augmentation sphere                                              
   RDEP   =    1.757    radius for radial grids                                                     
   RDEPT  =    1.436    core radius for aug-charge                                                  
                                                                                                    
   Atomic configuration                                                                             
    4 entries                                                                                       
     n  l   j            E        occ.                                                              
     1  0  0.50      -180.5896   2.0000                                                             
     2  0  0.50        -9.4431   2.0000                                                             
     2  1  0.50        -3.6068   1.0000                                                             
     3  2  1.50        -4.0817   0.0000                                                             
   Description                                                                                      
     l       E           TYP  RCUT    TYP  RCUT                                                     
     0     -9.4430752     23  1.500                                                                 
     0      0.8675899     23  1.500                                                                 
     1     -3.6067955     23  1.700                                                                 
     1      6.1086146     23  1.700                                                                 
     2     -4.0817478      7  1.700                                                                 
  local pseudopotential read in
  partial core-charges read in
  partial kinetic energy density read in
  atomic valenz-charges read in
  non local Contribution for L=           0  read in
    real space projection operators read in
  non local Contribution for L=           0  read in
    real space projection operators read in
  non local Contribution for L=           1  read in
    real space projection operators read in
  non local Contribution for L=           1  read in
    real space projection operators read in
    PAW grid and wavefunctions read in
 
   number of l-projection  operators is LMAX  =           4
   number of lm-projection operators is LMMAX =           8
 
  PAW_PBE B 06Sep2000                   :
 energy of atom  1       EATOM=  -71.1703
 kinetic energy error for atom=    0.0007 (will be added to EATOM!!)
 
 
 POSCAR: o-B14
  positions in direct lattice
  No initial velocities read in


 exchange-correlation table for PE
   RHO(1)=    0.500       N(1)  =     2000
   RHO(2)=  100.500       N(2)  =     4000
 


--------------------------------------------------------------------------------------------------------


 ion  position               nearest neighbor table
   1  0.521  0.545  0.638-
 
  LATTYP: Found a simple orthorhombic cell.
 ALAT       =    12.5100000000
 B/A-ratio  =     1.2000000000
 C/A-ratio  =     1.4400000000
  
  Lattice vectors:
  
 A1 = (   0.0000000000, -12.5100000000,   0.0000000000)
 A2 = (  15.0120000000,   0.0000000000,   0.0000000000)
 A3 = (   0.0000000000,   0.0000000000,  18.0144000000)


Analysis of symmetry for initial positions (statically):
=====================================================================
 Subroutine PRICEL returns:
 Original cell was already a primitive cell.
 

 Routine SETGRP: Setting up the symmetry group for a 
 simple orthorhombic supercell.


 Subroutine GETGRP returns: Found  8 space group operations
 (whereof  1 operations were pure point group operations)
 out of a pool of  8 trial point group operations.


The static configuration has the point symmetry C_1 .
 The point group associated with its full space group is D_2h.


Analysis of symmetry for dynamics (positions and initial velocities):
=====================================================================
 Subroutine PRICEL returns:
 Original cell was already a primitive cell.
 

 Routine SETGRP: Setting up the symmetry group for a 
 simple orthorhombic supercell.


 Subroutine GETGRP returns: Found  8 space group operations
 (whereof  1 operations were pure point group operations)
 out of a pool of  8 trial point group operations.


The dynamic configuration has the point symmetry C_1 .
 The point group associated with its full space group is D_2h.


 Subroutine INISYM returns: Found  8 space group operations
 (whereof  1 operations are pure point group operations),
 and found     1 'primitive' translations


----------------------------------------------------------------------------------------

                                     Primitive cell                                     

  volume of cell :    3383.1065

  direct lattice vectors                    reciprocal lattice vectors
    15.012000000  0.000000000  0.000000000     0.066613376  0.000000000  0.000000000
     0.000000000 12.510000000  0.000000000     0.000000000  0.079936051  0.000000000
     0.000000000  0.000000000 18.014400000     0.000000000  0.000000000  0.055511147

  length of vectors
    15.012000000 12.510000000 18.014400000     0.066613376  0.079936051  0.055511147

  position of ions in fractional coordinates (direct lattice)
     0.521230000  0.545000000  0.637960000

  ion indices of the primitive-cell ions
   primitive index   ion index
                 1           1

----------------------------------------------------------------------------------------

 
 
 KPOINTS: k-points                                

Automatic generation of k-mesh.
 Grid dimensions read from file:
 generate k-points for:   10   14    9

 Generating k-lattice:

  Cartesian coordinates                     Fractional coordinates (reciprocal lattice)
     0.006661338  0.000000000  0.000000000     0.100000000  0.000000000  0.000000000
     0.000000000  0.005709718  0.000000000     0.000000000  0.071428571  0.000000000
     0.000000000  0.000000000  0.006167905     0.000000000  0.000000000  0.111111111

  Length of vectors
     0.006661338  0.005709718  0.006167905

  Shift w.r.t. Gamma in fractional coordinates (k-lattice)
     0.500000000  0.500000000  0.000000000

 
 Subroutine IBZKPT returns following result:
 ===========================================
 
 Found    175 irreducible k-points:
 
 Following reciprocal coordinates:
            Coordinates               Weight
  0.050000  0.035714  0.000000      4.000000
  0.150000  0.035714  0.000000      4.000000
  0.250000  0.035714  0.000000      4.000000
  0.350000  0.035714  0.000000      4.000000
  0.450000  0.035714  0.000000      4.000000
  0.050000  0.107143  0.000000      4.000000
  0.150000  0.107143  0.000000      4.000000
  0.250000  0.107143  0.000000      4.000000
  0.350000  0.107143  0.000000      4.000000
  0.450000  0.107143  0.000000      4.000000
  0.050000  0.178571  0.000000      4.000000
  0.150000  0.178571  0.000000      4.000000
  0.250000  0.178571  0.000000      4.000000
  0.350000  0.178571  0.000000      4.000000
  0.450000  0.178571  0.000000      4.000000
  0.050000  0.250000  0.000000      4.000000
  0.150000  0.250000  0.000000      4.000000
  0.250000  0.250000  0.000000      4.000000
  0.350000  0.250000  0.000000      4.000000
  0.450000  0.250000  0.000000      4.000000
  0.050000  0.321429  0.000000      4.000000
  0.150000  0.321429  0.000000      4.000000
  0.250000  0.321429  0.000000      4.000000
  0.350000  0.321429  0.000000      4.000000
  0.450000  0.321429  0.000000      4.000000
  0.050000  0.392857  0.000000      4.000000
  0.150000  0.392857  0.000000      4.000000
  0.250000  0.392857  0.000000      4.000000
  0.350000  0.392857  0.000000      4.000000
  0.450000  0.392857  0.000000      4.000000
  0.050000  0.464286  0.000000      4.000000
  0.150000  0.464286  0.000000      4.000000
  0.250000  0.464286  0.000000      4.000000
  0.350000  0.464286  0.000000      4.000000
  0.450000  0.464286  0.000000      4.000000
  0.050000  0.035714  0.111111      8.000000
  0.150000  0.035714  0.111111      8.000000
  0.250000  0.035714  0.111111      8.000000
  0.350000  0.035714  0.111111      8.000000
  0.450000  0.035714  0.111111      8.000000
  0.050000  0.107143  0.111111      8.000000
  0.150000  0.107143  0.111111      8.000000
  0.250000  0.107143  0.111111      8.000000
  0.350000  0.107143  0.111111      8.000000
  0.450000  0.107143  0.111111      8.000000
  0.050000  0.178571  0.111111      8.000000
  0.150000  0.178571  0.111111      8.000000
  0.250000  0.178571  0.111111      8.000000
  0.350000  0.178571  0.111111      8.000000
  0.450000  0.178571  0.111111      8.000000
  0.050000  0.250000  0.111111      8.000000
  0.150000  0.250000  0.111111      8.000000
  0.250000  0.250000  0.111111      8.000000
  0.350000  0.250000  0.111111      8.000000
  0.450000  0.250000  0.111111      8.000000
  0.050000  0.321429  0.111111      8.000000
  0.150000  0.321429  0.111111      8.000000
  0.250000  0.321429  0.111111      8.000000
  0.350000  0.321429  0.111111      8.000000
  0.450000  0.321429  0.111111      8.000000
  0.050000  0.392857  0.111111      8.000000
  0.150000  0.392857  0.111111      8.000000
  0.250000  0.392857  0.111111      8.000000
  0.350000  0.392857  0.111111      8.000000
  0.450000  0.392857  0.111111      8.000000
  0.050000  0.464286  0.111111      8.000000
  0.150000  0.464286  0.111111      8.000000
  0.250000  0.464286  0.111111      8.000000
  0.350000  0.464286  0.111111      8.000000
  0.450000  0.464286  0.111111      8.000000
  0.050000  0.035714  0.222222      8.000000
  0.150000  0.035714  0.222222      8.000000
  0.250000  0.035714  0.222222      8.000000
  0.350000  0.035714  0.222222      8.000000
  0.450000  0.035714  0.222222      8.000000
  0.050000  0.107143  0.222222      8.000000
  0.150000  0.107143  0.222222      8.000000
  0.250000  0.107143  0.222222      8.000000
  0.350000  0.107143  0.222222      8.000000
  0.450000  0.107143  0.222222      8.000000
  0.050000  0.178571  0.222222      8.000000
  0.150000  0.178571  0.222222      8.000000
  0.250000  0.178571  0.222222      8.000000
  0.350000  0.178571  0.222222      8.000000
  0.450000  0.178571  0.222222      8.000000
  0.050000  0.250000  0.222222      8.000000
  0.150000  0.250000  0.222222      8.000000
  0.250000  0.250000  0.222222      8.000000
  0.350000  0.250000  0.222222      8.000000
  0.450000  0.250000  0.222222      8.000000
  0.050000  0.321429  0.222222      8.000000
  0.150000  0.321429  0.222222      8.000000
  0.250000  0.321429  0.222222      8.000000
  0.350000  0.321429  0.222222      8.000000
  0.450000  0.321429  0.222222      8.000000
  0.050000  0.392857  0.222222      8.000000
  0.150000  0.392857  0.222222      8.000000
  0.250000  0.392857  0.222222      8.000000
  0.350000  0.392857  0.222222      8.000000
  0.450000  0.392857  0.222222      8.000000
  0.050000  0.464286  0.222222      8.000000
  0.150000  0.464286  0.222222      8.000000
  0.250000  0.464286  0.222222      8.000000
  0.350000  0.464286  0.222222      8.000000
  0.450000  0.464286  0.222222      8.000000
  0.050000  0.035714  0.333333      8.000000
  0.150000  0.035714  0.333333      8.000000
  0.250000  0.035714  0.333333      8.000000
  0.350000  0.035714  0.333333      8.000000
  0.450000  0.035714  0.333333      8.000000
  0.050000  0.107143  0.333333      8.000000
  0.150000  0.107143  0.333333      8.000000
  0.250000  0.107143  0.333333      8.000000
  0.350000  0.107143  0.333333      8.000000
  0.450000  0.107143  0.333333      8.000000
  0.050000  0.178571  0.333333      8.000000
  0.150000  0.178571  0.333333      8.000000
  0.250000  0.178571  0.333333      8.000000
  0.350000  0.178571  0.333333      8.000000
  0.450000  0.178571  0.333333      8.000000
  0.050000  0.250000  0.333333      8.000000
  0.150000  0.250000  0.333333      8.000000
  0.250000  0.250000  0.333333      8.000000
  0.350000  0.250000  0.333333      8.000000
  0.450000  0.250000  0.333333      8.000000
  0.050000  0.321429  0.333333      8.000000
  0.150000  0.321429  0.333333      8.000000
  0.250000  0.321429  0.333333      8.000000
  0.350000  0.321429  0.333333      8.000000
  0.450000  0.321429  0.333333      8.000000
  0.050000  0.392857  0.333333      8.000000
  0.150000  0.392857  0.333333      8.000000
  0.250000  0.392857  0.333333      8.000000
  0.350000  0.392857  0.333333      8.000000
  0.450000  0.392857  0.333333      8.000000
  0.050000  0.464286  0.333333      8.000000
  0.150000  0.464286  0.333333      8.000000
  0.250000  0.464286  0.333333      8.000000
  0.350000  0.464286  0.333333      8.000000
  0.450000  0.464286  0.333333      8.000000
  0.050000  0.035714  0.444444      8.000000
  0.150000  0.035714  0.444444      8.000000
  0.250000  0.035714  0.444444      8.000000
  0.350000  0.035714  0.444444      8.000000
  0.450000  0.035714  0.444444      8.000000
  0.050000  0.107143  0.444444      8.000000
  0.150000  0.107143  0.444444      8.000000
  0.250000  0.107143  0.444444      8.000000
  0.350000  0.107143  0.444444      8.000000
  0.450000  0.107143  0.444444      8.000000
  0.050000  0.178571  0.444444      8.000000
  0.150000  0.178571  0.444444      8.000000
  0.250000  0.178571  0.444444      8.000000
  0.350000  0.178571  0.444444      8.000000
  0.450000  0.178571  0.444444      8.000000
  0.050000  0.250000  0.444444      8.000000
  0.150000  0.250000  0.444444      8.000000
  0.250000  0.250000  0.444444      8.000000
  0.350000  0.250000  0.444444      8.000000
  0.450000  0.250000  0.444444      8.000000
  0.050000  0.321429  0.444444      8.000000
  0.150000  0.321429  0.444444      8.000000
  0.250000  0.321429  0.444444      8.000000
  0.350000  0.321429  0.444444      8.000000
  0.450000  0.321429  0.444444      8.000000
  0.050000  0.392857  0.444444      8.000000
  0.150000  0.392857  0.444444      8.000000
  0.250000  0.392857  0.444444      8.000000
  0.350000  0.392857  0.444444      8.000000
  0.450000  0.392857  0.444444      8.000000
  0.050000  0.464286  0.444444      8.000000
  0.150000  0.464286  0.444444      8.000000
  0.250000  0.464286  0.444444      8.000000
  0.350000  0.464286  0.444444      8.000000
  0.450000  0.464286  0.444444      8.000000
 
 Following cartesian coordinates:
            Coordinates               Weight
  0.003333  0.002857  0.000000      4.000000
  0.010000  0.002857  0.000000      4.000000
  0.016667  0.002857  0.000000      4.000000
  0.023333  0.002857  0.000000      4.000000
  0.030000  0.002857  0.000000      4.000000
  0.003333  0.008571  0.000000      4.000000
  0.010000  0.008571  0.000000      4.000000
  0.016667  0.008571  0.000000      4.000000
  0.023333  0.008571  0.000000      4.000000
  0.030000  0.008571  0.000000      4.000000
  0.003333  0.014286  0.000000      4.000000
  0.010000  0.014286  0.000000      4.000000
  0.016667  0.014286  0.000000      4.000000
  0.023333  0.014286  0.000000      4.000000
  0.030000  0.014286  0.000000      4.000000
  0.003333  0.020000  0.000000      4.000000
  0.010000  0.020000  0.000000      4.000000
  0.016667  0.020000  0.000000      4.000000
  0.023333  0.020000  0.000000      4.000000
  0.030000  0.020000  0.000000      4.000000
  0.003333  0.025714  0.000000      4.000000
  0.010000  0.025714  0.000000      4.000000
  0.016667  0.025714  0.000000      4.000000
  0.023333  0.025714  0.000000      4.000000
  0.030000  0.025714  0.000000      4.000000
  0.003333  0.031429  0.000000      4.000000
  0.010000  0.031429  0.000000      4.000000
  0.016667  0.031429  0.000000      4.000000
  0.023333  0.031429  0.000000      4.000000
  0.030000  0.031429  0.000000      4.000000
  0.003333  0.037143  0.000000      4.000000
  0.010000  0.037143  0.000000      4.000000
  0.016667  0.037143  0.000000      4.000000
  0.023333  0.037143  0.000000      4.000000
  0.030000  0.037143  0.000000      4.000000
  0.003333  0.002857  0.006173      8.000000
  0.010000  0.002857  0.006173      8.000000
  0.016667  0.002857  0.006173      8.000000
  0.023333  0.002857  0.006173      8.000000
  0.030000  0.002857  0.006173      8.000000
  0.003333  0.008571  0.006173      8.000000
  0.010000  0.008571  0.006173      8.000000
  0.016667  0.008571  0.006173      8.000000
  0.023333  0.008571  0.006173      8.000000
  0.030000  0.008571  0.006173      8.000000
  0.003333  0.014286  0.006173      8.000000
  0.010000  0.014286  0.006173      8.000000
  0.016667  0.014286  0.006173      8.000000
  0.023333  0.014286  0.006173      8.000000
  0.030000  0.014286  0.006173      8.000000
  0.003333  0.020000  0.006173      8.000000
  0.010000  0.020000  0.006173      8.000000
  0.016667  0.020000  0.006173      8.000000
  0.023333  0.020000  0.006173      8.000000
  0.030000  0.020000  0.006173      8.000000
  0.003333  0.025714  0.006173      8.000000
  0.010000  0.025714  0.006173      8.000000
  0.016667  0.025714  0.006173      8.000000
  0.023333  0.025714  0.006173      8.000000
  0.030000  0.025714  0.006173      8.000000
  0.003333  0.031429  0.006173      8.000000
  0.010000  0.031429  0.006173      8.000000
  0.016667  0.031429  0.006173      8.000000
  0.023333  0.031429  0.006173      8.000000
  0.030000  0.031429  0.006173      8.000000
  0.003333  0.037143  0.006173      8.000000
  0.010000  0.037143  0.006173      8.000000
  0.016667  0.037143  0.006173      8.000000
  0.023333  0.037143  0.006173      8.000000
  0.030000  0.037143  0.006173      8.000000
  0.003333  0.002857  0.012346      8.000000
  0.010000  0.002857  0.012346      8.000000
  0.016667  0.002857  0.012346      8.000000
  0.023333  0.002857  0.012346      8.000000
  0.030000  0.002857  0.012346      8.000000
  0.003333  0.008571  0.012346      8.000000
  0.010000  0.008571  0.012346      8.000000
  0.016667  0.008571  0.012346      8.000000
  0.023333  0.008571  0.012346      8.000000
  0.030000  0.008571  0.012346      8.000000
  0.003333  0.014286  0.012346      8.000000
  0.010000  0.014286  0.012346      8.000000
  0.016667  0.014286  0.012346      8.000000
  0.023333  0.014286  0.012346      8.000000
  0.030000  0.014286  0.012346      8.000000
  0.003333  0.020000  0.012346      8.000000
  0.010000  0.020000  0.012346      8.000000
  0.016667  0.020000  0.012346      8.000000
  0.023333  0.020000  0.012346      8.000000
  0.030000  0.020000  0.012346      8.000000
  0.003333  0.025714  0.012346      8.000000
  0.010000  0.025714  0.012346      8.000000
  0.016667  0.025714  0.012346      8.000000
  0.023333  0.025714  0.012346      8.000000
  0.030000  0.025714  0.012346      8.000000
  0.003333  0.031429  0.012346      8.000000
  0.010000  0.031429  0.012346      8.000000
  0.016667  0.031429  0.012346      8.000000
  0.023333  0.031429  0.012346      8.000000
  0.030000  0.031429  0.012346      8.000000
  0.003333  0.037143  0.012346      8.000000
  0.010000  0.037143  0.012346      8.000000
  0.016667  0.037143  0.012346      8.000000
  0.023333  0.037143  0.012346      8.000000
  0.030000  0.037143  0.012346      8.000000
  0.003333  0.002857  0.018519      8.000000
  0.010000  0.002857  0.018519      8.000000
  0.016667  0.002857  0.018519      8.000000
  0.023333  0.002857  0.018519      8.000000
  0.030000  0.002857  0.018519      8.000000
  0.003333  0.008571  0.018519      8.000000
  0.010000  0.008571  0.018519      8.000000
  0.016667  0.008571  0.018519      8.000000
  0.023333  0.008571  0.018519      8.000000
  0.030000  0.008571  0.018519      8.000000
  0.003333  0.014286  0.018519      8.000000
  0.010000  0.014286  0.018519      8.000000
  0.016667  0.014286  0.018519      8.000000
  0.023333  0.014286  0.018519      8.000000
  0.030000  0.014286  0.018519      8.000000
  0.003333  0.020000  0.018519      8.000000
  0.010000  0.020000  0.018519      8.000000
  0.016667  0.020000  0.018519      8.000000
  0.023333  0.020000  0.018519      8.000000
  0.030000  0.020000  0.018519      8.000000
  0.003333  0.025714  0.018519      8.000000
  0.010000  0.025714  0.018519      8.000000
  0.016667  0.025714  0.018519      8.000000
  0.023333  0.025714  0.018519      8.000000
  0.030000  0.025714  0.018519      8.000000
  0.003333  0.031429  0.018519      8.000000
  0.010000  0.031429  0.018519      8.000000
  0.016667  0.031429  0.018519      8.000000
  0.023333  0.031429  0.018519      8.000000
  0.030000  0.031429  0.018519      8.000000
  0.003333  0.037143  0.018519      8.000000
  0.010000  0.037143  0.018519      8.000000
  0.016667  0.037143  0.018519      8.000000
  0.023333  0.037143  0.018519      8.000000
  0.030000  0.037143  0.018519      8.000000
  0.003333  0.002857  0.024691      8.000000
  0.010000  0.002857  0.024691      8.000000
  0.016667  0.002857  0.024691      8.000000
  0.023333  0.002857  0.024691      8.000000
  0.030000  0.002857  0.024691      8.000000
  0.003333  0.008571  0.024691      8.000000
  0.010000  0.008571  0.024691      8.000000
  0.016667  0.008571  0.024691      8.000000
  0.023333  0.008571  0.024691      8.000000
  0.030000  0.008571  0.024691      8.000000
  0.003333  0.014286  0.024691      8.000000
  0.010000  0.014286  0.024691      8.000000
  0.016667  0.014286  0.024691      8.000000
  0.023333  0.014286  0.024691      8.000000
  0.030000  0.014286  0.024691      8.000000
  0.003333  0.020000  0.024691      8.000000
  0.010000  0.020000  0.024691      8.000000
  0.016667  0.020000  0.024691      8.000000
  0.023333  0.020000  0.024691      8.000000
  0.030000  0.020000  0.024691      8.000000
  0.003333  0.025714  0.024691      8.000000
  0.010000  0.025714  0.024691      8.000000
  0.016667  0.025714  0.024691      8.000000
  0.023333  0.025714  0.024691      8.000000
  0.030000  0.025714  0.024691      8.000000
  0.003333  0.031429  0.024691      8.000000
  0.010000  0.031429  0.024691      8.000000
  0.016667  0.031429  0.024691      8.000000
  0.023333  0.031429  0.024691      8.000000
  0.030000  0.031429  0.024691      8.000000
  0.003333  0.037143  0.024691      8.000000
  0.010000  0.037143  0.024691      8.000000
  0.016667  0.037143  0.024691      8.000000
  0.023333  0.037143  0.024691      8.000000
  0.030000  0.037143  0.024691      8.000000
 


--------------------------------------------------------------------------------------------------------




 Dimension of arrays:
   k-points           NKPTS =    175   k-points in BZ     NKDIM =    175   number of bands    NBANDS=     24
   number of dos      NEDOS =    301   number of ions     NIONS =      1
   non local maximal  LDIM  =      4   non local SUM 2l+1 LMDIM =      8
   total plane-waves  NPLWV = ******
   max r-space proj   IRMAX =      1   max aug-charges    IRDMAX=   8164
   dimension x,y,z NGX =   120 NGY =  100 NGZ =  144
   dimension x,y,z NGXF=   240 NGYF=  200 NGZF=  288
   support grid    NGXF=   240 NGYF=  200 NGZF=  288
   ions per type =               1
   NGX,Y,Z   is equivalent  to a cutoff of  13.29, 13.29, 13.29 a.u.
   NGXF,Y,Z  is equivalent  to a cutoff of  26.58, 26.58, 26.58 a.u.

 SYSTEM =  Convergence                             
 POSCAR =  o-B14

 Startparameter for this run:
   NWRITE =      2    write-flag & timer
   PREC   = accura    normal or accurate (medium, high low for compatibility)
   ISTART =      0    job   : 0-new  1-cont  2-samecut
   ICHARG =      2    charge: 1-file 2-atom 10-const
   ISPIN  =      1    spin polarized calculation?
   LNONCOLLINEAR =      F non collinear calculations
   LSORBIT =      F    spin-orbit coupling
   INIWAV =      1    electr: 0-lowe 1-rand  2-diag
   LASPH  =      F    aspherical Exc in radial PAW
 Electronic Relaxation 1
   ENCUT  =  600.0 eV  44.10 Ry    6.64 a.u.  29.98 24.99 35.98*2*pi/ulx,y,z
   ENINI  =  600.0     initial cutoff
   ENAUG  =  535.5 eV  augmentation charge cutoff
   NELM   =    100;   NELMIN=  2; NELMDL= -5     # of ELM steps 
   EDIFF  = 0.1E-05   stopping-criterion for ELM
   LREAL  =      F    real-space projection
   NLSPLINE    = F    spline interpolate recip. space projectors
   LCOMPAT=      F    compatible to vasp.4.4
   GGA_COMPAT  = T    GGA compatible to vasp.4.4-vasp.4.6
   LMAXPAW     = -100 max onsite density
   LMAXMIX     =    2 max onsite mixed and CHGCAR
   VOSKOWN=      0    Vosko Wilk Nusair interpolation
   ROPT   =    0.00000
 Ionic relaxation
   EDIFFG = -.1E-02   stopping-criterion for IOM
   NSW    =      0    number of steps for IOM
   NBLOCK =      1;   KBLOCK =      1    inner block; outer block 
   IBRION =     -1    ionic relax: 0-MD 1-quasi-New 2-CG
   NFREE  =      0    steps in history (QN), initial steepest desc. (CG)
   ISIF   =      2    stress and relaxation
   IWAVPR =     10    prediction:  0-non 1-charg 2-wave 3-comb
   ISYM   =      2    0-nonsym 1-usesym 2-fastsym
   LCORR  =      T    Harris-Foulkes like correction to forces

   POTIM  = 0.5000    time-step for ionic-motion
   TEIN   =    0.0    initial temperature
   TEBEG  =    0.0;   TEEND  =   0.0 temperature during run
   SMASS  =  -3.00    Nose mass-parameter (am)
   estimated Nose-frequenzy (Omega)   =  0.10E-29 period in steps = 0.13E+47 mass=  -0.515E-26a.u.
   SCALEE = 1.0000    scale energy and forces
   NPACO  =    256;   APACO  = 10.0  distance and # of slots for P.C.
   PSTRESS=    0.0 pullay stress

  Mass of Ions in am
   POMASS =  10.81
  Ionic Valenz
   ZVAL   =   3.00
  Atomic Wigner-Seitz radii
   RWIGS  =  -1.00
  virtual crystal weights 
   VCA    =   1.00
   NELECT =       3.0000    total number of electrons
   NUPDOWN=      -1.0000    fix difference up-down

 DOS related values:
   EMIN   =  10.00;   EMAX   =-10.00  energy-range for DOS
   EFERMI =   0.00;   METHOD = LEGACY      
   ISMEAR =     0;   SIGMA  =   0.05  broadening in eV -4-tet -1-fermi 0-gaus

 Electronic relaxation 2 (details)
   IALGO  =     38    algorithm
   LDIAG  =      T    sub-space diagonalisation (order eigenvalues)
   LSUBROT=      F    optimize rotation matrix (better conditioning)
   TURBO    =      0    0=normal 1=particle mesh
   IRESTART =      0    0=no restart 2=restart with 2 vectors
   NREBOOT  =      0    no. of reboots
   NMIN     =      0    reboot dimension
   EREF     =   0.00    reference energy to select bands
   IMIX   =      4    mixing-type and parameters
     AMIX     =   0.40;   BMIX     =  1.00
     AMIX_MAG =   1.60;   BMIX_MAG =  1.00
     AMIN     =   0.10
     WC   =   100.;   INIMIX=   1;  MIXPRE=   1;  MAXMIX= -45

 Intra band minimization:
   WEIMIN = 0.0000     energy-eigenvalue tresh-hold
   EBREAK =  0.10E-07  absolut break condition
   DEPER  =   0.30     relativ break condition  

   TIME   =   0.40     timestep for ELM

  volume/ion in A,a.u.               =    3383.11     22830.33
  Fermi-wavevector in a.u.,A,eV,Ry     =   0.157281  0.297218  0.336572  0.024737
  Thomas-Fermi vector in A             =   0.845653
 
 Write flags
   LWAVE        =      F    write WAVECAR
   LDOWNSAMPLE  =      F    k-point downsampling of WAVECAR
   LCHARG       =      F    write CHGCAR
   LVTOT        =      F    write LOCPOT, total local potential
   LVHAR        =      F    write LOCPOT, Hartree potential only
   WRT_POTENTIAL= false  ! write potential to hdf5 file
   LELF         =      F    write electronic localiz. function (ELF)
   LORBIT       =      0    0 simple, 1 ext, 2 COOP (PROOUT), +10 PAW based schemes


 Dipole corrections
   LMONO      =      F    monopole corrections only (constant potential shift)
   LDIPOL     =      F    correct potential (dipole corrections)
   IDIPOL     =      0    1-x, 2-y, 3-z, 4-all directions 
   EPSILON    =  1.0000000 bulk dielectric constant
   LVACPOTAV  =      F  vacuum potentials using an averaging scheme for the charge density
   VACPOTFLAT =  0.1000000 required flatness to determine vacuum potential
 Exchange correlation treatment:
   GGA     = PE    functional components
   XC_C    = 1    coefficients multiplying the functional components
   LIBXC   =     F    Libxc                    
   VOSKOWN =     0    Vosko Wilk Nusair interpolation
   LHFCALC =     F    Hartree Fock is set to
   LHFONE  =     F    Hartree Fock one center treatment
   AEXX    =    0.0000 exact exchange contribution

 Parameters of functionals:
   PE:
     No parameter
 
 Van der Waals corrections
   IVDW    =     0    specifies the selected vdW correction

 Linear response parameters
   LEPSILON=     F    determine dielectric tensor
   LRPA    =     F    only Hartree local field effects (RPA)
   LNABLA  =     F    use nabla operator in PAW spheres
   LVEL    =     F    velocity operator in full k-point grid
   CSHIFT  =0.1000    complex shift for real part using Kramers Kronig
   OMEGAMAX=  -1.0    maximum frequency
   DEG_THRESHOLD= 0.2000000E-02 threshold for treating states as degnerate
   RTIME   =   -0.100 relaxation time in fs
  (WPLASMAI=    0.000 imaginary part of plasma frequency in eV, 0.658/RTIME)
   DFIELD  = 0.0000000 0.0000000 0.0000000 field for delta impulse in time
 
  Optional k-point grid parameters
   LKPOINTS_OPT  =     F    use optional k-point grid
   KPOINTS_OPT_MODE=     1    mode for optional k-point grid
 
 Orbital magnetization related:
   ORBITALMAG=     F  switch on orbital magnetization
   LCHIMAG   =     F  perturbation theory with respect to B field
   DQ        =  0.001000  dq finite difference perturbation B field
   LLRAUG    =     F  two centre corrections for induced B field
   LBONE     =     F  B-component reconstruction in AE one-centre
   LVGVCALC  =     T  calculate vGv susceptibility
   LVGVAPPL  =     F  apply vGv susceptibility instead of pGv for G=0

 Random number generation:
   RANDOM_GENERATOR = DEFAULT
   PCG_SEED         = not used


--------------------------------------------------------------------------------------------------------


 Static calculation
 charge density and potential will be updated during run
 non-spin polarized calculation
 Variant of blocked Davidson
 Davidson routine will perform the subspace rotation
 perform sub-space diagonalisation
    after iterative eigenvector-optimisation
 modified Broyden-mixing scheme, WC =      100.0
 initial mixing is a Kerker type mixing with AMIX =  0.4000 and BMIX =      1.0000
 Hartree-type preconditioning will be used
 using additional bands           22
 reciprocal scheme for non local part
 use partial core corrections
 calculate Harris-corrections to forces 
   (improved forces if not selfconsistent)
 use gradient corrections 
 use of overlap-Matrix (Vanderbilt PP)
 Gauss-broadening in eV      SIGMA  =   0.05


--------------------------------------------------------------------------------------------------------


  energy-cutoff  :      600.00
  volume of cell :     3383.11
      direct lattice vectors                 reciprocal lattice vectors
    15.012000000  0.000000000  0.000000000     0.066613376  0.000000000  0.000000000
     0.000000000 12.510000000  0.000000000     0.000000000  0.079936051  0.000000000
     0.000000000  0.000000000 18.014400000     0.000000000  0.000000000  0.055511147

  length of vectors
    15.012000000 12.510000000 18.014400000     0.066613376  0.079936051  0.055511147


 
 k-points in units of 2pi/SCALE and weight: k-points                                
   0.00333333  0.00285714  0.00000000       0.003
   0.01000000  0.00285714  0.00000000       0.003
   0.01666667  0.00285714  0.00000000       0.003
   0.02333333  0.00285714  0.00000000       0.003
   0.03000000  0.00285714  0.00000000       0.003
   0.00333333  0.00857143  0.00000000       0.003
   0.01000000  0.00857143  0.00000000       0.003
   0.01666667  0.00857143  0.00000000       0.003
   0.02333333  0.00857143  0.00000000       0.003
   0.03000000  0.00857143  0.00000000       0.003
   0.00333333  0.01428571  0.00000000       0.003
   0.01000000  0.01428571  0.00000000       0.003
   0.01666667  0.01428571  0.00000000       0.003
   0.02333333  0.01428571  0.00000000       0.003
   0.03000000  0.01428571  0.00000000       0.003
   0.00333333  0.02000000  0.00000000       0.003
   0.01000000  0.02000000  0.00000000       0.003
   0.01666667  0.02000000  0.00000000       0.003
   0.02333333  0.02000000  0.00000000       0.003
   0.03000000  0.02000000  0.00000000       0.003
   0.00333333  0.02571429  0.00000000       0.003
   0.01000000  0.02571429  0.00000000       0.003
   0.01666667  0.02571429  0.00000000       0.003
   0.02333333  0.02571429  0.00000000       0.003
   0.03000000  0.02571429  0.00000000       0.003
   0.00333333  0.03142857  0.00000000       0.003
   0.01000000  0.03142857  0.00000000       0.003
   0.01666667  0.03142857  0.00000000       0.003
   0.02333333  0.03142857  0.00000000       0.003
   0.03000000  0.03142857  0.00000000       0.003
   0.00333333  0.03714286  0.00000000       0.003
   0.01000000  0.03714286  0.00000000       0.003
   0.01666667  0.03714286  0.00000000       0.003
   0.02333333  0.03714286  0.00000000       0.003
   0.03000000  0.03714286  0.00000000       0.003
   0.00333333  0.00285714  0.00617284       0.006
   0.01000000  0.00285714  0.00617284       0.006
   0.01666667  0.00285714  0.00617284       0.006
   0.02333333  0.00285714  0.00617284       0.006
   0.03000000  0.00285714  0.00617284       0.006
   0.00333333  0.00857143  0.00617284       0.006
   0.01000000  0.00857143  0.00617284       0.006
   0.01666667  0.00857143  0.00617284       0.006
   0.02333333  0.00857143  0.00617284       0.006
   0.03000000  0.00857143  0.00617284       0.006
   0.00333333  0.01428571  0.00617284       0.006
   0.01000000  0.01428571  0.00617284       0.006
   0.01666667  0.01428571  0.00617284       0.006
   0.02333333  0.01428571  0.00617284       0.006
   0.03000000  0.01428571  0.00617284       0.006
   0.00333333  0.02000000  0.00617284       0.006
   0.01000000  0.02000000  0.00617284       0.006
   0.01666667  0.02000000  0.00617284       0.006
   0.02333333  0.02000000  0.00617284       0.006
   0.03000000  0.02000000  0.00617284       0.006
   0.00333333  0.02571429  0.00617284       0.006
   0.01000000  0.02571429  0.00617284       0.006
   0.01666667  0.02571429  0.00617284       0.006
   0.02333333  0.02571429  0.00617284       0.006
   0.03000000  0.02571429  0.00617284       0.006
   0.00333333  0.03142857  0.00617284       0.006
   0.01000000  0.03142857  0.00617284       0.006
   0.01666667  0.03142857  0.00617284       0.006
   0.02333333  0.03142857  0.00617284       0.006
   0.03000000  0.03142857  0.00617284       0.006
   0.00333333  0.03714286  0.00617284       0.006
   0.01000000  0.03714286  0.00617284       0.006
   0.01666667  0.03714286  0.00617284       0.006
   0.02333333  0.03714286  0.00617284       0.006
   0.03000000  0.03714286  0.00617284       0.006
   0.00333333  0.00285714  0.01234568       0.006
   0.01000000  0.00285714  0.01234568       0.006
   0.01666667  0.00285714  0.01234568       0.006
   0.02333333  0.00285714  0.01234568       0.006
   0.03000000  0.00285714  0.01234568       0.006
   0.00333333  0.00857143  0.01234568       0.006
   0.01000000  0.00857143  0.01234568       0.006
   0.01666667  0.00857143  0.01234568       0.006
   0.02333333  0.00857143  0.01234568       0.006
   0.03000000  0.00857143  0.01234568       0.006
   0.00333333  0.01428571  0.01234568       0.006
   0.01000000  0.01428571  0.01234568       0.006
   0.01666667  0.01428571  0.01234568       0.006
   0.02333333  0.01428571  0.01234568       0.006
   0.03000000  0.01428571  0.01234568       0.006
   0.00333333  0.02000000  0.01234568       0.006
   0.01000000  0.02000000  0.01234568       0.006
   0.01666667  0.02000000  0.01234568       0.006
   0.02333333  0.02000000  0.01234568       0.006
   0.03000000  0.02000000  0.01234568       0.006
   0.00333333  0.02571429  0.01234568       0.006
   0.01000000  0.02571429  0.01234568       0.006
   0.01666667  0.02571429  0.01234568       0.006
   0.02333333  0.02571429  0.01234568       0.006
   0.03000000  0.02571429  0.01234568       0.006
   0.00333333  0.03142857  0.01234568       0.006
   0.01000000  0.03142857  0.01234568       0.006
   0.01666667  0.03142857  0.01234568       0.006
   0.02333333  0.03142857  0.01234568       0.006
   0.03000000  0.03142857  0.01234568       0.006
   0.00333333  0.03714286  0.01234568       0.006
   0.01000000  0.03714286  0.01234568       0.006
   0.01666667  0.03714286  0.01234568       0.006
   0.02333333  0.03714286  0.01234568       0.006
   0.03000000  0.03714286  0.01234568       0.006
   0.00333333  0.00285714  0.01851852       0.006
   0.01000000  0.00285714  0.01851852       0.006
   0.01666667  0.00285714  0.01851852       0.006
   0.02333333  0.00285714  0.01851852       0.006
   0.03000000  0.00285714  0.01851852       0.006
   0.00333333  0.00857143  0.01851852       0.006
   0.01000000  0.00857143  0.01851852       0.006
   0.01666667  0.00857143  0.01851852       0.006
   0.02333333  0.00857143  0.01851852       0.006
   0.03000000  0.00857143  0.01851852       0.006
   0.00333333  0.01428571  0.01851852       0.006
   0.01000000  0.01428571  0.01851852       0.006
   0.01666667  0.01428571  0.01851852       0.006
   0.02333333  0.01428571  0.01851852       0.006
   0.03000000  0.01428571  0.01851852       0.006
   0.00333333  0.02000000  0.01851852       0.006
   0.01000000  0.02000000  0.01851852       0.006
   0.01666667  0.02000000  0.01851852       0.006
   0.02333333  0.02000000  0.01851852       0.006
   0.03000000  0.02000000  0.01851852       0.006
   0.00333333  0.02571429  0.01851852       0.006
   0.01000000  0.02571429  0.01851852       0.006
   0.01666667  0.02571429  0.01851852       0.006
   0.02333333  0.02571429  0.01851852       0.006
   0.03000000  0.02571429  0.01851852       0.006
   0.00333333  0.03142857  0.01851852       0.006
   0.01000000  0.03142857  0.01851852       0.006
   0.01666667  0.03142857  0.01851852       0.006
   0.02333333  0.03142857  0.01851852       0.006
   0.03000000  0.03142857  0.01851852       0.006
   0.00333333  0.03714286  0.01851852       0.006
   0.01000000  0.03714286  0.01851852       0.006
   0.01666667  0.03714286  0.01851852       0.006
   0.02333333  0.03714286  0.01851852       0.006
   0.03000000  0.03714286  0.01851852       0.006
   0.00333333  0.00285714  0.02469136       0.006
   0.01000000  0.00285714  0.02469136       0.006
   0.01666667  0.00285714  0.02469136       0.006
   0.02333333  0.00285714  0.02469136       0.006
   0.03000000  0.00285714  0.02469136       0.006
   0.00333333  0.00857143  0.02469136       0.006
   0.01000000  0.00857143  0.02469136       0.006
   0.01666667  0.00857143  0.02469136       0.006
   0.02333333  0.00857143  0.02469136       0.006
   0.03000000  0.00857143  0.02469136       0.006
   0.00333333  0.01428571  0.02469136       0.006
   0.01000000  0.01428571  0.02469136       0.006
   0.01666667  0.01428571  0.02469136       0.006
   0.02333333  0.01428571  0.02469136       0.006
   0.03000000  0.01428571  0.02469136       0.006
   0.00333333  0.02000000  0.02469136       0.006
   0.01000000  0.02000000  0.02469136       0.006
   0.01666667  0.02000000  0.02469136       0.006
   0.02333333  0.02000000  0.02469136       0.006
   0.03000000  0.02000000  0.02469136       0.006
   0.00333333  0.02571429  0.02469136       0.006
   0.01000000  0.02571429  0.02469136       0.006
   0.01666667  0.02571429  0.02469136       0.006
   0.02333333  0.02571429  0.02469136       0.006
   0.03000000  0.02571429  0.02469136       0.006
   0.00333333  0.03142857  0.02469136       0.006
   0.01000000  0.03142857  0.02469136       0.006
   0.01666667  0.03142857  0.02469136       0.006
   0.02333333  0.03142857  0.02469136       0.006
   0.03000000  0.03142857  0.02469136       0.006
   0.00333333  0.03714286  0.02469136       0.006
   0.01000000  0.03714286  0.02469136       0.006
   0.01666667  0.03714286  0.02469136       0.006
   0.02333333  0.03714286  0.02469136       0.006
   0.03000000  0.03714286  0.02469136       0.006
 
 k-points in reciprocal lattice and weights: k-points                                
   0.05000000  0.03571429  0.00000000       0.003
   0.15000000  0.03571429  0.00000000       0.003
   0.25000000  0.03571429  0.00000000       0.003
   0.35000000  0.03571429  0.00000000       0.003
   0.45000000  0.03571429  0.00000000       0.003
   0.05000000  0.10714286  0.00000000       0.003
   0.15000000  0.10714286  0.00000000       0.003
   0.25000000  0.10714286  0.00000000       0.003
   0.35000000  0.10714286  0.00000000       0.003
   0.45000000  0.10714286  0.00000000       0.003
   0.05000000  0.17857143  0.00000000       0.003
   0.15000000  0.17857143  0.00000000       0.003
   0.25000000  0.17857143  0.00000000       0.003
   0.35000000  0.17857143  0.00000000       0.003
   0.45000000  0.17857143  0.00000000       0.003
   0.05000000  0.25000000  0.00000000       0.003
   0.15000000  0.25000000  0.00000000       0.003
   0.25000000  0.25000000  0.00000000       0.003
   0.35000000  0.25000000  0.00000000       0.003
   0.45000000  0.25000000  0.00000000       0.003
   0.05000000  0.32142857  0.00000000       0.003
   0.15000000  0.32142857  0.00000000       0.003
   0.25000000  0.32142857  0.00000000       0.003
   0.35000000  0.32142857  0.00000000       0.003
   0.45000000  0.32142857  0.00000000       0.003
   0.05000000  0.39285714  0.00000000       0.003
   0.15000000  0.39285714  0.00000000       0.003
   0.25000000  0.39285714  0.00000000       0.003
   0.35000000  0.39285714  0.00000000       0.003
   0.45000000  0.39285714  0.00000000       0.003
   0.05000000  0.46428571  0.00000000       0.003
   0.15000000  0.46428571  0.00000000       0.003
   0.25000000  0.46428571  0.00000000       0.003
   0.35000000  0.46428571  0.00000000       0.003
   0.45000000  0.46428571  0.00000000       0.003
   0.05000000  0.03571429  0.11111111       0.006
   0.15000000  0.03571429  0.11111111       0.006
   0.25000000  0.03571429  0.11111111       0.006
   0.35000000  0.03571429  0.11111111       0.006
   0.45000000  0.03571429  0.11111111       0.006
   0.05000000  0.10714286  0.11111111       0.006
   0.15000000  0.10714286  0.11111111       0.006
   0.25000000  0.10714286  0.11111111       0.006
   0.35000000  0.10714286  0.11111111       0.006
   0.45000000  0.10714286  0.11111111       0.006
   0.05000000  0.17857143  0.11111111       0.006
   0.15000000  0.17857143  0.11111111       0.006
   0.25000000  0.17857143  0.11111111       0.006
   0.35000000  0.17857143  0.11111111       0.006
   0.45000000  0.17857143  0.11111111       0.006
   0.05000000  0.25000000  0.11111111       0.006
   0.15000000  0.25000000  0.11111111       0.006
   0.25000000  0.25000000  0.11111111       0.006
   0.35000000  0.25000000  0.11111111       0.006
   0.45000000  0.25000000  0.11111111       0.006
   0.05000000  0.32142857  0.11111111       0.006
   0.15000000  0.32142857  0.11111111       0.006
   0.25000000  0.32142857  0.11111111       0.006
   0.35000000  0.32142857  0.11111111       0.006
   0.45000000  0.32142857  0.11111111       0.006
   0.05000000  0.39285714  0.11111111       0.006
   0.15000000  0.39285714  0.11111111       0.006
   0.25000000  0.39285714  0.11111111       0.006
   0.35000000  0.39285714  0.11111111       0.006
   0.45000000  0.39285714  0.11111111       0.006
   0.05000000  0.46428571  0.11111111       0.006
   0.15000000  0.46428571  0.11111111       0.006
   0.25000000  0.46428571  0.11111111       0.006
   0.35000000  0.46428571  0.11111111       0.006
   0.45000000  0.46428571  0.11111111       0.006
   0.05000000  0.03571429  0.22222222       0.006
   0.15000000  0.03571429  0.22222222       0.006
   0.25000000  0.03571429  0.22222222       0.006
   0.35000000  0.03571429  0.22222222       0.006
   0.45000000  0.03571429  0.22222222       0.006
   0.05000000  0.10714286  0.22222222       0.006
   0.15000000  0.10714286  0.22222222       0.006
   0.25000000  0.10714286  0.22222222       0.006
   0.35000000  0.10714286  0.22222222       0.006
   0.45000000  0.10714286  0.22222222       0.006
   0.05000000  0.17857143  0.22222222       0.006
   0.15000000  0.17857143  0.22222222       0.006
   0.25000000  0.17857143  0.22222222       0.006
   0.35000000  0.17857143  0.22222222       0.006
   0.45000000  0.17857143  0.22222222       0.006
   0.05000000  0.25000000  0.22222222       0.006
   0.15000000  0.25000000  0.22222222       0.006
   0.25000000  0.25000000  0.22222222       0.006
   0.35000000  0.25000000  0.22222222       0.006
   0.45000000  0.25000000  0.22222222       0.006
   0.05000000  0.32142857  0.22222222       0.006
   0.15000000  0.32142857  0.22222222       0.006
   0.25000000  0.32142857  0.22222222       0.006
   0.35000000  0.32142857  0.22222222       0.006
   0.45000000  0.32142857  0.22222222       0.006
   0.05000000  0.39285714  0.22222222       0.006
   0.15000000  0.39285714  0.22222222       0.006
   0.25000000  0.39285714  0.22222222       0.006
   0.35000000  0.39285714  0.22222222       0.006
   0.45000000  0.39285714  0.22222222       0.006
   0.05000000  0.46428571  0.22222222       0.006
   0.15000000  0.46428571  0.22222222       0.006
   0.25000000  0.46428571  0.22222222       0.006
   0.35000000  0.46428571  0.22222222       0.006
   0.45000000  0.46428571  0.22222222       0.006
   0.05000000  0.03571429  0.33333333       0.006
   0.15000000  0.03571429  0.33333333       0.006
   0.25000000  0.03571429  0.33333333       0.006
   0.35000000  0.03571429  0.33333333       0.006
   0.45000000  0.03571429  0.33333333       0.006
   0.05000000  0.10714286  0.33333333       0.006
   0.15000000  0.10714286  0.33333333       0.006
   0.25000000  0.10714286  0.33333333       0.006
   0.35000000  0.10714286  0.33333333       0.006
   0.45000000  0.10714286  0.33333333       0.006
   0.05000000  0.17857143  0.33333333       0.006
   0.15000000  0.17857143  0.33333333       0.006
   0.25000000  0.17857143  0.33333333       0.006
   0.35000000  0.17857143  0.33333333       0.006
   0.45000000  0.17857143  0.33333333       0.006
   0.05000000  0.25000000  0.33333333       0.006
   0.15000000  0.25000000  0.33333333       0.006
   0.25000000  0.25000000  0.33333333       0.006
   0.35000000  0.25000000  0.33333333       0.006
   0.45000000  0.25000000  0.33333333       0.006
   0.05000000  0.32142857  0.33333333       0.006
   0.15000000  0.32142857  0.33333333       0.006
   0.25000000  0.32142857  0.33333333       0.006
   0.35000000  0.32142857  0.33333333       0.006
   0.45000000  0.32142857  0.33333333       0.006
   0.05000000  0.39285714  0.33333333       0.006
   0.15000000  0.39285714  0.33333333       0.006
   0.25000000  0.39285714  0.33333333       0.006
   0.35000000  0.39285714  0.33333333       0.006
   0.45000000  0.39285714  0.33333333       0.006
   0.05000000  0.46428571  0.33333333       0.006
   0.15000000  0.46428571  0.33333333       0.006
   0.25000000  0.46428571  0.33333333       0.006
   0.35000000  0.46428571  0.33333333       0.006
   0.45000000  0.46428571  0.33333333       0.006
   0.05000000  0.03571429  0.44444444       0.006
   0.15000000  0.03571429  0.44444444       0.006
   0.25000000  0.03571429  0.44444444       0.006
   0.35000000  0.03571429  0.44444444       0.006
   0.45000000  0.03571429  0.44444444       0.006
   0.05000000  0.10714286  0.44444444       0.006
   0.15000000  0.10714286  0.44444444       0.006
   0.25000000  0.10714286  0.44444444       0.006
   0.35000000  0.10714286  0.44444444       0.006
   0.45000000  0.10714286  0.44444444       0.006
   0.05000000  0.17857143  0.44444444       0.006
   0.15000000  0.17857143  0.44444444       0.006
   0.25000000  0.17857143  0.44444444       0.006
   0.35000000  0.17857143  0.44444444       0.006
   0.45000000  0.17857143  0.44444444       0.006
   0.05000000  0.25000000  0.44444444       0.006
   0.15000000  0.25000000  0.44444444       0.006
   0.25000000  0.25000000  0.44444444       0.006
   0.35000000  0.25000000  0.44444444       0.006
   0.45000000  0.25000000  0.44444444       0.006
   0.05000000  0.32142857  0.44444444       0.006
   0.15000000  0.32142857  0.44444444       0.006
   0.25000000  0.32142857  0.44444444       0.006
   0.35000000  0.32142857  0.44444444       0.006
   0.45000000  0.32142857  0.44444444       0.006
   0.05000000  0.39285714  0.44444444       0.006
   0.15000000  0.39285714  0.44444444       0.006
   0.25000000  0.39285714  0.44444444       0.006
   0.35000000  0.39285714  0.44444444       0.006
   0.45000000  0.39285714  0.44444444       0.006
   0.05000000  0.46428571  0.44444444       0.006
   0.15000000  0.46428571  0.44444444       0.006
   0.25000000  0.46428571  0.44444444       0.006
   0.35000000  0.46428571  0.44444444       0.006
   0.45000000  0.46428571  0.44444444       0.006
 
 position of ions in fractional coordinates (direct lattice) 
   0.52123000  0.54500000  0.63796000
 
 position of ions in cartesian coordinates  (Angst):
   7.82470476  6.81795000 11.49246662
 


--------------------------------------------------------------------------------------------------------


 k-point     1 :   0.0500 0.0357 0.0000  plane waves:  112711
 k-point     2 :   0.1500 0.0357 0.0000  plane waves:  112841
 k-point     3 :   0.2500 0.0357 0.0000  plane waves:  112861
 k-point     4 :   0.3500 0.0357 0.0000  plane waves:  112906
 k-point     5 :   0.4500 0.0357 0.0000  plane waves:  112840
 k-point     6 :   0.0500 0.1071 0.0000  plane waves:  112776
 k-point     7 :   0.1500 0.1071 0.0000  plane waves:  112836
 k-point     8 :   0.2500 0.1071 0.0000  plane waves:  112875
 k-point     9 :   0.3500 0.1071 0.0000  plane waves:  112918
 k-point    10 :   0.4500 0.1071 0.0000  plane waves:  112920
 k-point    11 :   0.0500 0.1786 0.0000  plane waves:  112780
 k-point    12 :   0.1500 0.1786 0.0000  plane waves:  112824
 k-point    13 :   0.2500 0.1786 0.0000  plane waves:  112880
 k-point    14 :   0.3500 0.1786 0.0000  plane waves:  112893
 k-point    15 :   0.4500 0.1786 0.0000  plane waves:  112964
 k-point    16 :   0.0500 0.2500 0.0000  plane waves:  112829
 k-point    17 :   0.1500 0.2500 0.0000  plane waves:  112828
 k-point    18 :   0.2500 0.2500 0.0000  plane waves:  112874
 k-point    19 :   0.3500 0.2500 0.0000  plane waves:  112917
 k-point    20 :   0.4500 0.2500 0.0000  plane waves:  112898
 k-point    21 :   0.0500 0.3214 0.0000  plane waves:  112890
 k-point    22 :   0.1500 0.3214 0.0000  plane waves:  112861
 k-point    23 :   0.2500 0.3214 0.0000  plane waves:  112886
 k-point    24 :   0.3500 0.3214 0.0000  plane waves:  112931
 k-point    25 :   0.4500 0.3214 0.0000  plane waves:  112926
 k-point    26 :   0.0500 0.3929 0.0000  plane waves:  112932
 k-point    27 :   0.1500 0.3929 0.0000  plane waves:  112939
 k-point    28 :   0.2500 0.3929 0.0000  plane waves:  112897
 k-point    29 :   0.3500 0.3929 0.0000  plane waves:  112907
 k-point    30 :   0.4500 0.3929 0.0000  plane waves:  112917
 k-point    31 :   0.0500 0.4643 0.0000  plane waves:  112948
 k-point    32 :   0.1500 0.4643 0.0000  plane waves:  112972
 k-point    33 :   0.2500 0.4643 0.0000  plane waves:  112912
 k-point    34 :   0.3500 0.4643 0.0000  plane waves:  112888
 k-point    35 :   0.4500 0.4643 0.0000  plane waves:  112891
 k-point    36 :   0.0500 0.0357 0.1111  plane waves:  112807
 k-point    37 :   0.1500 0.0357 0.1111  plane waves:  112843
 k-point    38 :   0.2500 0.0357 0.1111  plane waves:  112890
 k-point    39 :   0.3500 0.0357 0.1111  plane waves:  112878
 k-point    40 :   0.4500 0.0357 0.1111  plane waves:  112878
 k-point    41 :   0.0500 0.1071 0.1111  plane waves:  112788
 k-point    42 :   0.1500 0.1071 0.1111  plane waves:  112846
 k-point    43 :   0.2500 0.1071 0.1111  plane waves:  112895
 k-point    44 :   0.3500 0.1071 0.1111  plane waves:  112924
 k-point    45 :   0.4500 0.1071 0.1111  plane waves:  112927
 k-point    46 :   0.0500 0.1786 0.1111  plane waves:  112834
 k-point    47 :   0.1500 0.1786 0.1111  plane waves:  112869
 k-point    48 :   0.2500 0.1786 0.1111  plane waves:  112876
 k-point    49 :   0.3500 0.1786 0.1111  plane waves:  112919
 k-point    50 :   0.4500 0.1786 0.1111  plane waves:  112921
 k-point    51 :   0.0500 0.2500 0.1111  plane waves:  112866
 k-point    52 :   0.1500 0.2500 0.1111  plane waves:  112892
 k-point    53 :   0.2500 0.2500 0.1111  plane waves:  112885
 k-point    54 :   0.3500 0.2500 0.1111  plane waves:  112908
 k-point    55 :   0.4500 0.2500 0.1111  plane waves:  112905
 k-point    56 :   0.0500 0.3214 0.1111  plane waves:  112902
 k-point    57 :   0.1500 0.3214 0.1111  plane waves:  112895
 k-point    58 :   0.2500 0.3214 0.1111  plane waves:  112906
 k-point    59 :   0.3500 0.3214 0.1111  plane waves:  112908
 k-point    60 :   0.4500 0.3214 0.1111  plane waves:  112911
 k-point    61 :   0.0500 0.3929 0.1111  plane waves:  112908
 k-point    62 :   0.1500 0.3929 0.1111  plane waves:  112909
 k-point    63 :   0.2500 0.3929 0.1111  plane waves:  112919
 k-point    64 :   0.3500 0.3929 0.1111  plane waves:  112911
 k-point    65 :   0.4500 0.3929 0.1111  plane waves:  112908
 k-point    66 :   0.0500 0.4643 0.1111  plane waves:  112919
 k-point    67 :   0.1500 0.4643 0.1111  plane waves:  112943
 k-point    68 :   0.2500 0.4643 0.1111  plane waves:  112942
 k-point    69 :   0.3500 0.4643 0.1111  plane waves:  112922
 k-point    70 :   0.4500 0.4643 0.1111  plane waves:  112896
 k-point    71 :   0.0500 0.0357 0.2222  plane waves:  112823
 k-point    72 :   0.1500 0.0357 0.2222  plane waves:  112853
 k-point    73 :   0.2500 0.0357 0.2222  plane waves:  112887
 k-point    74 :   0.3500 0.0357 0.2222  plane waves:  112890
 k-point    75 :   0.4500 0.0357 0.2222  plane waves:  112922
 k-point    76 :   0.0500 0.1071 0.2222  plane waves:  112844
 k-point    77 :   0.1500 0.1071 0.2222  plane waves:  112881
 k-point    78 :   0.2500 0.1071 0.2222  plane waves:  112893
 k-point    79 :   0.3500 0.1071 0.2222  plane waves:  112897
 k-point    80 :   0.4500 0.1071 0.2222  plane waves:  112906
 k-point    81 :   0.0500 0.1786 0.2222  plane waves:  112869
 k-point    82 :   0.1500 0.1786 0.2222  plane waves:  112875
 k-point    83 :   0.2500 0.1786 0.2222  plane waves:  112899
 k-point    84 :   0.3500 0.1786 0.2222  plane waves:  112930
 k-point    85 :   0.4500 0.1786 0.2222  plane waves:  112914
 k-point    86 :   0.0500 0.2500 0.2222  plane waves:  112905
 k-point    87 :   0.1500 0.2500 0.2222  plane waves:  112903
 k-point    88 :   0.2500 0.2500 0.2222  plane waves:  112925
 k-point    89 :   0.3500 0.2500 0.2222  plane waves:  112904
 k-point    90 :   0.4500 0.2500 0.2222  plane waves:  112913
 k-point    91 :   0.0500 0.3214 0.2222  plane waves:  112903
 k-point    92 :   0.1500 0.3214 0.2222  plane waves:  112921
 k-point    93 :   0.2500 0.3214 0.2222  plane waves:  112925
 k-point    94 :   0.3500 0.3214 0.2222  plane waves:  112913
 k-point    95 :   0.4500 0.3214 0.2222  plane waves:  112902
 k-point    96 :   0.0500 0.3929 0.2222  plane waves:  112910
 k-point    97 :   0.1500 0.3929 0.2222  plane waves:  112924
 k-point    98 :   0.2500 0.3929 0.2222  plane waves:  112940
 k-point    99 :   0.3500 0.3929 0.2222  plane waves:  112929
 k-point   100 :   0.4500 0.3929 0.2222  plane waves:  112912
 k-point   101 :   0.0500 0.4643 0.2222  plane waves:  112914
 k-point   102 :   0.1500 0.4643 0.2222  plane waves:  112955
 k-point   103 :   0.2500 0.4643 0.2222  plane waves:  112918
 k-point   104 :   0.3500 0.4643 0.2222  plane waves:  112925
 k-point   105 :   0.4500 0.4643 0.2222  plane waves:  112912
 k-point   106 :   0.0500 0.0357 0.3333  plane waves:  112846
 k-point   107 :   0.1500 0.0357 0.3333  plane waves:  112856
 k-point   108 :   0.2500 0.0357 0.3333  plane waves:  112873
 k-point   109 :   0.3500 0.0357 0.3333  plane waves:  112892
 k-point   110 :   0.4500 0.0357 0.3333  plane waves:  112898
 k-point   111 :   0.0500 0.1071 0.3333  plane waves:  112869
 k-point   112 :   0.1500 0.1071 0.3333  plane waves:  112876
 k-point   113 :   0.2500 0.1071 0.3333  plane waves:  112909
 k-point   114 :   0.3500 0.1071 0.3333  plane waves:  112903
 k-point   115 :   0.4500 0.1071 0.3333  plane waves:  112909
 k-point   116 :   0.0500 0.1786 0.3333  plane waves:  112898
 k-point   117 :   0.1500 0.1786 0.3333  plane waves:  112864
 k-point   118 :   0.2500 0.1786 0.3333  plane waves:  112916
 k-point   119 :   0.3500 0.1786 0.3333  plane waves:  112918
 k-point   120 :   0.4500 0.1786 0.3333  plane waves:  112914
 k-point   121 :   0.0500 0.2500 0.3333  plane waves:  112896
 k-point   122 :   0.1500 0.2500 0.3333  plane waves:  112899
 k-point   123 :   0.2500 0.2500 0.3333  plane waves:  112927
 k-point   124 :   0.3500 0.2500 0.3333  plane waves:  112920
 k-point   125 :   0.4500 0.2500 0.3333  plane waves:  112947
 k-point   126 :   0.0500 0.3214 0.3333  plane waves:  112934
 k-point   127 :   0.1500 0.3214 0.3333  plane waves:  112932
 k-point   128 :   0.2500 0.3214 0.3333  plane waves:  112929
 k-point   129 :   0.3500 0.3214 0.3333  plane waves:  112934
 k-point   130 :   0.4500 0.3214 0.3333  plane waves:  112944
 k-point   131 :   0.0500 0.3929 0.3333  plane waves:  112924
 k-point   132 :   0.1500 0.3929 0.3333  plane waves:  112921
 k-point   133 :   0.2500 0.3929 0.3333  plane waves:  112917
 k-point   134 :   0.3500 0.3929 0.3333  plane waves:  112923
 k-point   135 :   0.4500 0.3929 0.3333  plane waves:  112945
 k-point   136 :   0.0500 0.4643 0.3333  plane waves:  112905
 k-point   137 :   0.1500 0.4643 0.3333  plane waves:  112916
 k-point   138 :   0.2500 0.4643 0.3333  plane waves:  112897
 k-point   139 :   0.3500 0.4643 0.3333  plane waves:  112939
 k-point   140 :   0.4500 0.4643 0.3333  plane waves:  112934
 k-point   141 :   0.0500 0.0357 0.4444  plane waves:  112830
 k-point   142 :   0.1500 0.0357 0.4444  plane waves:  112864
 k-point   143 :   0.2500 0.0357 0.4444  plane waves:  112878
 k-point   144 :   0.3500 0.0357 0.4444  plane waves:  112896
 k-point   145 :   0.4500 0.0357 0.4444  plane waves:  112891
 k-point   146 :   0.0500 0.1071 0.4444  plane waves:  112871
 k-point   147 :   0.1500 0.1071 0.4444  plane waves:  112879
 k-point   148 :   0.2500 0.1071 0.4444  plane waves:  112886
 k-point   149 :   0.3500 0.1071 0.4444  plane waves:  112925
 k-point   150 :   0.4500 0.1071 0.4444  plane waves:  112898
 k-point   151 :   0.0500 0.1786 0.4444  plane waves:  112912
 k-point   152 :   0.1500 0.1786 0.4444  plane waves:  112916
 k-point   153 :   0.2500 0.1786 0.4444  plane waves:  112900
 k-point   154 :   0.3500 0.1786 0.4444  plane waves:  112914
 k-point   155 :   0.4500 0.1786 0.4444  plane waves:  112929
 k-point   156 :   0.0500 0.2500 0.4444  plane waves:  112926
 k-point   157 :   0.1500 0.2500 0.4444  plane waves:  112913
 k-point   158 :   0.2500 0.2500 0.4444  plane waves:  112904
 k-point   159 :   0.3500 0.2500 0.4444  plane waves:  112911
 k-point   160 :   0.4500 0.2500 0.4444  plane waves:  112942
 k-point   161 :   0.0500 0.3214 0.4444  plane waves:  112899
 k-point   162 :   0.1500 0.3214 0.4444  plane waves:  112933
 k-point   163 :   0.2500 0.3214 0.4444  plane waves:  112940
 k-point   164 :   0.3500 0.3214 0.4444  plane waves:  112933
 k-point   165 :   0.4500 0.3214 0.4444  plane waves:  112942
 k-point   166 :   0.0500 0.3929 0.4444  plane waves:  112921
 k-point   167 :   0.1500 0.3929 0.4444  plane waves:  112922
 k-point   168 :   0.2500 0.3929 0.4444  plane waves:  112937
 k-point   169 :   0.3500 0.3929 0.4444  plane waves:  112916
 k-point   170 :   0.4500 0.3929 0.4444  plane waves:  112947
 k-point   171 :   0.0500 0.4643 0.4444  plane waves:  112943
 k-point   172 :   0.1500 0.4643 0.4444  plane waves:  112909
 k-point   173 :   0.2500 0.4643 0.4444  plane waves:  112900
 k-point   174 :   0.3500 0.4643 0.4444  plane waves:  112920
 k-point   175 :   0.4500 0.4643 0.4444  plane waves:  112970

 maximum and minimum number of plane-waves per node :    112972   112711

 maximum number of plane-waves:    112972
 maximum index in each direction: 
   IXMAX=   29   IYMAX=   24   IZMAX=   35
   IXMIN=  -30   IYMIN=  -25   IZMIN=  -36


 serial   3D FFT for wavefunctions
 parallel 3D FFT for charge:
    minimum data exchange during FFTs selected (reduces bandwidth)


 total amount of memory used by VASP MPI-rank0  1737321. kBytes
=======================================================================

   base      :      30000. kBytes
   nonl-proj :    1267318. kBytes
   fftplans  :      26458. kBytes
   grid      :      97098. kBytes
   one-center:          3. kBytes
   wavefun   :     316444. kBytes
 
     INWAV:  cpu time      0.0000: real time      0.0001
 Broyden mixing: mesh for mixing (old mesh)
   NGX = 59   NGY = 49   NGZ = 71
  (NGX  =240   NGY  =200   NGZ  =288)
  gives a total of 205261 points

 initial charge density was supplied:
 charge density of overlapping atoms calculated
 number of electron       3.0000000 magnetization 
 keeping initial charge density in first step


--------------------------------------------------------------------------------------------------------


 Maximum index for augmentation-charges          394 (set IRDMAX)


--------------------------------------------------------------------------------------------------------


 First call to EWALD:  gamma=   0.118
 Maximum number of real-space cells 3x 3x 2
 Maximum number of reciprocal cells 3x 2x 3

    FEWALD:  cpu time      0.0025: real time      0.0027


--------------------------------------- Ionic step        1  -------------------------------------------




--------------------------------------- Iteration      1(   1)  ---------------------------------------


    POTLOK:  cpu time      0.4903: real time      0.5014
    SETDIJ:  cpu time      0.0018: real time      0.0018
     EDDAV:  cpu time     66.1916: real time     67.0004
       DOS:  cpu time      0.0060: real time      0.0067
    --------------------------------------------
      LOOP:  cpu time     66.6898: real time     67.5103

 eigenvalue-minimisations  :  8400
 total energy-change (2. order) : 0.8173941E+01  (-0.3514433E+02)
 number of electron       3.0000000 magnetization 
 augmentation part        3.0000000 magnetization 

 Free energy of the ion-electron system (eV)
  ---------------------------------------------------
  alpha Z        PSCENC =         0.02033489
  Ewald energy   TEWEN  =       -11.81956099
  -Hartree energ DENC   =       -42.59313113
  -exchange      EXHF   =         0.00000000
  -V(xc)+E(xc)   XCENC  =         4.75549673
  PAW double counting   =        43.49986551      -42.64454556
  entropy T*S    EENTRO =        -0.01051899
  eigenvalues    EBANDS =       -14.20360015
  atomic energy  EATOM  =        71.16960075
  Solvation  Ediel_sol  =         0.00000000
  ---------------------------------------------------
  free energy    TOTEN  =         8.17394105 eV

  energy without entropy =        8.18446004  energy(sigma->0) =        8.17920055


--------------------------------------------------------------------------------------------------------




--------------------------------------- Iteration      1(   2)  ---------------------------------------


     EDDAV:  cpu time    108.4058: real time    109.4463
       DOS:  cpu time      0.0015: real time      0.0016
    --------------------------------------------
      LOOP:  cpu time    108.4073: real time    109.4479

 eigenvalue-minimisations  : 16560
 total energy-change (2. order) :-0.8065159E+01  (-0.8037857E+01)
 number of electron       3.0000000 magnetization 
 augmentation part        3.0000000 magnetization 

 Free energy of the ion-electron system (eV)
  ---------------------------------------------------
  alpha Z        PSCENC =         0.02033489
  Ewald energy   TEWEN  =       -11.81956099
  -Hartree energ DENC   =       -42.59313113
  -exchange      EXHF   =         0.00000000
  -V(xc)+E(xc)   XCENC  =         4.75549673
  PAW double counting   =        43.49986551      -42.64454556
  entropy T*S    EENTRO =        -0.02819458
  eigenvalues    EBANDS =       -22.25108348
  atomic energy  EATOM  =        71.16960075
  Solvation  Ediel_sol  =         0.00000000
  ---------------------------------------------------
  free energy    TOTEN  =         0.10878213 eV

  energy without entropy =        0.13697671  energy(sigma->0) =        0.12287942


--------------------------------------------------------------------------------------------------------




--------------------------------------- Iteration      1(   3)  ---------------------------------------


     EDDAV:  cpu time     66.9525: real time     67.6667
       DOS:  cpu time      0.0016: real time      0.0016
    --------------------------------------------
      LOOP:  cpu time     66.9541: real time     67.6683

 eigenvalue-minimisations  :  8520
 total energy-change (2. order) :-0.1636443E+00  (-0.1407817E+00)
 number of electron       3.0000000 magnetization 
 augmentation part        3.0000000 magnetization 

 Free energy of the ion-electron system (eV)
  ---------------------------------------------------
  alpha Z        PSCENC =         0.02033489
  Ewald energy   TEWEN  =       -11.81956099
  -Hartree energ DENC   =       -42.59313113
  -exchange      EXHF   =         0.00000000
  -V(xc)+E(xc)   XCENC  =         4.75549673
  PAW double counting   =        43.49986551      -42.64454556
  entropy T*S    EENTRO =        -0.05285697
  eigenvalues    EBANDS =       -22.39006541
  atomic energy  EATOM  =        71.16960075
  Solvation  Ediel_sol  =         0.00000000
  ---------------------------------------------------
  free energy    TOTEN  =        -0.05486220 eV

  energy without entropy =       -0.00200522  energy(sigma->0) =       -0.02843371


--------------------------------------------------------------------------------------------------------




--------------------------------------- Iteration      1(   4)  ---------------------------------------


     EDDAV:  cpu time     72.5770: real time     73.2758
       DOS:  cpu time      0.0016: real time      0.0016
    --------------------------------------------
      LOOP:  cpu time     72.5786: real time     73.2774

 eigenvalue-minimisations  :  9528
 total energy-change (2. order) :-0.3351432E-02  (-0.3211647E-02)
 number of electron       3.0000000 magnetization 
 augmentation part        3.0000000 magnetization 

 Free energy of the ion-electron system (eV)
  ---------------------------------------------------
  alpha Z        PSCENC =         0.02033489
  Ewald energy   TEWEN  =       -11.81956099
  -Hartree energ DENC   =       -42.59313113
  -exchange      EXHF   =         0.00000000
  -V(xc)+E(xc)   XCENC  =         4.75549673
  PAW double counting   =        43.49986551      -42.64454556
  entropy T*S    EENTRO =        -0.05300131
  eigenvalues    EBANDS =       -22.39327251
  atomic energy  EATOM  =        71.16960075
  Solvation  Ediel_sol  =         0.00000000
  ---------------------------------------------------
  free energy    TOTEN  =        -0.05821363 eV

  energy without entropy =       -0.00521232  energy(sigma->0) =       -0.03171298


--------------------------------------------------------------------------------------------------------




--------------------------------------- Iteration      1(   5)  ---------------------------------------


     EDDAV:  cpu time     91.0532: real time     91.9197
       DOS:  cpu time      0.0016: real time      0.0016
    CHARGE:  cpu time      3.9281: real time      3.9560
    MIXING:  cpu time      0.0288: real time      0.0302
    --------------------------------------------
      LOOP:  cpu time     95.0117: real time     95.9075

 eigenvalue-minimisations  : 13128
 total energy-change (2. order) :-0.3854331E-04  (-0.3852767E-04)
 number of electron       2.9999999 magnetization 
 augmentation part       -0.0945935 magnetization 

 Broyden mixing:
  rms(total) = 0.84864E-03    rms(broyden)= 0.79014E-03
  rms(prec ) = 0.79428E-03
  weight for this iteration     100.00

 Free energy of the ion-electron system (eV)
  ---------------------------------------------------
  alpha Z        PSCENC =         0.02033489
  Ewald energy   TEWEN  =       -11.81956099
  -Hartree energ DENC   =       -42.59313113
  -exchange      EXHF   =         0.00000000
  -V(xc)+E(xc)   XCENC  =         4.75549673
  PAW double counting   =        43.49986551      -42.64454556
  entropy T*S    EENTRO =        -0.05300134
  eigenvalues    EBANDS =       -22.39331102
  atomic energy  EATOM  =        71.16960075
  Solvation  Ediel_sol  =         0.00000000
  ---------------------------------------------------
  free energy    TOTEN  =        -0.05825217 eV

  energy without entropy =       -0.00525083  energy(sigma->0) =       -0.03175150


--------------------------------------------------------------------------------------------------------




--------------------------------------- Iteration      1(   6)  ---------------------------------------


    POTLOK:  cpu time      0.4858: real time      0.4905
    SETDIJ:  cpu time      0.0008: real time      0.0008
     EDDAV:  cpu time     82.3173: real time     83.2461
       DOS:  cpu time      0.0020: real time      0.0020
    --------------------------------------------
      LOOP:  cpu time     82.8060: real time     83.7394

 eigenvalue-minimisations  : 11328
 total energy-change (2. order) :-0.4262590E-06  (-0.3133953E-06)
 number of electron       2.9999999 magnetization 
 augmentation part       -0.0945935 magnetization 

 Free energy of the ion-electron system (eV)
  ---------------------------------------------------
  alpha Z        PSCENC =         0.02033489
  Ewald energy   TEWEN  =       -11.81956099
  -Hartree energ DENC   =       -42.59332144
  -exchange      EXHF   =         0.00000000
  -V(xc)+E(xc)   XCENC  =         4.75548422
  PAW double counting   =        43.56786840      -42.71258086
  entropy T*S    EENTRO =        -0.05300134
  eigenvalues    EBANDS =       -22.39307623
  atomic energy  EATOM  =        71.16960075
  Solvation  Ediel_sol  =         0.00000000
  ---------------------------------------------------
  free energy    TOTEN  =        -0.05825260 eV

  energy without entropy =       -0.00525126  energy(sigma->0) =       -0.03175193


--------------------------------------------------------------------------------------------------------




 average (electrostatic) potential at core
  the test charge radii are     0.7672
  (the norm of the test charge is              1.0000)
       1 -39.4299
 
 
 
 E-fermi :  -3.6073     XC(G=0):  -0.2670     alpha+bet : -0.0328

 val. band max:       -9.4099949166   @ k =   0.0500   0.4643   0.1111
 cond. band min:      -3.5732001263   @ k =   0.0500   0.4643   0.0000
 fundamental gap:      5.8367947903
 Fermi energy:        -3.6072887501

 k-point     1 :       0.0500    0.0357    0.0000
  band No.  band energies     occupation 
      1      -9.4100      2.00000
      2      -3.5731      0.33341
      3      -3.5731      0.33330
      4      -3.5730      0.33176
      5      -0.2618      0.00000
      6       0.2936      0.00000
      7       0.3091      0.00000
      8       0.4384      0.00000
      9       0.5725      0.00000
     10       0.6854      0.00000
     11       0.8273      0.00000
     12       0.9092      0.00000
     13       0.9423      0.00000
     14       1.0341      0.00000
     15       1.0768      0.00000
     16       1.1721      0.00000
     17       1.2064      0.00000
     18       1.2875      0.00000
     19       1.3324      0.00000
     20       1.3500      0.00000
     21       1.4257      0.00000
     22       1.4960      0.00000
     23       1.5736      0.00000
     24       1.7047      0.00000

 k-point     2 :       0.1500    0.0357    0.0000
  band No.  band energies     occupation 
      1      -9.4100      2.00000
      2      -3.5731      0.33342
      3      -3.5731      0.33339
      4      -3.5730      0.33176
      5      -0.2519      0.00000
      6       0.2684      0.00000
      7       0.3203      0.00000
      8       0.3728      0.00000
      9       0.6880      0.00000
     10       0.7067      0.00000
     11       0.7995      0.00000
     12       0.8290      0.00000
     13       0.8398      0.00000
     14       1.1499      0.00000
     15       1.1629      0.00000
     16       1.1958      0.00000
     17       1.2173      0.00000
     18       1.2548      0.00000
     19       1.3296      0.00000
     20       1.3490      0.00000
     21       1.3856      0.00000
     22       1.5740      0.00000
     23       1.6351      0.00000
     24       1.6850      0.00000

 k-point     3 :       0.2500    0.0357    0.0000
  band No.  band energies     occupation 
      1      -9.4100      2.00000
      2      -3.5731      0.33346
      3      -3.5731      0.33342
      4      -3.5730      0.33176
      5      -0.2338      0.00000
      6       0.1987      0.00000
      7       0.3419      0.00000
      8       0.3747      0.00000
      9       0.7028      0.00000
     10       0.7102      0.00000
     11       0.7144      0.00000
     12       0.8528      0.00000
     13       0.8708      0.00000
     14       1.0878      0.00000
     15       1.1917      0.00000
     16       1.2319      0.00000
     17       1.2708      0.00000
     18       1.2933      0.00000
     19       1.3852      0.00000
     20       1.3964      0.00000
     21       1.4036      0.00000
     22       1.5934      0.00000
     23       1.5942      0.00000
     24       1.6469      0.00000

 k-point     4 :       0.3500    0.0357    0.0000
  band No.  band energies     occupation 
      1      -9.4100      2.00000
      2      -3.5731      0.33354
      3      -3.5731      0.33344
      4      -3.5730      0.33175
      5      -0.2116      0.00000
      6       0.1310      0.00000
      7       0.3709      0.00000
      8       0.4059      0.00000
      9       0.6233      0.00000
     10       0.6257      0.00000
     11       0.7380      0.00000
     12       0.8857      0.00000
     13       0.9995      0.00000
     14       1.0386      0.00000
     15       1.1649      0.00000
     16       1.2177      0.00000
     17       1.3048      0.00000
     18       1.3605      0.00000
     19       1.4338      0.00000
     20       1.4828      0.00000
     21       1.5029      0.00000
     22       1.5428      0.00000
     23       1.5563      0.00000
     24       1.6025      0.00000

 k-point     5 :       0.4500    0.0357    0.0000
  band No.  band energies     occupation 
      1      -9.4100      2.00000
      2      -3.5731      0.33357
      3      -3.5731      0.33342
      4      -3.5730      0.33174
      5      -0.1946      0.00000
      6       0.0899      0.00000
      7       0.3974      0.00000
      8       0.4440      0.00000
      9       0.5602      0.00000
     10       0.5716      0.00000
     11       0.7583      0.00000
     12       0.9106      0.00000
     13       0.9691      0.00000
     14       1.0993      0.00000
     15       1.2100      0.00000
     16       1.2375      0.00000
     17       1.3393      0.00000
     18       1.4010      0.00000
     19       1.4014      0.00000
     20       1.4458      0.00000
     21       1.4510      0.00000
     22       1.5130      0.00000
     23       1.5784      0.00000
     24       1.5808      0.00000

 k-point     6 :       0.0500    0.1071    0.0000
  band No.  band energies     occupation 
      1      -9.4100      2.00000
      2      -3.5731      0.33339
      3      -3.5731      0.33329
      4      -3.5730      0.33208
      5      -0.2526      0.00000
      6       0.3017      0.00000
      7       0.3180      0.00000
      8       0.4472      0.00000
      9       0.5609      0.00000
     10       0.5910      0.00000
     11       0.9167      0.00000
     12       0.9448      0.00000
     13       0.9621      0.00000
     14       1.0233      0.00000
     15       1.0827      0.00000
     16       1.0856      0.00000
     17       1.0935      0.00000
     18       1.1872      0.00000
     19       1.3319      0.00000
     20       1.4535      0.00000
     21       1.4906      0.00000
     22       1.5819      0.00000
     23       1.6353      0.00000
     24       1.6766      0.00000

 k-point     7 :       0.1500    0.1071    0.0000
  band No.  band energies     occupation 
      1      -9.4100      2.00000
      2      -3.5731      0.33340
      3      -3.5731      0.33335
      4      -3.5730      0.33208
      5      -0.2428      0.00000
      6       0.2768      0.00000
      7       0.3292      0.00000
[...]
      7       0.2986      0.00000
      8       0.5001      0.00000
      9       0.5544      0.00000
     10       0.7010      0.00000
     11       0.7507      0.00000
     12       0.8595      0.00000
     13       0.9181      0.00000
     14       0.9368      0.00000
     15       1.0420      0.00000
     16       1.0837      0.00000
     17       1.0972      0.00000
     18       1.2062      0.00000
     19       1.2879      0.00000
     20       1.4087      0.00000
     21       1.4725      0.00000
     22       1.5045      0.00000
     23       1.6344      0.00000
     24       1.6663      0.00000

 k-point   162 :       0.1500    0.3214    0.4444
  band No.  band energies     occupation 
      1      -9.4100      2.00000
      2      -3.5731      0.33406
      3      -3.5731      0.33328
      4      -3.5731      0.33321
      5      -0.1400      0.00000
      6       0.1698      0.00000
      7       0.3081      0.00000
      8       0.4527      0.00000
      9       0.5115      0.00000
     10       0.6388      0.00000
     11       0.7988      0.00000
     12       0.8506      0.00000
     13       0.9059      0.00000
     14       0.9788      0.00000
     15       1.0199      0.00000
     16       1.0949      0.00000
     17       1.1911      0.00000
     18       1.2594      0.00000
     19       1.3546      0.00000
     20       1.4048      0.00000
     21       1.4358      0.00000
     22       1.4902      0.00000
     23       1.5644      0.00000
     24       1.7055      0.00000

 k-point   163 :       0.2500    0.3214    0.4444
  band No.  band energies     occupation 
      1      -9.4100      2.00000
      2      -3.5731      0.33406
      3      -3.5731      0.33328
      4      -3.5731      0.33328
      5      -0.1237      0.00000
      6       0.1945      0.00000
      7       0.3204      0.00000
      8       0.3687      0.00000
      9       0.5179      0.00000
     10       0.5563      0.00000
     11       0.7185      0.00000
     12       0.8764      0.00000
     13       0.9310      0.00000
     14       0.9897      0.00000
     15       1.0743      0.00000
     16       1.2058      0.00000
     17       1.2708      0.00000
     18       1.2944      0.00000
     19       1.3427      0.00000
     20       1.4240      0.00000
     21       1.4483      0.00000
     22       1.5223      0.00000
     23       1.5657      0.00000
     24       1.6498      0.00000

 k-point   164 :       0.3500    0.3214    0.4444
  band No.  band energies     occupation 
      1      -9.4100      2.00000
      2      -3.5731      0.33405
      3      -3.5731      0.33335
      4      -3.5731      0.33327
      5      -0.1043      0.00000
      6       0.2296      0.00000
      7       0.2830      0.00000
      8       0.3619      0.00000
      9       0.4447      0.00000
     10       0.5782      0.00000
     11       0.6442      0.00000
     12       0.7907      0.00000
     13       0.9633      0.00000
     14       1.1098      0.00000
     15       1.1348      0.00000
     16       1.2152      0.00000
     17       1.3046      0.00000
     18       1.3475      0.00000
     19       1.3965      0.00000
     20       1.4369      0.00000
     21       1.4994      0.00000
     22       1.5248      0.00000
     23       1.5988      0.00000
     24       1.7000      0.00000

 k-point   165 :       0.4500    0.3214    0.4444
  band No.  band energies     occupation 
      1      -9.4100      2.00000
      2      -3.5731      0.33405
      3      -3.5731      0.33340
      4      -3.5731      0.33327
      5      -0.0901      0.00000
      6       0.2427      0.00000
      7       0.2717      0.00000
      8       0.3797      0.00000
      9       0.3818      0.00000
     10       0.5962      0.00000
     11       0.6192      0.00000
     12       0.7250      0.00000
     13       0.9931      0.00000
     14       1.1396      0.00000
     15       1.1438      0.00000
     16       1.2755      0.00000
     17       1.3303      0.00000
     18       1.3519      0.00000
     19       1.4704      0.00000
     20       1.4834      0.00000
     21       1.4985      0.00000
     22       1.5611      0.00000
     23       1.6228      0.00000
     24       1.6380      0.00000

 k-point   166 :       0.0500    0.3929    0.4444
  band No.  band energies     occupation 
      1      -9.4100      2.00000
      2      -3.5732      0.33463
      3      -3.5731      0.33324
      4      -3.5731      0.33312
      5      -0.1169      0.00000
      6       0.2017      0.00000
      7       0.2302      0.00000
      8       0.4172      0.00000
      9       0.5905      0.00000
     10       0.7430      0.00000
     11       0.7945      0.00000
     12       0.8486      0.00000
     13       0.9010      0.00000
     14       0.9718      0.00000
     15       0.9824      0.00000
     16       1.0202      0.00000
     17       1.1094      0.00000
     18       1.1283      0.00000
     19       1.2068      0.00000
     20       1.3378      0.00000
     21       1.5317      0.00000
     22       1.6083      0.00000
     23       1.6870      0.00000
     24       1.7135      0.00000

 k-point   167 :       0.1500    0.3929    0.4444
  band No.  band energies     occupation 
      1      -9.4100      2.00000
      2      -3.5732      0.33463
      3      -3.5731      0.33323
      4      -3.5731      0.33317
      5      -0.1081      0.00000
      6       0.2140      0.00000
      7       0.2409      0.00000
      8       0.4297      0.00000
      9       0.4903      0.00000
     10       0.6822      0.00000
     11       0.7362      0.00000
     12       0.8779      0.00000
     13       0.8958      0.00000
     14       0.9479      0.00000
     15       1.0606      0.00000
     16       1.1123      0.00000
     17       1.1423      0.00000
     18       1.1853      0.00000
     19       1.2906      0.00000
     20       1.3628      0.00000
     21       1.4343      0.00000
     22       1.5753      0.00000
     23       1.6372      0.00000
     24       1.6858      0.00000

 k-point   168 :       0.2500    0.3929    0.4444
  band No.  band energies     occupation 
      1      -9.4100      2.00000
      2      -3.5732      0.33462
      3      -3.5731      0.33324
      4      -3.5731      0.33323
      5      -0.0921      0.00000
      6       0.2381      0.00000
      7       0.2613      0.00000
      8       0.4000      0.00000
      9       0.4538      0.00000
     10       0.5830      0.00000
     11       0.6426      0.00000
     12       0.7941      0.00000
     13       0.9711      0.00000
     14       1.0262      0.00000
     15       1.1148      0.00000
     16       1.1940      0.00000
     17       1.2491      0.00000
     18       1.2756      0.00000
     19       1.3347      0.00000
     20       1.3655      0.00000
     21       1.4651      0.00000
     22       1.5045      0.00000
     23       1.5613      0.00000
     24       1.6634      0.00000

 k-point   169 :       0.3500    0.3929    0.4444
  band No.  band energies     occupation 
      1      -9.4100      2.00000
      2      -3.5732      0.33461
      3      -3.5731      0.33330
      4      -3.5731      0.33323
      5      -0.0734      0.00000
      6       0.2710      0.00000
      7       0.2881      0.00000
      8       0.3323      0.00000
      9       0.4765      0.00000
     10       0.5103      0.00000
     11       0.5664      0.00000
     12       0.7061      0.00000
     13       1.0037      0.00000
     14       1.1481      0.00000
     15       1.1717      0.00000
     16       1.2322      0.00000
     17       1.2573      0.00000
     18       1.3731      0.00000
     19       1.3897      0.00000
     20       1.4372      0.00000
     21       1.4474      0.00000
     22       1.4951      0.00000
     23       1.6165      0.00000
     24       1.6472      0.00000

 k-point   170 :       0.4500    0.3929    0.4444
  band No.  band energies     occupation 
      1      -9.4100      2.00000
      2      -3.5732      0.33461
      3      -3.5731      0.33335
      4      -3.5731      0.33323
      5      -0.0598      0.00000
      6       0.2836      0.00000
      7       0.3106      0.00000
      8       0.3186      0.00000
      9       0.4276      0.00000
     10       0.5170      0.00000
     11       0.5387      0.00000
     12       0.6388      0.00000
     13       1.0327      0.00000
     14       1.1780      0.00000
     15       1.1864      0.00000
     16       1.2593      0.00000
     17       1.3174      0.00000
     18       1.3816      0.00000
     19       1.4084      0.00000
     20       1.4390      0.00000
     21       1.5345      0.00000
     22       1.5548      0.00000
     23       1.6181      0.00000
     24       1.6466      0.00000

 k-point   171 :       0.0500    0.4643    0.4444
  band No.  band energies     occupation 
      1      -9.4100      2.00000
      2      -3.5732      0.33494
      3      -3.5731      0.33322
      4      -3.5731      0.33310
      5      -0.0939      0.00000
      6       0.1858      0.00000
      7       0.2524      0.00000
      8       0.3501      0.00000
      9       0.6202      0.00000
     10       0.7811      0.00000
     11       0.8013      0.00000
     12       0.8395      0.00000
     13       0.9224      0.00000
     14       0.9400      0.00000
     15       0.9477      0.00000
     16       1.0312      0.00000
     17       1.0690      0.00000
     18       1.1346      0.00000
     19       1.1568      0.00000
     20       1.2798      0.00000
     21       1.5641      0.00000
     22       1.6806      0.00000
     23       1.7135      0.00000
     24       1.7601      0.00000

 k-point   172 :       0.1500    0.4643    0.4444
  band No.  band energies     occupation 
      1      -9.4100      2.00000
      2      -3.5732      0.33494
      3      -3.5731      0.33321
      4      -3.5731      0.33314
      5      -0.0853      0.00000
      6       0.1968      0.00000
      7       0.2646      0.00000
      8       0.3630      0.00000
      9       0.5233      0.00000
     10       0.6848      0.00000
     11       0.7304      0.00000
     12       0.8292      0.00000
     13       0.9139      0.00000
     14       0.9841      0.00000
     15       1.0537      0.00000
     16       1.1068      0.00000
     17       1.1294      0.00000
     18       1.1871      0.00000
     19       1.2299      0.00000
     20       1.3026      0.00000
     21       1.4704      0.00000
     22       1.5996      0.00000
     23       1.6267      0.00000
     24       1.7459      0.00000

 k-point   173 :       0.2500    0.4643    0.4444
  band No.  band energies     occupation 
      1      -9.4100      2.00000
      2      -3.5732      0.33492
      3      -3.5731      0.33321
      4      -3.5731      0.33320
      5      -0.0698      0.00000
      6       0.2180      0.00000
      7       0.2885      0.00000
      8       0.3885      0.00000
      9       0.4339      0.00000
     10       0.5885      0.00000
     11       0.6319      0.00000
     12       0.7260      0.00000
     13       1.0104      0.00000
     14       1.0576      0.00000
     15       1.1343      0.00000
     16       1.1554      0.00000
     17       1.2202      0.00000
     18       1.2939      0.00000
     19       1.3078      0.00000
     20       1.3833      0.00000
     21       1.4145      0.00000
     22       1.5019      0.00000
     23       1.5408      0.00000
     24       1.6518      0.00000

 k-point   174 :       0.3500    0.4643    0.4444
  band No.  band energies     occupation 
      1      -9.4100      2.00000
      2      -3.5732      0.33492
      3      -3.5731      0.33328
      4      -3.5731      0.33320
      5      -0.0517      0.00000
      6       0.2461      0.00000
      7       0.3219      0.00000
      8       0.3656      0.00000
      9       0.4256      0.00000
     10       0.5102      0.00000
     11       0.5477      0.00000
     12       0.6363      0.00000
     13       1.0414      0.00000
     14       1.1712      0.00000
     15       1.1796      0.00000
     16       1.2148      0.00000
     17       1.2952      0.00000
     18       1.3157      0.00000
     19       1.3944      0.00000
     20       1.4204      0.00000
     21       1.4494      0.00000
     22       1.5024      0.00000
     23       1.5654      0.00000
     24       1.5822      0.00000

 k-point   175 :       0.4500    0.4643    0.4444
  band No.  band energies     occupation 
      1      -9.4100      2.00000
      2      -3.5732      0.33492
      3      -3.5731      0.33334
      4      -3.5731      0.33321
      5      -0.0388      0.00000
      6       0.2714      0.00000
      7       0.3250      0.00000
      8       0.3583      0.00000
      9       0.4545      0.00000
     10       0.4741      0.00000
     11       0.4889      0.00000
     12       0.5657      0.00000
     13       1.0688      0.00000
     14       1.2048      0.00000
     15       1.2123      0.00000
     16       1.2283      0.00000
     17       1.3390      0.00000
     18       1.3603      0.00000
     19       1.3729      0.00000
     20       1.4394      0.00000
     21       1.4928      0.00000
     22       1.5753      0.00000
     23       1.6036      0.00000
     24       1.6639      0.00000


--------------------------------------------------------------------------------------------------------


 soft charge-density along one line, spin component           1
         0         1         2         3         4         5         6         7         8         9
 total charge-density along one line
 
 pseudopotential strength for first ion, spin component:           1
  6.996  10.697  -0.000   0.000  -0.000  -0.000   0.000  -0.000
 10.697  16.352  -0.000   0.000  -0.000  -0.000   0.000  -0.000
 -0.000  -0.000  -2.483  -0.000   0.000  -4.297  -0.000   0.000
  0.000   0.000  -0.000  -2.483  -0.000  -0.000  -4.297  -0.000
 -0.000  -0.000   0.000  -0.000  -2.483   0.000  -0.000  -4.297
 -0.000  -0.000  -4.297  -0.000   0.000  -7.241  -0.000   0.000
  0.000   0.000  -0.000  -4.297  -0.000  -0.000  -7.241  -0.000
 -0.000  -0.000   0.000  -0.000  -4.297   0.000  -0.000  -7.241
 total augmentation occupancy for first ion, spin component:           1
  2.015  -0.005   0.000   0.000   0.000   0.000   0.000   0.000
 -0.005   0.000   0.000   0.000   0.000   0.000   0.000   0.000
  0.000   0.000   0.333   0.000  -0.000   0.000   0.000   0.000
  0.000   0.000   0.000   0.333   0.000   0.000   0.000   0.000
  0.000   0.000  -0.000   0.000   0.333  -0.000   0.000   0.000
  0.000   0.000   0.000   0.000  -0.000   0.000   0.000   0.000
  0.000   0.000   0.000   0.000   0.000   0.000   0.000   0.000
  0.000   0.000   0.000   0.000   0.000   0.000   0.000   0.000


------------------------ aborting loop because EDIFF is reached ----------------------------------------


    CHARGE:  cpu time      3.9164: real time      3.9373
    FORLOC:  cpu time      0.0210: real time      0.0213
    FORNL :  cpu time      1.5799: real time      1.5871
    STRESS:  cpu time     56.7268: real time     57.0290
    FORCOR:  cpu time      0.4129: real time      0.4150
    FORHAR:  cpu time      0.1108: real time      0.1115
    MIXING:  cpu time      0.0147: real time      0.0148
    OFIELD:  cpu time      0.0000: real time      0.0000

  FORCE on cell =-STRESS in cart. coord.  units (eV):
  Direction    XX          YY          ZZ          XY          YZ          ZX
  --------------------------------------------------------------------------------------
  Alpha Z     0.02033     0.02033     0.02033
  Ewald      -3.85291    -1.56150    -6.40515     0.00000    -0.00000    -0.00000
  Hartree    14.29275    16.50052    11.80106     0.00000    -0.00000    -0.00000
  E(xc)      -7.33265    -7.33265    -7.33265     0.00000     0.00000     0.00000
  Local     -32.29505   -36.79439   -27.25100    -0.00000     0.00000     0.00000
  n-local     6.85031     6.85026     6.85035    -0.00001    -0.00000    -0.00001
  augment     0.68488     0.68488     0.68490     0.00000     0.00000    -0.00000
  Kinetic    21.63137    21.63155    21.63120     0.00004     0.00001     0.00004
  Fock        0.00000     0.00000     0.00000     0.00000     0.00000     0.00000
  -------------------------------------------------------------------------------------
  Total      -0.00097    -0.00099    -0.00095     0.00000     0.00000     0.00000
  in kB      -0.00046    -0.00047    -0.00045     0.00000     0.00000     0.00000
  external pressure =       -0.00 kB  Pullay stress =        0.00 kB


 VOLUME and BASIS-vectors are now :
 -----------------------------------------------------------------------------
  energy-cutoff  :      600.00
  volume of cell :     3383.11
      direct lattice vectors                 reciprocal lattice vectors
    15.012000000  0.000000000  0.000000000     0.066613376  0.000000000  0.000000000
     0.000000000 12.510000000  0.000000000     0.000000000  0.079936051  0.000000000
     0.000000000  0.000000000 18.014400000     0.000000000  0.000000000  0.055511147

  length of vectors
    15.012000000 12.510000000 18.014400000     0.066613376  0.079936051  0.055511147


 FORCES acting on ions
    electron-ion (+dipol)            ewald-force                    non-local-force                 convergence-correction
 -----------------------------------------------------------------------------------------------
   -.105E-06 -.428E-14 0.780E-06   -.287E-17 -.768E-18 -.159E-17   0.143E-23 0.207E-23 0.587E-21   -.525E-07 0.209E-13 0.932E-07
 -----------------------------------------------------------------------------------------------
   -.105E-06 -.428E-14 0.780E-06   -.287E-17 -.768E-18 -.159E-17   0.143E-23 0.207E-23 0.587E-21   -.525E-07 0.209E-13 0.932E-07
 
 
 POSITION                                       TOTAL-FORCE (eV/Angst)
 -----------------------------------------------------------------------------------
      7.82470      6.81795     11.49247         0.000000      0.000000      0.000000
 -----------------------------------------------------------------------------------
    total drift:                               -0.000000      0.000000      0.000001


--------------------------------------------------------------------------------------------------------



  FREE ENERGIE OF THE ION-ELECTRON SYSTEM (eV)
  ---------------------------------------------------
  free  energy   TOTEN  =        -0.05825260 eV

  energy  without entropy=       -0.00525126  energy(sigma->0) =       -0.03175193
 


--------------------------------------------------------------------------------------------------------


    POTLOK:  cpu time      0.4840: real time      0.4873


--------------------------------------------------------------------------------------------------------


     LOOP+:  cpu time    555.7248: real time    561.1676
    4ORBIT:  cpu time      0.0000: real time      0.0000

 total amount of memory used by VASP MPI-rank0  1737321. kBytes
=======================================================================

   base      :      30000. kBytes
   nonl-proj :    1267318. kBytes
   fftplans  :      26458. kBytes
   grid      :      97098. kBytes
   one-center:          3. kBytes
   wavefun   :     316444. kBytes
 
  
  
 General timing and accounting informations for this job:
 ========================================================
  
                  Total CPU time used (sec):      589.905
                            User time (sec):      571.728
                          System time (sec):       18.176
                         Elapsed time (sec):      606.652
  
                   Maximum memory used (kb):     2752732.
                   Average memory used (kb):          N/A
  
                          Minor page faults:      9267419
                          Major page faults:         1601
                 Voluntary context switches:        16914
