  14  14   0   0
  0.1021960E+02  0.5697000E-09  0.4047900E-09  0.6204200E-09  0.5000000E-15
  1.000000000000000E-004
  CAR 
 Kpoints                                 
     17.97822311    -14.18724535  301      1.88617203      1.00000000
    -14.187  0.0000E+00  0.0000E+00
    -14.080  0.0000E+00  0.0000E+00
    -13.973  0.0000E+00  0.0000E+00
    -13.866  0.0000E+00  0.0000E+00
    -13.758  0.0000E+00  0.0000E+00
    -13.651  0.0000E+00  0.0000E+00
    -13.544  0.0000E+00  0.0000E+00
    -13.437  0.0000E+00  0.0000E+00
    -13.329  0.0000E+00  0.0000E+00
    -13.222  0.0000E+00  0.0000E+00
    -13.115  0.0000E+00  0.0000E+00
    -13.008  0.4602E-16  0.4934E-17
    -12.901  0.2955E-07  0.3168E-08
    -12.793  0.3814E-02  0.4089E-03
    -12.686  0.5086E+00  0.5494E-01
    -12.579  0.2390E+01  0.3112E+00
    -12.472  0.3565E+01  0.6934E+00
    -12.365  0.4371E+01  0.1162E+01
    -12.257  0.3538E+01  0.1541E+01
    -12.150  0.2734E+01  0.1835E+01
    -12.043  0.2751E+01  0.2129E+01
    -11.936  0.2503E+01  0.2398E+01
    -11.828  0.2771E+01  0.2695E+01
    -11.721  0.3425E+01  0.3062E+01
    -11.614  0.3533E+01  0.3441E+01
    -11.507  0.3116E+01  0.3775E+01
    -11.400  0.1669E+01  0.3954E+01
    -11.292  0.4221E+00  0.3999E+01
    -11.185  0.7253E-02  0.4000E+01
    -11.078  0.1745E-06  0.4000E+01
    -10.971  0.9204E-15  0.4000E+01
    -10.863  0.0000E+00  0.4000E+01
    -10.756  0.0000E+00  0.4000E+01
    -10.649  0.0000E+00  0.4000E+01
    -10.542  0.0000E+00  0.4000E+01
    -10.435  0.0000E+00  0.4000E+01
    -10.327  0.0000E+00  0.4000E+01
    -10.220  0.0000E+00  0.4000E+01
    -10.113  0.0000E+00  0.4000E+01
    -10.006  0.0000E+00  0.4000E+01
     -9.899  0.0000E+00  0.4000E+01
     -9.791  0.0000E+00  0.4000E+01
     -9.684  0.0000E+00  0.4000E+01
     -9.577  0.0000E+00  0.4000E+01
     -9.470  0.0000E+00  0.4000E+01
     -9.362  0.0000E+00  0.4000E+01
     -9.255  0.0000E+00  0.4000E+01
     -9.148  0.0000E+00  0.4000E+01
     -9.041  0.9234E-09  0.4000E+01
     -8.934  0.6173E-03  0.4000E+01
     -8.826  0.2750E+00  0.4030E+01
     -8.719  0.2086E+01  0.4253E+01
     -8.612  0.5325E+01  0.4824E+01
     -8.505  0.6988E+01  0.5573E+01
     -8.397  0.6297E+01  0.6248E+01
     -8.290  0.5325E+01  0.6819E+01
     -8.183  0.4836E+01  0.7338E+01
     -8.076  0.3876E+01  0.7754E+01
     -7.969  0.1667E+01  0.7932E+01
     -7.861  0.5790E+00  0.7994E+01
     -7.754  0.5264E-01  0.8000E+01
     -7.647  0.2501E-04  0.8000E+01
     -7.540  0.2887E-11  0.8000E+01
     -7.432  0.0000E+00  0.8000E+01
     -7.325  0.0000E+00  0.8000E+01
     -7.218  0.0000E+00  0.8000E+01
     -7.111  0.4707E-09  0.8000E+01
     -7.004  0.3913E-03  0.8000E+01
     -6.896  0.1126E+00  0.8012E+01
     -6.789  0.2578E+00  0.8040E+01
     -6.682  0.4256E+00  0.8085E+01
     -6.575  0.7656E+00  0.8167E+01
     -6.468  0.8511E+00  0.8259E+01
     -6.360  0.1445E+01  0.8414E+01
     -6.253  0.1962E+01  0.8624E+01
     -6.146  0.3056E+01  0.8952E+01
     -6.039  0.3783E+01  0.9357E+01
     -5.931  0.4112E+01  0.9798E+01
     -5.824  0.4047E+01  0.1023E+02
     -5.717  0.3861E+01  0.1065E+02
     -5.610  0.4072E+01  0.1108E+02
     -5.503  0.4221E+01  0.1154E+02
     -5.395  0.4542E+01  0.1202E+02
     -5.288  0.4596E+01  0.1252E+02
     -5.181  0.4490E+01  0.1300E+02
     -5.074  0.3869E+01  0.1341E+02
     -4.966  0.3227E+01  0.1376E+02
     -4.859  0.2955E+01  0.1407E+02
     -4.752  0.2331E+01  0.1432E+02
     -4.645  0.2893E+01  0.1463E+02
     -4.538  0.3369E+01  0.1500E+02
     -4.430  0.3465E+01  0.1537E+02
     -4.323  0.3336E+01  0.1572E+02
     -4.216  0.2955E+01  0.1604E+02
     -4.109  0.2905E+01  0.1635E+02
     -4.002  0.2947E+01  0.1667E+02
     -3.894  0.2860E+01  0.1698E+02
     -3.787  0.3114E+01  0.1731E+02
     -3.680  0.2880E+01  0.1762E+02
     -3.573  0.2702E+01  0.1791E+02
     -3.465  0.3066E+01  0.1824E+02
     -3.358  0.2639E+01  0.1852E+02
     -3.251  0.2858E+01  0.1883E+02
     -3.144  0.2748E+01  0.1912E+02
     -3.037  0.2737E+01  0.1941E+02
     -2.929  0.3047E+01  0.1974E+02
     -2.822  0.2973E+01  0.2006E+02
     -2.715  0.2431E+01  0.2032E+02
     -2.608  0.2652E+01  0.2060E+02
     -2.500  0.3017E+01  0.2093E+02
     -2.393  0.2989E+01  0.2125E+02
     -2.286  0.3189E+01  0.2159E+02
     -2.179  0.4009E+01  0.2202E+02
     -2.072  0.3656E+01  0.2241E+02
     -1.964  0.3268E+01  0.2276E+02
     -1.857  0.5108E+01  0.2331E+02
     -1.750  0.5581E+01  0.2391E+02
     -1.643  0.5603E+01  0.2451E+02
     -1.535  0.6173E+01  0.2517E+02
     -1.428  0.6106E+01  0.2583E+02
     -1.321  0.5580E+01  0.2642E+02
     -1.214  0.4685E+01  0.2693E+02
     -1.107  0.6493E+01  0.2762E+02
     -0.999  0.4000E+01  0.2805E+02
     -0.892  0.2268E+01  0.2829E+02
     -0.785  0.2698E+01  0.2858E+02
     -0.678  0.2876E+01  0.2889E+02
     -0.571  0.4507E+01  0.2938E+02
     -0.463  0.6858E+01  0.3011E+02
     -0.356  0.5661E+01  0.3072E+02
     -0.249  0.6705E+01  0.3144E+02
     -0.142  0.6353E+01  0.3212E+02
     -0.034  0.6746E+01  0.3284E+02
      0.073  0.6766E+01  0.3357E+02
      0.180  0.6285E+01  0.3424E+02
      0.287  0.8789E+01  0.3518E+02
      0.394  0.7987E+01  0.3604E+02
      0.502  0.8695E+01  0.3697E+02
      0.609  0.5275E+01  0.3754E+02
      0.716  0.2944E+01  0.3785E+02
      0.823  0.3287E+01  0.3821E+02
      0.931  0.3588E+01  0.3859E+02
      1.038  0.3562E+01  0.3897E+02
      1.145  0.2791E+01  0.3927E+02
      1.252  0.3385E+01  0.3963E+02
      1.359  0.4492E+01  0.4012E+02
      1.467  0.3781E+01  0.4052E+02
      1.574  0.3719E+01  0.4092E+02
      1.681  0.4578E+01  0.4141E+02
      1.788  0.3242E+01  0.4176E+02
      1.895  0.2479E+01  0.4202E+02
      2.003  0.2661E+01  0.4231E+02
      2.110  0.2092E+01  0.4253E+02
      2.217  0.2652E+01  0.4282E+02
      2.324  0.2573E+01  0.4309E+02
      2.432  0.1937E+01  0.4330E+02
      2.539  0.8571E+00  0.4339E+02
      2.646  0.3779E+00  0.4343E+02
      2.753  0.5722E+00  0.4350E+02
      2.860  0.4196E+00  0.4354E+02
      2.968  0.3052E+00  0.4357E+02
      3.075  0.7563E+00  0.4365E+02
      3.182  0.1014E+01  0.4376E+02
      3.289  0.5403E+00  0.4382E+02
      3.397  0.1341E-01  0.4382E+02
      3.504  0.1301E+00  0.4384E+02
      3.611  0.3946E+00  0.4388E+02
      3.718  0.3318E+00  0.4391E+02
      3.825  0.3712E+00  0.4395E+02
      3.933  0.4024E+00  0.4400E+02
      4.040  0.2749E-01  0.4400E+02
      4.147  0.2805E-04  0.4400E+02
      4.254  0.3124E-01  0.4400E+02
      4.362  0.1764E+00  0.4402E+02
      4.469  0.4025E+00  0.4407E+02
      4.576  0.4712E+00  0.4412E+02
      4.683  0.6339E+00  0.4418E+02
      4.790  0.8893E+00  0.4428E+02
      4.898  0.8412E+00  0.4437E+02
      5.005  0.8570E+00  0.4446E+02
      5.112  0.1277E+01  0.4460E+02
      5.219  0.1152E+01  0.4472E+02
      5.326  0.1633E+01  0.4490E+02
      5.434  0.2191E+01  0.4513E+02
      5.541  0.2487E+01  0.4540E+02
      5.648  0.2786E+01  0.4570E+02
      5.755  0.3367E+01  0.4606E+02
      5.863  0.3219E+01  0.4640E+02
      5.970  0.4314E+01  0.4687E+02
      6.077  0.4760E+01  0.4738E+02
      6.184  0.4042E+01  0.4781E+02
      6.291  0.4622E+01  0.4830E+02
      6.399  0.4154E+01  0.4875E+02
      6.506  0.4015E+01  0.4918E+02
      6.613  0.4480E+01  0.4966E+02
      6.720  0.3224E+01  0.5001E+02
      6.828  0.4000E+01  0.5044E+02
      6.935  0.4614E+01  0.5093E+02
      7.042  0.4553E+01  0.5142E+02
      7.149  0.4342E+01  0.5188E+02
      7.256  0.5601E+01  0.5248E+02
      7.364  0.4921E+01  0.5301E+02
      7.471  0.4455E+01  0.5349E+02
      7.578  0.4188E+01  0.5394E+02
      7.685  0.3565E+01  0.5432E+02
      7.792  0.3124E+01  0.5466E+02
      7.900  0.3008E+01  0.5498E+02
      8.007  0.2981E+01  0.5530E+02
      8.114  0.4167E+01  0.5575E+02
      8.221  0.3891E+01  0.5616E+02
      8.329  0.3685E+01  0.5656E+02
      8.436  0.3996E+01  0.5699E+02
      8.543  0.4211E+01  0.5744E+02
      8.650  0.4461E+01  0.5792E+02
      8.757  0.4226E+01  0.5837E+02
      8.865  0.5274E+01  0.5893E+02
      8.972  0.4937E+01  0.5946E+02
      9.079  0.5295E+01  0.6003E+02
      9.186  0.5234E+01  0.6059E+02
      9.294  0.4972E+01  0.6113E+02
      9.401  0.4687E+01  0.6163E+02
      9.508  0.4365E+01  0.6210E+02
      9.615  0.5109E+01  0.6264E+02
      9.722  0.5024E+01  0.6318E+02
      9.830  0.5301E+01  0.6375E+02
      9.937  0.4473E+01  0.6423E+02
     10.044  0.3634E+01  0.6462E+02
     10.151  0.5185E+01  0.6518E+02
     10.259  0.4711E+01  0.6568E+02
     10.366  0.4119E+01  0.6612E+02
     10.473  0.5423E+01  0.6670E+02
     10.580  0.5795E+01  0.6733E+02
     10.687  0.4067E+01  0.6776E+02
     10.795  0.3881E+01  0.6818E+02
     10.902  0.3237E+01  0.6852E+02
     11.009  0.4685E+01  0.6903E+02
     11.116  0.5477E+01  0.6961E+02
     11.223  0.6205E+01  0.7028E+02
     11.331  0.5982E+01  0.7092E+02
     11.438  0.5281E+01  0.7149E+02
     11.545  0.4302E+01  0.7195E+02
     11.652  0.4475E+01  0.7243E+02
     11.760  0.4936E+01  0.7296E+02
     11.867  0.4810E+01  0.7347E+02
     11.974  0.6032E+01  0.7412E+02
     12.081  0.5968E+01  0.7476E+02
     12.188  0.5980E+01  0.7540E+02
     12.296  0.5620E+01  0.7600E+02
     12.403  0.4996E+01  0.7654E+02
     12.510  0.5688E+01  0.7715E+02
     12.617  0.5992E+01  0.7779E+02
     12.725  0.6017E+01  0.7844E+02
     12.832  0.5881E+01  0.7907E+02
     12.939  0.5867E+01  0.7970E+02
     13.046  0.5596E+01  0.8030E+02
     13.153  0.6355E+01  0.8098E+02
     13.261  0.6245E+01  0.8165E+02
     13.368  0.5399E+01  0.8223E+02
     13.475  0.6128E+01  0.8288E+02
     13.582  0.5345E+01  0.8346E+02
     13.689  0.4810E+01  0.8397E+02
     13.797  0.6146E+01  0.8463E+02
     13.904  0.5508E+01  0.8522E+02
     14.011  0.5349E+01  0.8580E+02
     14.118  0.5470E+01  0.8638E+02
     14.226  0.4675E+01  0.8688E+02
     14.333  0.4911E+01  0.8741E+02
     14.440  0.5018E+01  0.8795E+02
     14.547  0.4960E+01  0.8848E+02
     14.654  0.5273E+01  0.8904E+02
     14.762  0.5161E+01  0.8960E+02
     14.869  0.4087E+01  0.9004E+02
     14.976  0.5090E+01  0.9058E+02
     15.083  0.6187E+01  0.9125E+02
     15.191  0.5630E+01  0.9185E+02
     15.298  0.5690E+01  0.9246E+02
     15.405  0.6024E+01  0.9311E+02
     15.512  0.5730E+01  0.9372E+02
     15.619  0.5946E+01  0.9436E+02
     15.727  0.4580E+01  0.9485E+02
     15.834  0.2463E+01  0.9511E+02
     15.941  0.2709E+01  0.9540E+02
     16.048  0.1849E+01  0.9560E+02
     16.156  0.1143E+01  0.9572E+02
     16.263  0.8802E+00  0.9582E+02
     16.370  0.7081E+00  0.9589E+02
     16.477  0.8116E+00  0.9598E+02
     16.584  0.1776E+00  0.9600E+02
     16.692  0.1684E-02  0.9600E+02
     16.799  0.2064E-07  0.9600E+02
     16.906  0.3945E-16  0.9600E+02
     17.013  0.0000E+00  0.9600E+02
     17.120  0.0000E+00  0.9600E+02
     17.228  0.0000E+00  0.9600E+02
     17.335  0.0000E+00  0.9600E+02
     17.442  0.0000E+00  0.9600E+02
     17.549  0.0000E+00  0.9600E+02
     17.657  0.0000E+00  0.9600E+02
     17.764  0.0000E+00  0.9600E+02
     17.871  0.0000E+00  0.9600E+02
     17.978  0.0000E+00  0.9600E+02
