  14  14   0   0
  0.1021960E+02  0.5697000E-09  0.4047900E-09  0.6204200E-09  0.5000000E-15
  1.000000000000000E-004
  CAR 
 Kpoints                                 
     17.38139214    -13.98717100  301      2.18444706      1.00000000
    -13.987  0.0000E+00  0.0000E+00
    -13.883  0.0000E+00  0.0000E+00
    -13.778  0.0000E+00  0.0000E+00
    -13.673  0.0000E+00  0.0000E+00
    -13.569  0.0000E+00  0.0000E+00
    -13.464  0.0000E+00  0.0000E+00
    -13.360  0.0000E+00  0.0000E+00
    -13.255  0.0000E+00  0.0000E+00
    -13.151  0.0000E+00  0.0000E+00
    -13.046  0.0000E+00  0.0000E+00
    -12.942  0.0000E+00  0.0000E+00
    -12.837  0.2017E-13  0.2109E-14
    -12.732  0.4150E-05  0.4339E-06
    -12.628  0.1907E+00  0.1994E-01
    -12.523  0.5286E+01  0.5726E+00
    -12.419  0.2185E+01  0.8011E+00
    -12.314  0.1087E+02  0.1938E+01
    -12.210  0.5921E+00  0.2000E+01
    -12.105  0.2244E-04  0.2000E+01
    -12.000  0.2105E-05  0.2000E+01
    -11.896  0.1399E+00  0.2015E+01
    -11.791  0.5133E+01  0.2551E+01
    -11.687  0.2716E+01  0.2835E+01
    -11.582  0.1069E+02  0.3954E+01
    -11.478  0.4436E+00  0.4000E+01
    -11.373  0.1163E-04  0.4000E+01
    -11.269  0.6795E-13  0.4000E+01
    -11.164  0.0000E+00  0.4000E+01
    -11.059  0.0000E+00  0.4000E+01
    -10.955  0.0000E+00  0.4000E+01
    -10.850  0.0000E+00  0.4000E+01
    -10.746  0.0000E+00  0.4000E+01
    -10.641  0.0000E+00  0.4000E+01
    -10.537  0.0000E+00  0.4000E+01
    -10.432  0.0000E+00  0.4000E+01
    -10.328  0.0000E+00  0.4000E+01
    -10.223  0.0000E+00  0.4000E+01
    -10.118  0.0000E+00  0.4000E+01
    -10.014  0.0000E+00  0.4000E+01
     -9.909  0.0000E+00  0.4000E+01
     -9.805  0.0000E+00  0.4000E+01
     -9.700  0.0000E+00  0.4000E+01
     -9.596  0.0000E+00  0.4000E+01
     -9.491  0.0000E+00  0.4000E+01
     -9.386  0.0000E+00  0.4000E+01
     -9.282  0.0000E+00  0.4000E+01
     -9.177  0.0000E+00  0.4000E+01
     -9.073  0.6017E-14  0.4000E+01
     -8.968  0.1917E-05  0.4000E+01
     -8.864  0.1339E+00  0.4014E+01
     -8.759  0.5110E+01  0.4548E+01
     -8.655  0.3596E+01  0.4924E+01
     -8.550  0.1006E+02  0.5976E+01
     -8.445  0.2385E+00  0.6001E+01
     -8.341  0.2782E+01  0.6291E+01
     -8.236  0.3999E+01  0.6710E+01
     -8.132  0.1068E+02  0.7826E+01
     -8.027  0.1659E+01  0.8000E+01
     -7.923  0.2833E-03  0.8000E+01
     -7.818  0.1221E-10  0.8000E+01
     -7.713  0.0000E+00  0.8000E+01
     -7.609  0.0000E+00  0.8000E+01
     -7.504  0.0000E+00  0.8000E+01
     -7.400  0.0000E+00  0.8000E+01
     -7.295  0.0000E+00  0.8000E+01
     -7.191  0.0000E+00  0.8000E+01
     -7.086  0.0000E+00  0.8000E+01
     -6.982  0.0000E+00  0.8000E+01
     -6.877  0.0000E+00  0.8000E+01
     -6.772  0.0000E+00  0.8000E+01
     -6.668  0.0000E+00  0.8000E+01
     -6.563  0.9812E-11  0.8000E+01
     -6.459  0.1882E-03  0.8000E+01
     -6.354  0.9227E+00  0.8097E+01
     -6.250  0.5269E+01  0.8647E+01
     -6.145  0.4715E+00  0.8697E+01
     -6.040  0.1030E+02  0.9773E+01
     -5.936  0.2168E+01  0.1000E+02
     -5.831  0.1153E+00  0.1001E+02
     -5.727  0.9105E+01  0.1096E+02
     -5.622  0.3530E+01  0.1133E+02
     -5.518  0.2463E-02  0.1133E+02
     -5.413  0.6520E-02  0.1133E+02
     -5.309  0.2861E+01  0.1163E+02
     -5.204  0.3493E+01  0.1200E+02
     -5.099  0.1767E+01  0.1218E+02
     -4.995  0.2118E+02  0.1440E+02
     -4.890  0.2566E+01  0.1467E+02
     -4.786  0.2829E+00  0.1470E+02
     -4.681  0.5425E+01  0.1526E+02
     -4.577  0.2411E+01  0.1552E+02
     -4.472  0.1061E+02  0.1662E+02
     -4.367  0.3992E+00  0.1667E+02
     -4.263  0.9180E-05  0.1667E+02
     -4.158  0.4813E-13  0.1667E+02
     -4.054  0.0000E+00  0.1667E+02
     -3.949  0.3242E-12  0.1667E+02
     -3.845  0.2366E-04  0.1667E+02
     -3.740  0.4066E+00  0.1671E+02
     -3.636  0.5486E+01  0.1728E+02
     -3.531  0.4834E+00  0.1733E+02
     -3.426  0.3687E-04  0.1733E+02
     -3.322  0.9499E-01  0.1734E+02
     -3.217  0.4902E+01  0.1786E+02
     -3.113  0.1728E+01  0.1804E+02
     -3.008  0.1049E+02  0.1913E+02
     -2.904  0.1913E+01  0.1933E+02
     -2.799  0.5130E-03  0.1933E+02
     -2.694  0.7468E+00  0.1941E+02
     -2.590  0.9307E+01  0.2038E+02
     -2.485  0.3075E+01  0.2071E+02
     -2.381  0.1057E+02  0.2181E+02
     -2.276  0.1805E+01  0.2200E+02
     -2.172  0.2579E+01  0.2227E+02
     -2.067  0.7183E+01  0.2302E+02
     -1.963  0.2978E+01  0.2333E+02
     -1.858  0.1018E+01  0.2344E+02
     -1.753  0.1524E+02  0.2503E+02
     -1.649  0.8793E+01  0.2595E+02
     -1.544  0.6810E+01  0.2666E+02
     -1.440  0.2642E-01  0.2667E+02
     -1.335  0.3656E-07  0.2667E+02
     -1.231  0.4952E-03  0.2667E+02
     -1.126  0.2041E+01  0.2688E+02
     -1.021  0.1039E+02  0.2797E+02
     -0.917  0.3162E+00  0.2800E+02
     -0.812  0.5493E-05  0.2800E+02
     -0.708  0.1500E-02  0.2800E+02
     -0.603  0.2125E+01  0.2822E+02
     -0.499  0.1767E+02  0.3007E+02
     -0.394  0.1715E+02  0.3186E+02
     -0.290  0.1612E+01  0.3203E+02
     -0.185  0.5448E+01  0.3260E+02
     -0.080  0.1133E+01  0.3272E+02
      0.024  0.1080E+02  0.3385E+02
      0.129  0.1444E+01  0.3400E+02
      0.233  0.2926E+01  0.3431E+02
      0.338  0.3470E+01  0.3467E+02
      0.442  0.8407E+01  0.3555E+02
      0.547  0.1050E+02  0.3665E+02
      0.651  0.2000E+00  0.3667E+02
      0.756  0.3317E+01  0.3701E+02
      0.861  0.9301E+01  0.3799E+02
      0.965  0.4769E+00  0.3804E+02
      1.070  0.1048E+02  0.3913E+02
      1.174  0.1925E+01  0.3933E+02
      1.279  0.4221E-03  0.3933E+02
      1.383  0.2043E-05  0.3933E+02
      1.488  0.2408E+00  0.3936E+02
      1.593  0.1432E+02  0.4086E+02
      1.697  0.4563E+01  0.4133E+02
      1.802  0.2408E-02  0.4133E+02
      1.906  0.2496E-08  0.4133E+02
      2.011  0.4146E-02  0.4133E+02
      2.115  0.2534E+01  0.4160E+02
      2.220  0.5834E+01  0.4221E+02
      2.324  0.1159E+02  0.4342E+02
      2.429  0.5413E+01  0.4399E+02
      2.534  0.1298E+00  0.4400E+02
      2.638  0.1792E-05  0.4400E+02
      2.743  0.5663E-14  0.4400E+02
      2.847  0.0000E+00  0.4400E+02
      2.952  0.0000E+00  0.4400E+02
      3.056  0.0000E+00  0.4400E+02
      3.161  0.0000E+00  0.4400E+02
      3.266  0.0000E+00  0.4400E+02
      3.370  0.0000E+00  0.4400E+02
      3.475  0.0000E+00  0.4400E+02
      3.579  0.0000E+00  0.4400E+02
      3.684  0.0000E+00  0.4400E+02
      3.788  0.0000E+00  0.4400E+02
      3.893  0.0000E+00  0.4400E+02
      3.997  0.0000E+00  0.4400E+02
      4.102  0.0000E+00  0.4400E+02
      4.207  0.0000E+00  0.4400E+02
      4.311  0.0000E+00  0.4400E+02
      4.416  0.0000E+00  0.4400E+02
      4.520  0.0000E+00  0.4400E+02
      4.625  0.0000E+00  0.4400E+02
      4.729  0.0000E+00  0.4400E+02
      4.834  0.0000E+00  0.4400E+02
      4.939  0.1513E-10  0.4400E+02
      5.043  0.3222E-03  0.4400E+02
      5.148  0.1742E+01  0.4418E+02
      5.252  0.1061E+02  0.4529E+02
      5.357  0.8040E+00  0.4538E+02
      5.461  0.5485E+01  0.4595E+02
      5.566  0.4857E+00  0.4600E+02
      5.670  0.3837E-01  0.4600E+02
      5.775  0.7400E+01  0.4678E+02
      5.880  0.5304E+01  0.4733E+02
      5.984  0.1431E-01  0.4733E+02
      6.089  0.2594E+01  0.4761E+02
      6.193  0.3758E+01  0.4800E+02
      6.298  0.2666E+01  0.4828E+02
      6.402  0.1525E+02  0.4987E+02
      6.507  0.1311E+01  0.5001E+02
      6.612  0.4831E+01  0.5051E+02
      6.716  0.1720E+01  0.5069E+02
      6.821  0.5403E+01  0.5126E+02
      6.925  0.7632E+00  0.5134E+02
      7.030  0.4471E+01  0.5181E+02
      7.134  0.1852E+01  0.5200E+02
      7.239  0.1434E-02  0.5200E+02
      7.343  0.1353E-08  0.5200E+02
      7.448  0.3763E-02  0.5200E+02
      7.553  0.4027E+01  0.5242E+02
      7.657  0.8637E+01  0.5332E+02
      7.762  0.1222E+00  0.5334E+02
      7.866  0.7394E+01  0.5411E+02
      7.971  0.5309E+01  0.5467E+02
      8.075  0.2373E-01  0.5467E+02
      8.180  0.3445E+01  0.5503E+02
      8.285  0.2961E+01  0.5534E+02
      8.389  0.7844E+01  0.5616E+02
      8.494  0.4878E+01  0.5667E+02
      8.598  0.6489E+01  0.5735E+02
      8.703  0.6668E+01  0.5804E+02
      8.807  0.5506E+01  0.5862E+02
      8.912  0.4492E+00  0.5867E+02
      9.016  0.8867E+00  0.5876E+02
      9.121  0.1241E+02  0.6006E+02
      9.226  0.5786E+01  0.6066E+02
      9.330  0.7700E+01  0.6147E+02
      9.435  0.5088E+01  0.6200E+02
      9.539  0.8442E-02  0.6200E+02
      9.644  0.4771E+00  0.6205E+02
      9.748  0.1353E+02  0.6346E+02
      9.853  0.1056E+02  0.6457E+02
      9.957  0.9353E+00  0.6467E+02
     10.062  0.2105E-03  0.6467E+02
     10.167  0.5557E+00  0.6472E+02
     10.271  0.1253E+02  0.6604E+02
     10.376  0.6271E+01  0.6669E+02
     10.480  0.5501E+01  0.6727E+02
     10.585  0.1287E+01  0.6740E+02
     10.689  0.5435E+01  0.6797E+02
     10.794  0.2939E+00  0.6800E+02
     10.899  0.1589E-01  0.6800E+02
     11.003  0.6019E+01  0.6863E+02
     11.108  0.6692E+01  0.6933E+02
     11.212  0.1709E+01  0.6951E+02
     11.317  0.1640E+02  0.7122E+02
     11.421  0.4069E+01  0.7165E+02
     11.526  0.1195E+02  0.7290E+02
     11.630  0.1028E+02  0.7397E+02
     11.735  0.2511E+00  0.7400E+02
     11.840  0.2662E+01  0.7428E+02
     11.944  0.3690E+01  0.7466E+02
     12.049  0.1893E-01  0.7467E+02
     12.153  0.1074E+00  0.7468E+02
     12.258  0.1414E+02  0.7616E+02
     12.362  0.1738E+02  0.7797E+02
     12.467  0.2644E+00  0.7800E+02
     12.572  0.5918E+01  0.7862E+02
     12.676  0.6793E+01  0.7933E+02
     12.781  0.2615E-01  0.7933E+02
     12.885  0.1300E+00  0.7935E+02
     12.990  0.1296E+02  0.8070E+02
     13.094  0.6034E+01  0.8133E+02
     13.199  0.8891E+00  0.8143E+02
     13.303  0.5297E+01  0.8198E+02
     13.408  0.2631E+01  0.8225E+02
     13.513  0.1008E+02  0.8331E+02
     13.617  0.2373E+00  0.8333E+02
     13.722  0.1207E-04  0.8333E+02
     13.826  0.3978E+00  0.8337E+02
     13.931  0.1061E+02  0.8448E+02
     14.035  0.3630E+01  0.8486E+02
     14.140  0.5566E+01  0.8545E+02
     14.245  0.9330E+01  0.8642E+02
     14.349  0.2348E+01  0.8667E+02
     14.454  0.3727E+01  0.8706E+02
     14.558  0.8922E+01  0.8799E+02
     14.663  0.3771E+00  0.8803E+02
     14.767  0.1025E+02  0.8910E+02
     14.872  0.2227E+01  0.8933E+02
     14.976  0.2407E+01  0.8958E+02
     15.081  0.1592E+02  0.9125E+02
     15.186  0.2188E+01  0.9148E+02
     15.290  0.5063E+01  0.9201E+02
     15.395  0.6700E+01  0.9271E+02
     15.499  0.1180E+02  0.9394E+02
     15.604  0.5462E+00  0.9400E+02
     15.708  0.1723E+00  0.9402E+02
     15.813  0.9675E+01  0.9503E+02
     15.918  0.3803E+01  0.9543E+02
     16.022  0.5287E+01  0.9598E+02
     16.127  0.1907E+00  0.9600E+02
     16.231  0.4150E-05  0.9600E+02
     16.336  0.1982E-13  0.9600E+02
     16.440  0.0000E+00  0.9600E+02
     16.545  0.0000E+00  0.9600E+02
     16.649  0.0000E+00  0.9600E+02
     16.754  0.0000E+00  0.9600E+02
     16.859  0.0000E+00  0.9600E+02
     16.963  0.0000E+00  0.9600E+02
     17.068  0.0000E+00  0.9600E+02
     17.172  0.0000E+00  0.9600E+02
     17.277  0.0000E+00  0.9600E+02
     17.381  0.0000E+00  0.9600E+02
