Automatically generated mesh
       2
Reciprocal lattice
    0.25000000000000    0.00000000000000    0.25000000000000             4
    0.25000000000000    0.33333333333334    0.25000000000000             8
