 running   24 mpi-ranks, with    1 threads/rank, on    1 nodes
 distrk:  each k-point on   24 cores,    1 groups
 distr:  one band on    1 cores,   24 groups
 vasp.6.4.3 19Mar24 (build May 31 2024 16:31:43) complex                        
  
 POSCAR found type information on POSCAR B 
 POSCAR found :  1 types and      14 ions
 Reading from existing POTCAR
 scaLAPACK will be used
 Reading from existing POTCAR
 LDA part: xc-table for (Slater+PW92), standard interpolation
 POSCAR, INCAR and KPOINTS ok, starting setup
 FFT: planning ... GRIDC
 FFT: planning ... GRID_SOFT
 FFT: planning ... GRID
 WAVECAR not read
 entering main loop
       N       E                     dE             d eps       ncg     rms          rms(c)
DAV:   1     0.494001992311E+02    0.49400E+02   -0.17366E+04   192   0.693E+02
DAV:   2    -0.929056978012E+02   -0.14231E+03   -0.13472E+03   288   0.145E+02
DAV:   3    -0.973834709454E+02   -0.44778E+01   -0.44551E+01   288   0.235E+01
DAV:   4    -0.974093019818E+02   -0.25831E-01   -0.25830E-01   240   0.202E+00
DAV:   5    -0.974096036243E+02   -0.30164E-03   -0.30164E-03   288   0.210E-01    0.123E+01
DAV:   6    -0.919390731160E+02    0.54705E+01   -0.40542E+00   288   0.667E+00    0.685E+00
DAV:   7    -0.902395231740E+02    0.16995E+01   -0.32924E+00   288   0.590E+00    0.170E+00
DAV:   8    -0.902480617806E+02   -0.85386E-02   -0.24692E-01   192   0.172E+00    0.647E-01
DAV:   9    -0.902616498779E+02   -0.13588E-01   -0.17152E-02   288   0.432E-01    0.213E-01
DAV:  10    -0.902664482975E+02   -0.47984E-02   -0.23756E-03   192   0.170E-01    0.624E-02
DAV:  11    -0.902675144641E+02   -0.10662E-02   -0.67114E-04   288   0.904E-02    0.307E-02
DAV:  12    -0.902675825302E+02   -0.68066E-04   -0.46855E-05   216   0.260E-02    0.959E-03
DAV:  13    -0.902675978752E+02   -0.15345E-04   -0.12647E-05   288   0.139E-02    0.184E-03
DAV:  14    -0.902675983827E+02   -0.50752E-06   -0.50222E-07   168   0.289E-03
   1 F= -.90267598E+02 E0= -.90265222E+02  d E =-.475298E-02
