<?xml version="1.0" encoding="ISO-8859-1"?>
<modeling>
 <generator>
  <i name="program" type="string">vasp </i>
  <i name="version" type="string">6.4.3  </i>
  <i name="subversion" type="string">19Mar24 (build May 31 2024 16:31:43) complex                          parallel </i>
  <i name="platform" type="string">LinuxIFC </i>
  <i name="date" type="string">2024 11 11 </i>
  <i name="time" type="string">15:58:28 </i>
 </generator>
 <incar>
  <i type="string" name="SYSTEM">Convergence</i>
  <i type="int" name="ISTART">     0</i>
  <i type="string" name="PREC">Accurate</i>
  <i type="string" name="ALGO">Normal</i>
  <i type="int" name="ISPIN">     1</i>
  <i type="int" name="ICHARG">     2</i>
  <i type="int" name="NELM">   100</i>
  <i type="int" name="IBRION">    -1</i>
  <i name="EDIFF">      0.00000100</i>
  <i name="EDIFFG">     -0.00100000</i>
  <i type="int" name="NSW">     0</i>
  <i type="int" name="ISIF">     2</i>
  <i name="ENCUT">    600.00000000</i>
  <i name="POTIM">      0.50000000</i>
  <i type="int" name="ISMEAR">     0</i>
  <i name="SIGMA">      0.05000000</i>
  <i type="logical" name="LWAVE"> F  </i>
  <i type="logical" name="LCHARG"> F  </i>
  <i type="string" name="GGA">PE</i>
 </incar>
 <primitive_cell>
  <structure name="primitive_cell" >
   <crystal>
    <varray name="basis" >
     <v>       5.70440610       0.00000000       0.00000000 </v>
     <v>       0.00000000       4.05316227       0.00000000 </v>
     <v>       0.00000000       0.00000000       6.21226546 </v>
    </varray>
    <i name="volume">    143.63306645 </i>
    <varray name="rec_basis" >
     <v>       0.17530309       0.00000000       0.00000000 </v>
     <v>       0.00000000       0.24672094       0.00000000 </v>
     <v>       0.00000000       0.00000000       0.16097187 </v>
    </varray>
   </crystal>
   <varray name="positions" >
    <v>       0.52123000       0.50000000       0.63796000 </v>
    <v>       0.47877000       0.50000000       0.36204000 </v>
    <v>       0.97877000       0.50000000       0.63796000 </v>
    <v>       0.02123000       0.50000000       0.36204000 </v>
    <v>       0.60090000       0.50000000       0.89991000 </v>
    <v>       0.39910000       0.50000000       0.10009000 </v>
    <v>       0.89910000       0.50000000       0.89991000 </v>
    <v>       0.10090000       0.50000000       0.10009000 </v>
    <v>       0.75000000       0.79171000       0.72973000 </v>
    <v>       0.25000000       0.20829000       0.27027000 </v>
    <v>       0.75000000       0.20829000       0.72973000 </v>
    <v>       0.25000000       0.79171000       0.27027000 </v>
    <v>       0.25000000       0.50000000       0.52367000 </v>
    <v>       0.75000000       0.50000000       0.47633000 </v>
   </varray>
  </structure>
  <varray name="primitive_index" >
   <v type="int" >        1 </v>
   <v type="int" >        2 </v>
   <v type="int" >        3 </v>
   <v type="int" >        4 </v>
   <v type="int" >        5 </v>
   <v type="int" >        6 </v>
   <v type="int" >        7 </v>
   <v type="int" >        8 </v>
   <v type="int" >        9 </v>
   <v type="int" >       10 </v>
   <v type="int" >       11 </v>
   <v type="int" >       12 </v>
   <v type="int" >       13 </v>
   <v type="int" >       14 </v>
  </varray>
 </primitive_cell>
 <kpoints>
  <generation param="Monkhorst-Pack">
   <v type="int" name="divisions">      10       14        9 </v>
   <v name="usershift">      0.00000000       0.00000000       0.00000000 </v>
   <v name="genvec1">      0.10000000       0.00000000       0.00000000 </v>
   <v name="genvec2">      0.00000000       0.07142857       0.00000000 </v>
   <v name="genvec3">      0.00000000       0.00000000       0.11111111 </v>
   <v name="shift">      0.50000000       0.50000000       0.00000000 </v>
  </generation>
  <varray name="kpointlist" >
   <v>       0.05000000       0.03571429       0.00000000 </v>
   <v>       0.15000000       0.03571429       0.00000000 </v>
   <v>       0.25000000       0.03571429       0.00000000 </v>
   <v>       0.35000000       0.03571429       0.00000000 </v>
   <v>       0.45000000       0.03571429       0.00000000 </v>
   <v>       0.05000000       0.10714286       0.00000000 </v>
   <v>       0.15000000       0.10714286       0.00000000 </v>
   <v>       0.25000000       0.10714286       0.00000000 </v>
   <v>       0.35000000       0.10714286       0.00000000 </v>
   <v>       0.45000000       0.10714286       0.00000000 </v>
   <v>       0.05000000       0.17857143       0.00000000 </v>
   <v>       0.15000000       0.17857143       0.00000000 </v>
   <v>       0.25000000       0.17857143       0.00000000 </v>
   <v>       0.35000000       0.17857143       0.00000000 </v>
   <v>       0.45000000       0.17857143       0.00000000 </v>
   <v>       0.05000000       0.25000000       0.00000000 </v>
   <v>       0.15000000       0.25000000       0.00000000 </v>
   <v>       0.25000000       0.25000000       0.00000000 </v>
   <v>       0.35000000       0.25000000       0.00000000 </v>
   <v>       0.45000000       0.25000000       0.00000000 </v>
   <v>       0.05000000       0.32142857       0.00000000 </v>
   <v>       0.15000000       0.32142857       0.00000000 </v>
   <v>       0.25000000       0.32142857       0.00000000 </v>
   <v>       0.35000000       0.32142857       0.00000000 </v>
   <v>       0.45000000       0.32142857       0.00000000 </v>
   <v>       0.05000000       0.39285714       0.00000000 </v>
   <v>       0.15000000       0.39285714       0.00000000 </v>
   <v>       0.25000000       0.39285714       0.00000000 </v>
   <v>       0.35000000       0.39285714       0.00000000 </v>
   <v>       0.45000000       0.39285714       0.00000000 </v>
   <v>       0.05000000       0.46428571       0.00000000 </v>
   <v>       0.15000000       0.46428571       0.00000000 </v>
   <v>       0.25000000       0.46428571       0.00000000 </v>
   <v>       0.35000000       0.46428571       0.00000000 </v>
   <v>       0.45000000       0.46428571       0.00000000 </v>
   <v>       0.05000000       0.03571429       0.11111111 </v>
   <v>       0.15000000       0.03571429       0.11111111 </v>
   <v>       0.25000000       0.03571429       0.11111111 </v>
   <v>       0.35000000       0.03571429       0.11111111 </v>
   <v>       0.45000000       0.03571429       0.11111111 </v>
   <v>       0.05000000       0.10714286       0.11111111 </v>
   <v>       0.15000000       0.10714286       0.11111111 </v>
   <v>       0.25000000       0.10714286       0.11111111 </v>
   <v>       0.35000000       0.10714286       0.11111111 </v>
   <v>       0.45000000       0.10714286       0.11111111 </v>
   <v>       0.05000000       0.17857143       0.11111111 </v>
   <v>       0.15000000       0.17857143       0.11111111 </v>
   <v>       0.25000000       0.17857143       0.11111111 </v>
   <v>       0.35000000       0.17857143       0.11111111 </v>
   <v>       0.45000000       0.17857143       0.11111111 </v>
   <v>       0.05000000       0.25000000       0.11111111 </v>
   <v>       0.15000000       0.25000000       0.11111111 </v>
   <v>       0.25000000       0.25000000       0.11111111 </v>
   <v>       0.35000000       0.25000000       0.11111111 </v>
   <v>       0.45000000       0.25000000       0.11111111 </v>
   <v>       0.05000000       0.32142857       0.11111111 </v>
   <v>       0.15000000       0.32142857       0.11111111 </v>
   <v>       0.25000000       0.32142857       0.11111111 </v>
   <v>       0.35000000       0.32142857       0.11111111 </v>
   <v>       0.45000000       0.32142857       0.11111111 </v>
   <v>       0.05000000       0.39285714       0.11111111 </v>
   <v>       0.15000000       0.39285714       0.11111111 </v>
   <v>       0.25000000       0.39285714       0.11111111 </v>
   <v>       0.35000000       0.39285714       0.11111111 </v>
   <v>       0.45000000       0.39285714       0.11111111 </v>
   <v>       0.05000000       0.46428571       0.11111111 </v>
   <v>       0.15000000       0.46428571       0.11111111 </v>
   <v>       0.25000000       0.46428571       0.11111111 </v>
   <v>       0.35000000       0.46428571       0.11111111 </v>
   <v>       0.45000000       0.46428571       0.11111111 </v>
   <v>       0.05000000       0.03571429       0.22222222 </v>
   <v>       0.15000000       0.03571429       0.22222222 </v>
   <v>       0.25000000       0.03571429       0.22222222 </v>
   <v>       0.35000000       0.03571429       0.22222222 </v>
   <v>       0.45000000       0.03571429       0.22222222 </v>
   <v>       0.05000000       0.10714286       0.22222222 </v>
   <v>       0.15000000       0.10714286       0.22222222 </v>
   <v>       0.25000000       0.10714286       0.22222222 </v>
   <v>       0.35000000       0.10714286       0.22222222 </v>
   <v>       0.45000000       0.10714286       0.22222222 </v>
   <v>       0.05000000       0.17857143       0.22222222 </v>
   <v>       0.15000000       0.17857143       0.22222222 </v>
   <v>       0.25000000       0.17857143       0.22222222 </v>
   <v>       0.35000000       0.17857143       0.22222222 </v>
   <v>       0.45000000       0.17857143       0.22222222 </v>
   <v>       0.05000000       0.25000000       0.22222222 </v>
   <v>       0.15000000       0.25000000       0.22222222 </v>
   <v>       0.25000000       0.25000000       0.22222222 </v>
   <v>       0.35000000       0.25000000       0.22222222 </v>
   <v>       0.45000000       0.25000000       0.22222222 </v>
   <v>       0.05000000       0.32142857       0.22222222 </v>
   <v>       0.15000000       0.32142857       0.22222222 </v>
   <v>       0.25000000       0.32142857       0.22222222 </v>
   <v>       0.35000000       0.32142857       0.22222222 </v>
   <v>       0.45000000       0.32142857       0.22222222 </v>
   <v>       0.05000000       0.39285714       0.22222222 </v>
   <v>       0.15000000       0.39285714       0.22222222 </v>
   <v>       0.25000000       0.39285714       0.22222222 </v>
   <v>       0.35000000       0.39285714       0.22222222 </v>
   <v>       0.45000000       0.39285714       0.22222222 </v>
   <v>       0.05000000       0.46428571       0.22222222 </v>
   <v>       0.15000000       0.46428571       0.22222222 </v>
   <v>       0.25000000       0.46428571       0.22222222 </v>
   <v>       0.35000000       0.46428571       0.22222222 </v>
   <v>       0.45000000       0.46428571       0.22222222 </v>
   <v>       0.05000000       0.03571429       0.33333333 </v>
   <v>       0.15000000       0.03571429       0.33333333 </v>
   <v>       0.25000000       0.03571429       0.33333333 </v>
   <v>       0.35000000       0.03571429       0.33333333 </v>
   <v>       0.45000000       0.03571429       0.33333333 </v>
   <v>       0.05000000       0.10714286       0.33333333 </v>
   <v>       0.15000000       0.10714286       0.33333333 </v>
   <v>       0.25000000       0.10714286       0.33333333 </v>
   <v>       0.35000000       0.10714286       0.33333333 </v>
   <v>       0.45000000       0.10714286       0.33333333 </v>
   <v>       0.05000000       0.17857143       0.33333333 </v>
   <v>       0.15000000       0.17857143       0.33333333 </v>
   <v>       0.25000000       0.17857143       0.33333333 </v>
   <v>       0.35000000       0.17857143       0.33333333 </v>
   <v>       0.45000000       0.17857143       0.33333333 </v>
   <v>       0.05000000       0.25000000       0.33333333 </v>
   <v>       0.15000000       0.25000000       0.33333333 </v>
   <v>       0.25000000       0.25000000       0.33333333 </v>
   <v>       0.35000000       0.25000000       0.33333333 </v>
   <v>       0.45000000       0.25000000       0.33333333 </v>
   <v>       0.05000000       0.32142857       0.33333333 </v>
   <v>       0.15000000       0.32142857       0.33333333 </v>
   <v>       0.25000000       0.32142857       0.33333333 </v>
   <v>       0.35000000       0.32142857       0.33333333 </v>
   <v>       0.45000000       0.32142857       0.33333333 </v>
   <v>       0.05000000       0.39285714       0.33333333 </v>
   <v>       0.15000000       0.39285714       0.33333333 </v>
   <v>       0.25000000       0.39285714       0.33333333 </v>
   <v>       0.35000000       0.39285714       0.33333333 </v>
   <v>       0.45000000       0.39285714       0.33333333 </v>
   <v>       0.05000000       0.46428571       0.33333333 </v>
   <v>       0.15000000       0.46428571       0.33333333 </v>
   <v>       0.25000000       0.46428571       0.33333333 </v>
   <v>       0.35000000       0.46428571       0.33333333 </v>
   <v>       0.45000000       0.46428571       0.33333333 </v>
   <v>       0.05000000       0.03571429       0.44444444 </v>
   <v>       0.15000000       0.03571429       0.44444444 </v>
   <v>       0.25000000       0.03571429       0.44444444 </v>
   <v>       0.35000000       0.03571429       0.44444444 </v>
   <v>       0.45000000       0.03571429       0.44444444 </v>
   <v>       0.05000000       0.10714286       0.44444444 </v>
   <v>       0.15000000       0.10714286       0.44444444 </v>
   <v>       0.25000000       0.10714286       0.44444444 </v>
   <v>       0.35000000       0.10714286       0.44444444 </v>
   <v>       0.45000000       0.10714286       0.44444444 </v>
   <v>       0.05000000       0.17857143       0.44444444 </v>
   <v>       0.15000000       0.17857143       0.44444444 </v>
   <v>       0.25000000       0.17857143       0.44444444 </v>
   <v>       0.35000000       0.17857143       0.44444444 </v>
   <v>       0.45000000       0.17857143       0.44444444 </v>
   <v>       0.05000000       0.25000000       0.44444444 </v>
   <v>       0.15000000       0.25000000       0.44444444 </v>
   <v>       0.25000000       0.25000000       0.44444444 </v>
   <v>       0.35000000       0.25000000       0.44444444 </v>
   <v>       0.45000000       0.25000000       0.44444444 </v>
   <v>       0.05000000       0.32142857       0.44444444 </v>
   <v>       0.15000000       0.32142857       0.44444444 </v>
   <v>       0.25000000       0.32142857       0.44444444 </v>
   <v>       0.35000000       0.32142857       0.44444444 </v>
   <v>       0.45000000       0.32142857       0.44444444 </v>
   <v>       0.05000000       0.39285714       0.44444444 </v>
   <v>       0.15000000       0.39285714       0.44444444 </v>
   <v>       0.25000000       0.39285714       0.44444444 </v>
   <v>       0.35000000       0.39285714       0.44444444 </v>
   <v>       0.45000000       0.39285714       0.44444444 </v>
   <v>       0.05000000       0.46428571       0.44444444 </v>
   <v>       0.15000000       0.46428571       0.44444444 </v>
   <v>       0.25000000       0.46428571       0.44444444 </v>
   <v>       0.35000000       0.46428571       0.44444444 </v>
   <v>       0.45000000       0.46428571       0.44444444 </v>
  </varray>
  <varray name="weights" >
   <v>       0.00317460 </v>
   <v>       0.00317460 </v>
   <v>       0.00317460 </v>
   <v>       0.00317460 </v>
   <v>       0.00317460 </v>
   <v>       0.00317460 </v>
   <v>       0.00317460 </v>
   <v>       0.00317460 </v>
   <v>       0.00317460 </v>
   <v>       0.00317460 </v>
   <v>       0.00317460 </v>
   <v>       0.00317460 </v>
   <v>       0.00317460 </v>
   <v>       0.00317460 </v>
   <v>       0.00317460 </v>
   <v>       0.00317460 </v>
   <v>       0.00317460 </v>
   <v>       0.00317460 </v>
   <v>       0.00317460 </v>
   <v>       0.00317460 </v>
   <v>       0.00317460 </v>
   <v>       0.00317460 </v>
   <v>       0.00317460 </v>
   <v>       0.00317460 </v>
   <v>       0.00317460 </v>
   <v>       0.00317460 </v>
   <v>       0.00317460 </v>
   <v>       0.00317460 </v>
   <v>       0.00317460 </v>
   <v>       0.00317460 </v>
   <v>       0.00317460 </v>
   <v>       0.00317460 </v>
   <v>       0.00317460 </v>
   <v>       0.00317460 </v>
   <v>       0.00317460 </v>
   <v>       0.00634921 </v>
   <v>       0.00634921 </v>
   <v>       0.00634921 </v>
   <v>       0.00634921 </v>
   <v>       0.00634921 </v>
   <v>       0.00634921 </v>
   <v>       0.00634921 </v>
   <v>       0.00634921 </v>
   <v>       0.00634921 </v>
   <v>       0.00634921 </v>
   <v>       0.00634921 </v>
   <v>       0.00634921 </v>
   <v>       0.00634921 </v>
   <v>       0.00634921 </v>
   <v>       0.00634921 </v>
   <v>       0.00634921 </v>
   <v>       0.00634921 </v>
   <v>       0.00634921 </v>
   <v>       0.00634921 </v>
   <v>       0.00634921 </v>
   <v>       0.00634921 </v>
   <v>       0.00634921 </v>
   <v>       0.00634921 </v>
   <v>       0.00634921 </v>
   <v>       0.00634921 </v>
   <v>       0.00634921 </v>
   <v>       0.00634921 </v>
   <v>       0.00634921 </v>
   <v>       0.00634921 </v>
   <v>       0.00634921 </v>
   <v>       0.00634921 </v>
   <v>       0.00634921 </v>
   <v>       0.00634921 </v>
   <v>       0.00634921 </v>
   <v>       0.00634921 </v>
   <v>       0.00634921 </v>
   <v>       0.00634921 </v>
   <v>       0.00634921 </v>
   <v>       0.00634921 </v>
   <v>       0.00634921 </v>
   <v>       0.00634921 </v>
   <v>       0.00634921 </v>
   <v>       0.00634921 </v>
   <v>       0.00634921 </v>
   <v>       0.00634921 </v>
   <v>       0.00634921 </v>
   <v>       0.00634921 </v>
   <v>       0.00634921 </v>
   <v>       0.00634921 </v>
   <v>       0.00634921 </v>
   <v>       0.00634921 </v>
   <v>       0.00634921 </v>
   <v>       0.00634921 </v>
   <v>       0.00634921 </v>
   <v>       0.00634921 </v>
   <v>       0.00634921 </v>
   <v>       0.00634921 </v>
   <v>       0.00634921 </v>
   <v>       0.00634921 </v>
   <v>       0.00634921 </v>
   <v>       0.00634921 </v>
   <v>       0.00634921 </v>
   <v>       0.00634921 </v>
   <v>       0.00634921 </v>
   <v>       0.00634921 </v>
   <v>       0.00634921 </v>
   <v>       0.00634921 </v>
   <v>       0.00634921 </v>
   <v>       0.00634921 </v>
   <v>       0.00634921 </v>
   <v>       0.00634921 </v>
   <v>       0.00634921 </v>
   <v>       0.00634921 </v>
   <v>       0.00634921 </v>
   <v>       0.00634921 </v>
   <v>       0.00634921 </v>
   <v>       0.00634921 </v>
   <v>       0.00634921 </v>
   <v>       0.00634921 </v>
   <v>       0.00634921 </v>
   <v>       0.00634921 </v>
   <v>       0.00634921 </v>
   <v>       0.00634921 </v>
   <v>       0.00634921 </v>
   <v>       0.00634921 </v>
   <v>       0.00634921 </v>
   <v>       0.00634921 </v>
   <v>       0.00634921 </v>
   <v>       0.00634921 </v>
   <v>       0.00634921 </v>
   <v>       0.00634921 </v>
   <v>       0.00634921 </v>
   <v>       0.00634921 </v>
   <v>       0.00634921 </v>
   <v>       0.00634921 </v>
   <v>       0.00634921 </v>
   <v>       0.00634921 </v>
   <v>       0.00634921 </v>
   <v>       0.00634921 </v>
   <v>       0.00634921 </v>
   <v>       0.00634921 </v>
   <v>       0.00634921 </v>
   <v>       0.00634921 </v>
   <v>       0.00634921 </v>
   <v>       0.00634921 </v>
   <v>       0.00634921 </v>
   <v>       0.00634921 </v>
   <v>       0.00634921 </v>
   <v>       0.00634921 </v>
   <v>       0.00634921 </v>
   <v>       0.00634921 </v>
   <v>       0.00634921 </v>
   <v>       0.00634921 </v>
   <v>       0.00634921 </v>
   <v>       0.00634921 </v>
   <v>       0.00634921 </v>
   <v>       0.00634921 </v>
   <v>       0.00634921 </v>
   <v>       0.00634921 </v>
   <v>       0.00634921 </v>
   <v>       0.00634921 </v>
   <v>       0.00634921 </v>
   <v>       0.00634921 </v>
   <v>       0.00634921 </v>
   <v>       0.00634921 </v>
   <v>       0.00634921 </v>
   <v>       0.00634921 </v>
   <v>       0.00634921 </v>
   <v>       0.00634921 </v>
   <v>       0.00634921 </v>
   <v>       0.00634921 </v>
   <v>       0.00634921 </v>
   <v>       0.00634921 </v>
   <v>       0.00634921 </v>
   <v>       0.00634921 </v>
   <v>       0.00634921 </v>
   <v>       0.00634921 </v>
   <v>       0.00634921 </v>
   <v>       0.00634921 </v>
   <v>       0.00634921 </v>
  </varray>
 </kpoints>
 <parameters>
  <separator name="general" >
   <i type="string" name="SYSTEM">Convergence</i>
   <i type="logical" name="LCOMPAT"> F  </i>
  </separator>
  <separator name="electronic" >
   <i type="string" name="PREC">accura</i>
   <i name="ENMAX">    600.00000000</i>
   <i name="ENAUG">    535.51400000</i>
   <i name="EDIFF">      0.00000100</i>
   <i type="int" name="IALGO">    38</i>
   <i type="int" name="IWAVPR">    10</i>
   <i type="int" name="NBANDS">    48</i>
   <i type="int" name="NBANDSLOW">    -1</i>
   <i type="int" name="NBANDSHIGH">    -1</i>
   <i name="NELECT">     42.00000000</i>
   <i type="int" name="TURBO">     0</i>
   <i type="int" name="IRESTART">     0</i>
   <i type="int" name="NREBOOT">     0</i>
   <i type="int" name="NMIN">     0</i>
   <i name="EREF">      0.00000000</i>
   <separator name="electronic smearing" >
    <i type="int" name="ISMEAR">     0</i>
    <i name="SIGMA">      0.05000000</i>
    <i name="KSPACING">      0.50000000</i>
    <i type="logical" name="KGAMMA"> T  </i>
    <i type="logical" name="KBLOWUP"> T  </i>
   </separator>
   <separator name="electronic projectors" >
    <i type="logical" name="LREAL"> F  </i>
    <v name="ROPT">      0.00000000</v>
    <i type="int" name="LMAXPAW">  -100</i>
    <i type="int" name="LMAXMIX">     2</i>
    <i type="logical" name="NLSPLINE"> F  </i>
   </separator>
   <separator name="electronic startup" >
    <i type="int" name="ISTART">     0</i>
    <i type="int" name="ICHARG">     2</i>
    <i type="int" name="INIWAV">     1</i>
   </separator>
   <separator name="electronic spin" >
    <i type="int" name="ISPIN">     1</i>
    <i type="logical" name="LNONCOLLINEAR"> F  </i>
    <v name="MAGMOM">      1.00000000      1.00000000      1.00000000      1.00000000      1.00000000      1.00000000      1.00000000      1.00000000      1.00000000      1.00000000      1.00000000      1.00000000      1.00000000      1.00000000</v>
    <i name="NUPDOWN">     -1.00000000</i>
    <i type="logical" name="LSORBIT"> F  </i>
    <v name="SAXIS">      0.00000000      0.00000000      1.00000000</v>
    <i type="logical" name="LSPIRAL"> F  </i>
    <v name="QSPIRAL">      0.00000000      0.00000000      0.00000000</v>
    <i type="logical" name="LZEROZ"> F  </i>
   </separator>
   <separator name="electronic exchange-correlation" >
    <i type="logical" name="LASPH"> F  </i>
   </separator>
   <separator name="electronic convergence" >
    <i type="int" name="NELM">   100</i>
    <i type="int" name="NELMDL">    -5</i>
    <i type="int" name="NELMIN">     2</i>
    <i name="ENINI">    600.00000000</i>
    <separator name="electronic convergence detail" >
     <i type="logical" name="LDIAG"> T  </i>
     <i type="logical" name="LSUBROT"> F  </i>
     <i name="WEIMIN">      0.00000000</i>
     <i name="EBREAK">      0.00000001</i>
     <i name="DEPER">      0.30000000</i>
     <i type="int" name="NRMM">     4</i>
     <i name="TIME">      0.40000000</i>
    </separator>
   </separator>
   <separator name="electronic mixer" >
    <i name="AMIX">      0.40000000</i>
    <i name="BMIX">      1.00000000</i>
    <i name="AMIN">      0.10000000</i>
    <i name="AMIX_MAG">      1.60000000</i>
    <i name="BMIX_MAG">      1.00000000</i>
    <separator name="electronic mixer details" >
     <i type="int" name="IMIX">     4</i>
     <i type="logical" name="MIXFIRST"> F  </i>
     <i type="int" name="MAXMIX">   -45</i>
     <i name="WC">    100.00000000</i>
     <i type="int" name="INIMIX">     1</i>
     <i type="int" name="MIXPRE">     1</i>
     <i type="int" name="MREMOVE">     5</i>
    </separator>
   </separator>
   <separator name="electronic dipolcorrection" >
    <i type="logical" name="LDIPOL"> F  </i>
    <i type="logical" name="LMONO"> F  </i>
    <i type="int" name="IDIPOL">     0</i>
    <i name="EPSILON">      1.00000000</i>
    <v name="DIPOL">   -100.00000000   -100.00000000   -100.00000000</v>
    <i name="EFIELD">      0.00000000</i>
    <i type="logical" name="LVACPOTAV"> F  </i>
   </separator>
  </separator>
  <separator name="grids" >
   <i type="int" name="NGX">    48</i>
   <i type="int" name="NGY">    32</i>
   <i type="int" name="NGZ">    50</i>
   <i type="int" name="NGXF">    96</i>
   <i type="int" name="NGYF">    64</i>
   <i type="int" name="NGZF">   100</i>
   <i type="logical" name="ADDGRID"> F  </i>
  </separator>
  <separator name="ionic" >
   <i type="int" name="NSW">     0</i>
   <i type="int" name="IBRION">    -1</i>
   <i type="int" name="MDALGO">     0</i>
   <i type="int" name="ISIF">     2</i>
   <i name="PSTRESS">      0.00000000</i>
   <i name="EDIFFG">     -0.00100000</i>
   <i type="int" name="NFREE">     0</i>
   <i name="POTIM">      0.50000000</i>
   <i name="SMASS">     -3.00000000</i>
   <i name="SCALEE">      1.00000000</i>
  </separator>
  <separator name="ionic md" >
   <i name="TEBEG">      0.00010000</i>
   <i name="TEEND">      0.00010000</i>
   <i type="int" name="NBLOCK">     1</i>
   <i type="int" name="KBLOCK">     1</i>
   <i type="int" name="NPACO">   256</i>
   <i name="APACO">     10.00000000</i>
  </separator>
  <separator name="symmetry" >
   <i type="int" name="ISYM">     2</i>
   <i name="SYMPREC">      0.00001000</i>
  </separator>
  <separator name="dos" >
   <i type="int" name="LORBIT">     0</i>
   <v name="RWIGS">     -1.00000000</v>
   <i type="int" name="NEDOS">   301</i>
   <i name="EMIN">     10.00000000</i>
   <i name="EMAX">    -10.00000000</i>
   <i name="EFERMI">      0.00000000</i>
  </separator>
  <separator name="writing" >
   <i type="int" name="NWRITE">     2</i>
   <i type="logical" name="LWAVE"> F  </i>
   <i type="logical" name="LDOWNSAMPLE"> F  </i>
   <i type="logical" name="LCHARG"> F  </i>
   <i type="logical" name="LPARD"> F  </i>
   <i type="logical" name="LVTOT"> F  </i>
   <i type="logical" name="LVHAR"> F  </i>
   <i type="logical" name="LELF"> F  </i>
   <i type="logical" name="LOPTICS"> F  </i>
   <v name="STM">      0.00000000      0.00000000      0.00000000      0.00000000      0.00000000      0.00000000      0.00000000</v>
  </separator>
  <separator name="performance" >
   <i type="int" name="NPAR">    24</i>
   <i type="int" name="NSIM">     4</i>
   <i type="int" name="NBLK">    -1</i>
   <i type="logical" name="LPLANE"> T  </i>
   <i type="logical" name="LSCALAPACK"> T  </i>
   <i type="logical" name="LSCAAWARE"> F  </i>
   <i type="logical" name="LSCALU"> F  </i>
   <i type="logical" name="LASYNC"> F  </i>
   <i type="logical" name="LORBITALREAL"> F  </i>
  </separator>
  <separator name="miscellaneous" >
   <i type="int" name="IDIOT">     3</i>
   <i type="int" name="PHON_NSTRUCT">    -1</i>
   <i type="logical" name="LMUSIC"> F  </i>
   <v name="POMASS">     10.81100000</v>
   <v name="DARWINR">      0.00000000</v>
   <v name="DARWINV">      1.00000000</v>
   <i type="logical" name="LCORR"> T  </i>
  </separator>
  <i type="logical" name="GGA_COMPAT"> T  </i>
  <i type="logical" name="LBERRY"> F  </i>
  <i type="int" name="ICORELEVEL">     0</i>
  <i type="logical" name="LDAU"> F  </i>
  <i type="int" name="I_CONSTRAINED_M">     0</i>
  <separator name="electronic exchange-correlation" >
   <i type="string" name="GGA    ">PE</i>
   <i type="string" name="XC_C">1</i>
   <i type="int" name="VOSKOWN">     0</i>
   <i type="logical" name="LHFCALC"> F  </i>
   <i type="string" name="PRECFOCK"></i>
   <i type="logical" name="LSYMGRAD"> F  </i>
   <i type="logical" name="LHFONE"> F  </i>
   <i type="logical" name="LRHFCALC"> F  </i>
   <i type="logical" name="LTHOMAS"> F  </i>
   <i type="logical" name="LMODELHF"> F  </i>
   <i type="logical" name="LFOCKACE"> F  </i>
   <i name="ENCUT4O">     -1.00000000</i>
   <i type="int" name="EXXOEP">     0</i>
   <i type="int" name="FOURORBIT">     0</i>
   <i name="AEXX">      0.00000000</i>
   <i name="HFALPHA">      0.00000000</i>
   <i name="MCALPHA">      0.00000000</i>
   <i name="ALDAX">      1.00000000</i>
   <i name="AGGAX">      1.00000000</i>
   <i name="AMGGAX">      1.00000000</i>
   <i name="ALDAC">      1.00000000</i>
   <i name="AGGAC">      1.00000000</i>
   <i name="AMGGAC">      1.00000000</i>
   <i type="int" name="NKREDX">     1</i>
   <i type="int" name="NKREDY">     1</i>
   <i type="int" name="NKREDZ">     1</i>
   <i type="logical" name="SHIFTRED"> F  </i>
   <i type="logical" name="ODDONLY"> F  </i>
   <i type="logical" name="EVENONLY"> F  </i>
   <i type="int" name="LMAXFOCK">     0</i>
   <i type="int" name="NMAXFOCKAE">     0</i>
   <i type="logical" name="LFOCKAEDFT"> F  </i>
   <i name="HFSCREEN">      0.00000000</i>
   <i name="HFSCREENC">      0.00000000</i>
   <i type="int" name="NBANDSGWLOW">     0</i>
  </separator>
  <separator name="vdW DFT" >
   <i type="logical" name="LUSE_VDW"> F  </i>
   <i type="int" name="IVDW_NL">    -1</i>
   <i type="logical" name="LSPIN_VDW"> F  </i>
   <i name="ZAB_VDW">     -0.84910000</i>
   <i name="GAMMA_VDW">      1.39626340</i>
   <i name="ALPHA_VDW">      0.00000000</i>
   <i name="PARAM1">      0.12340000</i>
   <i name="PARAM2">      1.00000000</i>
   <i name="BPARAM">      6.30000000</i>
   <i name="CPARAM">      0.00930000</i>
  </separator>
  <separator name="model GW" >
   <i type="int" name="MODEL_GW">     0</i>
   <i name="MODEL_EPS0">      6.15570285</i>
   <i name="MODEL_ALPHA">      1.00000000</i>
  </separator>
  <separator name="linear response parameters" >
   <i type="logical" name="LEPSILON"> F  </i>
   <i type="logical" name="LRPA"> F  </i>
   <i type="logical" name="LNABLA"> F  </i>
   <i type="logical" name="LVEL"> F  </i>
   <i name="CSHIFT">      0.10000000</i>
   <i name="OMEGAMAX">     -1.00000000</i>
   <i name="DEG_THRESHOLD">      0.00200000</i>
   <i name="RTIME">     -0.10000000</i>
   <i name="WPLASMAI">      0.00000000</i>
   <v name="DFIELD">      0.00000000      0.00000000      0.00000000</v>
   <v name="WPLASMA">      0.00000000      0.00000000      0.00000000      0.00000000      0.00000000      0.00000000      0.00000000      0.00000000      0.00000000</v>
  </separator>
  <separator name="orbital magnetization" >
   <i type="logical" name="NUCIND"> F  </i>
   <v name="MAGPOS">      0.00000000      0.00000000      0.00000000</v>
   <i type="logical" name="LNICSALL"> T  </i>
   <i type="logical" name="ORBITALMAG"> F  </i>
   <i type="logical" name="LMAGBLOCH"> F  </i>
   <i type="logical" name="LCHIMAG"> F  </i>
   <i type="logical" name="LGAUGE"> T  </i>
   <i type="int" name="MAGATOM">     0</i>
   <v name="MAGDIPOL">      0.00000000      0.00000000      0.00000000</v>
   <v name="AVECCONST">      0.00000000      0.00000000      0.00000000</v>
  </separator>
  <separator name="response functions" >
   <i type="logical" name="LALL_IN_ONE"> F  </i>
   <i type="int" name="IALL_IN_ONE">    -1</i>
   <i type="int" name="NBANDS_WAVE">    -1</i>
   <i type="logical" name="LFINITE_TEMPERATURE"> F  </i>
   <i type="logical" name="LADDER"> F  </i>
   <i type="logical" name="LRPAFORCE"> F  </i>
   <i type="logical" name="LFXC"> F  </i>
   <i type="logical" name="LHARTREE"> T  </i>
   <i type="int" name="IBSE">     0</i>
   <v type="int" name="KPOINT">    -1     0     0     0</v>
   <i type="logical" name="LTCTC"> F  </i>
   <i type="logical" name="LTCTE"> F  </i>
   <i type="logical" name="LTETE"> F  </i>
   <i type="logical" name="LTRIPLET"> F  </i>
   <i type="logical" name="LFXCEPS"> F  </i>
   <i type="logical" name="LFXHEG"> F  </i>
   <i type="int" name="NATURALO">     2</i>
   <i type="logical" name="LHOLEGF"> F  </i>
   <i type="logical" name="L2ORDER"> F  </i>
   <i type="logical" name="LDMP1"> F  </i>
   <i type="logical" name="LMP2LT"> F  </i>
   <i type="logical" name="LSMP2LT"> F  </i>
   <i type="logical" name="LGWLF"> F  </i>
   <i name="ENCUTGW">     -1.60000002</i>
   <i name="ENCUTGWSOFT">     -1.60000002</i>
   <i name="ENCUTLF">     -1.00000000</i>
   <i type="logical" name="ESF_SPLINES"> F  </i>
   <i name="ESF_CONV">      0.01000000</i>
   <i type="int" name="ESF_NINTER">    15</i>
   <i type="int" name="LMAXMP2">    -1</i>
   <i name="SCISSOR">      0.00000000</i>
   <i type="int" name="NOMEGA">     0</i>
   <i type="int" name="NOMEGAR">     0</i>
   <i type="int" name="NBANDSGW">    -1</i>
   <i type="int" name="NBANDSO">    -1</i>
   <i type="int" name="NBANDSV">    -1</i>
   <i type="int" name="NELMGW">     1</i>
   <i type="int" name="NELMHF">     1</i>
   <i type="int" name="DIM">     3</i>
   <i type="int" name="IESPILON">     4</i>
   <i type="int" name="ANTIRES">     0</i>
   <i name="OMEGAMAX">    -30.00000000</i>
   <i name="OMEGAMIN">    -30.00000000</i>
   <i name="OMEGATL">   -200.00000000</i>
   <i type="int" name="OMEGAGRID">     0</i>
   <i name="CSHIFT">     -0.10000000</i>
   <i type="logical" name="LSELFENERGY"> F  </i>
   <i type="logical" name="LSPECTRAL"> F  </i>
   <i type="logical" name="LSPECTRALGW"> F  </i>
   <i type="logical" name="LSINGLES"> F  </i>
   <i type="logical" name="LFERMIGW"> F  </i>
   <i type="logical" name="ODDONLYGW"> F  </i>
   <i type="logical" name="EVENONLYGW"> F  </i>
   <i type="int" name="NKREDLFX">     1</i>
   <i type="int" name="NKREDLFY">     1</i>
   <i type="int" name="NKREDLFZ">     1</i>
   <i type="int" name="MAXMEM">  2800</i>
   <i type="int" name="TELESCOPE">     0</i>
   <i type="int" name="NTAUPAR">    -1</i>
   <i type="int" name="NOMEGAPAR">    -1</i>
   <i name="DAMP_NEWTON">      0.80000001</i>
   <i name="LAMBDA">      1.00000000</i>
  </separator>
  <separator name="External order field" >
   <i name="OFIELD_KAPPA">      0.00000000</i>
   <v name="OFIELD_K">      0.00000000      0.00000000      0.00000000</v>
   <i name="OFIELD_Q6_NEAR">      0.00000000</i>
   <i name="OFIELD_Q6_FAR">      0.00000000</i>
   <i name="OFIELD_A">      0.00000000</i>
  </separator>
  <separator name="optional k-points parameters" >
   <i type="int" name="KPOINTS_OPT_MODE">     1</i>
   <i type="logical" name="LKPOINTS_OPT"> F  </i>
  </separator>
 </parameters>
 <atominfo>
  <atoms>      14 </atoms>
  <types>       1 </types>
  <array name="atoms" >
   <dimension dim="1">ion</dimension>
   <field type="string">element</field>
   <field type="int">atomtype</field>
   <set>
    <rc><c>B </c><c>   1</c></rc>
    <rc><c>B </c><c>   1</c></rc>
    <rc><c>B </c><c>   1</c></rc>
    <rc><c>B </c><c>   1</c></rc>
    <rc><c>B </c><c>   1</c></rc>
    <rc><c>B </c><c>   1</c></rc>
    <rc><c>B </c><c>   1</c></rc>
    <rc><c>B </c><c>   1</c></rc>
    <rc><c>B </c><c>   1</c></rc>
    <rc><c>B </c><c>   1</c></rc>
    <rc><c>B </c><c>   1</c></rc>
    <rc><c>B </c><c>   1</c></rc>
    <rc><c>B </c><c>   1</c></rc>
    <rc><c>B </c><c>   1</c></rc>
   </set>
  </array>
  <array name="atomtypes" >
   <dimension dim="1">type</dimension>
   <field type="int">atomspertype</field>
   <field type="string">element</field>
   <field>mass</field>
   <field>valence</field>
   <field type="string">pseudopotential</field>
   <set>
    <rc><c>  14</c><c>B </c><c>     10.81100000</c><c>      3.00000000</c><c>  PAW_PBE B 06Sep2000                   </c></rc>
   </set>
  </array>
 </atominfo>
 <structure name="initialpos" >
  <crystal>
   <varray name="basis" >
    <v>       5.70440610       0.00000000       0.00000000 </v>
    <v>       0.00000000       4.05316227       0.00000000 </v>
    <v>       0.00000000       0.00000000       6.21226546 </v>
   </varray>
   <i name="volume">    143.63306645 </i>
   <varray name="rec_basis" >
    <v>       0.17530309       0.00000000       0.00000000 </v>
    <v>       0.00000000       0.24672094       0.00000000 </v>
    <v>       0.00000000       0.00000000       0.16097187 </v>
   </varray>
  </crystal>
  <varray name="positions" >
   <v>       0.52123000       0.50000000       0.63796000 </v>
   <v>       0.47877000       0.50000000       0.36204000 </v>
   <v>       0.97877000       0.50000000       0.63796000 </v>
   <v>       0.02123000       0.50000000       0.36204000 </v>
   <v>       0.60090000       0.50000000       0.89991000 </v>
   <v>       0.39910000       0.50000000       0.10009000 </v>
   <v>       0.89910000       0.50000000       0.89991000 </v>
   <v>       0.10090000       0.50000000       0.10009000 </v>
   <v>       0.75000000       0.79171000       0.72973000 </v>
   <v>       0.25000000       0.20829000       0.27027000 </v>
   <v>       0.75000000       0.20829000       0.72973000 </v>
   <v>       0.25000000       0.79171000       0.27027000 </v>
   <v>       0.25000000       0.50000000       0.52367000 </v>
   <v>       0.75000000       0.50000000       0.47633000 </v>
  </varray>
 </structure>
 <calculation>
  <scstep>
   <time name="dav">    5.72    5.72</time>
   <time name="total">    5.73    5.74</time>
   <energy>
    <i name="alphaZ">     93.87698352 </i>
    <i name="ewald">   -794.73342746 </i>
    <i name="hartreedc">   -271.72408978 </i>
    <i name="XCdc">     97.40258089 </i>
    <i name="pawpsdc">    608.99811708 </i>
    <i name="pawaedc">   -597.02363782 </i>
    <i name="eentropy">     -0.00227122 </i>
    <i name="bandstr">    -53.54101028 </i>
    <i name="atom">    996.37441054 </i>
    <i name="e_fr_energy">     79.62765547 </i>
    <i name="e_wo_entrp">     79.62992669 </i>
    <i name="e_0_energy">     79.62879108 </i>
   </energy>
  </scstep>
  <scstep>
   <time name="dav">    7.55    7.55</time>
   <time name="total">    7.55    7.55</time>
   <energy>
    <i name="e_fr_energy">    -91.70236212 </i>
    <i name="e_wo_entrp">    -91.69784659 </i>
    <i name="e_0_energy">    -91.70010435 </i>
   </energy>
  </scstep>
  <scstep>
   <time name="dav">    8.01    8.01</time>
   <time name="total">    8.01    8.01</time>
   <energy>
    <i name="e_fr_energy">    -97.53568235 </i>
    <i name="e_wo_entrp">    -97.53201961 </i>
    <i name="e_0_energy">    -97.53385098 </i>
   </energy>
  </scstep>
  <scstep>
   <time name="dav">    6.60    6.60</time>
   <time name="total">    6.60    6.60</time>
   <energy>
    <i name="e_fr_energy">    -97.57015062 </i>
    <i name="e_wo_entrp">    -97.56648889 </i>
    <i name="e_0_energy">    -97.56831975 </i>
   </energy>
  </scstep>
  <scstep>
   <time name="dav">    8.02    8.02</time>
   <time name="total">    8.12    8.12</time>
   <energy>
    <i name="e_fr_energy">    -97.57053930 </i>
    <i name="e_wo_entrp">    -97.56687757 </i>
    <i name="e_0_energy">    -97.56870844 </i>
   </energy>
  </scstep>
  <scstep>
   <time name="dav">    7.81    7.81</time>
   <time name="total">    7.92    7.92</time>
   <energy>
    <i name="e_fr_energy">    -92.21233170 </i>
    <i name="e_wo_entrp">    -92.20888356 </i>
    <i name="e_0_energy">    -92.21060763 </i>
   </energy>
  </scstep>
  <scstep>
   <time name="dav">    8.10    8.10</time>
   <time name="total">    8.20    8.20</time>
   <energy>
    <i name="e_fr_energy">    -90.57592714 </i>
    <i name="e_wo_entrp">    -90.57278104 </i>
    <i name="e_0_energy">    -90.57435409 </i>
   </energy>
  </scstep>
  <scstep>
   <time name="dav">    6.18    6.18</time>
   <time name="total">    6.28    6.28</time>
   <energy>
    <i name="e_fr_energy">    -90.58842841 </i>
    <i name="e_wo_entrp">    -90.58524728 </i>
    <i name="e_0_energy">    -90.58683785 </i>
   </energy>
  </scstep>
  <scstep>
   <time name="dav">    7.48    7.48</time>
   <time name="total">    7.58    7.58</time>
   <energy>
    <i name="e_fr_energy">    -90.60260984 </i>
    <i name="e_wo_entrp">    -90.59934449 </i>
    <i name="e_0_energy">    -90.60097717 </i>
   </energy>
  </scstep>
  <scstep>
   <time name="dav">    6.33    6.33</time>
   <time name="total">    6.43    6.43</time>
   <energy>
    <i name="e_fr_energy">    -90.60664579 </i>
    <i name="e_wo_entrp">    -90.60342595 </i>
    <i name="e_0_energy">    -90.60503587 </i>
   </energy>
  </scstep>
  <scstep>
   <time name="dav">    6.98    6.98</time>
   <time name="total">    7.08    7.08</time>
   <energy>
    <i name="e_fr_energy">    -90.60771411 </i>
    <i name="e_wo_entrp">    -90.60450476 </i>
    <i name="e_0_energy">    -90.60610944 </i>
   </energy>
  </scstep>
  <scstep>
   <time name="dav">    6.85    6.85</time>
   <time name="total">    6.96    6.96</time>
   <energy>
    <i name="e_fr_energy">    -90.60782869 </i>
    <i name="e_wo_entrp">    -90.60461325 </i>
    <i name="e_0_energy">    -90.60622097 </i>
   </energy>
  </scstep>
  <scstep>
   <time name="dav">    7.40    7.40</time>
   <time name="total">    7.50    7.50</time>
   <energy>
    <i name="e_fr_energy">    -90.60783357 </i>
    <i name="e_wo_entrp">    -90.60461791 </i>
    <i name="e_0_energy">    -90.60622574 </i>
   </energy>
  </scstep>
  <scstep>
   <time name="dav">    6.76    6.76</time>
   <time name="total">    6.77    6.78</time>
   <energy>
    <i name="alphaZ">     93.87698352 </i>
    <i name="ewald">   -794.73342746 </i>
    <i name="hartreedc">   -349.13894399 </i>
    <i name="XCdc">    101.48065420 </i>
    <i name="pawpsdc">   3711.79081164 </i>
    <i name="pawaedc">  -3700.96697262 </i>
    <i name="eentropy">     -0.00321578 </i>
    <i name="bandstr">   -149.28813429 </i>
    <i name="atom">    996.37441054 </i>
    <i name="e_fr_energy">    -90.60783424 </i>
    <i name="e_wo_entrp">    -90.60461846 </i>
    <i name="e_0_energy">    -90.60622635 </i>
   </energy>
  </scstep>
  <structure>
   <crystal>
    <varray name="basis" >
     <v>       5.70440610       0.00000000       0.00000000 </v>
     <v>       0.00000000       4.05316227       0.00000000 </v>
     <v>       0.00000000       0.00000000       6.21226546 </v>
    </varray>
    <i name="volume">    143.63306645 </i>
    <varray name="rec_basis" >
     <v>       0.17530309       0.00000000       0.00000000 </v>
     <v>       0.00000000       0.24672094       0.00000000 </v>
     <v>       0.00000000       0.00000000       0.16097187 </v>
    </varray>
   </crystal>
   <varray name="positions" >
    <v>       0.52123000       0.50000000       0.63796000 </v>
    <v>       0.47877000       0.50000000       0.36204000 </v>
    <v>       0.97877000       0.50000000       0.63796000 </v>
    <v>       0.02123000       0.50000000       0.36204000 </v>
    <v>       0.60090000       0.50000000       0.89991000 </v>
    <v>       0.39910000       0.50000000       0.10009000 </v>
    <v>       0.89910000       0.50000000       0.89991000 </v>
    <v>       0.10090000       0.50000000       0.10009000 </v>
    <v>       0.75000000       0.79171000       0.72973000 </v>
    <v>       0.25000000       0.20829000       0.27027000 </v>
    <v>       0.75000000       0.20829000       0.72973000 </v>
    <v>       0.25000000       0.79171000       0.27027000 </v>
    <v>       0.25000000       0.50000000       0.52367000 </v>
    <v>       0.75000000       0.50000000       0.47633000 </v>
   </varray>
  </structure>
  <varray name="forces" >
   <v>       0.01717244       0.00000000       0.04299559 </v>
   <v>      -0.01717244       0.00000000      -0.04299559 </v>
   <v>      -0.01717244       0.00000000       0.04299559 </v>
   <v>       0.01717244       0.00000000      -0.04299559 </v>
   <v>      -0.81631251       0.00000000       0.25495165 </v>
   <v>       0.81631251       0.00000000      -0.25495165 </v>
   <v>       0.81631251       0.00000000       0.25495165 </v>
   <v>      -0.81631251       0.00000000      -0.25495165 </v>
   <v>       0.00000000       0.06018671      -0.07384996 </v>
   <v>      -0.00000000      -0.06018671       0.07384996 </v>
   <v>      -0.00000000      -0.06018671      -0.07384996 </v>
   <v>      -0.00000000       0.06018671       0.07384996 </v>
   <v>       0.00000000       0.00000000       0.04816034 </v>
   <v>       0.00000000       0.00000000      -0.04816034 </v>
  </varray>
  <varray name="stress" >
   <v>       6.39711703       0.00000000       0.00000000 </v>
   <v>       0.00000000      -3.45296551       0.00000000 </v>
   <v>       0.00000000       0.00000000     -13.80281928 </v>
  </varray>
  <energy>
   <i name="e_fr_energy">    -90.60783424 </i>
   <i name="e_wo_entrp">    -90.60461846 </i>
   <i name="e_0_energy">    -90.60622635 </i>
  </energy>
  <time name="totalsc">  105.53  105.55</time>
  <eigenvalues>
   <array>
    <dimension dim="1">band</dimension>
    <dimension dim="2">kpoint</dimension>
    <dimension dim="3">spin</dimension>
    <field>eigene</field>
    <field>occ</field>
    <set>
     <set comment="spin 1">
      <set comment="kpoint 1">
       <r>  -12.7204    1.0000 </r>
       <r>  -11.5789    1.0000 </r>
       <r>   -8.6635    1.0000 </r>
       <r>   -8.4273    1.0000 </r>
       <r>   -6.0745    1.0000 </r>
       <r>   -5.1413    1.0000 </r>
       <r>   -4.6781    1.0000 </r>
       <r>   -4.2817    1.0000 </r>
       <r>   -4.0432    1.0000 </r>
       <r>   -3.5555    1.0000 </r>
       <r>   -2.6107    1.0000 </r>
       <r>   -2.3421    1.0000 </r>
       <r>   -1.8520    1.0000 </r>
       <r>   -1.1126    1.0000 </r>
       <r>   -0.0851    1.0000 </r>
       <r>   -0.0546    1.0000 </r>
       <r>    0.1359    1.0000 </r>
       <r>    0.1562    1.0000 </r>
       <r>    0.5454    1.0000 </r>
       <r>    1.9977    0.0001 </r>
       <r>    2.0602    0.0000 </r>
       <r>    2.1924    0.0000 </r>
       <r>    5.4275    0.0000 </r>
       <r>    5.7182    0.0000 </r>
       <r>    5.8052    0.0000 </r>
       <r>    5.9285    0.0000 </r>
       <r>    6.7797    0.0000 </r>
       <r>    7.5138    0.0000 </r>
       <r>    7.8409    0.0000 </r>
       <r>    8.4905    0.0000 </r>
       <r>    8.7496    0.0000 </r>
       <r>    8.9028    0.0000 </r>
       <r>    8.9921    0.0000 </r>
       <r>   10.0853    0.0000 </r>
       <r>   11.1487    0.0000 </r>
       <r>   11.2841    0.0000 </r>
       <r>   11.6120    0.0000 </r>
       <r>   11.7334    0.0000 </r>
       <r>   11.8979    0.0000 </r>
       <r>   12.3633    0.0000 </r>
       <r>   12.8145    0.0000 </r>
       <r>   13.3970    0.0000 </r>
       <r>   13.4243    0.0000 </r>
       <r>   15.3129    0.0000 </r>
       <r>   15.5074    0.0000 </r>
       <r>   15.9940    0.0000 </r>
       <r>   16.2732    0.0000 </r>
       <r>   16.2938    0.0000 </r>
      </set>
      <set comment="kpoint 2">
       <r>  -12.6767    1.0000 </r>
       <r>  -11.6527    1.0000 </r>
       <r>   -8.6423    1.0000 </r>
       <r>   -8.4158    1.0000 </r>
       <r>   -6.0066    1.0000 </r>
       <r>   -5.4805    1.0000 </r>
       <r>   -4.7995    1.0000 </r>
       <r>   -4.0189    1.0000 </r>
       <r>   -3.8019    1.0000 </r>
       <r>   -3.2193    1.0000 </r>
       <r>   -2.6806    1.0000 </r>
       <r>   -2.3222    1.0000 </r>
       <r>   -1.9298    1.0000 </r>
       <r>   -1.4191    1.0000 </r>
       <r>   -0.0450    1.0000 </r>
       <r>   -0.0376    1.0000 </r>
       <r>    0.0759    1.0000 </r>
       <r>    0.1776    1.0000 </r>
       <r>    0.4502    1.0000 </r>
       <r>    1.9117    0.0777 </r>
       <r>    1.9825    0.0003 </r>
       <r>    2.0716    0.0000 </r>
       <r>    5.5168    0.0000 </r>
       <r>    5.7241    0.0000 </r>
       <r>    5.8359    0.0000 </r>
       <r>    6.2725    0.0000 </r>
       <r>    6.6947    0.0000 </r>
       <r>    7.1532    0.0000 </r>
       <r>    8.0479    0.0000 </r>
       <r>    8.6269    0.0000 </r>
       <r>    9.0019    0.0000 </r>
       <r>    9.0802    0.0000 </r>
       <r>    9.1576    0.0000 </r>
       <r>   10.1930    0.0000 </r>
       <r>   10.8932    0.0000 </r>
       <r>   11.0802    0.0000 </r>
       <r>   11.2211    0.0000 </r>
       <r>   11.6513    0.0000 </r>
       <r>   12.1148    0.0000 </r>
       <r>   12.4512    0.0000 </r>
       <r>   13.0653    0.0000 </r>
       <r>   13.0734    0.0000 </r>
       <r>   13.9531    0.0000 </r>
       <r>   14.8034    0.0000 </r>
       <r>   15.6898    0.0000 </r>
       <r>   15.7724    0.0000 </r>
       <r>   16.1621    0.0000 </r>
       <r>   16.4500    0.0000 </r>
      </set>
      <set comment="kpoint 3">
       <r>  -12.5911    1.0000 </r>
       <r>  -11.7857    1.0000 </r>
       <r>   -8.5986    1.0000 </r>
       <r>   -8.4011    1.0000 </r>
       <r>   -5.9848    1.0000 </r>
       <r>   -5.8063    1.0000 </r>
       <r>   -4.7532    1.0000 </r>
       <r>   -3.8924    1.0000 </r>
       <r>   -3.2914    1.0000 </r>
       <r>   -2.8483    1.0000 </r>
       <r>   -2.7287    1.0000 </r>
       <r>   -2.2823    1.0000 </r>
       <r>   -2.0392    1.0000 </r>
       <r>   -1.9228    1.0000 </r>
       <r>   -0.2411    1.0000 </r>
       <r>   -0.0035    1.0000 </r>
       <r>    0.1243    1.0000 </r>
       <r>    0.1409    1.0000 </r>
       <r>    0.4201    1.0000 </r>
       <r>    1.7640    0.9971 </r>
       <r>    1.8432    0.6976 </r>
       <r>    1.8501    0.6265 </r>
       <r>    5.6380    0.0000 </r>
       <r>    5.6805    0.0000 </r>
       <r>    6.1447    0.0000 </r>
       <r>    6.5694    0.0000 </r>
       <r>    6.7296    0.0000 </r>
       <r>    6.8991    0.0000 </r>
       <r>    8.1970    0.0000 </r>
       <r>    8.7758    0.0000 </r>
       <r>    8.9486    0.0000 </r>
       <r>    9.5246    0.0000 </r>
       <r>    9.6025    0.0000 </r>
       <r>   10.2343    0.0000 </r>
       <r>   10.4363    0.0000 </r>
       <r>   10.5752    0.0000 </r>
       <r>   11.3391    0.0000 </r>
       <r>   11.7947    0.0000 </r>
       <r>   12.3494    0.0000 </r>
       <r>   12.5105    0.0000 </r>
       <r>   12.7484    0.0000 </r>
       <r>   12.8617    0.0000 </r>
       <r>   14.5772    0.0000 </r>
       <r>   14.8558    0.0000 </r>
       <r>   15.1730    0.0000 </r>
       <r>   15.9206    0.0000 </r>
       <r>   15.9416    0.0000 </r>
       <r>   16.2241    0.0000 </r>
      </set>
      <set comment="kpoint 4">
       <r>  -12.4677    1.0000 </r>
       <r>  -11.9551    1.0000 </r>
       <r>   -8.5368    1.0000 </r>
       <r>   -8.3978    1.0000 </r>
       <r>   -6.0647    1.0000 </r>
       <r>   -6.0390    1.0000 </r>
       <r>   -4.4264    1.0000 </r>
       <r>   -3.7242    1.0000 </r>
       <r>   -3.0414    1.0000 </r>
       <r>   -2.9082    1.0000 </r>
       <r>   -2.4576    1.0000 </r>
       <r>   -2.2684    1.0000 </r>
       <r>   -2.1649    1.0000 </r>
       <r>   -2.1390    1.0000 </r>
       <r>   -0.5402    1.0000 </r>
       <r>   -0.2662    1.0000 </r>
       <r>    0.1564    1.0000 </r>
       <r>    0.2314    1.0000 </r>
       <r>    0.5928    1.0000 </r>
       <r>    1.5077    1.0000 </r>
       <r>    1.6422    1.0000 </r>
       <r>    1.7022    1.0000 </r>
       <r>    5.6658    0.0000 </r>
       <r>    5.7230    0.0000 </r>
       <r>    6.4690    0.0000 </r>
       <r>    6.6415    0.0000 </r>
       <r>    6.6670    0.0000 </r>
       <r>    7.3766    0.0000 </r>
       <r>    8.3201    0.0000 </r>
       <r>    8.6477    0.0000 </r>
       <r>    8.7620    0.0000 </r>
       <r>    9.4913    0.0000 </r>
       <r>   10.0059    0.0000 </r>
       <r>   10.0735    0.0000 </r>
       <r>   10.3487    0.0000 </r>
       <r>   11.0919    0.0000 </r>
       <r>   11.3613    0.0000 </r>
       <r>   11.8915    0.0000 </r>
       <r>   12.1544    0.0000 </r>
       <r>   12.2229    0.0000 </r>
       <r>   12.4761    0.0000 </r>
       <r>   13.2105    0.0000 </r>
       <r>   14.6634    0.0000 </r>
       <r>   14.9208    0.0000 </r>
       <r>   15.1979    0.0000 </r>
       <r>   15.3173    0.0000 </r>
       <r>   15.5122    0.0000 </r>
       <r>   16.3158    0.0000 </r>
      </set>
      <set comment="kpoint 5">
       <r>  -12.3131    1.0000 </r>
       <r>  -12.1374    1.0000 </r>
       <r>   -8.4709    1.0000 </r>
       <r>   -8.4202    1.0000 </r>
       <r>   -6.1529    1.0000 </r>
       <r>   -6.1491    1.0000 </r>
       <r>   -3.9120    1.0000 </r>
       <r>   -3.5160    1.0000 </r>
       <r>   -3.3135    1.0000 </r>
       <r>   -3.2792    1.0000 </r>
       <r>   -2.3739    1.0000 </r>
       <r>   -2.2474    1.0000 </r>
       <r>   -1.9800    1.0000 </r>
       <r>   -1.9247    1.0000 </r>
       <r>   -0.7608    1.0000 </r>
       <r>   -0.6248    1.0000 </r>
       <r>    0.2393    1.0000 </r>
       <r>    0.2726    1.0000 </r>
       <r>    0.8530    1.0000 </r>
       <r>    1.1696    1.0000 </r>
       <r>    1.5618    1.0000 </r>
       <r>    1.5889    1.0000 </r>
       <r>    5.6947    0.0000 </r>
       <r>    5.7332    0.0000 </r>
       <r>    6.4484    0.0000 </r>
       <r>    6.5127    0.0000 </r>
       <r>    7.3339    0.0000 </r>
       <r>    8.0352    0.0000 </r>
       <r>    8.0584    0.0000 </r>
       <r>    8.4367    0.0000 </r>
       <r>    8.5740    0.0000 </r>
       <r>    8.7484    0.0000 </r>
       <r>   10.4565    0.0000 </r>
       <r>   10.4706    0.0000 </r>
       <r>   10.7102    0.0000 </r>
       <r>   11.1674    0.0000 </r>
       <r>   11.3514    0.0000 </r>
       <r>   11.5434    0.0000 </r>
       <r>   11.8757    0.0000 </r>
       <r>   12.4315    0.0000 </r>
       <r>   12.6709    0.0000 </r>
       <r>   13.2045    0.0000 </r>
       <r>   14.5418    0.0000 </r>
       <r>   14.6768    0.0000 </r>
       <r>   14.8165    0.0000 </r>
       <r>   14.8760    0.0000 </r>
       <r>   16.0364    0.0000 </r>
       <r>   16.3818    0.0000 </r>
      </set>
      <set comment="kpoint 6">
       <r>  -12.6965    1.0000 </r>
       <r>  -11.5573    1.0000 </r>
       <r>   -8.6448    1.0000 </r>
       <r>   -8.4043    1.0000 </r>
       <r>   -6.0479    1.0000 </r>
       <r>   -5.1076    1.0000 </r>
       <r>   -4.6562    1.0000 </r>
       <r>   -4.5805    1.0000 </r>
       <r>   -4.1867    1.0000 </r>
       <r>   -3.5328    1.0000 </r>
       <r>   -3.3028    1.0000 </r>
       <r>   -1.8112    1.0000 </r>
       <r>   -1.1081    1.0000 </r>
       <r>   -1.0543    1.0000 </r>
       <r>   -0.3181    1.0000 </r>
       <r>   -0.2901    1.0000 </r>
       <r>    0.1495    1.0000 </r>
       <r>    0.2264    1.0000 </r>
       <r>    0.6235    1.0000 </r>
       <r>    1.7309    0.9999 </r>
       <r>    1.8103    0.9262 </r>
       <r>    2.2444    0.0000 </r>
       <r>    5.5474    0.0000 </r>
       <r>    5.6762    0.0000 </r>
       <r>    5.7120    0.0000 </r>
       <r>    5.9720    0.0000 </r>
       <r>    7.0643    0.0000 </r>
       <r>    7.7989    0.0000 </r>
       <r>    8.0357    0.0000 </r>
       <r>    8.1497    0.0000 </r>
       <r>    8.7544    0.0000 </r>
       <r>    9.0432    0.0000 </r>
       <r>    9.0988    0.0000 </r>
       <r>   10.5346    0.0000 </r>
       <r>   11.2165    0.0000 </r>
       <r>   11.3616    0.0000 </r>
       <r>   11.5464    0.0000 </r>
       <r>   11.8358    0.0000 </r>
       <r>   12.0089    0.0000 </r>
       <r>   12.6418    0.0000 </r>
       <r>   12.8157    0.0000 </r>
       <r>   13.1361    0.0000 </r>
       <r>   13.1403    0.0000 </r>
       <r>   15.2672    0.0000 </r>
       <r>   15.3141    0.0000 </r>
       <r>   15.7972    0.0000 </r>
       <r>   15.7997    0.0000 </r>
       <r>   16.1556    0.0000 </r>
      </set>
      <set comment="kpoint 7">
       <r>  -12.6528    1.0000 </r>
       <r>  -11.6310    1.0000 </r>
       <r>   -8.6235    1.0000 </r>
       <r>   -8.3932    1.0000 </r>
       <r>   -5.9782    1.0000 </r>
       <r>   -5.4505    1.0000 </r>
       <r>   -4.7796    1.0000 </r>
       <r>   -4.4991    1.0000 </r>
       <r>   -3.7633    1.0000 </r>
       <r>   -3.3830    1.0000 </r>
       <r>   -3.1815    1.0000 </r>
       <r>   -1.7896    1.0000 </r>
       <r>   -1.4137    1.0000 </r>
       <r>   -1.1721    1.0000 </r>
       <r>   -0.2794    1.0000 </r>
       <r>   -0.2117    1.0000 </r>
       <r>    0.1166    1.0000 </r>
       <r>    0.1991    1.0000 </r>
       <r>    0.5207    1.0000 </r>
       <r>    1.6506    1.0000 </r>
       <r>    1.7340    0.9998 </r>
       <r>    2.1140    0.0000 </r>
       <r>    5.6235    0.0000 </r>
       <r>    5.7754    0.0000 </r>
       <r>    5.9006    0.0000 </r>
       <r>    6.0802    0.0000 </r>
       <r>    6.9813    0.0000 </r>
       <r>    7.4744    0.0000 </r>
       <r>    8.1816    0.0000 </r>
       <r>    8.3176    0.0000 </r>
       <r>    9.0727    0.0000 </r>
       <r>    9.1103    0.0000 </r>
       <r>    9.3677    0.0000 </r>
       <r>   10.4560    0.0000 </r>
       <r>   10.8254    0.0000 </r>
       <r>   11.0333    0.0000 </r>
       <r>   11.4157    0.0000 </r>
       <r>   11.8241    0.0000 </r>
       <r>   12.2280    0.0000 </r>
       <r>   12.6928    0.0000 </r>
       <r>   12.8156    0.0000 </r>
       <r>   13.0973    0.0000 </r>
       <r>   13.6722    0.0000 </r>
       <r>   14.8881    0.0000 </r>
       <r>   15.3356    0.0000 </r>
       <r>   15.6926    0.0000 </r>
       <r>   15.7312    0.0000 </r>
       <r>   16.3357    0.0000 </r>
      </set>
      <set comment="kpoint 8">
       <r>  -12.5675    1.0000 </r>
       <r>  -11.7638    1.0000 </r>
       <r>   -8.5796    1.0000 </r>
       <r>   -8.3791    1.0000 </r>
       <r>   -5.9537    1.0000 </r>
       <r>   -5.7760    1.0000 </r>
       <r>   -4.7366    1.0000 </r>
       <r>   -4.3912    1.0000 </r>
       <r>   -3.5043    1.0000 </r>
       <r>   -3.2384    1.0000 </r>
       <r>   -2.7163    1.0000 </r>
       <r>   -1.9182    1.0000 </r>
       <r>   -1.7455    1.0000 </r>
       <r>   -1.3338    1.0000 </r>
       <r>   -0.2432    1.0000 </r>
       <r>   -0.2333    1.0000 </r>
       <r>    0.0358    1.0000 </r>
       <r>    0.1862    1.0000 </r>
       <r>    0.4445    1.0000 </r>
       <r>    1.5160    1.0000 </r>
       <r>    1.6042    1.0000 </r>
       <r>    1.8665    0.4431 </r>
       <r>    5.8219    0.0000 </r>
       <r>    5.9034    0.0000 </r>
       <r>    5.9818    0.0000 </r>
       <r>    6.5273    0.0000 </r>
       <r>    6.8612    0.0000 </r>
       <r>    7.2472    0.0000 </r>
       <r>    8.3882    0.0000 </r>
       <r>    8.4493    0.0000 </r>
       <r>    9.0470    0.0000 </r>
       <r>    9.5630    0.0000 </r>
       <r>    9.8273    0.0000 </r>
       <r>   10.0791    0.0000 </r>
       <r>   10.3050    0.0000 </r>
       <r>   10.7712    0.0000 </r>
       <r>   11.4791    0.0000 </r>
       <r>   12.0591    0.0000 </r>
       <r>   12.2552    0.0000 </r>
       <r>   12.5109    0.0000 </r>
       <r>   12.9013    0.0000 </r>
       <r>   12.9770    0.0000 </r>
       <r>   14.2482    0.0000 </r>
       <r>   15.0216    0.0000 </r>
       <r>   15.1032    0.0000 </r>
       <r>   15.5835    0.0000 </r>
       <r>   15.6500    0.0000 </r>
       <r>   16.3561    0.0000 </r>
      </set>
      <set comment="kpoint 9">
       <r>  -12.4444    1.0000 </r>
       <r>  -11.9328    1.0000 </r>
       <r>   -8.5176    1.0000 </r>
       <r>   -8.3767    1.0000 </r>
       <r>   -6.0323    1.0000 </r>
       <r>   -6.0079    1.0000 </r>
       <r>   -4.4120    1.0000 </r>
       <r>   -4.2448    1.0000 </r>
       <r>   -3.6749    1.0000 </r>
       <r>   -2.8600    1.0000 </r>
       <r>   -2.3764    1.0000 </r>
       <r>   -2.2340    1.0000 </r>
       <r>   -1.6817    1.0000 </r>
       <r>   -1.4960    1.0000 </r>
       <r>   -0.5022    1.0000 </r>
       <r>   -0.3274    1.0000 </r>
       <r>    0.0670    1.0000 </r>
       <r>    0.0979    1.0000 </r>
       <r>    0.6034    1.0000 </r>
       <r>    1.3766    1.0000 </r>
       <r>    1.4593    1.0000 </r>
       <r>    1.5436    1.0000 </r>
       <r>    5.8395    0.0000 </r>
       <r>    5.9765    0.0000 </r>
       <r>    6.4864    0.0000 </r>
       <r>    6.7726    0.0000 </r>
       <r>    6.8460    0.0000 </r>
       <r>    7.3369    0.0000 </r>
       <r>    8.3787    0.0000 </r>
       <r>    8.5562    0.0000 </r>
       <r>    8.8911    0.0000 </r>
       <r>    9.3278    0.0000 </r>
       <r>   10.0242    0.0000 </r>
       <r>   10.0484    0.0000 </r>
       <r>   10.3953    0.0000 </r>
       <r>   11.1684    0.0000 </r>
       <r>   11.3171    0.0000 </r>
       <r>   11.7908    0.0000 </r>
       <r>   12.2341    0.0000 </r>
       <r>   12.4998    0.0000 </r>
       <r>   12.6751    0.0000 </r>
       <r>   13.4115    0.0000 </r>
       <r>   14.7084    0.0000 </r>
       <r>   14.7175    0.0000 </r>
       <r>   15.0926    0.0000 </r>
       <r>   15.2500    0.0000 </r>
       <r>   15.5885    0.0000 </r>
       <r>   16.3296    0.0000 </r>
      </set>
      <set comment="kpoint 10">
       <r>  -12.2901    1.0000 </r>
       <r>  -12.1147    1.0000 </r>
       <r>   -8.4513    1.0000 </r>
       <r>   -8.3999    1.0000 </r>
       <r>   -6.1209    1.0000 </r>
       <r>   -6.1167    1.0000 </r>
       <r>   -4.0667    1.0000 </r>
       <r>   -3.9045    1.0000 </r>
       <r>   -3.8639    1.0000 </r>
       <r>   -3.3008    1.0000 </r>
       <r>   -2.1214    1.0000 </r>
       <r>   -1.9291    1.0000 </r>
       <r>   -1.6135    1.0000 </r>
       <r>   -1.6087    1.0000 </r>
       <r>   -0.7229    1.0000 </r>
       <r>   -0.6208    1.0000 </r>
       <r>    0.1009    1.0000 </r>
       <r>    0.1320    1.0000 </r>
       <r>    0.8623    1.0000 </r>
       <r>    1.1761    1.0000 </r>
       <r>    1.3234    1.0000 </r>
       <r>    1.3473    1.0000 </r>
       <r>    5.8914    0.0000 </r>
       <r>    5.9582    0.0000 </r>
       <r>    6.7625    0.0000 </r>
       <r>    6.8132    0.0000 </r>
       <r>    7.1518    0.0000 </r>
       <r>    7.8614    0.0000 </r>
       <r>    7.9047    0.0000 </r>
       <r>    8.5844    0.0000 </r>
       <r>    8.6479    0.0000 </r>
       <r>    8.7597    0.0000 </r>
       <r>   10.2718    0.0000 </r>
       <r>   10.5209    0.0000 </r>
       <r>   10.7591    0.0000 </r>
       <r>   10.8588    0.0000 </r>
       <r>   11.4988    0.0000 </r>
       <r>   11.6021    0.0000 </r>
       <r>   11.9537    0.0000 </r>
       <r>   12.5988    0.0000 </r>
       <r>   12.9778    0.0000 </r>
       <r>   13.4344    0.0000 </r>
       <r>   14.4930    0.0000 </r>
       <r>   14.6782    0.0000 </r>
       <r>   14.7769    0.0000 </r>
       <r>   14.9947    0.0000 </r>
       <r>   16.0618    0.0000 </r>
       <r>   16.3566    0.0000 </r>
      </set>
      <set comment="kpoint 11">
       <r>  -12.6522    1.0000 </r>
       <r>  -11.5176    1.0000 </r>
       <r>   -8.6107    1.0000 </r>
       <r>   -8.3618    1.0000 </r>
       <r>   -5.9987    1.0000 </r>
       <r>   -5.1370    1.0000 </r>
       <r>   -5.0173    1.0000 </r>
       <r>   -4.6146    1.0000 </r>
       <r>   -4.1702    1.0000 </r>
       <r>   -3.9240    1.0000 </r>
       <r>   -3.4798    1.0000 </r>
       <r>   -1.2211    1.0000 </r>
       <r>   -1.0988    1.0000 </r>
       <r>   -0.6604    1.0000 </r>
       <r>   -0.5564    1.0000 </r>
       <r>   -0.1972    1.0000 </r>
       <r>    0.1706    1.0000 </r>
       <r>    0.2788    1.0000 </r>
       <r>    0.7015    1.0000 </r>
       <r>    1.3497    1.0000 </r>
       <r>    1.4126    1.0000 </r>
       <r>    2.2822    0.0000 </r>
       <r>    5.2603    0.0000 </r>
       <r>    5.4244    0.0000 </r>
       <r>    6.0888    0.0000 </r>
       <r>    6.1589    0.0000 </r>
       <r>    7.4969    0.0000 </r>
       <r>    7.5858    0.0000 </r>
       <r>    8.2795    0.0000 </r>
       <r>    8.6801    0.0000 </r>
       <r>    8.8373    0.0000 </r>
       <r>    9.1835    0.0000 </r>
       <r>    9.3213    0.0000 </r>
       <r>   10.8350    0.0000 </r>
       <r>   11.2702    0.0000 </r>
       <r>   11.5220    0.0000 </r>
       <r>   11.6597    0.0000 </r>
       <r>   12.0355    0.0000 </r>
       <r>   12.2248    0.0000 </r>
       <r>   12.6962    0.0000 </r>
       <r>   12.7087    0.0000 </r>
       <r>   12.9481    0.0000 </r>
       <r>   13.1785    0.0000 </r>
       <r>   14.6075    0.0000 </r>
       <r>   15.0980    0.0000 </r>
       <r>   15.2753    0.0000 </r>
       <r>   15.3754    0.0000 </r>
       <r>   15.8947    0.0000 </r>
      </set>
      <set comment="kpoint 12">
       <r>  -12.6088    1.0000 </r>
       <r>  -11.5910    1.0000 </r>
       <r>   -8.5890    1.0000 </r>
       <r>   -8.3514    1.0000 </r>
       <r>   -5.9256    1.0000 </r>
       <r>   -5.4021    1.0000 </r>
       <r>   -5.0399    1.0000 </r>
       <r>   -4.7421    1.0000 </r>
       <r>   -3.9897    1.0000 </r>
       <r>   -3.7216    1.0000 </r>
       <r>   -3.1422    1.0000 </r>
       <r>   -1.4054    1.0000 </r>
       <r>   -1.1950    1.0000 </r>
       <r>   -0.7684    1.0000 </r>
       <r>   -0.5186    1.0000 </r>
       <r>   -0.1156    1.0000 </r>
       <r>    0.1497    1.0000 </r>
       <r>    0.2242    1.0000 </r>
       <r>    0.5890    1.0000 </r>
       <r>    1.2708    1.0000 </r>
       <r>    1.3431    1.0000 </r>
       <r>    2.1468    0.0000 </r>
       <r>    5.3407    0.0000 </r>
       <r>    5.7687    0.0000 </r>
       <r>    6.1050    0.0000 </r>
       <r>    6.2040    0.0000 </r>
       <r>    7.4165    0.0000 </r>
       <r>    7.7424    0.0000 </r>
       <r>    8.0119    0.0000 </r>
       <r>    8.7722    0.0000 </r>
       <r>    9.1970    0.0000 </r>
       <r>    9.2393    0.0000 </r>
       <r>    9.6049    0.0000 </r>
       <r>   10.4707    0.0000 </r>
       <r>   10.7313    0.0000 </r>
       <r>   11.2268    0.0000 </r>
       <r>   11.6775    0.0000 </r>
       <r>   12.1489    0.0000 </r>
       <r>   12.3812    0.0000 </r>
       <r>   12.4542    0.0000 </r>
       <r>   13.1077    0.0000 </r>
       <r>   13.2253    0.0000 </r>
       <r>   13.3814    0.0000 </r>
       <r>   14.6197    0.0000 </r>
       <r>   14.7613    0.0000 </r>
       <r>   15.2109    0.0000 </r>
       <r>   15.4395    0.0000 </r>
       <r>   15.9260    0.0000 </r>
      </set>
      <set comment="kpoint 13">
       <r>  -12.5238    1.0000 </r>
       <r>  -11.7233    1.0000 </r>
       <r>   -8.5447    1.0000 </r>
       <r>   -8.3387    1.0000 </r>
       <r>   -5.8957    1.0000 </r>
       <r>   -5.7213    1.0000 </r>
       <r>   -4.9484    1.0000 </r>
       <r>   -4.7057    1.0000 </r>
       <r>   -4.1125    1.0000 </r>
       <r>   -3.1888    1.0000 </r>
       <r>   -2.6725    1.0000 </r>
       <r>   -1.9019    1.0000 </r>
       <r>   -1.1547    1.0000 </r>
       <r>   -0.9076    1.0000 </r>
       <r>   -0.4660    1.0000 </r>
       <r>   -0.1093    1.0000 </r>
       <r>   -0.0047    1.0000 </r>
       <r>    0.2355    1.0000 </r>
       <r>    0.4742    1.0000 </r>
       <r>    1.1397    1.0000 </r>
       <r>    1.2250    1.0000 </r>
       <r>    1.8911    0.2013 </r>
       <r>    5.6612    0.0000 </r>
       <r>    6.0601    0.0000 </r>
       <r>    6.2431    0.0000 </r>
       <r>    6.3343    0.0000 </r>
       <r>    7.3148    0.0000 </r>
       <r>    7.8236    0.0000 </r>
       <r>    7.9764    0.0000 </r>
       <r>    8.9011    0.0000 </r>
       <r>    9.1941    0.0000 </r>
       <r>    9.6705    0.0000 </r>
       <r>    9.8075    0.0000 </r>
       <r>   10.0872    0.0000 </r>
       <r>   10.2072    0.0000 </r>
       <r>   11.0105    0.0000 </r>
       <r>   11.5414    0.0000 </r>
       <r>   12.0561    0.0000 </r>
       <r>   12.4587    0.0000 </r>
       <r>   12.7555    0.0000 </r>
       <r>   12.9883    0.0000 </r>
       <r>   13.3964    0.0000 </r>
       <r>   13.9033    0.0000 </r>
       <r>   14.5306    0.0000 </r>
       <r>   14.8104    0.0000 </r>
       <r>   15.2346    0.0000 </r>
       <r>   15.4567    0.0000 </r>
       <r>   16.1368    0.0000 </r>
      </set>
      <set comment="kpoint 14">
       <r>  -12.4012    1.0000 </r>
       <r>  -11.8916    1.0000 </r>
       <r>   -8.4822    1.0000 </r>
       <r>   -8.3379    1.0000 </r>
       <r>   -5.9721    1.0000 </r>
       <r>   -5.9505    1.0000 </r>
       <r>   -4.8132    1.0000 </r>
       <r>   -4.3854    1.0000 </r>
       <r>   -4.2761    1.0000 </r>
       <r>   -2.8219    1.0000 </r>
       <r>   -2.3359    1.0000 </r>
       <r>   -2.1929    1.0000 </r>
       <r>   -1.0984    1.0000 </r>
       <r>   -1.0447    1.0000 </r>
       <r>   -0.4729    1.0000 </r>
       <r>   -0.3941    1.0000 </r>
       <r>    0.0389    1.0000 </r>
       <r>    0.0413    1.0000 </r>
       <r>    0.6209    1.0000 </r>
       <r>    1.0104    1.0000 </r>
       <r>    1.0926    1.0000 </r>
       <r>    1.5570    1.0000 </r>
       <r>    6.0720    0.0000 </r>
       <r>    6.1944    0.0000 </r>
       <r>    6.3654    0.0000 </r>
       <r>    6.7680    0.0000 </r>
       <r>    7.2600    0.0000 </r>
       <r>    7.7455    0.0000 </r>
       <r>    8.0333    0.0000 </r>
       <r>    9.0006    0.0000 </r>
       <r>    9.0610    0.0000 </r>
       <r>    9.1304    0.0000 </r>
       <r>    9.8385    0.0000 </r>
       <r>   10.1370    0.0000 </r>
       <r>   10.6557    0.0000 </r>
       <r>   11.0296    0.0000 </r>
       <r>   11.2671    0.0000 </r>
       <r>   11.9019    0.0000 </r>
       <r>   12.2962    0.0000 </r>
       <r>   12.9373    0.0000 </r>
       <r>   12.9883    0.0000 </r>
       <r>   13.7383    0.0000 </r>
       <r>   14.3191    0.0000 </r>
       <r>   14.3375    0.0000 </r>
       <r>   14.9699    0.0000 </r>
       <r>   15.0645    0.0000 </r>
       <r>   15.5504    0.0000 </r>
       <r>   16.3153    0.0000 </r>
      </set>
      <set comment="kpoint 15">
       <r>  -12.2475    1.0000 </r>
       <r>  -12.0728    1.0000 </r>
       <r>   -8.4152    1.0000 </r>
       <r>   -8.3628    1.0000 </r>
       <r>   -6.0616    1.0000 </r>
       <r>   -6.0564    1.0000 </r>
       <r>   -4.6462    1.0000 </r>
       <r>   -4.4614    1.0000 </r>
       <r>   -3.8738    1.0000 </r>
       <r>   -3.2784    1.0000 </r>
       <r>   -2.0537    1.0000 </r>
       <r>   -1.8889    1.0000 </r>
       <r>   -1.1177    1.0000 </r>
       <r>   -1.0576    1.0000 </r>
       <r>   -0.6492    1.0000 </r>
       <r>   -0.6442    1.0000 </r>
       <r>   -0.0103    1.0000 </r>
       <r>    0.0332    1.0000 </r>
       <r>    0.8779    1.0000 </r>
       <r>    0.9480    1.0000 </r>
       <r>    0.9884    1.0000 </r>
       <r>    1.2044    1.0000 </r>
       <r>    6.1639    0.0000 </r>
       <r>    6.2830    0.0000 </r>
       <r>    6.8450    0.0000 </r>
       <r>    7.1811    0.0000 </r>
       <r>    7.2388    0.0000 </r>
       <r>    7.5874    0.0000 </r>
       <r>    7.8920    0.0000 </r>
       <r>    8.4009    0.0000 </r>
       <r>    9.0560    0.0000 </r>
       <r>    9.0877    0.0000 </r>
       <r>    9.9631    0.0000 </r>
       <r>   10.4356    0.0000 </r>
       <r>   10.6585    0.0000 </r>
       <r>   10.9329    0.0000 </r>
       <r>   11.6786    0.0000 </r>
       <r>   11.6922    0.0000 </r>
       <r>   12.0729    0.0000 </r>
       <r>   12.8532    0.0000 </r>
       <r>   13.3654    0.0000 </r>
       <r>   13.7107    0.0000 </r>
       <r>   14.1699    0.0000 </r>
       <r>   14.3241    0.0000 </r>
       <r>   14.9374    0.0000 </r>
       <r>   15.0763    0.0000 </r>
       <r>   15.9281    0.0000 </r>
       <r>   16.2307    0.0000 </r>
      </set>
      <set comment="kpoint 16">
       <r>  -12.5950    1.0000 </r>
       <r>  -11.4663    1.0000 </r>
       <r>   -8.5670    1.0000 </r>
       <r>   -8.3069    1.0000 </r>
       <r>   -5.9349    1.0000 </r>
       <r>   -5.6172    1.0000 </r>
       <r>   -4.9475    1.0000 </r>
       <r>   -4.5587    1.0000 </r>
       <r>   -4.4434    1.0000 </r>
       <r>   -4.1310    1.0000 </r>
       <r>   -3.4181    1.0000 </r>
       <r>   -1.2317    1.0000 </r>
       <r>   -1.0846    1.0000 </r>
       <r>   -1.0132    1.0000 </r>
       <r>   -0.2136    1.0000 </r>
       <r>    0.1986    1.0000 </r>
       <r>    0.3218    1.0000 </r>
       <r>    0.5727    1.0000 </r>
       <r>    0.7649    1.0000 </r>
       <r>    0.9656    1.0000 </r>
       <r>    0.9796    1.0000 </r>
       <r>    2.3162    0.0000 </r>
       <r>    4.9187    0.0000 </r>
       <r>    5.1322    0.0000 </r>
       <r>    6.3184    0.0000 </r>
       <r>    6.5482    0.0000 </r>
       <r>    7.2290    0.0000 </r>
       <r>    7.9241    0.0000 </r>
       <r>    8.6513    0.0000 </r>
       <r>    9.0179    0.0000 </r>
       <r>    9.4082    0.0000 </r>
       <r>    9.5360    0.0000 </r>
       <r>    9.6024    0.0000 </r>
       <r>   10.6964    0.0000 </r>
       <r>   11.2185    0.0000 </r>
       <r>   11.9185    0.0000 </r>
       <r>   11.9740    0.0000 </r>
       <r>   12.2421    0.0000 </r>
       <r>   12.3749    0.0000 </r>
       <r>   12.4015    0.0000 </r>
       <r>   12.5148    0.0000 </r>
       <r>   12.9330    0.0000 </r>
       <r>   13.7267    0.0000 </r>
       <r>   13.8288    0.0000 </r>
       <r>   14.3551    0.0000 </r>
       <r>   15.0469    0.0000 </r>
       <r>   15.3489    0.0000 </r>
       <r>   15.7875    0.0000 </r>
      </set>
      <set comment="kpoint 17">
       <r>  -12.5518    1.0000 </r>
       <r>  -11.5393    1.0000 </r>
       <r>   -8.5450    1.0000 </r>
       <r>   -8.2974    1.0000 </r>
       <r>   -5.8572    1.0000 </r>
       <r>   -5.5825    1.0000 </r>
       <r>   -5.2835    1.0000 </r>
       <r>   -4.6925    1.0000 </r>
       <r>   -4.5084    1.0000 </r>
       <r>   -3.6681    1.0000 </r>
       <r>   -3.0808    1.0000 </r>
       <r>   -1.3991    1.0000 </r>
       <r>   -1.1751    1.0000 </r>
       <r>   -1.0283    1.0000 </r>
       <r>   -0.2147    1.0000 </r>
       <r>    0.1822    1.0000 </r>
       <r>    0.2556    1.0000 </r>
       <r>    0.5525    1.0000 </r>
       <r>    0.6435    1.0000 </r>
       <r>    0.9001    1.0000 </r>
       <r>    0.9380    1.0000 </r>
       <r>    2.1789    0.0000 </r>
       <r>    5.0148    0.0000 </r>
       <r>    5.4624    0.0000 </r>
       <r>    6.2644    0.0000 </r>
       <r>    6.6809    0.0000 </r>
       <r>    7.3642    0.0000 </r>
       <r>    7.8821    0.0000 </r>
       <r>    8.5899    0.0000 </r>
       <r>    9.1290    0.0000 </r>
       <r>    9.3757    0.0000 </r>
       <r>    9.7450    0.0000 </r>
       <r>    9.8434    0.0000 </r>
       <r>   10.2895    0.0000 </r>
       <r>   10.6590    0.0000 </r>
       <r>   11.6554    0.0000 </r>
       <r>   11.8399    0.0000 </r>
       <r>   12.1975    0.0000 </r>
       <r>   12.4259    0.0000 </r>
       <r>   12.5952    0.0000 </r>
       <r>   12.9068    0.0000 </r>
       <r>   13.3353    0.0000 </r>
       <r>   13.7290    0.0000 </r>
       <r>   13.8676    0.0000 </r>
       <r>   14.1954    0.0000 </r>
       <r>   15.0099    0.0000 </r>
       <r>   15.3781    0.0000 </r>
       <r>   15.6667    0.0000 </r>
      </set>
      <set comment="kpoint 18">
       <r>  -12.4672    1.0000 </r>
       <r>  -11.6709    1.0000 </r>
       <r>   -8.5001    1.0000 </r>
       <r>   -8.2865    1.0000 </r>
       <r>   -5.8198    1.0000 </r>
       <r>   -5.6686    1.0000 </r>
       <r>   -5.4297    1.0000 </r>
       <r>   -4.6661    1.0000 </r>
       <r>   -4.6299    1.0000 </r>
       <r>   -3.1299    1.0000 </r>
       <r>   -2.6123    1.0000 </r>
       <r>   -1.8830    1.0000 </r>
       <r>   -1.1146    1.0000 </r>
       <r>   -1.0475    1.0000 </r>
       <r>   -0.2327    1.0000 </r>
       <r>   -0.0715    1.0000 </r>
       <r>    0.2934    1.0000 </r>
       <r>    0.4859    1.0000 </r>
       <r>    0.5014    1.0000 </r>
       <r>    0.8109    1.0000 </r>
       <r>    0.8707    1.0000 </r>
       <r>    1.9194    0.0506 </r>
       <r>    5.3396    0.0000 </r>
       <r>    5.9352    0.0000 </r>
       <r>    6.2370    0.0000 </r>
       <r>    6.7946    0.0000 </r>
       <r>    7.5309    0.0000 </r>
       <r>    7.9042    0.0000 </r>
       <r>    8.5188    0.0000 </r>
       <r>    9.3156    0.0000 </r>
       <r>    9.3467    0.0000 </r>
       <r>    9.5487    0.0000 </r>
       <r>    9.9962    0.0000 </r>
       <r>   10.0592    0.0000 </r>
       <r>   10.5090    0.0000 </r>
       <r>   11.3361    0.0000 </r>
       <r>   11.3500    0.0000 </r>
       <r>   12.1917    0.0000 </r>
       <r>   12.6841    0.0000 </r>
       <r>   12.9078    0.0000 </r>
       <r>   13.1267    0.0000 </r>
       <r>   13.4639    0.0000 </r>
       <r>   13.7019    0.0000 </r>
       <r>   13.9593    0.0000 </r>
       <r>   14.3308    0.0000 </r>
       <r>   15.1015    0.0000 </r>
       <r>   15.3017    0.0000 </r>
       <r>   15.9302    0.0000 </r>
      </set>
      <set comment="kpoint 19">
       <r>  -12.3453    1.0000 </r>
       <r>  -11.8384    1.0000 </r>
       <r>   -8.4369    1.0000 </r>
       <r>   -8.2880    1.0000 </r>
       <r>   -5.8929    1.0000 </r>
       <r>   -5.8781    1.0000 </r>
       <r>   -5.3163    1.0000 </r>
       <r>   -4.7933    1.0000 </r>
       <r>   -4.3499    1.0000 </r>
       <r>   -2.7775    1.0000 </r>
       <r>   -2.2936    1.0000 </r>
       <r>   -2.1373    1.0000 </r>
       <r>   -1.0566    1.0000 </r>
       <r>   -1.0308    1.0000 </r>
       <r>   -0.3947    1.0000 </r>
       <r>   -0.3482    1.0000 </r>
       <r>    0.1314    1.0000 </r>
       <r>    0.3569    1.0000 </r>
       <r>    0.6408    1.0000 </r>
       <r>    0.7541    1.0000 </r>
       <r>    0.8040    1.0000 </r>
       <r>    1.5815    1.0000 </r>
       <r>    5.8654    0.0000 </r>
       <r>    6.2699    0.0000 </r>
       <r>    6.5112    0.0000 </r>
       <r>    6.7461    0.0000 </r>
       <r>    7.5315    0.0000 </r>
       <r>    7.9652    0.0000 </r>
       <r>    8.4742    0.0000 </r>
       <r>    8.8743    0.0000 </r>
       <r>    9.2277    0.0000 </r>
       <r>    9.5348    0.0000 </r>
       <r>    9.8515    0.0000 </r>
       <r>   10.2957    0.0000 </r>
       <r>   10.7472    0.0000 </r>
       <r>   11.0460    0.0000 </r>
       <r>   11.3848    0.0000 </r>
       <r>   12.1178    0.0000 </r>
       <r>   12.3616    0.0000 </r>
       <r>   13.1060    0.0000 </r>
       <r>   13.2297    0.0000 </r>
       <r>   13.5961    0.0000 </r>
       <r>   13.8399    0.0000 </r>
       <r>   14.0937    0.0000 </r>
       <r>   14.6997    0.0000 </r>
       <r>   14.9329    0.0000 </r>
       <r>   15.3707    0.0000 </r>
       <r>   16.2613    0.0000 </r>
      </set>
      <set comment="kpoint 20">
       <r>  -12.1924    1.0000 </r>
       <r>  -12.0187    1.0000 </r>
       <r>   -8.3690    1.0000 </r>
       <r>   -8.3150    1.0000 </r>
       <r>   -5.9846    1.0000 </r>
       <r>   -5.9774    1.0000 </r>
       <r>   -5.1557    1.0000 </r>
       <r>   -4.9750    1.0000 </r>
       <r>   -3.8418    1.0000 </r>
       <r>   -3.2484    1.0000 </r>
       <r>   -1.9971    1.0000 </r>
       <r>   -1.8428    1.0000 </r>
       <r>   -0.9955    1.0000 </r>
       <r>   -0.9358    1.0000 </r>
       <r>   -0.6912    1.0000 </r>
       <r>   -0.6482    1.0000 </r>
       <r>    0.1088    1.0000 </r>
       <r>    0.2098    1.0000 </r>
       <r>    0.7384    1.0000 </r>
       <r>    0.7547    1.0000 </r>
       <r>    0.9035    1.0000 </r>
       <r>    1.2259    1.0000 </r>
       <r>    6.4030    0.0000 </r>
       <r>    6.5237    0.0000 </r>
       <r>    6.5825    0.0000 </r>
       <r>    7.0995    0.0000 </r>
       <r>    7.1715    0.0000 </r>
       <r>    7.6551    0.0000 </r>
       <r>    8.4637    0.0000 </r>
       <r>    8.5275    0.0000 </r>
       <r>    9.4218    0.0000 </r>
       <r>    9.5912    0.0000 </r>
       <r>    9.7928    0.0000 </r>
       <r>   10.0935    0.0000 </r>
       <r>   10.8097    0.0000 </r>
       <r>   11.1875    0.0000 </r>
       <r>   11.8115    0.0000 </r>
       <r>   11.8904    0.0000 </r>
       <r>   12.1933    0.0000 </r>
       <r>   13.0858    0.0000 </r>
       <r>   13.3804    0.0000 </r>
       <r>   13.5624    0.0000 </r>
       <r>   13.7847    0.0000 </r>
       <r>   13.8894    0.0000 </r>
       <r>   15.0430    0.0000 </r>
       <r>   15.0599    0.0000 </r>
       <r>   15.6057    0.0000 </r>
       <r>   15.9068    0.0000 </r>
      </set>
      <set comment="kpoint 21">
       <r>  -12.5351    1.0000 </r>
[...]
       <r>   -2.3365    1.0000 </r>
       <r>   -2.1533    1.0000 </r>
       <r>   -1.9910    1.0000 </r>
       <r>   -1.5109    1.0000 </r>
       <r>   -0.7538    1.0000 </r>
       <r>   -0.2218    1.0000 </r>
       <r>    0.1507    1.0000 </r>
       <r>    0.3694    1.0000 </r>
       <r>    0.4895    1.0000 </r>
       <r>    1.5661    1.0000 </r>
       <r>    1.5924    1.0000 </r>
       <r>    1.8474    0.6547 </r>
       <r>    5.4839    0.0000 </r>
       <r>    6.1149    0.0000 </r>
       <r>    6.6349    0.0000 </r>
       <r>    7.1736    0.0000 </r>
       <r>    7.7347    0.0000 </r>
       <r>    8.1888    0.0000 </r>
       <r>    8.9505    0.0000 </r>
       <r>    9.1050    0.0000 </r>
       <r>    9.6768    0.0000 </r>
       <r>    9.9106    0.0000 </r>
       <r>   10.5380    0.0000 </r>
       <r>   10.9913    0.0000 </r>
       <r>   11.1472    0.0000 </r>
       <r>   11.4150    0.0000 </r>
       <r>   11.5147    0.0000 </r>
       <r>   11.9018    0.0000 </r>
       <r>   12.7833    0.0000 </r>
       <r>   13.0744    0.0000 </r>
       <r>   13.3125    0.0000 </r>
       <r>   13.6889    0.0000 </r>
       <r>   13.8044    0.0000 </r>
       <r>   14.0972    0.0000 </r>
       <r>   14.4119    0.0000 </r>
       <r>   14.9128    0.0000 </r>
       <r>   15.0317    0.0000 </r>
       <r>   15.3313    0.0000 </r>
      </set>
      <set comment="kpoint 175">
       <r>  -12.0174    1.0000 </r>
       <r>  -11.8782    1.0000 </r>
       <r>   -8.5535    1.0000 </r>
       <r>   -8.4413    1.0000 </r>
       <r>   -5.9348    1.0000 </r>
       <r>   -5.8294    1.0000 </r>
       <r>   -4.9048    1.0000 </r>
       <r>   -4.5828    1.0000 </r>
       <r>   -4.4252    1.0000 </r>
       <r>   -3.9888    1.0000 </r>
       <r>   -2.2057    1.0000 </r>
       <r>   -2.1445    1.0000 </r>
       <r>   -2.0788    1.0000 </r>
       <r>   -1.7944    1.0000 </r>
       <r>   -0.2379    1.0000 </r>
       <r>   -0.0264    1.0000 </r>
       <r>    0.3723    1.0000 </r>
       <r>    0.4601    1.0000 </r>
       <r>    0.5265    1.0000 </r>
       <r>    0.8537    1.0000 </r>
       <r>    1.6065    1.0000 </r>
       <r>    1.7060    1.0000 </r>
       <r>    5.8285    0.0000 </r>
       <r>    6.0129    0.0000 </r>
       <r>    6.8378    0.0000 </r>
       <r>    7.3606    0.0000 </r>
       <r>    7.4392    0.0000 </r>
       <r>    7.5296    0.0000 </r>
       <r>    9.3552    0.0000 </r>
       <r>    9.5362    0.0000 </r>
       <r>    9.7439    0.0000 </r>
       <r>    9.9213    0.0000 </r>
       <r>   10.4124    0.0000 </r>
       <r>   10.7587    0.0000 </r>
       <r>   11.1965    0.0000 </r>
       <r>   11.4557    0.0000 </r>
       <r>   11.4597    0.0000 </r>
       <r>   11.5628    0.0000 </r>
       <r>   13.0256    0.0000 </r>
       <r>   13.1300    0.0000 </r>
       <r>   13.6489    0.0000 </r>
       <r>   13.9923    0.0000 </r>
       <r>   14.1243    0.0000 </r>
       <r>   14.2228    0.0000 </r>
       <r>   14.5313    0.0000 </r>
       <r>   14.6816    0.0000 </r>
       <r>   14.8322    0.0000 </r>
       <r>   14.9780    0.0000 </r>
      </set>
     </set>
    </set>
   </array>
  </eigenvalues>
  <separator name="orbital magnetization" >
   <v name="MAGDIPOLOUT">      0.00000000      0.00000000      0.00000000</v>
  </separator>
  <dos>
   <i name="efermi">      1.86146239 </i>
   <total>
    <array>
     <dimension dim="1">gridpoints</dimension>
     <dimension dim="2">spin</dimension>
     <field>energy</field>
     <field>total</field>
     <field>integrated</field>
     <set>
      <set comment="spin 1">
       <r>   -14.1789     0.0000     0.0000 </r>
       <r>   -14.0719     0.0000     0.0000 </r>
       <r>   -13.9650     0.0000     0.0000 </r>
       <r>   -13.8580     0.0000     0.0000 </r>
       <r>   -13.7511     0.0000     0.0000 </r>
       <r>   -13.6441     0.0000     0.0000 </r>
       <r>   -13.5372     0.0000     0.0000 </r>
       <r>   -13.4302     0.0000     0.0000 </r>
       <r>   -13.3232     0.0000     0.0000 </r>
       <r>   -13.2163     0.0000     0.0000 </r>
       <r>   -13.1093     0.0000     0.0000 </r>
       <r>   -13.0024     0.0000     0.0000 </r>
       <r>   -12.8954     0.0000     0.0000 </r>
       <r>   -12.7884     0.0039     0.0004 </r>
       <r>   -12.6815     0.5101     0.0550 </r>
       <r>   -12.5745     2.3948     0.3111 </r>
       <r>   -12.4676     3.5733     0.6933 </r>
       <r>   -12.3606     4.3783     1.1616 </r>
       <r>   -12.2537     3.5391     1.5401 </r>
       <r>   -12.1467     2.7372     1.8329 </r>
       <r>   -12.0397     2.7552     2.1276 </r>
       <r>   -11.9328     2.4992     2.3949 </r>
       <r>   -11.8258     2.7719     2.6914 </r>
       <r>   -11.7189     3.4122     3.0563 </r>
       <r>   -11.6119     3.5371     3.4347 </r>
       <r>   -11.5050     3.1374     3.7702 </r>
       <r>   -11.3980     1.6968     3.9517 </r>
       <r>   -11.2910     0.4430     3.9991 </r>
       <r>   -11.1841     0.0086     4.0000 </r>
       <r>   -11.0771     0.0000     4.0000 </r>
       <r>   -10.9702     0.0000     4.0000 </r>
       <r>   -10.8632     0.0000     4.0000 </r>
       <r>   -10.7562     0.0000     4.0000 </r>
       <r>   -10.6493     0.0000     4.0000 </r>
       <r>   -10.5423     0.0000     4.0000 </r>
       <r>   -10.4354     0.0000     4.0000 </r>
       <r>   -10.3284     0.0000     4.0000 </r>
       <r>   -10.2215     0.0000     4.0000 </r>
       <r>   -10.1145     0.0000     4.0000 </r>
       <r>   -10.0075     0.0000     4.0000 </r>
       <r>    -9.9006     0.0000     4.0000 </r>
       <r>    -9.7936     0.0000     4.0000 </r>
       <r>    -9.6867     0.0000     4.0000 </r>
       <r>    -9.5797     0.0000     4.0000 </r>
       <r>    -9.4728     0.0000     4.0000 </r>
       <r>    -9.3658     0.0000     4.0000 </r>
       <r>    -9.2588     0.0000     4.0000 </r>
       <r>    -9.1519     0.0000     4.0000 </r>
       <r>    -9.0449     0.0000     4.0000 </r>
       <r>    -8.9380     0.0007     4.0001 </r>
       <r>    -8.8310     0.2817     4.0302 </r>
       <r>    -8.7240     2.1111     4.2560 </r>
       <r>    -8.6171     5.3765     4.8311 </r>
       <r>    -8.5101     7.0144     5.5813 </r>
       <r>    -8.4032     6.2833     6.2534 </r>
       <r>    -8.2962     5.3295     6.8234 </r>
       <r>    -8.1893     4.8469     7.3418 </r>
       <r>    -8.0823     3.8630     7.7550 </r>
       <r>    -7.9753     1.6619     7.9327 </r>
       <r>    -7.8684     0.5766     7.9944 </r>
       <r>    -7.7614     0.0521     8.0000 </r>
       <r>    -7.6545     0.0000     8.0000 </r>
       <r>    -7.5475     0.0000     8.0000 </r>
       <r>    -7.4406     0.0000     8.0000 </r>
       <r>    -7.3336     0.0000     8.0000 </r>
       <r>    -7.2266     0.0000     8.0000 </r>
       <r>    -7.1197     0.0000     8.0000 </r>
       <r>    -7.0127     0.0004     8.0000 </r>
       <r>    -6.9058     0.1100     8.0118 </r>
       <r>    -6.7988     0.2595     8.0396 </r>
       <r>    -6.6918     0.4244     8.0850 </r>
       <r>    -6.5849     0.7664     8.1669 </r>
       <r>    -6.4779     0.8452     8.2573 </r>
       <r>    -6.3710     1.4328     8.4106 </r>
       <r>    -6.2640     1.9360     8.6176 </r>
       <r>    -6.1571     3.0513     8.9440 </r>
       <r>    -6.0501     3.7999     9.3504 </r>
       <r>    -5.9431     4.1235     9.7915 </r>
       <r>    -5.8362     4.0532    10.2250 </r>
       <r>    -5.7292     3.8864    10.6407 </r>
       <r>    -5.6223     4.0763    11.0767 </r>
       <r>    -5.5153     4.2168    11.5277 </r>
       <r>    -5.4084     4.5677    12.0162 </r>
       <r>    -5.3014     4.6247    12.5109 </r>
       <r>    -5.1944     4.4985    12.9920 </r>
       <r>    -5.0875     3.8843    13.4075 </r>
       <r>    -4.9805     3.2220    13.7521 </r>
       <r>    -4.8736     2.9754    14.0704 </r>
       <r>    -4.7666     2.3069    14.3171 </r>
       <r>    -4.6596     2.8980    14.6271 </r>
       <r>    -4.5527     3.3727    14.9878 </r>
       <r>    -4.4457     3.4458    15.3564 </r>
       <r>    -4.3388     3.3638    15.7161 </r>
       <r>    -4.2318     2.9638    16.0331 </r>
       <r>    -4.1249     2.9118    16.3446 </r>
       <r>    -4.0179     2.9304    16.6580 </r>
       <r>    -3.9109     2.8846    16.9666 </r>
       <r>    -3.8040     3.1058    17.2987 </r>
       <r>    -3.6970     2.8987    17.6088 </r>
       <r>    -3.5901     2.7084    17.8985 </r>
       <r>    -3.4831     3.0785    18.2277 </r>
       <r>    -3.3761     2.6612    18.5124 </r>
       <r>    -3.2692     2.8293    18.8150 </r>
       <r>    -3.1622     2.7954    19.1140 </r>
       <r>    -3.0553     2.7096    19.4038 </r>
       <r>    -2.9483     3.0846    19.7337 </r>
       <r>    -2.8414     2.9865    20.0531 </r>
       <r>    -2.7344     2.4472    20.3149 </r>
       <r>    -2.6274     2.6355    20.5968 </r>
       <r>    -2.5205     3.0105    20.9188 </r>
       <r>    -2.4135     3.0058    21.2403 </r>
       <r>    -2.3066     3.1811    21.5805 </r>
       <r>    -2.1996     4.0005    22.0084 </r>
       <r>    -2.0927     3.6564    22.3995 </r>
       <r>    -1.9857     3.2060    22.7424 </r>
       <r>    -1.8787     4.9869    23.2758 </r>
       <r>    -1.7718     5.5296    23.8672 </r>
       <r>    -1.6648     5.6521    24.4717 </r>
       <r>    -1.5579     6.1696    25.1316 </r>
       <r>    -1.4509     6.1511    25.7895 </r>
       <r>    -1.3439     5.6162    26.3902 </r>
       <r>    -1.2370     4.6889    26.8918 </r>
       <r>    -1.1300     6.4861    27.5855 </r>
       <r>    -1.0231     4.1832    28.0329 </r>
       <r>    -0.9161     2.2887    28.2777 </r>
       <r>    -0.8092     2.7067    28.5672 </r>
       <r>    -0.7022     2.8844    28.8757 </r>
       <r>    -0.5952     4.4255    29.3491 </r>
       <r>    -0.4883     6.8131    30.0778 </r>
       <r>    -0.3813     5.6829    30.6856 </r>
       <r>    -0.2744     6.6325    31.3950 </r>
       <r>    -0.1674     6.3853    32.0779 </r>
       <r>    -0.0605     6.7345    32.7983 </r>
       <r>     0.0465     6.8387    33.5297 </r>
       <r>     0.1535     6.2361    34.1967 </r>
       <r>     0.2604     8.8387    35.1421 </r>
       <r>     0.3674     8.1059    36.0091 </r>
       <r>     0.4743     8.6773    36.9372 </r>
       <r>     0.5813     5.4032    37.5151 </r>
       <r>     0.6883     3.0188    37.8380 </r>
       <r>     0.7952     3.2261    38.1830 </r>
       <r>     0.9022     3.5919    38.5672 </r>
       <r>     1.0091     3.5846    38.9506 </r>
       <r>     1.1161     2.8094    39.2511 </r>
       <r>     1.2230     3.3613    39.6106 </r>
       <r>     1.3300     4.4718    40.0889 </r>
       <r>     1.4370     3.8247    40.4980 </r>
       <r>     1.5439     3.6975    40.8935 </r>
       <r>     1.6509     4.5909    41.3845 </r>
       <r>     1.7578     3.3602    41.7439 </r>
       <r>     1.8648     2.4746    42.0086 </r>
       <r>     1.9717     2.6806    42.2953 </r>
       <r>     2.0787     2.0978    42.5197 </r>
       <r>     2.1857     2.6472    42.8028 </r>
       <r>     2.2926     2.6132    43.0823 </r>
       <r>     2.3996     1.9813    43.2942 </r>
       <r>     2.5065     0.9084    43.3914 </r>
       <r>     2.6135     0.3800    43.4320 </r>
       <r>     2.7205     0.5757    43.4936 </r>
       <r>     2.8274     0.4211    43.5386 </r>
       <r>     2.9344     0.3058    43.5713 </r>
       <r>     3.0413     0.7320    43.6496 </r>
       <r>     3.1483     1.0253    43.7593 </r>
       <r>     3.2552     0.5717    43.8205 </r>
       <r>     3.3622     0.0170    43.8223 </r>
       <r>     3.4692     0.1193    43.8350 </r>
       <r>     3.5761     0.3921    43.8770 </r>
       <r>     3.6831     0.3406    43.9134 </r>
       <r>     3.7900     0.3637    43.9523 </r>
       <r>     3.8970     0.4139    43.9966 </r>
       <r>     4.0039     0.0321    44.0000 </r>
       <r>     4.1109     0.0000    44.0000 </r>
       <r>     4.2179     0.0185    44.0020 </r>
       <r>     4.3248     0.1639    44.0195 </r>
       <r>     4.4318     0.3830    44.0605 </r>
       <r>     4.5387     0.4486    44.1085 </r>
       <r>     4.6457     0.6200    44.1748 </r>
       <r>     4.7527     0.8698    44.2678 </r>
       <r>     4.8596     0.8384    44.3575 </r>
       <r>     4.9666     0.8666    44.4502 </r>
       <r>     5.0735     1.2508    44.5840 </r>
       <r>     5.1805     1.1811    44.7103 </r>
       <r>     5.2874     1.5913    44.8805 </r>
       <r>     5.3944     2.1392    45.1093 </r>
       <r>     5.5014     2.5031    45.3770 </r>
       <r>     5.6083     2.7969    45.6762 </r>
       <r>     5.7153     3.2960    46.0287 </r>
       <r>     5.8222     3.2668    46.3781 </r>
       <r>     5.9292     4.2355    46.8311 </r>
       <r>     6.0361     4.8103    47.3456 </r>
       <r>     6.1431     4.0895    47.7830 </r>
       <r>     6.2501     4.6019    48.2753 </r>
       <r>     6.3570     4.2776    48.7328 </r>
       <r>     6.4640     3.9621    49.1565 </r>
       <r>     6.5709     4.5235    49.6404 </r>
       <r>     6.6779     3.2587    49.9889 </r>
       <r>     6.7849     3.9608    50.4126 </r>
       <r>     6.8918     4.6050    50.9051 </r>
       <r>     6.9988     4.5893    51.3960 </r>
       <r>     7.1057     4.3402    51.8602 </r>
       <r>     7.2127     5.5759    52.4566 </r>
       <r>     7.3196     4.9965    52.9910 </r>
       <r>     7.4266     4.4830    53.4705 </r>
       <r>     7.5336     4.2318    53.9231 </r>
       <r>     7.6405     3.5943    54.3075 </r>
       <r>     7.7475     3.1060    54.6397 </r>
       <r>     7.8544     3.0307    54.9639 </r>
       <r>     7.9614     2.9695    55.2815 </r>
       <r>     8.0683     4.1573    55.7262 </r>
       <r>     8.1753     3.9263    56.1461 </r>
       <r>     8.2823     3.7438    56.5466 </r>
       <r>     8.3892     4.0129    56.9758 </r>
       <r>     8.4962     4.2510    57.4304 </r>
       <r>     8.6031     4.4945    57.9112 </r>
       <r>     8.7101     4.2894    58.3699 </r>
       <r>     8.8171     5.3460    58.9417 </r>
       <r>     8.9240     4.8104    59.4563 </r>
       <r>     9.0310     5.2814    60.0211 </r>
       <r>     9.1379     5.2282    60.5803 </r>
       <r>     9.2449     5.0133    61.1165 </r>
       <r>     9.3518     4.6657    61.6156 </r>
       <r>     9.4588     4.4050    62.0867 </r>
       <r>     9.5658     5.0909    62.6312 </r>
       <r>     9.6727     5.0388    63.1702 </r>
       <r>     9.7797     5.2842    63.7354 </r>
       <r>     9.8866     4.4957    64.2162 </r>
       <r>     9.9936     3.6870    64.6106 </r>
       <r>    10.1006     5.1912    65.1658 </r>
       <r>    10.2075     4.7228    65.6709 </r>
       <r>    10.3145     4.1610    66.1160 </r>
       <r>    10.4214     5.3390    66.6870 </r>
       <r>    10.5284     5.8317    67.3108 </r>
       <r>    10.6353     4.0837    67.7476 </r>
       <r>    10.7423     3.9130    68.1661 </r>
       <r>    10.8493     3.2779    68.5167 </r>
       <r>    10.9562     4.6916    69.0185 </r>
       <r>    11.0632     5.4122    69.5974 </r>
       <r>    11.1701     6.2875    70.2699 </r>
       <r>    11.2771     6.0068    70.9124 </r>
       <r>    11.3840     5.1950    71.4680 </r>
       <r>    11.4910     4.4133    71.9400 </r>
       <r>    11.5980     4.4769    72.4189 </r>
       <r>    11.7049     4.9809    72.9516 </r>
       <r>    11.8119     4.8264    73.4678 </r>
       <r>    11.9188     5.9951    74.1091 </r>
       <r>    12.0258     6.0134    74.7523 </r>
       <r>    12.1328     6.0572    75.4001 </r>
       <r>    12.2397     5.5524    75.9940 </r>
       <r>    12.3467     4.9985    76.5286 </r>
       <r>    12.4536     5.7209    77.1405 </r>
       <r>    12.5606     5.9697    77.7790 </r>
       <r>    12.6675     5.9459    78.4150 </r>
       <r>    12.7745     5.9486    79.0512 </r>
       <r>    12.8815     5.8899    79.6812 </r>
       <r>    12.9884     5.6226    80.2826 </r>
       <r>    13.0954     6.3486    80.9616 </r>
       <r>    13.2023     6.3147    81.6370 </r>
       <r>    13.3093     5.4562    82.2206 </r>
       <r>    13.4162     6.1213    82.8753 </r>
       <r>    13.5232     5.4284    83.4559 </r>
       <r>    13.6302     4.8398    83.9736 </r>
       <r>    13.7371     6.1835    84.6350 </r>
       <r>    13.8441     5.5173    85.2251 </r>
       <r>    13.9510     5.3700    85.7995 </r>
       <r>    14.0580     5.4777    86.3853 </r>
       <r>    14.1650     4.6765    86.8855 </r>
       <r>    14.2719     4.9620    87.4163 </r>
       <r>    14.3789     4.9641    87.9472 </r>
       <r>    14.4858     4.9425    88.4758 </r>
       <r>    14.5928     5.2744    89.0400 </r>
       <r>    14.6997     5.1990    89.5961 </r>
       <r>    14.8067     4.1004    90.0346 </r>
       <r>    14.9137     5.0183    90.5714 </r>
       <r>    15.0206     6.1445    91.2286 </r>
       <r>    15.1276     5.7002    91.8383 </r>
       <r>    15.2345     5.7220    92.4503 </r>
       <r>    15.3415     5.9991    93.0919 </r>
       <r>    15.4484     5.7697    93.7090 </r>
       <r>    15.5554     6.0093    94.3518 </r>
       <r>    15.6624     4.6242    94.8464 </r>
       <r>    15.7693     2.5123    95.1151 </r>
       <r>    15.8763     2.7084    95.4048 </r>
       <r>    15.9832     1.8436    95.6020 </r>
       <r>    16.0902     1.1329    95.7231 </r>
       <r>    16.1972     0.8989    95.8193 </r>
       <r>    16.3041     0.6940    95.8935 </r>
       <r>    16.4111     0.8138    95.9806 </r>
       <r>    16.5180     0.1801    95.9998 </r>
       <r>    16.6250     0.0017    96.0000 </r>
       <r>    16.7319     0.0000    96.0000 </r>
       <r>    16.8389     0.0000    96.0000 </r>
       <r>    16.9459     0.0000    96.0000 </r>
       <r>    17.0528     0.0000    96.0000 </r>
       <r>    17.1598     0.0000    96.0000 </r>
       <r>    17.2667     0.0000    96.0000 </r>
       <r>    17.3737     0.0000    96.0000 </r>
       <r>    17.4806     0.0000    96.0000 </r>
       <r>    17.5876     0.0000    96.0000 </r>
       <r>    17.6946     0.0000    96.0000 </r>
       <r>    17.8015     0.0000    96.0000 </r>
       <r>    17.9085     0.0000    96.0000 </r>
      </set>
     </set>
    </array>
   </total>
  </dos>
 </calculation>
 <structure name="finalpos" >
  <crystal>
   <varray name="basis" >
    <v>       5.70440610       0.00000000       0.00000000 </v>
    <v>       0.00000000       4.05316227       0.00000000 </v>
    <v>       0.00000000       0.00000000       6.21226546 </v>
   </varray>
   <i name="volume">    143.63306645 </i>
   <varray name="rec_basis" >
    <v>       0.17530309       0.00000000       0.00000000 </v>
    <v>       0.00000000       0.24672094       0.00000000 </v>
    <v>       0.00000000       0.00000000       0.16097187 </v>
   </varray>
  </crystal>
  <varray name="positions" >
   <v>       0.52123000       0.50000000       0.63796000 </v>
   <v>       0.47877000       0.50000000       0.36204000 </v>
   <v>       0.97877000       0.50000000       0.63796000 </v>
   <v>       0.02123000       0.50000000       0.36204000 </v>
   <v>       0.60090000       0.50000000       0.89991000 </v>
   <v>       0.39910000       0.50000000       0.10009000 </v>
   <v>       0.89910000       0.50000000       0.89991000 </v>
   <v>       0.10090000       0.50000000       0.10009000 </v>
   <v>       0.75000000       0.79171000       0.72973000 </v>
   <v>       0.25000000       0.20829000       0.27027000 </v>
   <v>       0.75000000       0.20829000       0.72973000 </v>
   <v>       0.25000000       0.79171000       0.27027000 </v>
   <v>       0.25000000       0.50000000       0.52367000 </v>
   <v>       0.75000000       0.50000000       0.47633000 </v>
  </varray>
 </structure>
</modeling>
