       N       E                     dE             d eps       ncg     rms          rms(c)
DAV:   1     0.795465427024E+01    0.79547E+01   -0.35500E+02  8400   0.403E+01
DAV:   2     0.993111735301E-01   -0.78553E+01   -0.78261E+01 16608   0.572E+00
DAV:   3    -0.550447227657E-01   -0.15436E+00   -0.13210E+00  8496   0.144E+00
DAV:   4    -0.582169568115E-01   -0.31722E-02   -0.30554E-02  9696   0.176E-01
DAV:   5    -0.582521793306E-01   -0.35223E-04   -0.35209E-04 12840   0.208E-02    0.848E-03
DAV:   6    -0.582526344331E-01   -0.45510E-06   -0.29270E-06 11568   0.344E-03
   1 F= -.58252634E-01 E0= -.31751964E-01  d E =-.530013E-01
