  14  14   0   0
  0.1021318E+02  0.5700971E-09  0.4044058E-09  0.6201871E-09  0.5000000E-15
  1.000000000000000E-004
  CAR 
 Dielectric                              
     50.77704718    -15.71968063 4000      1.93016524      1.00000000
    -15.720  0.0000E+00  0.0000E+00
    -15.703  0.0000E+00  0.0000E+00
    -15.686  0.0000E+00  0.0000E+00
    -15.670  0.0000E+00  0.0000E+00
    -15.653  0.0000E+00  0.0000E+00
    -15.637  0.0000E+00  0.0000E+00
    -15.620  0.0000E+00  0.0000E+00
    -15.603  0.0000E+00  0.0000E+00
    -15.587  0.0000E+00  0.0000E+00
    -15.570  0.0000E+00  0.0000E+00
    -15.553  0.0000E+00  0.0000E+00
    -15.537  0.0000E+00  0.0000E+00
    -15.520  0.0000E+00  0.0000E+00
    -15.504  0.0000E+00  0.0000E+00
    -15.487  0.0000E+00  0.0000E+00
    -15.470  0.0000E+00  0.0000E+00
    -15.454  0.0000E+00  0.0000E+00
    -15.437  0.0000E+00  0.0000E+00
    -15.420  0.0000E+00  0.0000E+00
    -15.404  0.0000E+00  0.0000E+00
    -15.387  0.0000E+00  0.0000E+00
    -15.370  0.0000E+00  0.0000E+00
    -15.354  0.0000E+00  0.0000E+00
    -15.337  0.0000E+00  0.0000E+00
    -15.321  0.0000E+00  0.0000E+00
    -15.304  0.0000E+00  0.0000E+00
    -15.287  0.0000E+00  0.0000E+00
    -15.271  0.0000E+00  0.0000E+00
    -15.254  0.0000E+00  0.0000E+00
    -15.237  0.0000E+00  0.0000E+00
    -15.221  0.0000E+00  0.0000E+00
    -15.204  0.0000E+00  0.0000E+00
    -15.188  0.0000E+00  0.0000E+00
    -15.171  0.0000E+00  0.0000E+00
    -15.154  0.0000E+00  0.0000E+00
    -15.138  0.0000E+00  0.0000E+00
    -15.121  0.0000E+00  0.0000E+00
    -15.104  0.0000E+00  0.0000E+00
    -15.088  0.0000E+00  0.0000E+00
    -15.071  0.0000E+00  0.0000E+00
    -15.055  0.0000E+00  0.0000E+00
    -15.038  0.0000E+00  0.0000E+00
    -15.021  0.0000E+00  0.0000E+00
    -15.005  0.0000E+00  0.0000E+00
    -14.988  0.0000E+00  0.0000E+00
    -14.971  0.0000E+00  0.0000E+00
    -14.955  0.0000E+00  0.0000E+00
    -14.938  0.0000E+00  0.0000E+00
    -14.922  0.0000E+00  0.0000E+00
    -14.905  0.0000E+00  0.0000E+00
    -14.888  0.0000E+00  0.0000E+00
    -14.872  0.0000E+00  0.0000E+00
    -14.855  0.0000E+00  0.0000E+00
    -14.838  0.0000E+00  0.0000E+00
    -14.822  0.0000E+00  0.0000E+00
    -14.805  0.0000E+00  0.0000E+00
    -14.788  0.0000E+00  0.0000E+00
    -14.772  0.0000E+00  0.0000E+00
    -14.755  0.0000E+00  0.0000E+00
    -14.739  0.0000E+00  0.0000E+00
    -14.722  0.0000E+00  0.0000E+00
    -14.705  0.0000E+00  0.0000E+00
    -14.689  0.0000E+00  0.0000E+00
    -14.672  0.0000E+00  0.0000E+00
    -14.655  0.0000E+00  0.0000E+00
    -14.639  0.0000E+00  0.0000E+00
    -14.622  0.0000E+00  0.0000E+00
    -14.606  0.0000E+00  0.0000E+00
    -14.589  0.0000E+00  0.0000E+00
    -14.572  0.0000E+00  0.0000E+00
    -14.556  0.0000E+00  0.0000E+00
    -14.539  0.0000E+00  0.0000E+00
    -14.522  0.0000E+00  0.0000E+00
    -14.506  0.0000E+00  0.0000E+00
    -14.489  0.0000E+00  0.0000E+00
    -14.473  0.0000E+00  0.0000E+00
    -14.456  0.0000E+00  0.0000E+00
    -14.439  0.0000E+00  0.0000E+00
    -14.423  0.0000E+00  0.0000E+00
    -14.406  0.0000E+00  0.0000E+00
    -14.389  0.0000E+00  0.0000E+00
    -14.373  0.0000E+00  0.0000E+00
    -14.356  0.0000E+00  0.0000E+00
    -14.340  0.0000E+00  0.0000E+00
    -14.323  0.0000E+00  0.0000E+00
    -14.306  0.0000E+00  0.0000E+00
    -14.290  0.0000E+00  0.0000E+00
    -14.273  0.0000E+00  0.0000E+00
    -14.256  0.0000E+00  0.0000E+00
    -14.240  0.0000E+00  0.0000E+00
    -14.223  0.0000E+00  0.0000E+00
    -14.207  0.0000E+00  0.0000E+00
    -14.190  0.0000E+00  0.0000E+00
    -14.173  0.0000E+00  0.0000E+00
    -14.157  0.0000E+00  0.0000E+00
    -14.140  0.0000E+00  0.0000E+00
    -14.123  0.0000E+00  0.0000E+00
    -14.107  0.0000E+00  0.0000E+00
    -14.090  0.0000E+00  0.0000E+00
    -14.073  0.0000E+00  0.0000E+00
    -14.057  0.0000E+00  0.0000E+00
    -14.040  0.0000E+00  0.0000E+00
    -14.024  0.0000E+00  0.0000E+00
    -14.007  0.0000E+00  0.0000E+00
    -13.990  0.0000E+00  0.0000E+00
    -13.974  0.0000E+00  0.0000E+00
    -13.957  0.0000E+00  0.0000E+00
    -13.940  0.0000E+00  0.0000E+00
    -13.924  0.0000E+00  0.0000E+00
    -13.907  0.0000E+00  0.0000E+00
    -13.891  0.0000E+00  0.0000E+00
    -13.874  0.0000E+00  0.0000E+00
    -13.857  0.0000E+00  0.0000E+00
    -13.841  0.0000E+00  0.0000E+00
    -13.824  0.0000E+00  0.0000E+00
    -13.807  0.0000E+00  0.0000E+00
    -13.791  0.0000E+00  0.0000E+00
    -13.774  0.0000E+00  0.0000E+00
    -13.758  0.0000E+00  0.0000E+00
    -13.741  0.0000E+00  0.0000E+00
    -13.724  0.0000E+00  0.0000E+00
    -13.708  0.0000E+00  0.0000E+00
    -13.691  0.0000E+00  0.0000E+00
    -13.674  0.0000E+00  0.0000E+00
    -13.658  0.0000E+00  0.0000E+00
    -13.641  0.0000E+00  0.0000E+00
    -13.625  0.0000E+00  0.0000E+00
    -13.608  0.0000E+00  0.0000E+00
    -13.591  0.0000E+00  0.0000E+00
    -13.575  0.0000E+00  0.0000E+00
    -13.558  0.0000E+00  0.0000E+00
    -13.541  0.0000E+00  0.0000E+00
    -13.525  0.0000E+00  0.0000E+00
    -13.508  0.0000E+00  0.0000E+00
    -13.491  0.0000E+00  0.0000E+00
    -13.475  0.0000E+00  0.0000E+00
    -13.458  0.0000E+00  0.0000E+00
    -13.442  0.0000E+00  0.0000E+00
    -13.425  0.0000E+00  0.0000E+00
    -13.408  0.0000E+00  0.0000E+00
    -13.392  0.0000E+00  0.0000E+00
    -13.375  0.0000E+00  0.0000E+00
    -13.358  0.0000E+00  0.0000E+00
    -13.342  0.0000E+00  0.0000E+00
    -13.325  0.0000E+00  0.0000E+00
    -13.309  0.0000E+00  0.0000E+00
    -13.292  0.0000E+00  0.0000E+00
    -13.275  0.0000E+00  0.0000E+00
    -13.259  0.0000E+00  0.0000E+00
    -13.242  0.0000E+00  0.0000E+00
    -13.225  0.0000E+00  0.0000E+00
    -13.209  0.0000E+00  0.0000E+00
    -13.192  0.0000E+00  0.0000E+00
    -13.176  0.0000E+00  0.0000E+00
    -13.159  0.0000E+00  0.0000E+00
    -13.142  0.0000E+00  0.0000E+00
    -13.126  0.0000E+00  0.0000E+00
    -13.109  0.0000E+00  0.0000E+00
    -13.092  0.0000E+00  0.0000E+00
    -13.076  0.0000E+00  0.0000E+00
    -13.059  0.0000E+00  0.0000E+00
    -13.043  0.0000E+00  0.0000E+00
    -13.026  0.0000E+00  0.0000E+00
    -13.009  0.0000E+00  0.0000E+00
    -12.993  0.0000E+00  0.0000E+00
    -12.976  0.0000E+00  0.0000E+00
    -12.959  0.0000E+00  0.0000E+00
    -12.943  0.0000E+00  0.0000E+00
    -12.926  0.0000E+00  0.0000E+00
    -12.909  0.0000E+00  0.0000E+00
    -12.893  0.0000E+00  0.0000E+00
    -12.876  0.0000E+00  0.0000E+00
    -12.860  0.0000E+00  0.0000E+00
    -12.843  0.0000E+00  0.0000E+00
    -12.826  0.0000E+00  0.0000E+00
    -12.810  0.0000E+00  0.0000E+00
    -12.793  0.0000E+00  0.0000E+00
    -12.776  0.0000E+00  0.0000E+00
    -12.760  0.0000E+00  0.0000E+00
    -12.743  0.3766E-11  0.6261E-13
    -12.727  0.1672E-05  0.2780E-07
    -12.710  0.4470E-02  0.7435E-04
    -12.693  0.2118E+00  0.3596E-02
    -12.677  0.6814E+00  0.1493E-01
    -12.660  0.1104E+01  0.3329E-01
    -12.643  0.1408E+01  0.5671E-01
    -12.627  0.1825E+01  0.8706E-01
    -12.610  0.1737E+01  0.1159E+00
    -12.594  0.2665E+01  0.1603E+00
    -12.577  0.3012E+01  0.2103E+00
    -12.560  0.3255E+01  0.2645E+00
    -12.544  0.2839E+01  0.3117E+00
    -12.527  0.2896E+01  0.3598E+00
    -12.510  0.3342E+01  0.4154E+00
    -12.494  0.3495E+01  0.4735E+00
    -12.477  0.3873E+01  0.5379E+00
    -12.461  0.3318E+01  0.5931E+00
    -12.444  0.3643E+01  0.6537E+00
    -12.427  0.4447E+01  0.7276E+00
    -12.411  0.3944E+01  0.7932E+00
    -12.394  0.4726E+01  0.8718E+00
    -12.377  0.4605E+01  0.9484E+00
    -12.361  0.4480E+01  0.1023E+01
    -12.344  0.4607E+01  0.1099E+01
    -12.327  0.4848E+01  0.1180E+01
    -12.311  0.3978E+01  0.1246E+01
    -12.294  0.3071E+01  0.1297E+01
    -12.278  0.2713E+01  0.1342E+01
    -12.261  0.3295E+01  0.1397E+01
    -12.244  0.3281E+01  0.1452E+01
    -12.228  0.3971E+01  0.1518E+01
    -12.211  0.3328E+01  0.1573E+01
    -12.194  0.2734E+01  0.1619E+01
    -12.178  0.2936E+01  0.1667E+01
    -12.161  0.1952E+01  0.1700E+01
    -12.145  0.2220E+01  0.1737E+01
    -12.128  0.2262E+01  0.1774E+01
    -12.111  0.2803E+01  0.1821E+01
    -12.095  0.4154E+01  0.1890E+01
    -12.078  0.3134E+01  0.1942E+01
    -12.061  0.2289E+01  0.1980E+01
    -12.045  0.2010E+01  0.2014E+01
    -12.028  0.2055E+01  0.2048E+01
    -12.012  0.1744E+01  0.2077E+01
    -11.995  0.2868E+01  0.2125E+01
    -11.978  0.2867E+01  0.2172E+01
    -11.962  0.2929E+01  0.2221E+01
    -11.945  0.3561E+01  0.2280E+01
    -11.928  0.1853E+01  0.2311E+01
    -11.912  0.1626E+01  0.2338E+01
    -11.895  0.2699E+01  0.2383E+01
    -11.879  0.1519E+01  0.2408E+01
    -11.862  0.3685E+01  0.2469E+01
    -11.845  0.3798E+01  0.2533E+01
    -11.829  0.1886E+01  0.2564E+01
    -11.812  0.2624E+01  0.2608E+01
    -11.795  0.2579E+01  0.2650E+01
    -11.779  0.2194E+01  0.2687E+01
    -11.762  0.3017E+01  0.2737E+01
    -11.746  0.2630E+01  0.2781E+01
    -11.729  0.3585E+01  0.2840E+01
    -11.712  0.4100E+01  0.2909E+01
    -11.696  0.3842E+01  0.2973E+01
    -11.679  0.2756E+01  0.3018E+01
    -11.662  0.3934E+01  0.3084E+01
    -11.646  0.2838E+01  0.3131E+01
    -11.629  0.3502E+01  0.3189E+01
    -11.612  0.3993E+01  0.3256E+01
    -11.596  0.3502E+01  0.3314E+01
    -11.579  0.3783E+01  0.3377E+01
    -11.563  0.3773E+01  0.3439E+01
    -11.546  0.3426E+01  0.3496E+01
    -11.529  0.2950E+01  0.3545E+01
    -11.513  0.3510E+01  0.3604E+01
    -11.496  0.2904E+01  0.3652E+01
    -11.479  0.2379E+01  0.3692E+01
    -11.463  0.3715E+01  0.3753E+01
    -11.446  0.2160E+01  0.3789E+01
    -11.430  0.2592E+01  0.3832E+01
    -11.413  0.2180E+01  0.3869E+01
    -11.396  0.9220E+00  0.3884E+01
    -11.380  0.1725E+01  0.3913E+01
    -11.363  0.1342E+01  0.3935E+01
    -11.346  0.1021E+01  0.3952E+01
    -11.330  0.1194E+01  0.3972E+01
    -11.313  0.5916E+00  0.3982E+01
    -11.297  0.5363E+00  0.3991E+01
    -11.280  0.4632E+00  0.3998E+01
    -11.263  0.9626E-01  0.4000E+01
    -11.247  0.1036E-02  0.4000E+01
    -11.230  0.8376E-07  0.4000E+01
    -11.213  0.3285E-13  0.4000E+01
    -11.197  0.0000E+00  0.4000E+01
    -11.180  0.0000E+00  0.4000E+01
    -11.164  0.0000E+00  0.4000E+01
    -11.147  0.0000E+00  0.4000E+01
    -11.130  0.0000E+00  0.4000E+01
    -11.114  0.0000E+00  0.4000E+01
    -11.097  0.0000E+00  0.4000E+01
    -11.080  0.0000E+00  0.4000E+01
    -11.064  0.0000E+00  0.4000E+01
    -11.047  0.0000E+00  0.4000E+01
    -11.030  0.0000E+00  0.4000E+01
    -11.014  0.0000E+00  0.4000E+01
    -10.997  0.0000E+00  0.4000E+01
    -10.981  0.0000E+00  0.4000E+01
    -10.964  0.0000E+00  0.4000E+01
    -10.947  0.0000E+00  0.4000E+01
    -10.931  0.0000E+00  0.4000E+01
    -10.914  0.0000E+00  0.4000E+01
    -10.897  0.0000E+00  0.4000E+01
    -10.881  0.0000E+00  0.4000E+01
    -10.864  0.0000E+00  0.4000E+01
    -10.848  0.0000E+00  0.4000E+01
    -10.831  0.0000E+00  0.4000E+01
    -10.814  0.0000E+00  0.4000E+01
    -10.798  0.0000E+00  0.4000E+01
    -10.781  0.0000E+00  0.4000E+01
    -10.764  0.0000E+00  0.4000E+01
    -10.748  0.0000E+00  0.4000E+01
    -10.731  0.0000E+00  0.4000E+01
    -10.715  0.0000E+00  0.4000E+01
    -10.698  0.0000E+00  0.4000E+01
    -10.681  0.0000E+00  0.4000E+01
    -10.665  0.0000E+00  0.4000E+01
    -10.648  0.0000E+00  0.4000E+01
    -10.631  0.0000E+00  0.4000E+01
    -10.615  0.0000E+00  0.4000E+01
    -10.598  0.0000E+00  0.4000E+01
    -10.582  0.0000E+00  0.4000E+01
    -10.565  0.0000E+00  0.4000E+01
    -10.548  0.0000E+00  0.4000E+01
    -10.532  0.0000E+00  0.4000E+01
    -10.515  0.0000E+00  0.4000E+01
    -10.498  0.0000E+00  0.4000E+01
    -10.482  0.0000E+00  0.4000E+01
    -10.465  0.0000E+00  0.4000E+01
    -10.448  0.0000E+00  0.4000E+01
    -10.432  0.0000E+00  0.4000E+01
    -10.415  0.0000E+00  0.4000E+01
    -10.399  0.0000E+00  0.4000E+01
    -10.382  0.0000E+00  0.4000E+01
    -10.365  0.0000E+00  0.4000E+01
    -10.349  0.0000E+00  0.4000E+01
    -10.332  0.0000E+00  0.4000E+01
    -10.315  0.0000E+00  0.4000E+01
    -10.299  0.0000E+00  0.4000E+01
    -10.282  0.0000E+00  0.4000E+01
    -10.266  0.0000E+00  0.4000E+01
    -10.249  0.0000E+00  0.4000E+01
    -10.232  0.0000E+00  0.4000E+01
    -10.216  0.0000E+00  0.4000E+01
    -10.199  0.0000E+00  0.4000E+01
    -10.182  0.0000E+00  0.4000E+01
    -10.166  0.0000E+00  0.4000E+01
    -10.149  0.0000E+00  0.4000E+01
    -10.133  0.0000E+00  0.4000E+01
    -10.116  0.0000E+00  0.4000E+01
    -10.099  0.0000E+00  0.4000E+01
    -10.083  0.0000E+00  0.4000E+01
    -10.066  0.0000E+00  0.4000E+01
    -10.049  0.0000E+00  0.4000E+01
    -10.033  0.0000E+00  0.4000E+01
    -10.016  0.0000E+00  0.4000E+01
    -10.000  0.0000E+00  0.4000E+01
     -9.983  0.0000E+00  0.4000E+01
     -9.966  0.0000E+00  0.4000E+01
     -9.950  0.0000E+00  0.4000E+01
     -9.933  0.0000E+00  0.4000E+01
     -9.916  0.0000E+00  0.4000E+01
     -9.900  0.0000E+00  0.4000E+01
     -9.883  0.0000E+00  0.4000E+01
     -9.867  0.0000E+00  0.4000E+01
     -9.850  0.0000E+00  0.4000E+01
     -9.833  0.0000E+00  0.4000E+01
     -9.817  0.0000E+00  0.4000E+01
     -9.800  0.0000E+00  0.4000E+01
     -9.783  0.0000E+00  0.4000E+01
     -9.767  0.0000E+00  0.4000E+01
     -9.750  0.0000E+00  0.4000E+01
     -9.733  0.0000E+00  0.4000E+01
     -9.717  0.0000E+00  0.4000E+01
     -9.700  0.0000E+00  0.4000E+01
     -9.684  0.0000E+00  0.4000E+01
     -9.667  0.0000E+00  0.4000E+01
     -9.650  0.0000E+00  0.4000E+01
     -9.634  0.0000E+00  0.4000E+01
     -9.617  0.0000E+00  0.4000E+01
     -9.600  0.0000E+00  0.4000E+01
     -9.584  0.0000E+00  0.4000E+01
     -9.567  0.0000E+00  0.4000E+01
     -9.551  0.0000E+00  0.4000E+01
     -9.534  0.0000E+00  0.4000E+01
     -9.517  0.0000E+00  0.4000E+01
     -9.501  0.0000E+00  0.4000E+01
     -9.484  0.0000E+00  0.4000E+01
     -9.467  0.0000E+00  0.4000E+01
     -9.451  0.0000E+00  0.4000E+01
     -9.434  0.0000E+00  0.4000E+01
     -9.418  0.0000E+00  0.4000E+01
     -9.401  0.0000E+00  0.4000E+01
     -9.384  0.0000E+00  0.4000E+01
     -9.368  0.0000E+00  0.4000E+01
     -9.351  0.0000E+00  0.4000E+01
     -9.334  0.0000E+00  0.4000E+01
     -9.318  0.0000E+00  0.4000E+01
     -9.301  0.0000E+00  0.4000E+01
     -9.285  0.0000E+00  0.4000E+01
     -9.268  0.0000E+00  0.4000E+01
     -9.251  0.0000E+00  0.4000E+01
     -9.235  0.0000E+00  0.4000E+01
     -9.218  0.0000E+00  0.4000E+01
     -9.201  0.0000E+00  0.4000E+01
     -9.185  0.0000E+00  0.4000E+01
     -9.168  0.0000E+00  0.4000E+01
     -9.151  0.0000E+00  0.4000E+01
     -9.135  0.0000E+00  0.4000E+01
     -9.118  0.0000E+00  0.4000E+01
     -9.102  0.0000E+00  0.4000E+01
     -9.085  0.0000E+00  0.4000E+01
     -9.068  0.0000E+00  0.4000E+01
     -9.052  0.0000E+00  0.4000E+01
     -9.035  0.0000E+00  0.4000E+01
     -9.018  0.0000E+00  0.4000E+01
     -9.002  0.0000E+00  0.4000E+01
     -8.985  0.0000E+00  0.4000E+01
     -8.969  0.0000E+00  0.4000E+01
     -8.952  0.0000E+00  0.4000E+01
     -8.935  0.0000E+00  0.4000E+01
     -8.919  0.0000E+00  0.4000E+01
     -8.902  0.0000E+00  0.4000E+01
     -8.885  0.0000E+00  0.4000E+01
     -8.869  0.1795E-11  0.4000E+01
     -8.852  0.1573E-05  0.4000E+01
     -8.836  0.7477E-02  0.4000E+01
     -8.819  0.4023E+00  0.4007E+01
     -8.802  0.9233E+00  0.4022E+01
     -8.786  0.1305E+01  0.4044E+01
     -8.769  0.1275E+01  0.4065E+01
     -8.752  0.2466E+01  0.4106E+01
     -8.736  0.2205E+01  0.4143E+01
     -8.719  0.2642E+01  0.4187E+01
     -8.703  0.2738E+01  0.4232E+01
     -8.686  0.3067E+01  0.4283E+01
     -8.669  0.4193E+01  0.4353E+01
     -8.653  0.5780E+01  0.4449E+01
     -8.636  0.5593E+01  0.4542E+01
     -8.619  0.7477E+01  0.4666E+01
     -8.603  0.6494E+01  0.4774E+01
     -8.586  0.7076E+01  0.4892E+01
     -8.569  0.5951E+01  0.4991E+01
     -8.553  0.6706E+01  0.5102E+01
     -8.536  0.6869E+01  0.5217E+01
     -8.520  0.7363E+01  0.5339E+01
     -8.503  0.6403E+01  0.5446E+01
     -8.486  0.6673E+01  0.5557E+01
     -8.470  0.6855E+01  0.5671E+01
     -8.453  0.7680E+01  0.5798E+01
     -8.436  0.5897E+01  0.5896E+01
     -8.420  0.5128E+01  0.5982E+01
     -8.403  0.4155E+01  0.6051E+01
     -8.387  0.3966E+01  0.6117E+01
     -8.370  0.3001E+01  0.6167E+01
     -8.353  0.4463E+01  0.6241E+01
     -8.337  0.4134E+01  0.6309E+01
     -8.320  0.5485E+01  0.6401E+01
     -8.303  0.5810E+01  0.6497E+01
     -8.287  0.4634E+01  0.6574E+01
     -8.270  0.5249E+01  0.6662E+01
     -8.254  0.4432E+01  0.6735E+01
     -8.237  0.4996E+01  0.6818E+01
     -8.220  0.4371E+01  0.6891E+01
     -8.204  0.4573E+01  0.6967E+01
     -8.187  0.4925E+01  0.7049E+01
     -8.170  0.4589E+01  0.7125E+01
     -8.154  0.4828E+01  0.7206E+01
     -8.137  0.4169E+01  0.7275E+01
     -8.121  0.4085E+01  0.7343E+01
     -8.104  0.5586E+01  0.7436E+01
     -8.087  0.3829E+01  0.7499E+01
     -8.071  0.5220E+01  0.7586E+01
     -8.054  0.3522E+01  0.7645E+01
     -8.037  0.1855E+01  0.7676E+01
     -8.021  0.3252E+01  0.7730E+01
     -8.004  0.2221E+01  0.7767E+01
     -7.988  0.2398E+01  0.7807E+01
     -7.971  0.2412E+01  0.7847E+01
     -7.954  0.1254E+01  0.7867E+01
     -7.938  0.1733E+01  0.7896E+01
     -7.921  0.7593E+00  0.7909E+01
     -7.904  0.9109E+00  0.7924E+01
     -7.888  0.9797E+00  0.7940E+01
     -7.871  0.9115E+00  0.7956E+01
     -7.854  0.9733E+00  0.7972E+01
     -7.838  0.5883E+00  0.7981E+01
     -7.821  0.2597E+00  0.7986E+01
     -7.805  0.2863E+00  0.7991E+01
     -7.788  0.4290E+00  0.7998E+01
     -7.771  0.1374E+00  0.8000E+01
     -7.755  0.1028E-02  0.8000E+01
     -7.738  0.4964E-07  0.8000E+01
     -7.721  0.1143E-13  0.8000E+01
     -7.705  0.0000E+00  0.8000E+01
     -7.688  0.0000E+00  0.8000E+01
     -7.672  0.0000E+00  0.8000E+01
     -7.655  0.0000E+00  0.8000E+01
     -7.638  0.0000E+00  0.8000E+01
     -7.622  0.0000E+00  0.8000E+01
     -7.605  0.0000E+00  0.8000E+01
     -7.588  0.0000E+00  0.8000E+01
     -7.572  0.0000E+00  0.8000E+01
     -7.555  0.0000E+00  0.8000E+01
     -7.539  0.0000E+00  0.8000E+01
     -7.522  0.0000E+00  0.8000E+01
     -7.505  0.0000E+00  0.8000E+01
     -7.489  0.0000E+00  0.8000E+01
     -7.472  0.0000E+00  0.8000E+01
     -7.455  0.0000E+00  0.8000E+01
     -7.439  0.0000E+00  0.8000E+01
     -7.422  0.0000E+00  0.8000E+01
     -7.406  0.0000E+00  0.8000E+01
     -7.389  0.0000E+00  0.8000E+01
     -7.372  0.0000E+00  0.8000E+01
     -7.356  0.0000E+00  0.8000E+01
     -7.339  0.0000E+00  0.8000E+01
     -7.322  0.0000E+00  0.8000E+01
     -7.306  0.0000E+00  0.8000E+01
     -7.289  0.0000E+00  0.8000E+01
     -7.272  0.0000E+00  0.8000E+01
     -7.256  0.0000E+00  0.8000E+01
     -7.239  0.0000E+00  0.8000E+01
     -7.223  0.0000E+00  0.8000E+01
     -7.206  0.0000E+00  0.8000E+01
     -7.189  0.0000E+00  0.8000E+01
     -7.173  0.0000E+00  0.8000E+01
     -7.156  0.0000E+00  0.8000E+01
     -7.139  0.0000E+00  0.8000E+01
     -7.123  0.0000E+00  0.8000E+01
     -7.106  0.0000E+00  0.8000E+01
     -7.090  0.0000E+00  0.8000E+01
     -7.073  0.0000E+00  0.8000E+01
     -7.056  0.0000E+00  0.8000E+01
     -7.040  0.0000E+00  0.8000E+01
     -7.023  0.0000E+00  0.8000E+01
     -7.006  0.0000E+00  0.8000E+01
     -6.990  0.0000E+00  0.8000E+01
     -6.973  0.1142E-09  0.8000E+01
     -6.957  0.1920E-04  0.8000E+01
     -6.940  0.1867E-01  0.8000E+01
     -6.923  0.3060E+00  0.8005E+01
     -6.907  0.3167E+00  0.8011E+01
     -6.890  0.2726E+00  0.8015E+01
     -6.873  0.1566E+00  0.8018E+01
     -6.857  0.5586E-01  0.8019E+01
     -6.840  0.3259E+00  0.8024E+01
     -6.824  0.4854E-01  0.8025E+01
     -6.807  0.6108E-01  0.8026E+01
     -6.790  0.6758E+00  0.8037E+01
     -6.774  0.3689E+00  0.8043E+01
     -6.757  0.3285E+00  0.8049E+01
     -6.740  0.2920E+00  0.8054E+01
     -6.724  0.9074E+00  0.8069E+01
     -6.707  0.5006E+00  0.8077E+01
     -6.690  0.2949E+00  0.8082E+01
     -6.674  0.4151E+00  0.8089E+01
     -6.657  0.1124E+01  0.8108E+01
     -6.641  0.4406E+00  0.8115E+01
     -6.624  0.6488E+00  0.8126E+01
     -6.607  0.8220E+00  0.8139E+01
     -6.591  0.8560E+00  0.8154E+01
     -6.574  0.7467E+00  0.8166E+01
     -6.557  0.4381E+00  0.8173E+01
     -6.541  0.9415E+00  0.8189E+01
     -6.524  0.5120E+00  0.8197E+01
     -6.508  0.1044E+01  0.8215E+01
     -6.491  0.8374E+00  0.8229E+01
     -6.474  0.9826E+00  0.8245E+01
     -6.458  0.6262E+00  0.8255E+01
     -6.441  0.8335E+00  0.8269E+01
     -6.424  0.1030E+01  0.8286E+01
     -6.408  0.1537E+01  0.8312E+01
     -6.391  0.1769E+01  0.8341E+01
     -6.375  0.1864E+01  0.8372E+01
     -6.358  0.9825E+00  0.8389E+01
     -6.341  0.2121E+01  0.8424E+01
     -6.325  0.2508E+01  0.8466E+01
     -6.308  0.1850E+01  0.8497E+01
     -6.291  0.2158E+01  0.8532E+01
     -6.275  0.2707E+01  0.8577E+01
     -6.258  0.1387E+01  0.8600E+01
     -6.242  0.2192E+01  0.8637E+01
     -6.225  0.3394E+01  0.8693E+01
     -6.208  0.1674E+01  0.8721E+01
     -6.192  0.2945E+01  0.8770E+01
     -6.175  0.2665E+01  0.8814E+01
     -6.158  0.2459E+01  0.8855E+01
     -6.142  0.3685E+01  0.8917E+01
     -6.125  0.5136E+01  0.9002E+01
     -6.109  0.3992E+01  0.9068E+01
     -6.092  0.4917E+01  0.9150E+01
     -6.075  0.3561E+01  0.9209E+01
     -6.059  0.4351E+01  0.9282E+01
     -6.042  0.3444E+01  0.9339E+01
     -6.025  0.3655E+01  0.9400E+01
     -6.009  0.3894E+01  0.9465E+01
     -5.992  0.4721E+01  0.9543E+01
     -5.975  0.3451E+01  0.9600E+01
     -5.959  0.4847E+01  0.9681E+01
     -5.942  0.4214E+01  0.9751E+01
     -5.926  0.3644E+01  0.9812E+01
     -5.909  0.3795E+01  0.9875E+01
     -5.892  0.3618E+01  0.9935E+01
     -5.876  0.3662E+01  0.9996E+01
     -5.859  0.3629E+01  0.1006E+02
     -5.842  0.3734E+01  0.1012E+02
     -5.826  0.3459E+01  0.1018E+02
     -5.809  0.4798E+01  0.1026E+02
     -5.793  0.5926E+01  0.1035E+02
     -5.776  0.5142E+01  0.1044E+02
     -5.759  0.4220E+01  0.1051E+02
     -5.743  0.3487E+01  0.1057E+02
     -5.726  0.4282E+01  0.1064E+02
     -5.709  0.3795E+01  0.1070E+02
     -5.693  0.4198E+01  0.1077E+02
     -5.676  0.3135E+01  0.1082E+02
     -5.660  0.4005E+01  0.1089E+02
     -5.643  0.4513E+01  0.1097E+02
     -5.626  0.4008E+01  0.1103E+02
     -5.610  0.3627E+01  0.1109E+02
     -5.593  0.3925E+01  0.1116E+02
     -5.576  0.4377E+01  0.1123E+02
     -5.560  0.3518E+01  0.1129E+02
     -5.543  0.3186E+01  0.1134E+02
     -5.527  0.3085E+01  0.1139E+02
     -5.510  0.6416E+01  0.1150E+02
     -5.493  0.4265E+01  0.1157E+02
     -5.477  0.3476E+01  0.1163E+02
     -5.460  0.3939E+01  0.1169E+02
     -5.443  0.5660E+01  0.1179E+02
     -5.427  0.5908E+01  0.1189E+02
     -5.410  0.3929E+01  0.1195E+02
     -5.393  0.4364E+01  0.1202E+02
     -5.377  0.5723E+01  0.1212E+02
     -5.360  0.4418E+01  0.1219E+02
     -5.344  0.5746E+01  0.1229E+02
     -5.327  0.4251E+01  0.1236E+02
     -5.310  0.4181E+01  0.1243E+02
     -5.294  0.4479E+01  0.1250E+02
     -5.277  0.5244E+01  0.1259E+02
     -5.260  0.4225E+01  0.1266E+02
     -5.244  0.4520E+01  0.1274E+02
     -5.227  0.3988E+01  0.1280E+02
     -5.211  0.4379E+01  0.1288E+02
     -5.194  0.5048E+01  0.1296E+02
     -5.177  0.4350E+01  0.1303E+02
     -5.161  0.4365E+01  0.1310E+02
     -5.144  0.4234E+01  0.1317E+02
     -5.127  0.3984E+01  0.1324E+02
     -5.111  0.3256E+01  0.1329E+02
     -5.094  0.2283E+01  0.1333E+02
     -5.078  0.3474E+01  0.1339E+02
     -5.061  0.3789E+01  0.1345E+02
     -5.044  0.3821E+01  0.1352E+02
     -5.028  0.3227E+01  0.1357E+02
     -5.011  0.3868E+01  0.1364E+02
     -4.994  0.3169E+01  0.1369E+02
     -4.978  0.1924E+01  0.1372E+02
     -4.961  0.3012E+01  0.1377E+02
     -4.945  0.3365E+01  0.1383E+02
     -4.928  0.2767E+01  0.1387E+02
     -4.911  0.2881E+01  0.1392E+02
     -4.895  0.2117E+01  0.1395E+02
     -4.878  0.1477E+01  0.1398E+02
     -4.861  0.1983E+01  0.1401E+02
     -4.845  0.3854E+01  0.1408E+02
     -4.828  0.3670E+01  0.1414E+02
     -4.811  0.3060E+01  0.1419E+02
     -4.795  0.1774E+01  0.1422E+02
     -4.778  0.1243E+01  0.1424E+02
     -4.762  0.2131E+01  0.1427E+02
     -4.745  0.3135E+01  0.1433E+02
     -4.728  0.3299E+01  0.1438E+02
     -4.712  0.2257E+01  0.1442E+02
     -4.695  0.3864E+01  0.1448E+02
     -4.678  0.3963E+01  0.1455E+02
     -4.662  0.3366E+01  0.1460E+02
     -4.645  0.3130E+01  0.1466E+02
     -4.629  0.2986E+01  0.1471E+02
     -4.612  0.4231E+01  0.1478E+02
     -4.595  0.3285E+01  0.1483E+02
     -4.579  0.2768E+01  0.1488E+02
     -4.562  0.4071E+01  0.1495E+02
     -4.545  0.4706E+01  0.1502E+02
     -4.529  0.3600E+01  0.1508E+02
     -4.512  0.3803E+01  0.1515E+02
     -4.496  0.3079E+01  0.1520E+02
     -4.479  0.3768E+01  0.1526E+02
     -4.462  0.3194E+01  0.1531E+02
     -4.446  0.3695E+01  0.1537E+02
     -4.429  0.3396E+01  0.1543E+02
     -4.412  0.2867E+01  0.1548E+02
     -4.396  0.3015E+01  0.1553E+02
     -4.379  0.1725E+01  0.1556E+02
     -4.363  0.2757E+01  0.1560E+02
     -4.346  0.3108E+01  0.1566E+02
     -4.329  0.2132E+01  0.1569E+02
     -4.313  0.2612E+01  0.1573E+02
     -4.296  0.3580E+01  0.1579E+02
     -4.279  0.3457E+01  0.1585E+02
     -4.263  0.2974E+01  0.1590E+02
     -4.246  0.3517E+01  0.1596E+02
     -4.229  0.2888E+01  0.1601E+02
     -4.213  0.4220E+01  0.1608E+02
     -4.196  0.3276E+01  0.1613E+02
     -4.180  0.3337E+01  0.1619E+02
     -4.163  0.2611E+01  0.1623E+02
     -4.146  0.2682E+01  0.1628E+02
     -4.130  0.2646E+01  0.1632E+02
     -4.113  0.3093E+01  0.1637E+02
     -4.096  0.2363E+01  0.1641E+02
     -4.080  0.2290E+01  0.1645E+02
     -4.063  0.2536E+01  0.1649E+02
     -4.047  0.2552E+01  0.1653E+02
     -4.030  0.1930E+01  0.1656E+02
     -4.013  0.2540E+01  0.1661E+02
     -3.997  0.3156E+01  0.1666E+02
     -3.980  0.3335E+01  0.1672E+02
     -3.963  0.2373E+01  0.1675E+02
     -3.947  0.2618E+01  0.1680E+02
     -3.930  0.3396E+01  0.1685E+02
     -3.914  0.4247E+01  0.1693E+02
     -3.897  0.4326E+01  0.1700E+02
     -3.880  0.2973E+01  0.1705E+02
     -3.864  0.3917E+01  0.1711E+02
     -3.847  0.2006E+01  0.1714E+02
     -3.830  0.2981E+01  0.1719E+02
     -3.814  0.2759E+01  0.1724E+02
     -3.797  0.2209E+01  0.1728E+02
     -3.781  0.2564E+01  0.1732E+02
     -3.764  0.3455E+01  0.1738E+02
     -3.747  0.3796E+01  0.1744E+02
     -3.731  0.3553E+01  0.1750E+02
     -3.714  0.2606E+01  0.1754E+02
     -3.697  0.3683E+01  0.1760E+02
     -3.681  0.2551E+01  0.1765E+02
     -3.664  0.3517E+01  0.1770E+02
     -3.648  0.2907E+01  0.1775E+02
     -3.631  0.2273E+01  0.1779E+02
     -3.614  0.2586E+01  0.1783E+02
     -3.598  0.3210E+01  0.1789E+02
     -3.581  0.1868E+01  0.1792E+02
     -3.564  0.1878E+01  0.1795E+02
     -3.548  0.2257E+01  0.1799E+02
     -3.531  0.2507E+01  0.1803E+02
     -3.514  0.3100E+01  0.1808E+02
     -3.498  0.3605E+01  0.1814E+02
     -3.481  0.2425E+01  0.1818E+02
     -3.465  0.2768E+01  0.1823E+02
     -3.448  0.2204E+01  0.1826E+02
     -3.431  0.2080E+01  0.1830E+02
     -3.415  0.3024E+01  0.1835E+02
     -3.398  0.3691E+01  0.1841E+02
     -3.381  0.3458E+01  0.1847E+02
     -3.365  0.1730E+01  0.1850E+02
     -3.348  0.2332E+01  0.1853E+02
     -3.332  0.3070E+01  0.1859E+02
     -3.315  0.2081E+01  0.1862E+02
     -3.298  0.2285E+01  0.1866E+02
     -3.282  0.3884E+01  0.1872E+02
     -3.265  0.2472E+01  0.1876E+02
     -3.248  0.2958E+01  0.1881E+02
     -3.232  0.3535E+01  0.1887E+02
     -3.215  0.2983E+01  0.1892E+02
     -3.199  0.1935E+01  0.1895E+02
     -3.182  0.2229E+01  0.1899E+02
     -3.165  0.2531E+01  0.1903E+02
     -3.149  0.1923E+01  0.1906E+02
     -3.132  0.3252E+01  0.1912E+02
     -3.115  0.2588E+01  0.1916E+02
     -3.099  0.3162E+01  0.1921E+02
     -3.082  0.3270E+01  0.1927E+02
     -3.066  0.3266E+01  0.1932E+02
     -3.049  0.4530E+01  0.1940E+02
     -3.032  0.2816E+01  0.1945E+02
     -3.016  0.2257E+01  0.1948E+02
     -2.999  0.1650E+01  0.1951E+02
     -2.982  0.2785E+01  0.1956E+02
     -2.966  0.2368E+01  0.1960E+02
     -2.949  0.2915E+01  0.1964E+02
     -2.932  0.3156E+01  0.1970E+02
     -2.916  0.2541E+01  0.1974E+02
     -2.899  0.2886E+01  0.1979E+02
     -2.883  0.3699E+01  0.1985E+02
     -2.866  0.3611E+01  0.1991E+02
     -2.849  0.3941E+01  0.1997E+02
     -2.833  0.2998E+01  0.2002E+02
     -2.816  0.2593E+01  0.2007E+02
     -2.799  0.2733E+01  0.2011E+02
     -2.783  0.2188E+01  0.2015E+02
     -2.766  0.2122E+01  0.2018E+02
     -2.750  0.2284E+01  0.2022E+02
     -2.733  0.1706E+01  0.2025E+02
     -2.716  0.1784E+01  0.2028E+02
     -2.700  0.1925E+01  0.2031E+02
     -2.683  0.1590E+01  0.2034E+02
     -2.666  0.2238E+01  0.2038E+02
     -2.650  0.2629E+01  0.2042E+02
     -2.633  0.1929E+01  0.2045E+02
     -2.617  0.2682E+01  0.2050E+02
     -2.600  0.2636E+01  0.2054E+02
     -2.583  0.2256E+01  0.2058E+02
     -2.567  0.2701E+01  0.2062E+02
     -2.550  0.2357E+01  0.2066E+02
     -2.533  0.3222E+01  0.2072E+02
     -2.517  0.3285E+01  0.2077E+02
     -2.500  0.3097E+01  0.2082E+02
     -2.484  0.3014E+01  0.2087E+02
     -2.467  0.2986E+01  0.2092E+02
     -2.450  0.3312E+01  0.2098E+02
     -2.434  0.3898E+01  0.2104E+02
     -2.417  0.4397E+01  0.2111E+02
     -2.400  0.2281E+01  0.2115E+02
     -2.384  0.3241E+01  0.2121E+02
     -2.367  0.3315E+01  0.2126E+02
     -2.350  0.4651E+01  0.2134E+02
     -2.334  0.3927E+01  0.2140E+02
     -2.317  0.4040E+01  0.2147E+02
     -2.301  0.3922E+01  0.2154E+02
     -2.284  0.4589E+01  0.2161E+02
     -2.267  0.3252E+01  0.2167E+02
     -2.251  0.2570E+01  0.2171E+02
     -2.234  0.3682E+01  0.2177E+02
     -2.217  0.2906E+01  0.2182E+02
     -2.201  0.2405E+01  0.2186E+02
     -2.184  0.2461E+01  0.2190E+02
     -2.168  0.2895E+01  0.2195E+02
     -2.151  0.4017E+01  0.2201E+02
     -2.134  0.4029E+01  0.2208E+02
     -2.118  0.3787E+01  0.2214E+02
     -2.101  0.4701E+01  0.2222E+02
     -2.084  0.4214E+01  0.2229E+02
     -2.068  0.5752E+01  0.2239E+02
     -2.051  0.5454E+01  0.2248E+02
     -2.035  0.2646E+01  0.2252E+02
     -2.018  0.2966E+01  0.2257E+02
     -2.001  0.1116E+01  0.2259E+02