       N       E                     dE             d eps       ncg     rms          rms(c)
DAV:   1    -0.971804979063E+02   -0.97180E+02   -0.39976E+00 93312   0.397E+00    0.119E+01
DAV:   2    -0.923791119931E+02    0.48014E+01   -0.27343E+00111864   0.389E+00    0.692E+00
DAV:   3    -0.905990862023E+02    0.17800E+01   -0.12353E+00115248   0.252E+00    0.158E+00
DAV:   4    -0.906066603923E+02   -0.75742E-02   -0.19918E-01107640   0.683E-01    0.950E-01
DAV:   5    -0.906228800896E+02   -0.16220E-01   -0.11236E-02112416   0.201E-01    0.230E-01
DAV:   6    -0.906268660388E+02   -0.39859E-02   -0.22004E-03110640   0.899E-02    0.117E-01
DAV:   7    -0.906286339624E+02   -0.17679E-02   -0.52323E-04109248   0.440E-02    0.344E-02
DAV:   8    -0.906287526007E+02   -0.11864E-03   -0.66864E-05111672   0.176E-02    0.109E-02
DAV:   9    -0.906287633968E+02   -0.10796E-04   -0.57847E-06109392   0.453E-03    0.265E-03
DAV:  10    -0.906287638979E+02   -0.50113E-06   -0.33564E-07111528   0.110E-03
   1 F= -.90628764E+02 E0= -.90628674E+02  d E =-.178889E-03
 imaginary and real dielectric function
