  14  14   0   0
  0.1029952E+02  0.5711812E-09  0.4058425E-09  0.6220331E-09  0.5000000E-15
  1.000000000000000E-004
  CAR 
 Convergence                             
     17.84220369    -14.17103607  301      1.83892604      1.00000000
    -14.171  0.0000E+00  0.0000E+00
    -14.064  0.0000E+00  0.0000E+00
    -13.958  0.0000E+00  0.0000E+00
    -13.851  0.0000E+00  0.0000E+00
    -13.744  0.0000E+00  0.0000E+00
    -13.637  0.0000E+00  0.0000E+00
    -13.531  0.0000E+00  0.0000E+00
    -13.424  0.0000E+00  0.0000E+00
    -13.317  0.0000E+00  0.0000E+00
    -13.211  0.0000E+00  0.0000E+00
    -13.104  0.0000E+00  0.0000E+00
    -12.997  0.5945E-16  0.6344E-17
    -12.891  0.3367E-07  0.3593E-08
    -12.784  0.3939E-02  0.4204E-03
    -12.677  0.5116E+00  0.5501E-01
    -12.570  0.2399E+01  0.3110E+00
    -12.464  0.3583E+01  0.6933E+00
    -12.357  0.4385E+01  0.1161E+01
    -12.250  0.3539E+01  0.1539E+01
    -12.144  0.2739E+01  0.1831E+01
    -12.037  0.2759E+01  0.2126E+01
    -11.930  0.2493E+01  0.2392E+01
    -11.823  0.2773E+01  0.2688E+01
    -11.717  0.3397E+01  0.3050E+01
    -11.610  0.3539E+01  0.3428E+01
    -11.503  0.3160E+01  0.3765E+01
    -11.397  0.1726E+01  0.3949E+01
    -11.290  0.4657E+00  0.3999E+01
    -11.183  0.1018E-01  0.4000E+01
    -11.076  0.3890E-06  0.4000E+01
    -10.970  0.3726E-14  0.4000E+01
    -10.863  0.0000E+00  0.4000E+01
    -10.756  0.0000E+00  0.4000E+01
    -10.650  0.0000E+00  0.4000E+01
    -10.543  0.0000E+00  0.4000E+01
    -10.436  0.0000E+00  0.4000E+01
    -10.329  0.0000E+00  0.4000E+01
    -10.223  0.0000E+00  0.4000E+01
    -10.116  0.0000E+00  0.4000E+01
    -10.009  0.0000E+00  0.4000E+01
     -9.903  0.0000E+00  0.4000E+01
     -9.796  0.0000E+00  0.4000E+01
     -9.689  0.0000E+00  0.4000E+01
     -9.582  0.0000E+00  0.4000E+01
     -9.476  0.0000E+00  0.4000E+01
     -9.369  0.0000E+00  0.4000E+01
     -9.262  0.0000E+00  0.4000E+01
     -9.156  0.0000E+00  0.4000E+01
     -9.049  0.1260E-08  0.4000E+01
     -8.942  0.7009E-03  0.4000E+01
     -8.835  0.2874E+00  0.4031E+01
     -8.729  0.2132E+01  0.4258E+01
     -8.622  0.5421E+01  0.4837E+01
     -8.515  0.7040E+01  0.5588E+01
     -8.409  0.6269E+01  0.6257E+01
     -8.302  0.5334E+01  0.6826E+01
     -8.195  0.4859E+01  0.7345E+01
     -8.089  0.3854E+01  0.7756E+01
     -7.982  0.1659E+01  0.7933E+01
     -7.875  0.5766E+00  0.7994E+01
     -7.768  0.5252E-01  0.8000E+01
     -7.662  0.2578E-04  0.8000E+01
     -7.555  0.3332E-11  0.8000E+01
     -7.448  0.0000E+00  0.8000E+01
     -7.342  0.0000E+00  0.8000E+01
     -7.235  0.0000E+00  0.8000E+01
     -7.128  0.3653E-09  0.8000E+01
     -7.021  0.3292E-03  0.8000E+01
     -6.915  0.1070E+00  0.8011E+01
     -6.808  0.2614E+00  0.8039E+01
     -6.701  0.4226E+00  0.8084E+01
     -6.595  0.7666E+00  0.8166E+01
     -6.488  0.8406E+00  0.8256E+01
     -6.381  0.1420E+01  0.8407E+01
     -6.274  0.1909E+01  0.8611E+01
     -6.168  0.3046E+01  0.8936E+01
     -6.061  0.3817E+01  0.9343E+01
     -5.954  0.4131E+01  0.9784E+01
     -5.848  0.4062E+01  0.1022E+02
     -5.741  0.3911E+01  0.1064E+02
     -5.634  0.4080E+01  0.1107E+02
     -5.527  0.4212E+01  0.1152E+02
     -5.421  0.4591E+01  0.1201E+02
     -5.314  0.4650E+01  0.1251E+02
     -5.207  0.4507E+01  0.1299E+02
     -5.101  0.3899E+01  0.1340E+02
     -4.994  0.3217E+01  0.1375E+02
     -4.887  0.2997E+01  0.1407E+02
     -4.780  0.2279E+01  0.1431E+02
     -4.674  0.2901E+01  0.1462E+02
     -4.567  0.3374E+01  0.1498E+02
     -4.460  0.3421E+01  0.1534E+02
     -4.354  0.3394E+01  0.1571E+02
     -4.247  0.2975E+01  0.1602E+02
     -4.140  0.2916E+01  0.1633E+02
     -4.034  0.2915E+01  0.1665E+02
     -3.927  0.2911E+01  0.1696E+02
     -3.820  0.3091E+01  0.1729E+02
     -3.713  0.2921E+01  0.1760E+02
     -3.607  0.2714E+01  0.1789E+02
     -3.500  0.3089E+01  0.1822E+02
     -3.393  0.2686E+01  0.1850E+02
     -3.287  0.2797E+01  0.1880E+02
     -3.180  0.2848E+01  0.1911E+02
     -3.073  0.2678E+01  0.1939E+02
     -2.966  0.3124E+01  0.1973E+02
     -2.860  0.2998E+01  0.2005E+02
     -2.753  0.2466E+01  0.2031E+02
     -2.646  0.2613E+01  0.2059E+02
     -2.540  0.2998E+01  0.2091E+02
     -2.433  0.3030E+01  0.2123E+02
     -2.326  0.3167E+01  0.2157E+02
     -2.219  0.4002E+01  0.2200E+02
     -2.113  0.3647E+01  0.2238E+02
     -2.006  0.3125E+01  0.2272E+02
     -1.899  0.4856E+01  0.2324E+02
     -1.793  0.5503E+01  0.2382E+02
     -1.686  0.5685E+01  0.2443E+02
     -1.579  0.6144E+01  0.2509E+02
     -1.472  0.6193E+01  0.2575E+02
     -1.366  0.5660E+01  0.2635E+02
     -1.259  0.4710E+01  0.2685E+02
     -1.152  0.6443E+01  0.2754E+02
     -1.046  0.4403E+01  0.2801E+02
     -0.939  0.2316E+01  0.2826E+02
     -0.832  0.2715E+01  0.2855E+02
     -0.725  0.2896E+01  0.2886E+02
     -0.619  0.4337E+01  0.2932E+02
     -0.512  0.6741E+01  0.3004E+02
     -0.405  0.5719E+01  0.3065E+02
     -0.299  0.6547E+01  0.3135E+02
     -0.192  0.6429E+01  0.3203E+02
     -0.085  0.6719E+01  0.3275E+02
      0.022  0.6907E+01  0.3349E+02
      0.128  0.6178E+01  0.3415E+02
      0.235  0.8868E+01  0.3509E+02
      0.342  0.8224E+01  0.3597E+02
      0.448  0.8659E+01  0.3690E+02
      0.555  0.5573E+01  0.3749E+02
      0.662  0.3110E+01  0.3782E+02
      0.768  0.3157E+01  0.3816E+02
      0.875  0.3597E+01  0.3854E+02
      0.982  0.3597E+01  0.3893E+02
      1.089  0.2838E+01  0.3923E+02
      1.195  0.3336E+01  0.3959E+02
      1.302  0.4431E+01  0.4006E+02
      1.409  0.3879E+01  0.4047E+02
      1.515  0.3675E+01  0.4086E+02
      1.622  0.4598E+01  0.4135E+02
      1.729  0.3492E+01  0.4173E+02
      1.836  0.2475E+01  0.4199E+02
      1.942  0.2695E+01  0.4228E+02
      2.049  0.2113E+01  0.4250E+02
      2.156  0.2636E+01  0.4279E+02
      2.262  0.2654E+01  0.4307E+02
      2.369  0.2025E+01  0.4329E+02
      2.476  0.9717E+00  0.4339E+02
      2.583  0.3850E+00  0.4343E+02
      2.689  0.5776E+00  0.4349E+02
      2.796  0.4227E+00  0.4354E+02
      2.903  0.3077E+00  0.4357E+02
      3.009  0.7034E+00  0.4364E+02
      3.116  0.1036E+01  0.4376E+02
      3.223  0.6074E+00  0.4382E+02
      3.330  0.2229E-01  0.4382E+02
      3.436  0.1070E+00  0.4383E+02
      3.543  0.3877E+00  0.4388E+02
      3.650  0.3521E+00  0.4391E+02
      3.756  0.3542E+00  0.4395E+02
      3.863  0.4257E+00  0.4400E+02
      3.970  0.3899E-01  0.4400E+02
      4.077  0.7805E-05  0.4400E+02
      4.183  0.9908E-02  0.4400E+02
      4.290  0.1506E+00  0.4402E+02
      4.397  0.3533E+00  0.4405E+02
      4.503  0.4316E+00  0.4410E+02
      4.610  0.6100E+00  0.4417E+02
      4.717  0.8439E+00  0.4426E+02
      4.823  0.8446E+00  0.4435E+02
      4.930  0.8818E+00  0.4444E+02
      5.037  0.1213E+01  0.4457E+02
      5.144  0.1215E+01  0.4470E+02
      5.250  0.1543E+01  0.4486E+02
      5.357  0.2078E+01  0.4509E+02
      5.464  0.2526E+01  0.4536E+02
      5.570  0.2801E+01  0.4565E+02
      5.677  0.3227E+01  0.4600E+02
      5.784  0.3331E+01  0.4635E+02
      5.891  0.4136E+01  0.4680E+02
      5.997  0.4852E+01  0.4731E+02
      6.104  0.4156E+01  0.4776E+02
      6.211  0.4574E+01  0.4824E+02
      6.317  0.4398E+01  0.4871E+02
      6.424  0.3919E+01  0.4913E+02
      6.531  0.4552E+01  0.4962E+02
      6.638  0.3308E+01  0.4997E+02
      6.744  0.3923E+01  0.5039E+02
      6.851  0.4591E+01  0.5088E+02
      6.958  0.4632E+01  0.5137E+02
      7.064  0.4340E+01  0.5184E+02
      7.171  0.5550E+01  0.5243E+02
      7.278  0.5070E+01  0.5297E+02
      7.385  0.4515E+01  0.5345E+02
      7.491  0.4267E+01  0.5391E+02
      7.598  0.3625E+01  0.5429E+02
      7.705  0.3091E+01  0.5462E+02
      7.811  0.3047E+01  0.5495E+02
      7.918  0.2972E+01  0.5527E+02
      8.025  0.4138E+01  0.5571E+02
      8.132  0.3967E+01  0.5613E+02
      8.238  0.3797E+01  0.5654E+02
      8.345  0.4042E+01  0.5697E+02
      8.452  0.4281E+01  0.5742E+02
      8.558  0.4529E+01  0.5791E+02
      8.665  0.4367E+01  0.5837E+02
      8.772  0.5419E+01  0.5895E+02
      8.878  0.4685E+01  0.5945E+02
      8.985  0.5256E+01  0.6001E+02
      9.092  0.5229E+01  0.6057E+02
      9.199  0.5048E+01  0.6111E+02
      9.305  0.4648E+01  0.6161E+02
      9.412  0.4443E+01  0.6208E+02
      9.519  0.5072E+01  0.6262E+02
      9.625  0.5053E+01  0.6316E+02
      9.732  0.5267E+01  0.6372E+02
      9.839  0.4511E+01  0.6420E+02
      9.946  0.3745E+01  0.6460E+02
     10.052  0.5198E+01  0.6516E+02
     10.159  0.4732E+01  0.6566E+02
     10.266  0.4203E+01  0.6611E+02
     10.372  0.5267E+01  0.6667E+02
     10.479  0.5847E+01  0.6730E+02
     10.586  0.4104E+01  0.6773E+02
     10.693  0.3944E+01  0.6816E+02
     10.799  0.3319E+01  0.6851E+02
     10.906  0.4727E+01  0.6901E+02
     11.013  0.5334E+01  0.6958E+02
     11.119  0.6388E+01  0.7027E+02
     11.226  0.6007E+01  0.7091E+02
     11.333  0.5109E+01  0.7145E+02
     11.440  0.4533E+01  0.7193E+02
     11.546  0.4479E+01  0.7241E+02
     11.653  0.5031E+01  0.7295E+02
     11.760  0.4853E+01  0.7347E+02
     11.866  0.5940E+01  0.7410E+02
     11.973  0.6080E+01  0.7475E+02
     12.080  0.6100E+01  0.7540E+02
     12.187  0.5484E+01  0.7599E+02
     12.293  0.5018E+01  0.7652E+02
     12.400  0.5736E+01  0.7713E+02
     12.507  0.5960E+01  0.7777E+02
     12.613  0.5870E+01  0.7840E+02
     12.720  0.6008E+01  0.7904E+02
     12.827  0.5916E+01  0.7967E+02
     12.934  0.5650E+01  0.8027E+02
     13.040  0.6344E+01  0.8095E+02
     13.147  0.6372E+01  0.8163E+02
     13.254  0.5526E+01  0.8222E+02
     13.360  0.6115E+01  0.8287E+02
     13.467  0.5503E+01  0.8346E+02
     13.574  0.4881E+01  0.8398E+02
     13.680  0.6227E+01  0.8464E+02
     13.787  0.5512E+01  0.8523E+02
     13.894  0.5396E+01  0.8581E+02
     14.001  0.5477E+01  0.8639E+02
     14.107  0.4676E+01  0.8689E+02
     14.214  0.5009E+01  0.8743E+02
     14.321  0.4915E+01  0.8795E+02
     14.427  0.4925E+01  0.8848E+02
     14.534  0.5271E+01  0.8904E+02
     14.641  0.5233E+01  0.8960E+02
     14.748  0.4113E+01  0.9004E+02
     14.854  0.4955E+01  0.9056E+02
     14.961  0.6100E+01  0.9121E+02
     15.068  0.5765E+01  0.9183E+02
     15.174  0.5762E+01  0.9244E+02
     15.281  0.5973E+01  0.9308E+02
     15.388  0.5805E+01  0.9370E+02
     15.495  0.6068E+01  0.9435E+02
     15.601  0.4655E+01  0.9485E+02
     15.708  0.2560E+01  0.9512E+02
     15.815  0.2707E+01  0.9541E+02
     15.921  0.1829E+01  0.9560E+02
     16.028  0.1121E+01  0.9572E+02
     16.135  0.8832E+00  0.9582E+02
     16.242  0.7153E+00  0.9589E+02
     16.348  0.8151E+00  0.9598E+02
     16.455  0.1825E+00  0.9600E+02
     16.562  0.1741E-02  0.9600E+02
     16.668  0.2340E-07  0.9600E+02
     16.775  0.5285E-16  0.9600E+02
     16.882  0.0000E+00  0.9600E+02
     16.989  0.0000E+00  0.9600E+02
     17.095  0.0000E+00  0.9600E+02
     17.202  0.0000E+00  0.9600E+02
     17.309  0.0000E+00  0.9600E+02
     17.415  0.0000E+00  0.9600E+02
     17.522  0.0000E+00  0.9600E+02
     17.629  0.0000E+00  0.9600E+02
     17.735  0.0000E+00  0.9600E+02
     17.842  0.0000E+00  0.9600E+02
