   14   14    1    1
  0.1029952E+02  0.5711812E-09  0.4058425E-09  0.6220331E-09  0.5000000E-15
  1.000000000000000E-004
  CAR 
 Convergence                             
     42    175     48
 
  0.5000000E-01  0.3571429E-01  0.0000000E+00  0.3174603E-02
      1        -12.715889   1.000000
      2        -11.574860   1.000000
      3         -8.669049   1.000000
      4         -8.433415   1.000000
      5         -6.085392   1.000000
      6         -5.152548   1.000000
      7         -4.690593   1.000000
      8         -4.288651   1.000000
      9         -4.053424   1.000000
     10         -3.567328   1.000000
     11         -2.627859   1.000000
     12         -2.359630   1.000000
     13         -1.870607   1.000000
     14         -1.129416   1.000000
     15         -0.100410   1.000000
     16         -0.069799   1.000000
     17          0.115580   1.000000
     18          0.134509   1.000000
     19          0.525011   1.000000
     20          1.976535   0.000050
     21          2.038455   0.000000
     22          2.167620   0.000000
     23          5.397210   0.000000
     24          5.687254   0.000000
     25          5.772344   0.000000
     26          5.897951   0.000000
     27          6.745081   0.000000
     28          7.479272   0.000000
     29          7.804227   0.000000
     30          8.445679   0.000000
     31          8.697229   0.000000
     32          8.856084   0.000000
     33          8.932618   0.000000
     34         10.047638   0.000000
     35         11.113651   0.000000
     36         11.233953   0.000000
     37         11.559695   0.000000
     38         11.685218   0.000000
     39         11.855241   0.000000
     40         12.323586   0.000000
     41         12.761072   0.000000
     42         13.342067   0.000000
     43         13.369568   0.000000
     44         15.244939   0.000000
     45         15.444308   0.000000
     46         15.926940   0.000000
     47         16.213897   0.000000
     48         16.232111   0.000000
 
  0.1500000E+00  0.3571429E-01  0.0000000E+00  0.3174603E-02
      1        -12.672229   1.000000
      2        -11.648722   1.000000
      3         -8.647752   1.000000
      4         -8.421914   1.000000
      5         -6.017668   1.000000
      6         -5.490031   1.000000
      7         -4.810772   1.000000
      8         -4.028259   1.000000
      9         -3.811822   1.000000
     10         -3.232513   1.000000
     11         -2.697411   1.000000
     12         -2.340042   1.000000
     13         -1.947391   1.000000
     14         -1.435499   1.000000
     15         -0.060606   1.000000
     16         -0.057244   1.000000
     17          0.057987   1.000000
     18          0.157001   1.000000
     19          0.429718   1.000000
     20          1.890712   0.071499
     21          1.960919   0.000280
     22          2.047347   0.000000
     23          5.487013   0.000000
     24          5.690682   0.000000
     25          5.805888   0.000000
     26          6.240334   0.000000
     27          6.660551   0.000000
     28          7.119850   0.000000
     29          8.008185   0.000000
     30          8.582216   0.000000
     31          8.944878   0.000000
     32          9.029175   0.000000
     33          9.111390   0.000000
     34         10.150253   0.000000
     35         10.844675   0.000000
     36         11.030251   0.000000
     37         11.185409   0.000000
     38         11.604030   0.000000
     39         12.071805   0.000000
     40         12.409883   0.000000
     41         13.009926   0.000000
     42         13.019415   0.000000
     43         13.895641   0.000000
     44         14.737748   0.000000
     45         15.629491   0.000000
     46         15.716150   0.000000
     47         16.098120   0.000000
     48         16.387056   0.000000
 
  0.2500000E+00  0.3571429E-01  0.0000000E+00  0.3174603E-02
      1        -12.586772   1.000000
      2        -11.781752   1.000000
      3         -8.603978   1.000000
      4         -8.407139   1.000000
      5         -5.995713   1.000000
      6         -5.814912   1.000000
      7         -4.764037   1.000000
      8         -3.902732   1.000000
      9         -3.301998   1.000000
     10         -2.863957   1.000000
     11         -2.743605   1.000000
     12         -2.300641   1.000000
     13         -2.055722   1.000000
     14         -1.938492   1.000000
     15         -0.263125   1.000000
     16         -0.021382   1.000000
     17          0.104966   1.000000
     18          0.124654   1.000000
     19          0.399687   1.000000
     20          1.742902   0.996696
     21          1.820110   0.702702
     22          1.828870   0.611956
     23          5.608593   0.000000
     24          5.646959   0.000000
     25          6.114466   0.000000
     26          6.536007   0.000000
     27          6.695902   0.000000
     28          6.866198   0.000000
     29          8.155438   0.000000
     30          8.731490   0.000000
     31          8.897007   0.000000
     32          9.474018   0.000000
     33          9.557219   0.000000
     34         10.188133   0.000000
     35         10.386917   0.000000
     36         10.524811   0.000000
     37         11.301126   0.000000
     38         11.748807   0.000000
     39         12.305985   0.000000
     40         12.455328   0.000000
     41         12.704039   0.000000
     42         12.805309   0.000000
     43         14.518156   0.000000
     44         14.793920   0.000000
     45         15.120407   0.000000
     46         15.858262   0.000000
     47         15.881354   0.000000
     48         16.157628   0.000000
 
  0.3500000E+00  0.3571429E-01  0.0000000E+00  0.3174603E-02
      1        -12.463480   1.000000
      2        -11.951090   1.000000
      3         -8.542199   1.000000
      4         -8.403715   1.000000
      5         -6.074711   1.000000
      6         -6.047387   1.000000
      7         -4.437894   1.000000
      8         -3.735404   1.000000
      9         -3.056206   1.000000
     10         -2.919989   1.000000
     11         -2.471318   1.000000
     12         -2.284358   1.000000
     13         -2.184320   1.000000
     14         -2.154189   1.000000
     15         -0.562246   1.000000
     16         -0.287376   1.000000
     17          0.139890   1.000000
     18          0.214518   1.000000
     19          0.571989   1.000000
     20          1.484817   1.000000
     21          1.622182   1.000000
     22          1.681527   0.999996
     23          5.632921   0.000000
     24          5.693169   0.000000
     25          6.436470   0.000000
     26          6.609855   0.000000
     27          6.635127   0.000000
     28          7.340230   0.000000
     29          8.277352   0.000000
     30          8.606424   0.000000
     31          8.714702   0.000000
     32          9.447665   0.000000
     33          9.955720   0.000000
     34         10.028729   0.000000
     35         10.298967   0.000000
     36         11.034994   0.000000
     37         11.318065   0.000000
     38         11.837088   0.000000
     39         12.103141   0.000000
     40         12.171869   0.000000
     41         12.430956   0.000000
     42         13.163805   0.000000
     43         14.613728   0.000000
     44         14.864905   0.000000
     45         15.132482   0.000000
     46         15.259774   0.000000
     47         15.451764   0.000000
     48         16.254357   0.000000
 
  0.4500000E+00  0.3571429E-01  0.0000000E+00  0.3174603E-02
      1        -12.308978   1.000000
      2        -12.133343   1.000000
      3         -8.476408   1.000000
      4         -8.425909   1.000000
      5         -6.161394   1.000000
      6         -6.158211   1.000000
      7         -3.924470   1.000000
      8         -3.528133   1.000000
      9         -3.326979   1.000000
     10         -3.292626   1.000000
     11         -2.386333   1.000000
     12         -2.261901   1.000000
     13         -1.998709   1.000000
     14         -1.941107   1.000000
     15         -0.782907   1.000000
     16         -0.646328   1.000000
     17          0.222397   1.000000
     18          0.255475   1.000000
     19          0.831587   1.000000
     20          1.147530   1.000000
     21          1.541903   1.000000
     22          1.568700   1.000000
     23          5.662657   0.000000
     24          5.702291   0.000000
     25          6.416785   0.000000
     26          6.481366   0.000000
     27          7.299610   0.000000
     28          7.996375   0.000000
     29          8.021189   0.000000
     30          8.392734   0.000000
     31          8.528491   0.000000
     32          8.707173   0.000000
     33         10.411646   0.000000
     34         10.423337   0.000000
     35         10.659432   0.000000
     36         11.115646   0.000000
     37         11.299303   0.000000
     38         11.486839   0.000000
     39         11.817884   0.000000
     40         12.380340   0.000000
     41         12.625358   0.000000
     42         13.156381   0.000000
     43         14.492922   0.000000
     44         14.618675   0.000000
     45         14.763619   0.000000
     46         14.824219   0.000000
     47         15.970898   0.000000
     48         16.317185   0.000000
 
  0.5000000E-01  0.1071429E+00  0.0000000E+00  0.3174603E-02
      1        -12.692038   1.000000
      2        -11.553317   1.000000
      3         -8.650509   1.000000
      4         -8.410528   1.000000
      5         -6.058955   1.000000
      6         -5.118950   1.000000
      7         -4.668800   1.000000
      8         -4.587997   1.000000
      9         -4.196571   1.000000
     10         -3.544816   1.000000
     11         -3.318817   1.000000
     12         -1.828690   1.000000
     13         -1.124888   1.000000
     14         -1.074021   1.000000
     15         -0.332661   1.000000
     16         -0.304702   1.000000
     17          0.129105   1.000000
     18          0.204714   1.000000
     19          0.602757   1.000000
     20          1.710743   0.999856
     21          1.789487   0.918997
     22          2.219474   0.000000
     23          5.518708   0.000000
     24          5.644525   0.000000
     25          5.682500   0.000000
     26          5.937188   0.000000
     27          7.028137   0.000000
     28          7.763896   0.000000
     29          7.994404   0.000000
     30          8.111612   0.000000
     31          8.702601   0.000000
     32          8.986452   0.000000
     33          9.048387   0.000000
     34         10.494066   0.000000
     35         11.167410   0.000000
     36         11.324280   0.000000
     37         11.494519   0.000000
     38         11.787261   0.000000
     39         11.966384   0.000000
     40         12.600198   0.000000
     41         12.763156   0.000000
     42         13.083477   0.000000
     43         13.085826   0.000000
     44         15.203425   0.000000
     45         15.247927   0.000000
     46         15.730928   0.000000
     47         15.736778   0.000000
     48         16.091549   0.000000
 
  0.1500000E+00  0.1071429E+00  0.0000000E+00  0.3174603E-02
      1        -12.648472   1.000000
      2        -11.627046   1.000000
      3         -8.629058   1.000000
      4         -8.399394   1.000000
      5         -5.989468   1.000000
      6         -5.460058   1.000000
      7         -4.790980   1.000000
      8         -4.507984   1.000000
      9         -3.774081   1.000000
     10         -3.398396   1.000000
     11         -3.195055   1.000000
     12         -1.807254   1.000000
     13         -1.430129   1.000000
     14         -1.190328   1.000000
     15         -0.294341   1.000000
     16         -0.228568   1.000000
     17          0.095957   1.000000
     18          0.178595   1.000000
     19          0.499845   1.000000
     20          1.630704   1.000000
     21          1.713399   0.999808
     22          2.089530   0.000000
     23          5.595026   0.000000
     24          5.744285   0.000000
     25          5.866053   0.000000
     26          6.048771   0.000000
     27          6.945579   0.000000
     28          7.439895   0.000000
     29          8.140263   0.000000
     30          8.276670   0.000000
     31          9.015446   0.000000
     32          9.060299   0.000000
     33          9.319327   0.000000
     34         10.411788   0.000000
     35         10.777774   0.000000
     36         10.983815   0.000000
     37         11.377970   0.000000
     38         11.776752   0.000000
     39         12.184970   0.000000
     40         12.646860   0.000000
     41         12.765149   0.000000
     42         13.043199   0.000000
     43         13.616493   0.000000
     44         14.821869   0.000000
     45         15.273201   0.000000
     46         15.635431   0.000000
     47         15.666933   0.000000
     48         16.271447   0.000000
 
  0.2500000E+00  0.1071429E+00  0.0000000E+00  0.3174603E-02
      1        -12.563200   1.000000
      2        -11.759824   1.000000
      3         -8.585064   1.000000
      4         -8.385308   1.000000
      5         -5.964771   1.000000
      6         -5.784729   1.000000
      7         -4.747585   1.000000
      8         -4.400817   1.000000
      9         -3.519063   1.000000
     10         -3.250250   1.000000
     11         -2.730954   1.000000
     12         -1.933861   1.000000
     13         -1.763477   1.000000
     14         -1.350689   1.000000
     15         -0.264931   1.000000
     16         -0.249217   1.000000
     17          0.018856   1.000000
     18          0.165666   1.000000
     19          0.423904   1.000000
     20          1.496480   1.000000
     21          1.584002   1.000000
     22          1.842824   0.456100
     23          5.788187   0.000000
     24          5.872751   0.000000
     25          5.951825   0.000000
     26          6.494204   0.000000
     27          6.826258   0.000000
     28          7.213543   0.000000
     29          8.347290   0.000000
     30          8.406971   0.000000
     31          8.993625   0.000000
     32          9.512888   0.000000
     33          9.780901   0.000000
     34         10.033918   0.000000
     35         10.257114   0.000000
     36         10.719535   0.000000
     37         11.439085   0.000000
     38         12.012369   0.000000
     39         12.202495   0.000000
     40         12.466860   0.000000
     41         12.844933   0.000000
     42         12.931136   0.000000
     43         14.191385   0.000000
     44         14.957509   0.000000
     45         15.044769   0.000000
     46         15.521891   0.000000
     47         15.591529   0.000000
     48         16.292127   0.000000
 
  0.3500000E+00  0.1071429E+00  0.0000000E+00  0.3174603E-02
      1        -12.440164   1.000000
      2        -11.928831   1.000000
      3         -8.523029   1.000000
      4         -8.382763   1.000000
      5         -6.042575   1.000000
      6         -6.016395   1.000000
      7         -4.423573   1.000000
      8         -4.255219   1.000000
      9         -3.688604   1.000000
     10         -2.873181   1.000000
     11         -2.390691   1.000000
     12         -2.249663   1.000000
     13         -1.700002   1.000000
     14         -1.511775   1.000000
     15         -0.524766   1.000000
     16         -0.346862   1.000000
     17          0.049356   1.000000
     18          0.081109   1.000000
     19          0.582505   1.000000
     20          1.357235   1.000000
     21          1.439523   1.000000
     22          1.520957   1.000000
     23          5.805380   0.000000
     24          5.945409   0.000000
     25          6.455663   0.000000
     26          6.738591   0.000000
     27          6.812590   0.000000
     28          7.302028   0.000000
     29          8.339739   0.000000
     30          8.513015   0.000000
     31          8.842949   0.000000
     32          9.285341   0.000000
     33          9.976428   0.000000
     34          9.998372   0.000000
     35         10.349334   0.000000
     36         11.110751   0.000000
     37         11.270561   0.000000
     38         11.740480   0.000000
     39         12.175475   0.000000
     40         12.454283   0.000000
     41         12.628990   0.000000
     42         13.363407   0.000000
     43         14.651501   0.000000
     44         14.661876   0.000000
     45         15.031676   0.000000
     46         15.192721   0.000000
     47         15.525444   0.000000
     48         16.268990   0.000000
 
  0.4500000E+00  0.1071429E+00  0.0000000E+00  0.3174603E-02
      1        -12.285988   1.000000
      2        -12.110709   1.000000
      3         -8.456885   1.000000
      4         -8.405795   1.000000
      5         -6.129622   1.000000
      6         -6.126002   1.000000
      7         -4.078029   1.000000
      8         -3.916824   1.000000
      9         -3.876656   1.000000
     10         -3.314372   1.000000
     11         -2.134744   1.000000
     12         -1.944016   1.000000
     13         -1.631928   1.000000
     14         -1.625031   1.000000
     15         -0.745301   1.000000
     16         -0.642054   1.000000
     17          0.084180   1.000000
     18          0.115090   1.000000
     19          0.840879   1.000000
     20          1.154048   1.000000
     21          1.304342   1.000000
     22          1.328046   1.000000
     23          5.858017   0.000000
     24          5.925923   0.000000
     25          6.729450   0.000000
     26          6.780393   0.000000
     27          7.118892   0.000000
     28          7.825668   0.000000
     29          7.866981   0.000000
     30          8.543881   0.000000
     31          8.603677   0.000000
     32          8.714521   0.000000
     33         10.223580   0.000000
     34         10.473460   0.000000
     35         10.713119   0.000000
     36         10.808004   0.000000
     37         11.446734   0.000000
     38         11.545140   0.000000
     39         11.894676   0.000000
     40         12.545879   0.000000
     41         12.930401   0.000000
     42         13.384779   0.000000
     43         14.437459   0.000000
     44         14.623302   0.000000
     45         14.723790   0.000000
     46         14.941771   0.000000
     47         15.997475   0.000000
     48         16.292512   0.000000
 
  0.5000000E-01  0.1785714E+00  0.0000000E+00  0.3174603E-02
      1        -12.647981   1.000000
      2        -11.513591   1.000000
      3         -8.616567   1.000000
      4         -8.368293   1.000000
      5         -6.010085   1.000000
      6         -5.144116   1.000000
      7         -5.029302   1.000000
      8         -4.627506   1.000000
      9         -4.179664   1.000000
     10         -3.938990   1.000000
     11         -3.492023   1.000000
     12         -1.237678   1.000000
     13         -1.115732   1.000000
     14         -0.673350   1.000000
     15         -0.571274   1.000000
     16         -0.218298   1.000000
     17          0.150090   1.000000
     18          0.256579   1.000000
     19          0.680420   1.000000
     20          1.331048   1.000000
     21          1.393345   1.000000
     22          2.256966   0.000000
     23          5.233744   0.000000
     24          5.396335   0.000000
     25          6.054764   0.000000
     26          6.122606   0.000000
     27          7.457931   0.000000
     28          7.546956   0.000000
     29          8.242444   0.000000
     30          8.633944   0.000000
     31          8.793016   0.000000
     32          9.126159   0.000000
     33          9.271988   0.000000
     34         10.789484   0.000000
     35         11.223053   0.000000
     36         11.472830   0.000000
     37         11.619337   0.000000
     38         11.985960   0.000000
     39         12.181985   0.000000
     40         12.647288   0.000000
     41         12.658890   0.000000
     42         12.891128   0.000000
     43         13.133551   0.000000
     44         14.540396   0.000000
     45         15.035909   0.000000
     46         15.209092   0.000000
     47         15.321361   0.000000
     48         15.828982   0.000000
 
  0.1500000E+00  0.1785714E+00  0.0000000E+00  0.3174603E-02
      1        -12.604593   1.000000
      2        -11.587068   1.000000
      3         -8.594805   1.000000
      4         -8.357853   1.000000
      5         -5.937230   1.000000
      6         -5.411361   1.000000
      7         -5.048616   1.000000
      8         -4.753718   1.000000
      9         -4.004224   1.000000
     10         -3.732709   1.000000
     11         -3.155754   1.000000
     12         -1.421798   1.000000
     13         -1.211984   1.000000
     14         -0.782047   1.000000
     15         -0.533532   1.000000
     16         -0.136257   1.000000
     17          0.127921   1.000000
     18          0.203550   1.000000
     19          0.567757   1.000000
     20          1.252401   1.000000
     21          1.323935   1.000000
     22          2.122079   0.000000
     23          5.314334   0.000000
     24          5.738985   0.000000
     25          6.068768   0.000000
     26          6.170689   0.000000
     27          7.377792   0.000000
     28          7.703448   0.000000
     29          7.974915   0.000000
     30          8.727395   0.000000
     31          9.141474   0.000000
     32          9.192992   0.000000
     33          9.554491   0.000000
     34         10.425357   0.000000
     35         10.684243   0.000000
     36         11.178456   0.000000
     37         11.636998   0.000000
     38         12.100648   0.000000
     39         12.332215   0.000000
     40         12.409019   0.000000
     41         13.053975   0.000000
     42         13.178666   0.000000
     43         13.326484   0.000000
     44         14.554567   0.000000
     45         14.701116   0.000000
     46         15.139359   0.000000
     47         15.385727   0.000000
     48         15.865448   0.000000
 
  0.2500000E+00  0.1785714E+00  0.0000000E+00  0.3174603E-02
      1        -12.519650   1.000000
      2        -11.719365   1.000000
      3         -8.550370   1.000000
      4         -8.345078   1.000000
      5         -5.907195   1.000000
      6         -5.730181   1.000000
      7         -4.957271   1.000000
      8         -4.716879   1.000000
      9         -4.126209   1.000000
     10         -3.201189   1.000000
     11         -2.687343   1.000000
     12         -1.917639   1.000000
     13         -1.171848   1.000000
     14         -0.921654   1.000000
     15         -0.481350   1.000000
     16         -0.132604   1.000000
     17         -0.023076   1.000000
     18          0.214374   1.000000
     19          0.453344   1.000000
     20          1.121694   1.000000
     21          1.206178   1.000000
     22          1.867107   0.212707
     23          5.633953   0.000000
     24          6.023896   0.000000
     25          6.211389   0.000000
     26          6.301596   0.000000
     27          7.276838   0.000000
     28          7.787612   0.000000
     29          7.937747   0.000000
     30          8.856634   0.000000
     31          9.142034   0.000000
     32          9.622131   0.000000
     33          9.763861   0.000000
     34         10.037007   0.000000
     35         10.161124   0.000000
     36         10.959279   0.000000
     37         11.496712   0.000000
     38         12.008079   0.000000
     39         12.408983   0.000000
     40         12.710506   0.000000
     41         12.932983   0.000000
     42         13.347156   0.000000
     43         13.847843   0.000000
     44         14.467733   0.000000
     45         14.749753   0.000000
     46         15.166519   0.000000
     47         15.401074   0.000000
     48         16.076409   0.000000
 
  0.3500000E+00  0.1785714E+00  0.0000000E+00  0.3174603E-02
      1        -12.397106   1.000000
      2        -11.887760   1.000000
      3         -8.487869   1.000000
      4         -8.344222   1.000000
      5         -5.982678   1.000000
      6         -5.959223   1.000000
      7         -4.822645   1.000000
      8         -4.397165   1.000000
      9         -4.288745   1.000000
     10         -2.835570   1.000000
     11         -2.350606   1.000000
     12         -2.208670   1.000000
     13         -1.115898   1.000000
     14         -1.059168   1.000000
     15         -0.489893   1.000000
     16         -0.416402   1.000000
     17          0.020243   1.000000
     18          0.021258   1.000000
     19          0.599868   1.000000
     20          0.992702   1.000000
     21          1.074138   1.000000
     22          1.533968   1.000000
     23          6.036392   0.000000
     24          6.165276   0.000000
     25          6.332025   0.000000
     26          6.734110   0.000000
     27          7.223280   0.000000
     28          7.710223   0.000000
     29          7.996404   0.000000
     30          8.955995   0.000000
     31          9.018480   0.000000
     32          9.085124   0.000000
     33          9.789627   0.000000
     34         10.087513   0.000000
     35         10.610491   0.000000
     36         10.981802   0.000000
     37         11.209163   0.000000
     38         11.853451   0.000000
     39         12.237184   0.000000
     40         12.889564   0.000000
     41         12.940536   0.000000
     42         13.686744   0.000000
     43         14.258207   0.000000
     44         14.279195   0.000000
     45         14.910226   0.000000
     46         15.005936   0.000000
     47         15.487311   0.000000
     48         16.256076   0.000000
 
  0.4500000E+00  0.1785714E+00  0.0000000E+00  0.3174603E-02
      1        -12.243535   1.000000
      2        -12.068939   1.000000
      3         -8.421050   1.000000
      4         -8.368833   1.000000
      5         -6.070650   1.000000
      6         -6.066064   1.000000
      7         -4.656541   1.000000
      8         -4.472881   1.000000
      9         -3.886524   1.000000
     10         -3.292091   1.000000
     11         -2.068126   1.000000
     12         -1.904275   1.000000
     13         -1.133341   1.000000
     14         -1.074904   1.000000
     15         -0.669000   1.000000
     16         -0.665655   1.000000
     17         -0.028465   1.000000
     18          0.015003   1.000000
     19          0.856451   1.000000
     20          0.930261   1.000000
     21          0.970304   1.000000
     22          1.182241   1.000000
     23          6.128573   0.000000
     24          6.248503   0.000000
     25          6.813487   0.000000
     26          7.146193   0.000000
     27          7.202965   0.000000
     28          7.553848   0.000000
     29          7.856030   0.000000
     30          8.362429   0.000000
     31          9.010963   0.000000
     32          9.042105   0.000000
     33          9.914917   0.000000
     34         10.388005   0.000000
     35         10.609598   0.000000
     36         10.887952   0.000000
     37         11.626083   0.000000
     38         11.635001   0.000000
     39         12.012290   0.000000
     40         12.797142   0.000000
     41         13.315769   0.000000
     42         13.658943   0.000000
     43         14.112297   0.000000
     44         14.266094   0.000000
     45         14.882358   0.000000
     46         15.020274   0.000000
     47         15.866118   0.000000
     48         16.167577   0.000000
 
  0.5000000E-01  0.2500000E+00  0.0000000E+00  0.3174603E-02
      1        -12.590904   1.000000
      2        -11.462261   1.000000
      3         -8.573209   1.000000
      4         -8.313659   1.000000
      5         -5.946677   1.000000
      6         -5.623543   1.000000
      7         -4.960045   1.000000
      8         -4.571995   1.000000
      9         -4.457590   1.000000
     10         -4.140638   1.000000
     11         -3.430663   1.000000
     12         -1.243446   1.000000
     13         -1.101457   1.000000
     14         -1.024257   1.000000
     15         -0.232755   1.000000
     16          0.177995   1.000000
     17          0.299184   1.000000
     18          0.550613   1.000000
     19          0.743497   1.000000
     20          0.948093   1.000000
     21          0.961909   1.000000
     22          2.290642   0.000000
     23          4.894270   0.000000
     24          5.105669   0.000000
     25          6.281205   0.000000
     26          6.511141   0.000000
     27          7.191788   0.000000
     28          7.881149   0.000000
     29          8.602135   0.000000
     30          8.978208   0.000000
     31          9.352642   0.000000
     32          9.493477   0.000000
     33          9.552930   0.000000
     34         10.650816   0.000000
     35         11.169115   0.000000
     36         11.872137   0.000000
     37         11.931529   0.000000
     38         12.190347   0.000000
     39         12.327467   0.000000
     40         12.356333   0.000000
     41         12.465718   0.000000
     42         12.875586   0.000000
     43         13.660960   0.000000
     44         13.778998   0.000000
     45         14.293635   0.000000
     46         14.992497   0.000000
     47         15.295737   0.000000
     48         15.716374   0.000000
 
  0.1500000E+00  0.2500000E+00  0.0000000E+00  0.3174603E-02
      1        -12.547741   1.000000
      2        -11.535401   1.000000
      3         -8.551029   1.000000
      4         -8.304163   1.000000
      5         -5.869252   1.000000
      6         -5.588745   1.000000
      7         -5.294710   1.000000
      8         -4.704446   1.000000