       N       E                     dE             d eps       ncg     rms          rms(c)
DAV:   1     0.818658137511E+01    0.81866E+01   -0.30074E+02   384   0.308E+01
DAV:   2     0.140217619082E+00   -0.80464E+01   -0.80268E+01   720   0.577E+00
DAV:   3    -0.540545394251E-01   -0.19427E+00   -0.17359E+00   408   0.153E+00
DAV:   4    -0.582289460579E-01   -0.41744E-02   -0.38358E-02   432   0.184E-01
DAV:   5    -0.582719826229E-01   -0.43037E-04   -0.43015E-04   696   0.206E-02    0.737E-03
DAV:   6    -0.582721112650E-01   -0.12864E-06   -0.38726E-07   456   0.131E-03
   1 F= -.58272111E-01 E0= -.31771441E-01  d E =-.530013E-01
