       N       E                     dE             d eps       ncg     rms          rms(c)
DAV:   1     0.878447314623E+01    0.87845E+01   -0.36991E+02  8400   0.502E+01
