 vasp.6.4.3 19Mar24 (build May 31 2024 16:31:43) complex                        
  
 executed on             LinuxIFC date 2024.10.31  00:22:36
 running   24 mpi-ranks, with    1 threads/rank, on    1 nodes
 distrk:  each k-point on   24 cores,    1 groups
 distr:  one band on NCORE=   1 cores,   24 groups


--------------------------------------------------------------------------------------------------------


 INCAR:
   SYSTEM = Kpoints
   ISTART = 0
   ICHARG = 2
   PREC = Accurate
   ENCUT = 480
   LCHARG = .FALSE.
   LWAVE = .FALSE.
   ALGO = Normal
   NELM = 100
   EDIFF = 1E-6
   EDIFFG = -1E-3
   SIGMA = 0.05
   ISMEAR = 0
   ISPIN = 1
   NSW = 0
   IBRION = -1
   POTIM = .5
   ISIF = 2
   GGA = PE

 POTCAR:    PAW_PBE B 06Sep2000                   
 POTCAR:    PAW_PBE B 06Sep2000                   
   SHA256 =  a32ced30f5ae56fd4d10b4325ff17eb3e4e38ee0f4288bc219fb012fddfa6e97 B/POTCAR              
   COPYR  = (c) Copyright 06Sep2000 Georg Kresse                                                    
   COPYR  = This file is part of the software VASP. Any use, copying, and all other rights are regul
   COPYR  = If you do not have a valid VASP license, you may not use, copy or distribute this file. 
   VRHFIN =B: s2p1                                                                                  
   LEXCH  = PE                                                                                      
   EATOM  =    71.1703 eV,    5.2309 Ry                                                             
                                                                                                    
   TITEL  = PAW_PBE B 06Sep2000                                                                     
   LULTRA =        F    use ultrasoft PP ?                                                          
   IUNSCR =        1    unscreen: 0-lin 1-nonlin 2-no                                               
   RPACOR =    1.200    partial core radius                                                         
   POMASS =   10.811; ZVAL   =    3.000    mass and valenz                                          
   RCORE  =    1.700    outmost cutoff radius                                                       
   RWIGS  =    1.710; RWIGS  =    0.905    wigner-seitz radius (au A)                               
   ENMAX  =  318.614; ENMIN  =  238.960 eV                                                          
   ICORE  =        2    local potential                                                             
   LCOR   =        T    correct aug charges                                                         
   LPAW   =        T    paw PP                                                                      
   EAUG   =  535.514                                                                                
   DEXC   =    0.000                                                                                
   RMAX   =    1.732    core radius for proj-oper                                                   
   RAUG   =    1.300    factor for augmentation sphere                                              
   RDEP   =    1.757    radius for radial grids                                                     
   RDEPT  =    1.436    core radius for aug-charge                                                  
                                                                                                    
   Atomic configuration                                                                             
    4 entries                                                                                       
     n  l   j            E        occ.                                                              
     1  0  0.50      -180.5896   2.0000                                                             
     2  0  0.50        -9.4431   2.0000                                                             
     2  1  0.50        -3.6068   1.0000                                                             
     3  2  1.50        -4.0817   0.0000                                                             
   Description                                                                                      
     l       E           TYP  RCUT    TYP  RCUT                                                     
     0     -9.4430752     23  1.500                                                                 
     0      0.8675899     23  1.500                                                                 
     1     -3.6067955     23  1.700                                                                 
     1      6.1086146     23  1.700                                                                 
     2     -4.0817478      7  1.700                                                                 
  local pseudopotential read in
  partial core-charges read in
  partial kinetic energy density read in
  atomic valenz-charges read in
  non local Contribution for L=           0  read in
    real space projection operators read in
  non local Contribution for L=           0  read in
    real space projection operators read in
  non local Contribution for L=           1  read in
    real space projection operators read in
  non local Contribution for L=           1  read in
    real space projection operators read in
    PAW grid and wavefunctions read in
 
   number of l-projection  operators is LMAX  =           4
   number of lm-projection operators is LMMAX =           8
 
  PAW_PBE B 06Sep2000                   :
 energy of atom  1       EATOM=  -71.1703
 kinetic energy error for atom=    0.0013 (will be added to EATOM!!)
 
 
 POSCAR: o-B14
  positions in direct lattice
  No initial velocities read in


 exchange-correlation table for PE
   RHO(1)=    0.500       N(1)  =     2000
   RHO(2)=  100.500       N(2)  =     4000
 


--------------------------------------------------------------------------------------------------------


 ion  position               nearest neighbor table
   1  0.521  0.500  0.638-  14 1.64   5 1.69  13 1.70   2 1.73   9 1.85  11 1.85
   2  0.479  0.500  0.362-  13 1.64   6 1.69  14 1.70   1 1.73  10 1.85  12 1.85
   3  0.979  0.500  0.638-  14 1.64   7 1.69  13 1.70   4 1.73   9 1.85  11 1.85
   4  0.021  0.500  0.362-  13 1.64   8 1.69  14 1.70   3 1.73  10 1.85  12 1.85
   5  0.601  0.500  0.900-   1 1.69   6 1.69   7 1.70   9 1.80  11 1.80
   6  0.399  0.500  0.100-   2 1.69   5 1.69   8 1.70  10 1.80  12 1.80
   7  0.899  0.500  0.900-   3 1.69   8 1.69   5 1.70   9 1.80  11 1.80
   8  0.101  0.500  0.100-   4 1.69   7 1.69   6 1.70  10 1.80  12 1.80
   9  0.750  0.792  0.730-  11 1.69   7 1.80   5 1.80   3 1.85   1 1.85  14 1.97
  10  0.250  0.208  0.270-  12 1.69   8 1.80   6 1.80   4 1.85   2 1.85  13 1.97
  11  0.750  0.208  0.730-   9 1.69   7 1.80   5 1.80   3 1.85   1 1.85  14 1.97
  12  0.250  0.792  0.270-  10 1.69   8 1.80   6 1.80   4 1.85   2 1.85  13 1.97
  13  0.250  0.500  0.524-   2 1.64   4 1.64   3 1.70   1 1.70  10 1.97  12 1.97
  14  0.750  0.500  0.476-   1 1.64   3 1.64   2 1.70   4 1.70   9 1.97  11 1.97
 
  LATTYP: Found a simple orthorhombic cell.
 ALAT       =     4.0479000000
 B/A-ratio  =     1.4073964278
 C/A-ratio  =     1.5326959658
  
  Lattice vectors:
  
 A1 = (   0.0000000000,  -4.0479000000,   0.0000000000)
 A2 = (   5.6970000000,   0.0000000000,   0.0000000000)
 A3 = (   0.0000000000,   0.0000000000,   6.2042000000)


Analysis of symmetry for initial positions (statically):
=====================================================================
 Subroutine PRICEL returns:
 Original cell was already a primitive cell.
 

 Routine SETGRP: Setting up the symmetry group for a 
 simple orthorhombic supercell.


 Subroutine GETGRP returns: Found  8 space group operations
 (whereof  4 operations were pure point group operations)
 out of a pool of  8 trial point group operations.


The static configuration has the point symmetry C_2h.
 The point group associated with its full space group is D_2h.


Analysis of symmetry for dynamics (positions and initial velocities):
=====================================================================
 Subroutine PRICEL returns:
 Original cell was already a primitive cell.
 

 Routine SETGRP: Setting up the symmetry group for a 
 simple orthorhombic supercell.


 Subroutine GETGRP returns: Found  8 space group operations
 (whereof  4 operations were pure point group operations)
 out of a pool of  8 trial point group operations.


The dynamic configuration has the point symmetry C_2h.
 The point group associated with its full space group is D_2h.


 Subroutine INISYM returns: Found  8 space group operations
 (whereof  4 operations are pure point group operations),
 and found     1 'primitive' translations


----------------------------------------------------------------------------------------

                                     Primitive cell                                     

  volume of cell :     143.0744

  direct lattice vectors                    reciprocal lattice vectors
     5.697000000  0.000000000  0.000000000     0.175530981  0.000000000  0.000000000
     0.000000000  4.047900000  0.000000000     0.000000000  0.247041676  0.000000000
     0.000000000  0.000000000  6.204200000     0.000000000  0.000000000  0.161181135

  length of vectors
     5.697000000  4.047900000  6.204200000     0.175530981  0.247041676  0.161181135

  position of ions in fractional coordinates (direct lattice)
     0.521230000  0.500000000  0.637960000
     0.478770000  0.500000000  0.362040000
     0.978770000  0.500000000  0.637960000
     0.021230000  0.500000000  0.362040000
     0.600900000  0.500000000  0.899910000
     0.399100000  0.500000000  0.100090000
     0.899100000  0.500000000  0.899910000
     0.100900000  0.500000000  0.100090000
     0.750000000  0.791710000  0.729730000
     0.250000000  0.208290000  0.270270000
     0.750000000  0.208290000  0.729730000
     0.250000000  0.791710000  0.270270000
     0.250000000  0.500000000  0.523670000
     0.750000000  0.500000000  0.476330000

  ion indices of the primitive-cell ions
   primitive index   ion index
                 1           1
                 2           2
                 3           3
                 4           4
                 5           5
                 6           6
                 7           7
                 8           8
                 9           9
                10          10
                11          11
                12          12
                13          13
                14          14

----------------------------------------------------------------------------------------

 
 
 KPOINTS: k-points                                

Automatic generation of k-mesh.
 Grid dimensions read from file:
 generate k-points for:   16   23   15

 Generating k-lattice:

  Cartesian coordinates                     Fractional coordinates (reciprocal lattice)
     0.010970686  0.000000000  0.000000000     0.062500000  0.000000000  0.000000000
     0.000000000  0.010740942  0.000000000     0.000000000  0.043478261  0.000000000
     0.000000000  0.000000000  0.010745409     0.000000000  0.000000000  0.066666667

  Length of vectors
     0.010970686  0.010740942  0.010745409

  Shift w.r.t. Gamma in fractional coordinates (k-lattice)
     0.500000000  0.000000000  0.000000000

 
 Subroutine IBZKPT returns following result:
 ===========================================
 
 Found    768 irreducible k-points:
 
 Following reciprocal coordinates:
            Coordinates               Weight
  0.031250  0.000000  0.000000      2.000000
  0.093750  0.000000  0.000000      2.000000
  0.156250  0.000000  0.000000      2.000000
  0.218750  0.000000  0.000000      2.000000
  0.281250  0.000000  0.000000      2.000000
  0.343750  0.000000  0.000000      2.000000
  0.406250  0.000000  0.000000      2.000000
  0.468750  0.000000  0.000000      2.000000
  0.031250  0.043478  0.000000      4.000000
  0.093750  0.043478  0.000000      4.000000
  0.156250  0.043478  0.000000      4.000000
  0.218750  0.043478  0.000000      4.000000
  0.281250  0.043478  0.000000      4.000000
  0.343750  0.043478  0.000000      4.000000
  0.406250  0.043478  0.000000      4.000000
  0.468750  0.043478  0.000000      4.000000
  0.031250  0.086957  0.000000      4.000000
  0.093750  0.086957  0.000000      4.000000
  0.156250  0.086957  0.000000      4.000000
  0.218750  0.086957  0.000000      4.000000
  0.281250  0.086957  0.000000      4.000000
  0.343750  0.086957  0.000000      4.000000
  0.406250  0.086957  0.000000      4.000000
  0.468750  0.086957  0.000000      4.000000
  0.031250  0.130435  0.000000      4.000000
  0.093750  0.130435  0.000000      4.000000
  0.156250  0.130435  0.000000      4.000000
  0.218750  0.130435  0.000000      4.000000
  0.281250  0.130435  0.000000      4.000000
  0.343750  0.130435  0.000000      4.000000
  0.406250  0.130435  0.000000      4.000000
  0.468750  0.130435  0.000000      4.000000
  0.031250  0.173913  0.000000      4.000000
  0.093750  0.173913  0.000000      4.000000
  0.156250  0.173913  0.000000      4.000000
  0.218750  0.173913  0.000000      4.000000
  0.281250  0.173913  0.000000      4.000000
  0.343750  0.173913  0.000000      4.000000
  0.406250  0.173913  0.000000      4.000000
  0.468750  0.173913  0.000000      4.000000
  0.031250  0.217391  0.000000      4.000000
  0.093750  0.217391  0.000000      4.000000
  0.156250  0.217391  0.000000      4.000000
  0.218750  0.217391  0.000000      4.000000
  0.281250  0.217391  0.000000      4.000000
  0.343750  0.217391  0.000000      4.000000
  0.406250  0.217391  0.000000      4.000000
  0.468750  0.217391  0.000000      4.000000
  0.031250  0.260870  0.000000      4.000000
  0.093750  0.260870  0.000000      4.000000
  0.156250  0.260870  0.000000      4.000000
  0.218750  0.260870  0.000000      4.000000
  0.281250  0.260870  0.000000      4.000000
  0.343750  0.260870  0.000000      4.000000
  0.406250  0.260870  0.000000      4.000000
  0.468750  0.260870  0.000000      4.000000
  0.031250  0.304348  0.000000      4.000000
  0.093750  0.304348  0.000000      4.000000
  0.156250  0.304348  0.000000      4.000000
  0.218750  0.304348  0.000000      4.000000
  0.281250  0.304348  0.000000      4.000000
  0.343750  0.304348  0.000000      4.000000
  0.406250  0.304348  0.000000      4.000000
  0.468750  0.304348  0.000000      4.000000
  0.031250  0.347826  0.000000      4.000000
  0.093750  0.347826  0.000000      4.000000
  0.156250  0.347826  0.000000      4.000000
  0.218750  0.347826  0.000000      4.000000
  0.281250  0.347826  0.000000      4.000000
  0.343750  0.347826  0.000000      4.000000
  0.406250  0.347826  0.000000      4.000000
  0.468750  0.347826  0.000000      4.000000
  0.031250  0.391304  0.000000      4.000000
  0.093750  0.391304  0.000000      4.000000
  0.156250  0.391304  0.000000      4.000000
  0.218750  0.391304  0.000000      4.000000
  0.281250  0.391304  0.000000      4.000000
  0.343750  0.391304  0.000000      4.000000
  0.406250  0.391304  0.000000      4.000000
  0.468750  0.391304  0.000000      4.000000
  0.031250  0.434783  0.000000      4.000000
  0.093750  0.434783  0.000000      4.000000
  0.156250  0.434783  0.000000      4.000000
  0.218750  0.434783  0.000000      4.000000
  0.281250  0.434783  0.000000      4.000000
  0.343750  0.434783  0.000000      4.000000
  0.406250  0.434783  0.000000      4.000000
  0.468750  0.434783  0.000000      4.000000
  0.031250  0.478261  0.000000      4.000000
  0.093750  0.478261  0.000000      4.000000
  0.156250  0.478261  0.000000      4.000000
  0.218750  0.478261  0.000000      4.000000
  0.281250  0.478261  0.000000      4.000000
  0.343750  0.478261  0.000000      4.000000
  0.406250  0.478261  0.000000      4.000000
  0.468750  0.478261  0.000000      4.000000
  0.031250  0.000000  0.066667      4.000000
  0.093750  0.000000  0.066667      4.000000
  0.156250  0.000000  0.066667      4.000000
  0.218750  0.000000  0.066667      4.000000
  0.281250  0.000000  0.066667      4.000000
  0.343750  0.000000  0.066667      4.000000
  0.406250  0.000000  0.066667      4.000000
  0.468750  0.000000  0.066667      4.000000
  0.031250  0.043478  0.066667      8.000000
  0.093750  0.043478  0.066667      8.000000
  0.156250  0.043478  0.066667      8.000000
  0.218750  0.043478  0.066667      8.000000
  0.281250  0.043478  0.066667      8.000000
  0.343750  0.043478  0.066667      8.000000
  0.406250  0.043478  0.066667      8.000000
  0.468750  0.043478  0.066667      8.000000
  0.031250  0.086957  0.066667      8.000000
  0.093750  0.086957  0.066667      8.000000
  0.156250  0.086957  0.066667      8.000000
  0.218750  0.086957  0.066667      8.000000
  0.281250  0.086957  0.066667      8.000000
  0.343750  0.086957  0.066667      8.000000
  0.406250  0.086957  0.066667      8.000000
  0.468750  0.086957  0.066667      8.000000
  0.031250  0.130435  0.066667      8.000000
  0.093750  0.130435  0.066667      8.000000
  0.156250  0.130435  0.066667      8.000000
  0.218750  0.130435  0.066667      8.000000
  0.281250  0.130435  0.066667      8.000000
  0.343750  0.130435  0.066667      8.000000
  0.406250  0.130435  0.066667      8.000000
  0.468750  0.130435  0.066667      8.000000
  0.031250  0.173913  0.066667      8.000000
  0.093750  0.173913  0.066667      8.000000
  0.156250  0.173913  0.066667      8.000000
  0.218750  0.173913  0.066667      8.000000
  0.281250  0.173913  0.066667      8.000000
  0.343750  0.173913  0.066667      8.000000
  0.406250  0.173913  0.066667      8.000000
  0.468750  0.173913  0.066667      8.000000
  0.031250  0.217391  0.066667      8.000000
  0.093750  0.217391  0.066667      8.000000
  0.156250  0.217391  0.066667      8.000000
  0.218750  0.217391  0.066667      8.000000
  0.281250  0.217391  0.066667      8.000000
  0.343750  0.217391  0.066667      8.000000
  0.406250  0.217391  0.066667      8.000000
  0.468750  0.217391  0.066667      8.000000
  0.031250  0.260870  0.066667      8.000000
  0.093750  0.260870  0.066667      8.000000
  0.156250  0.260870  0.066667      8.000000
  0.218750  0.260870  0.066667      8.000000
  0.281250  0.260870  0.066667      8.000000
  0.343750  0.260870  0.066667      8.000000
  0.406250  0.260870  0.066667      8.000000
  0.468750  0.260870  0.066667      8.000000
  0.031250  0.304348  0.066667      8.000000
  0.093750  0.304348  0.066667      8.000000
  0.156250  0.304348  0.066667      8.000000
  0.218750  0.304348  0.066667      8.000000
  0.281250  0.304348  0.066667      8.000000
  0.343750  0.304348  0.066667      8.000000
  0.406250  0.304348  0.066667      8.000000
  0.468750  0.304348  0.066667      8.000000
  0.031250  0.347826  0.066667      8.000000
  0.093750  0.347826  0.066667      8.000000
  0.156250  0.347826  0.066667      8.000000
  0.218750  0.347826  0.066667      8.000000
  0.281250  0.347826  0.066667      8.000000
  0.343750  0.347826  0.066667      8.000000
  0.406250  0.347826  0.066667      8.000000
  0.468750  0.347826  0.066667      8.000000
  0.031250  0.391304  0.066667      8.000000
  0.093750  0.391304  0.066667      8.000000
  0.156250  0.391304  0.066667      8.000000
  0.218750  0.391304  0.066667      8.000000
  0.281250  0.391304  0.066667      8.000000
  0.343750  0.391304  0.066667      8.000000
  0.406250  0.391304  0.066667      8.000000
  0.468750  0.391304  0.066667      8.000000
  0.031250  0.434783  0.066667      8.000000
  0.093750  0.434783  0.066667      8.000000
  0.156250  0.434783  0.066667      8.000000
  0.218750  0.434783  0.066667      8.000000
  0.281250  0.434783  0.066667      8.000000
  0.343750  0.434783  0.066667      8.000000
  0.406250  0.434783  0.066667      8.000000
  0.468750  0.434783  0.066667      8.000000
  0.031250  0.478261  0.066667      8.000000
  0.093750  0.478261  0.066667      8.000000
  0.156250  0.478261  0.066667      8.000000
  0.218750  0.478261  0.066667      8.000000
  0.281250  0.478261  0.066667      8.000000
  0.343750  0.478261  0.066667      8.000000
  0.406250  0.478261  0.066667      8.000000
  0.468750  0.478261  0.066667      8.000000
  0.031250  0.000000  0.133333      4.000000
  0.093750  0.000000  0.133333      4.000000
  0.156250  0.000000  0.133333      4.000000
  0.218750  0.000000  0.133333      4.000000
  0.281250  0.000000  0.133333      4.000000
  0.343750  0.000000  0.133333      4.000000
  0.406250  0.000000  0.133333      4.000000
  0.468750  0.000000  0.133333      4.000000
  0.031250  0.043478  0.133333      8.000000
  0.093750  0.043478  0.133333      8.000000
  0.156250  0.043478  0.133333      8.000000
  0.218750  0.043478  0.133333      8.000000
  0.281250  0.043478  0.133333      8.000000
  0.343750  0.043478  0.133333      8.000000
  0.406250  0.043478  0.133333      8.000000
  0.468750  0.043478  0.133333      8.000000
  0.031250  0.086957  0.133333      8.000000
  0.093750  0.086957  0.133333      8.000000
  0.156250  0.086957  0.133333      8.000000
  0.218750  0.086957  0.133333      8.000000
  0.281250  0.086957  0.133333      8.000000
  0.343750  0.086957  0.133333      8.000000
  0.406250  0.086957  0.133333      8.000000
  0.468750  0.086957  0.133333      8.000000
  0.031250  0.130435  0.133333      8.000000
  0.093750  0.130435  0.133333      8.000000
  0.156250  0.130435  0.133333      8.000000
  0.218750  0.130435  0.133333      8.000000
  0.281250  0.130435  0.133333      8.000000
  0.343750  0.130435  0.133333      8.000000
  0.406250  0.130435  0.133333      8.000000
  0.468750  0.130435  0.133333      8.000000
  0.031250  0.173913  0.133333      8.000000
  0.093750  0.173913  0.133333      8.000000
  0.156250  0.173913  0.133333      8.000000
  0.218750  0.173913  0.133333      8.000000
  0.281250  0.173913  0.133333      8.000000
  0.343750  0.173913  0.133333      8.000000
  0.406250  0.173913  0.133333      8.000000
  0.468750  0.173913  0.133333      8.000000
  0.031250  0.217391  0.133333      8.000000
  0.093750  0.217391  0.133333      8.000000
  0.156250  0.217391  0.133333      8.000000
  0.218750  0.217391  0.133333      8.000000
  0.281250  0.217391  0.133333      8.000000
  0.343750  0.217391  0.133333      8.000000
  0.406250  0.217391  0.133333      8.000000
  0.468750  0.217391  0.133333      8.000000
  0.031250  0.260870  0.133333      8.000000
  0.093750  0.260870  0.133333      8.000000
  0.156250  0.260870  0.133333      8.000000
  0.218750  0.260870  0.133333      8.000000
  0.281250  0.260870  0.133333      8.000000
  0.343750  0.260870  0.133333      8.000000
  0.406250  0.260870  0.133333      8.000000
  0.468750  0.260870  0.133333      8.000000
  0.031250  0.304348  0.133333      8.000000
  0.093750  0.304348  0.133333      8.000000
  0.156250  0.304348  0.133333      8.000000
  0.218750  0.304348  0.133333      8.000000
  0.281250  0.304348  0.133333      8.000000
  0.343750  0.304348  0.133333      8.000000
  0.406250  0.304348  0.133333      8.000000
  0.468750  0.304348  0.133333      8.000000
  0.031250  0.347826  0.133333      8.000000
  0.093750  0.347826  0.133333      8.000000
  0.156250  0.347826  0.133333      8.000000
  0.218750  0.347826  0.133333      8.000000
  0.281250  0.347826  0.133333      8.000000
  0.343750  0.347826  0.133333      8.000000
  0.406250  0.347826  0.133333      8.000000
  0.468750  0.347826  0.133333      8.000000
  0.031250  0.391304  0.133333      8.000000
  0.093750  0.391304  0.133333      8.000000
  0.156250  0.391304  0.133333      8.000000
  0.218750  0.391304  0.133333      8.000000
  0.281250  0.391304  0.133333      8.000000
  0.343750  0.391304  0.133333      8.000000
  0.406250  0.391304  0.133333      8.000000
  0.468750  0.391304  0.133333      8.000000
  0.031250  0.434783  0.133333      8.000000
  0.093750  0.434783  0.133333      8.000000
  0.156250  0.434783  0.133333      8.000000
  0.218750  0.434783  0.133333      8.000000
  0.281250  0.434783  0.133333      8.000000
  0.343750  0.434783  0.133333      8.000000
  0.406250  0.434783  0.133333      8.000000
  0.468750  0.434783  0.133333      8.000000
  0.031250  0.478261  0.133333      8.000000
  0.093750  0.478261  0.133333      8.000000
  0.156250  0.478261  0.133333      8.000000
  0.218750  0.478261  0.133333      8.000000
  0.281250  0.478261  0.133333      8.000000
  0.343750  0.478261  0.133333      8.000000
  0.406250  0.478261  0.133333      8.000000
  0.468750  0.478261  0.133333      8.000000
  0.031250  0.000000  0.200000      4.000000
  0.093750  0.000000  0.200000      4.000000
  0.156250  0.000000  0.200000      4.000000
  0.218750  0.000000  0.200000      4.000000
  0.281250  0.000000  0.200000      4.000000
  0.343750  0.000000  0.200000      4.000000
  0.406250  0.000000  0.200000      4.000000
  0.468750  0.000000  0.200000      4.000000
  0.031250  0.043478  0.200000      8.000000
  0.093750  0.043478  0.200000      8.000000
  0.156250  0.043478  0.200000      8.000000
  0.218750  0.043478  0.200000      8.000000
  0.281250  0.043478  0.200000      8.000000
  0.343750  0.043478  0.200000      8.000000
  0.406250  0.043478  0.200000      8.000000
  0.468750  0.043478  0.200000      8.000000
  0.031250  0.086957  0.200000      8.000000
  0.093750  0.086957  0.200000      8.000000
  0.156250  0.086957  0.200000      8.000000
  0.218750  0.086957  0.200000      8.000000
  0.281250  0.086957  0.200000      8.000000
  0.343750  0.086957  0.200000      8.000000
  0.406250  0.086957  0.200000      8.000000
  0.468750  0.086957  0.200000      8.000000
  0.031250  0.130435  0.200000      8.000000
  0.093750  0.130435  0.200000      8.000000
  0.156250  0.130435  0.200000      8.000000
  0.218750  0.130435  0.200000      8.000000
  0.281250  0.130435  0.200000      8.000000
  0.343750  0.130435  0.200000      8.000000
  0.406250  0.130435  0.200000      8.000000
  0.468750  0.130435  0.200000      8.000000
  0.031250  0.173913  0.200000      8.000000
  0.093750  0.173913  0.200000      8.000000
  0.156250  0.173913  0.200000      8.000000
  0.218750  0.173913  0.200000      8.000000
  0.281250  0.173913  0.200000      8.000000
  0.343750  0.173913  0.200000      8.000000
  0.406250  0.173913  0.200000      8.000000
  0.468750  0.173913  0.200000      8.000000
  0.031250  0.217391  0.200000      8.000000
  0.093750  0.217391  0.200000      8.000000
  0.156250  0.217391  0.200000      8.000000
  0.218750  0.217391  0.200000      8.000000
  0.281250  0.217391  0.200000      8.000000
  0.343750  0.217391  0.200000      8.000000
  0.406250  0.217391  0.200000      8.000000
  0.468750  0.217391  0.200000      8.000000
  0.031250  0.260870  0.200000      8.000000
  0.093750  0.260870  0.200000      8.000000
  0.156250  0.260870  0.200000      8.000000
  0.218750  0.260870  0.200000      8.000000
  0.281250  0.260870  0.200000      8.000000
  0.343750  0.260870  0.200000      8.000000
  0.406250  0.260870  0.200000      8.000000
  0.468750  0.260870  0.200000      8.000000
  0.031250  0.304348  0.200000      8.000000
  0.093750  0.304348  0.200000      8.000000
  0.156250  0.304348  0.200000      8.000000
  0.218750  0.304348  0.200000      8.000000
  0.281250  0.304348  0.200000      8.000000
  0.343750  0.304348  0.200000      8.000000
  0.406250  0.304348  0.200000      8.000000
  0.468750  0.304348  0.200000      8.000000
  0.031250  0.347826  0.200000      8.000000
  0.093750  0.347826  0.200000      8.000000
  0.156250  0.347826  0.200000      8.000000
  0.218750  0.347826  0.200000      8.000000
  0.281250  0.347826  0.200000      8.000000
  0.343750  0.347826  0.200000      8.000000
  0.406250  0.347826  0.200000      8.000000
  0.468750  0.347826  0.200000      8.000000
  0.031250  0.391304  0.200000      8.000000
  0.093750  0.391304  0.200000      8.000000
  0.156250  0.391304  0.200000      8.000000
  0.218750  0.391304  0.200000      8.000000
  0.281250  0.391304  0.200000      8.000000
  0.343750  0.391304  0.200000      8.000000
  0.406250  0.391304  0.200000      8.000000
  0.468750  0.391304  0.200000      8.000000
  0.031250  0.434783  0.200000      8.000000
  0.093750  0.434783  0.200000      8.000000
  0.156250  0.434783  0.200000      8.000000
  0.218750  0.434783  0.200000      8.000000
  0.281250  0.434783  0.200000      8.000000
  0.343750  0.434783  0.200000      8.000000
  0.406250  0.434783  0.200000      8.000000
  0.468750  0.434783  0.200000      8.000000
  0.031250  0.478261  0.200000      8.000000
  0.093750  0.478261  0.200000      8.000000
  0.156250  0.478261  0.200000      8.000000
  0.218750  0.478261  0.200000      8.000000
  0.281250  0.478261  0.200000      8.000000
  0.343750  0.478261  0.200000      8.000000
  0.406250  0.478261  0.200000      8.000000
  0.468750  0.478261  0.200000      8.000000
  0.031250  0.000000  0.266667      4.000000
  0.093750  0.000000  0.266667      4.000000
  0.156250  0.000000  0.266667      4.000000
  0.218750  0.000000  0.266667      4.000000
  0.281250  0.000000  0.266667      4.000000
  0.343750  0.000000  0.266667      4.000000
  0.406250  0.000000  0.266667      4.000000
  0.468750  0.000000  0.266667      4.000000
  0.031250  0.043478  0.266667      8.000000
  0.093750  0.043478  0.266667      8.000000
  0.156250  0.043478  0.266667      8.000000
  0.218750  0.043478  0.266667      8.000000
  0.281250  0.043478  0.266667      8.000000
  0.343750  0.043478  0.266667      8.000000
  0.406250  0.043478  0.266667      8.000000
  0.468750  0.043478  0.266667      8.000000
  0.031250  0.086957  0.266667      8.000000
  0.093750  0.086957  0.266667      8.000000
  0.156250  0.086957  0.266667      8.000000
  0.218750  0.086957  0.266667      8.000000
  0.281250  0.086957  0.266667      8.000000
  0.343750  0.086957  0.266667      8.000000
  0.406250  0.086957  0.266667      8.000000
  0.468750  0.086957  0.266667      8.000000
  0.031250  0.130435  0.266667      8.000000
  0.093750  0.130435  0.266667      8.000000
  0.156250  0.130435  0.266667      8.000000
  0.218750  0.130435  0.266667      8.000000
  0.281250  0.130435  0.266667      8.000000
  0.343750  0.130435  0.266667      8.000000
  0.406250  0.130435  0.266667      8.000000
  0.468750  0.130435  0.266667      8.000000
  0.031250  0.173913  0.266667      8.000000
  0.093750  0.173913  0.266667      8.000000
  0.156250  0.173913  0.266667      8.000000
  0.218750  0.173913  0.266667      8.000000
  0.281250  0.173913  0.266667      8.000000
  0.343750  0.173913  0.266667      8.000000
  0.406250  0.173913  0.266667      8.000000
  0.468750  0.173913  0.266667      8.000000
  0.031250  0.217391  0.266667      8.000000
  0.093750  0.217391  0.266667      8.000000
  0.156250  0.217391  0.266667      8.000000
  0.218750  0.217391  0.266667      8.000000
  0.281250  0.217391  0.266667      8.000000
  0.343750  0.217391  0.266667      8.000000
  0.406250  0.217391  0.266667      8.000000
  0.468750  0.217391  0.266667      8.000000
  0.031250  0.260870  0.266667      8.000000
  0.093750  0.260870  0.266667      8.000000
  0.156250  0.260870  0.266667      8.000000
  0.218750  0.260870  0.266667      8.000000
  0.281250  0.260870  0.266667      8.000000
  0.343750  0.260870  0.266667      8.000000
  0.406250  0.260870  0.266667      8.000000
  0.468750  0.260870  0.266667      8.000000
  0.031250  0.304348  0.266667      8.000000
  0.093750  0.304348  0.266667      8.000000
  0.156250  0.304348  0.266667      8.000000
  0.218750  0.304348  0.266667      8.000000
  0.281250  0.304348  0.266667      8.000000
  0.343750  0.304348  0.266667      8.000000
  0.406250  0.304348  0.266667      8.000000
  0.468750  0.304348  0.266667      8.000000
  0.031250  0.347826  0.266667      8.000000
  0.093750  0.347826  0.266667      8.000000
  0.156250  0.347826  0.266667      8.000000
  0.218750  0.347826  0.266667      8.000000
  0.281250  0.347826  0.266667      8.000000
  0.343750  0.347826  0.266667      8.000000
  0.406250  0.347826  0.266667      8.000000
  0.468750  0.347826  0.266667      8.000000
  0.031250  0.391304  0.266667      8.000000
  0.093750  0.391304  0.266667      8.000000
  0.156250  0.391304  0.266667      8.000000
  0.218750  0.391304  0.266667      8.000000
  0.281250  0.391304  0.266667      8.000000
  0.343750  0.391304  0.266667      8.000000
  0.406250  0.391304  0.266667      8.000000
  0.468750  0.391304  0.266667      8.000000
  0.031250  0.434783  0.266667      8.000000
  0.093750  0.434783  0.266667      8.000000
  0.156250  0.434783  0.266667      8.000000
  0.218750  0.434783  0.266667      8.000000
  0.281250  0.434783  0.266667      8.000000
  0.343750  0.434783  0.266667      8.000000
  0.406250  0.434783  0.266667      8.000000
  0.468750  0.434783  0.266667      8.000000
  0.031250  0.478261  0.266667      8.000000
  0.093750  0.478261  0.266667      8.000000
  0.156250  0.478261  0.266667      8.000000
  0.218750  0.478261  0.266667      8.000000
  0.281250  0.478261  0.266667      8.000000
  0.343750  0.478261  0.266667      8.000000
  0.406250  0.478261  0.266667      8.000000
  0.468750  0.478261  0.266667      8.000000
  0.031250  0.000000  0.333333      4.000000
  0.093750  0.000000  0.333333      4.000000
  0.156250  0.000000  0.333333      4.000000
  0.218750  0.000000  0.333333      4.000000
  0.281250  0.000000  0.333333      4.000000
  0.343750  0.000000  0.333333      4.000000
  0.406250  0.000000  0.333333      4.000000
  0.468750  0.000000  0.333333      4.000000
  0.031250  0.043478  0.333333      8.000000
  0.093750  0.043478  0.333333      8.000000
  0.156250  0.043478  0.333333      8.000000
  0.218750  0.043478  0.333333      8.000000
  0.281250  0.043478  0.333333      8.000000
  0.343750  0.043478  0.333333      8.000000
  0.406250  0.043478  0.333333      8.000000
  0.468750  0.043478  0.333333      8.000000
  0.031250  0.086957  0.333333      8.000000
  0.093750  0.086957  0.333333      8.000000
  0.156250  0.086957  0.333333      8.000000
  0.218750  0.086957  0.333333      8.000000
  0.281250  0.086957  0.333333      8.000000
  0.343750  0.086957  0.333333      8.000000
  0.406250  0.086957  0.333333      8.000000
  0.468750  0.086957  0.333333      8.000000
  0.031250  0.130435  0.333333      8.000000
  0.093750  0.130435  0.333333      8.000000
  0.156250  0.130435  0.333333      8.000000
  0.218750  0.130435  0.333333      8.000000
  0.281250  0.130435  0.333333      8.000000
  0.343750  0.130435  0.333333      8.000000
  0.406250  0.130435  0.333333      8.000000
  0.468750  0.130435  0.333333      8.000000
  0.031250  0.173913  0.333333      8.000000
  0.093750  0.173913  0.333333      8.000000
  0.156250  0.173913  0.333333      8.000000
  0.218750  0.173913  0.333333      8.000000
  0.281250  0.173913  0.333333      8.000000
  0.343750  0.173913  0.333333      8.000000
  0.406250  0.173913  0.333333      8.000000
  0.468750  0.173913  0.333333      8.000000
  0.031250  0.217391  0.333333      8.000000
  0.093750  0.217391  0.333333      8.000000
  0.156250  0.217391  0.333333      8.000000
  0.218750  0.217391  0.333333      8.000000
  0.281250  0.217391  0.333333      8.000000
  0.343750  0.217391  0.333333      8.000000
  0.406250  0.217391  0.333333      8.000000
  0.468750  0.217391  0.333333      8.000000
  0.031250  0.260870  0.333333      8.000000
  0.093750  0.260870  0.333333      8.000000
  0.156250  0.260870  0.333333      8.000000
  0.218750  0.260870  0.333333      8.000000
  0.281250  0.260870  0.333333      8.000000
  0.343750  0.260870  0.333333      8.000000
  0.406250  0.260870  0.333333      8.000000
  0.468750  0.260870  0.333333      8.000000
  0.031250  0.304348  0.333333      8.000000
  0.093750  0.304348  0.333333      8.000000
  0.156250  0.304348  0.333333      8.000000
  0.218750  0.304348  0.333333      8.000000
  0.281250  0.304348  0.333333      8.000000
  0.343750  0.304348  0.333333      8.000000
  0.406250  0.304348  0.333333      8.000000
  0.468750  0.304348  0.333333      8.000000
  0.031250  0.347826  0.333333      8.000000
  0.093750  0.347826  0.333333      8.000000
  0.156250  0.347826  0.333333      8.000000
  0.218750  0.347826  0.333333      8.000000
  0.281250  0.347826  0.333333      8.000000
  0.343750  0.347826  0.333333      8.000000
  0.406250  0.347826  0.333333      8.000000
  0.468750  0.347826  0.333333      8.000000
  0.031250  0.391304  0.333333      8.000000
  0.093750  0.391304  0.333333      8.000000
  0.156250  0.391304  0.333333      8.000000
  0.218750  0.391304  0.333333      8.000000
  0.281250  0.391304  0.333333      8.000000
  0.343750  0.391304  0.333333      8.000000
  0.406250  0.391304  0.333333      8.000000
  0.468750  0.391304  0.333333      8.000000
  0.031250  0.434783  0.333333      8.000000
  0.093750  0.434783  0.333333      8.000000
  0.156250  0.434783  0.333333      8.000000
  0.218750  0.434783  0.333333      8.000000
  0.281250  0.434783  0.333333      8.000000
  0.343750  0.434783  0.333333      8.000000
  0.406250  0.434783  0.333333      8.000000
  0.468750  0.434783  0.333333      8.000000
  0.031250  0.478261  0.333333      8.000000
  0.093750  0.478261  0.333333      8.000000
  0.156250  0.478261  0.333333      8.000000
  0.218750  0.478261  0.333333      8.000000
  0.281250  0.478261  0.333333      8.000000
  0.343750  0.478261  0.333333      8.000000
  0.406250  0.478261  0.333333      8.000000
  0.468750  0.478261  0.333333      8.000000
  0.031250  0.000000  0.400000      4.000000
  0.093750  0.000000  0.400000      4.000000
  0.156250  0.000000  0.400000      4.000000
  0.218750  0.000000  0.400000      4.000000
  0.281250  0.000000  0.400000      4.000000
  0.343750  0.000000  0.400000      4.000000
  0.406250  0.000000  0.400000      4.000000
  0.468750  0.000000  0.400000      4.000000
  0.031250  0.043478  0.400000      8.000000
  0.093750  0.043478  0.400000      8.000000
  0.156250  0.043478  0.400000      8.000000
  0.218750  0.043478  0.400000      8.000000
  0.281250  0.043478  0.400000      8.000000
  0.343750  0.043478  0.400000      8.000000
  0.406250  0.043478  0.400000      8.000000
  0.468750  0.043478  0.400000      8.000000
  0.031250  0.086957  0.400000      8.000000
  0.093750  0.086957  0.400000      8.000000
  0.156250  0.086957  0.400000      8.000000
  0.218750  0.086957  0.400000      8.000000
  0.281250  0.086957  0.400000      8.000000
  0.343750  0.086957  0.400000      8.000000
  0.406250  0.086957  0.400000      8.000000
  0.468750  0.086957  0.400000      8.000000
  0.031250  0.130435  0.400000      8.000000
  0.093750  0.130435  0.400000      8.000000
  0.156250  0.130435  0.400000      8.000000
  0.218750  0.130435  0.400000      8.000000
  0.281250  0.130435  0.400000      8.000000
  0.343750  0.130435  0.400000      8.000000
  0.406250  0.130435  0.400000      8.000000
  0.468750  0.130435  0.400000      8.000000
  0.031250  0.173913  0.400000      8.000000
  0.093750  0.173913  0.400000      8.000000
  0.156250  0.173913  0.400000      8.000000
  0.218750  0.173913  0.400000      8.000000
  0.281250  0.173913  0.400000      8.000000
  0.343750  0.173913  0.400000      8.000000
  0.406250  0.173913  0.400000      8.000000
  0.468750  0.173913  0.400000      8.000000
  0.031250  0.217391  0.400000      8.000000
  0.093750  0.217391  0.400000      8.000000
  0.156250  0.217391  0.400000      8.000000
  0.218750  0.217391  0.400000      8.000000
  0.281250  0.217391  0.400000      8.000000
  0.343750  0.217391  0.400000      8.000000
  0.406250  0.217391  0.400000      8.000000
  0.468750  0.217391  0.400000      8.000000
  0.031250  0.260870  0.400000      8.000000
  0.093750  0.260870  0.400000      8.000000
  0.156250  0.260870  0.400000      8.000000
  0.218750  0.260870  0.400000      8.000000
  0.281250  0.260870  0.400000      8.000000
  0.343750  0.260870  0.400000      8.000000
  0.406250  0.260870  0.400000      8.000000
  0.468750  0.260870  0.400000      8.000000
  0.031250  0.304348  0.400000      8.000000
  0.093750  0.304348  0.400000      8.000000
  0.156250  0.304348  0.400000      8.000000
  0.218750  0.304348  0.400000      8.000000
  0.281250  0.304348  0.400000      8.000000
  0.343750  0.304348  0.400000      8.000000
  0.406250  0.304348  0.400000      8.000000
  0.468750  0.304348  0.400000      8.000000
  0.031250  0.347826  0.400000      8.000000
  0.093750  0.347826  0.400000      8.000000
  0.156250  0.347826  0.400000      8.000000
  0.218750  0.347826  0.400000      8.000000
  0.281250  0.347826  0.400000      8.000000
  0.343750  0.347826  0.400000      8.000000
  0.406250  0.347826  0.400000      8.000000
  0.468750  0.347826  0.400000      8.000000
  0.031250  0.391304  0.400000      8.000000
  0.093750  0.391304  0.400000      8.000000
  0.156250  0.391304  0.400000      8.000000
  0.218750  0.391304  0.400000      8.000000
  0.281250  0.391304  0.400000      8.000000
  0.343750  0.391304  0.400000      8.000000
  0.406250  0.391304  0.400000      8.000000
  0.468750  0.391304  0.400000      8.000000
  0.031250  0.434783  0.400000      8.000000
  0.093750  0.434783  0.400000      8.000000
  0.156250  0.434783  0.400000      8.000000
  0.218750  0.434783  0.400000      8.000000
  0.281250  0.434783  0.400000      8.000000
  0.343750  0.434783  0.400000      8.000000
  0.406250  0.434783  0.400000      8.000000
  0.468750  0.434783  0.400000      8.000000
  0.031250  0.478261  0.400000      8.000000
  0.093750  0.478261  0.400000      8.000000
  0.156250  0.478261  0.400000      8.000000
  0.218750  0.478261  0.400000      8.000000
  0.281250  0.478261  0.400000      8.000000
  0.343750  0.478261  0.400000      8.000000
  0.406250  0.478261  0.400000      8.000000
  0.468750  0.478261  0.400000      8.000000
  0.031250  0.000000  0.466667      4.000000
  0.093750  0.000000  0.466667      4.000000
  0.156250  0.000000  0.466667      4.000000
  0.218750  0.000000  0.466667      4.000000
  0.281250  0.000000  0.466667      4.000000
  0.343750  0.000000  0.466667      4.000000
  0.406250  0.000000  0.466667      4.000000
  0.468750  0.000000  0.466667      4.000000
  0.031250  0.043478  0.466667      8.000000
  0.093750  0.043478  0.466667      8.000000
  0.156250  0.043478  0.466667      8.000000
  0.218750  0.043478  0.466667      8.000000
  0.281250  0.043478  0.466667      8.000000
  0.343750  0.043478  0.466667      8.000000
  0.406250  0.043478  0.466667      8.000000
  0.468750  0.043478  0.466667      8.000000
  0.031250  0.086957  0.466667      8.000000
  0.093750  0.086957  0.466667      8.000000
  0.156250  0.086957  0.466667      8.000000
  0.218750  0.086957  0.466667      8.000000
  0.281250  0.086957  0.466667      8.000000
  0.343750  0.086957  0.466667      8.000000
  0.406250  0.086957  0.466667      8.000000
  0.468750  0.086957  0.466667      8.000000
  0.031250  0.130435  0.466667      8.000000
  0.093750  0.130435  0.466667      8.000000
  0.156250  0.130435  0.466667      8.000000
  0.218750  0.130435  0.466667      8.000000
  0.281250  0.130435  0.466667      8.000000
  0.343750  0.130435  0.466667      8.000000
  0.406250  0.130435  0.466667      8.000000
  0.468750  0.130435  0.466667      8.000000
  0.031250  0.173913  0.466667      8.000000
  0.093750  0.173913  0.466667      8.000000
  0.156250  0.173913  0.466667      8.000000
  0.218750  0.173913  0.466667      8.000000
  0.281250  0.173913  0.466667      8.000000
  0.343750  0.173913  0.466667      8.000000
  0.406250  0.173913  0.466667      8.000000
  0.468750  0.173913  0.466667      8.000000
  0.031250  0.217391  0.466667      8.000000
  0.093750  0.217391  0.466667      8.000000
  0.156250  0.217391  0.466667      8.000000
  0.218750  0.217391  0.466667      8.000000
  0.281250  0.217391  0.466667      8.000000
  0.343750  0.217391  0.466667      8.000000
  0.406250  0.217391  0.466667      8.000000
  0.468750  0.217391  0.466667      8.000000
  0.031250  0.260870  0.466667      8.000000
  0.093750  0.260870  0.466667      8.000000
  0.156250  0.260870  0.466667      8.000000
  0.218750  0.260870  0.466667      8.000000
  0.281250  0.260870  0.466667      8.000000
  0.343750  0.260870  0.466667      8.000000
  0.406250  0.260870  0.466667      8.000000
  0.468750  0.260870  0.466667      8.000000
  0.031250  0.304348  0.466667      8.000000
  0.093750  0.304348  0.466667      8.000000
  0.156250  0.304348  0.466667      8.000000
  0.218750  0.304348  0.466667      8.000000
  0.281250  0.304348  0.466667      8.000000
  0.343750  0.304348  0.466667      8.000000
  0.406250  0.304348  0.466667      8.000000
  0.468750  0.304348  0.466667      8.000000
  0.031250  0.347826  0.466667      8.000000
  0.093750  0.347826  0.466667      8.000000
  0.156250  0.347826  0.466667      8.000000
  0.218750  0.347826  0.466667      8.000000
  0.281250  0.347826  0.466667      8.000000
  0.343750  0.347826  0.466667      8.000000
  0.406250  0.347826  0.466667      8.000000
  0.468750  0.347826  0.466667      8.000000
  0.031250  0.391304  0.466667      8.000000
  0.093750  0.391304  0.466667      8.000000
  0.156250  0.391304  0.466667      8.000000
  0.218750  0.391304  0.466667      8.000000
  0.281250  0.391304  0.466667      8.000000
  0.343750  0.391304  0.466667      8.000000
  0.406250  0.391304  0.466667      8.000000
  0.468750  0.391304  0.466667      8.000000
  0.031250  0.434783  0.466667      8.000000
  0.093750  0.434783  0.466667      8.000000
  0.156250  0.434783  0.466667      8.000000
  0.218750  0.434783  0.466667      8.000000
  0.281250  0.434783  0.466667      8.000000
  0.343750  0.434783  0.466667      8.000000
  0.406250  0.434783  0.466667      8.000000
  0.468750  0.434783  0.466667      8.000000
  0.031250  0.478261  0.466667      8.000000
  0.093750  0.478261  0.466667      8.000000
  0.156250  0.478261  0.466667      8.000000
  0.218750  0.478261  0.466667      8.000000
  0.281250  0.478261  0.466667      8.000000
  0.343750  0.478261  0.466667      8.000000
  0.406250  0.478261  0.466667      8.000000
  0.468750  0.478261  0.466667      8.000000
 
 Following cartesian coordinates:
            Coordinates               Weight
  0.005485  0.000000  0.000000      2.000000
  0.016456  0.000000  0.000000      2.000000
  0.027427  0.000000  0.000000      2.000000
  0.038397  0.000000  0.000000      2.000000
  0.049368  0.000000  0.000000      2.000000
  0.060339  0.000000  0.000000      2.000000
  0.071309  0.000000  0.000000      2.000000
  0.082280  0.000000  0.000000      2.000000
  0.005485  0.010741  0.000000      4.000000
  0.016456  0.010741  0.000000      4.000000
  0.027427  0.010741  0.000000      4.000000
  0.038397  0.010741  0.000000      4.000000
  0.049368  0.010741  0.000000      4.000000
  0.060339  0.010741  0.000000      4.000000
  0.071309  0.010741  0.000000      4.000000
  0.082280  0.010741  0.000000      4.000000
  0.005485  0.021482  0.000000      4.000000
  0.016456  0.021482  0.000000      4.000000
  0.027427  0.021482  0.000000      4.000000
  0.038397  0.021482  0.000000      4.000000
  0.049368  0.021482  0.000000      4.000000
  0.060339  0.021482  0.000000      4.000000
  0.071309  0.021482  0.000000      4.000000
  0.082280  0.021482  0.000000      4.000000
  0.005485  0.032223  0.000000      4.000000
  0.016456  0.032223  0.000000      4.000000
  0.027427  0.032223  0.000000      4.000000
  0.038397  0.032223  0.000000      4.000000
  0.049368  0.032223  0.000000      4.000000
  0.060339  0.032223  0.000000      4.000000
  0.071309  0.032223  0.000000      4.000000
  0.082280  0.032223  0.000000      4.000000
  0.005485  0.042964  0.000000      4.000000
  0.016456  0.042964  0.000000      4.000000
  0.027427  0.042964  0.000000      4.000000
  0.038397  0.042964  0.000000      4.000000
  0.049368  0.042964  0.000000      4.000000
  0.060339  0.042964  0.000000      4.000000
  0.071309  0.042964  0.000000      4.000000
  0.082280  0.042964  0.000000      4.000000
  0.005485  0.053705  0.000000      4.000000
  0.016456  0.053705  0.000000      4.000000
  0.027427  0.053705  0.000000      4.000000
  0.038397  0.053705  0.000000      4.000000
  0.049368  0.053705  0.000000      4.000000
  0.060339  0.053705  0.000000      4.000000
  0.071309  0.053705  0.000000      4.000000
  0.082280  0.053705  0.000000      4.000000
  0.005485  0.064446  0.000000      4.000000
  0.016456  0.064446  0.000000      4.000000
  0.027427  0.064446  0.000000      4.000000
  0.038397  0.064446  0.000000      4.000000
  0.049368  0.064446  0.000000      4.000000
  0.060339  0.064446  0.000000      4.000000
  0.071309  0.064446  0.000000      4.000000
  0.082280  0.064446  0.000000      4.000000
  0.005485  0.075187  0.000000      4.000000
  0.016456  0.075187  0.000000      4.000000
  0.027427  0.075187  0.000000      4.000000
  0.038397  0.075187  0.000000      4.000000
  0.049368  0.075187  0.000000      4.000000
  0.060339  0.075187  0.000000      4.000000
  0.071309  0.075187  0.000000      4.000000
  0.082280  0.075187  0.000000      4.000000
  0.005485  0.085928  0.000000      4.000000
  0.016456  0.085928  0.000000      4.000000
  0.027427  0.085928  0.000000      4.000000
  0.038397  0.085928  0.000000      4.000000
  0.049368  0.085928  0.000000      4.000000
  0.060339  0.085928  0.000000      4.000000
  0.071309  0.085928  0.000000      4.000000
  0.082280  0.085928  0.000000      4.000000
  0.005485  0.096668  0.000000      4.000000
  0.016456  0.096668  0.000000      4.000000
  0.027427  0.096668  0.000000      4.000000
  0.038397  0.096668  0.000000      4.000000
  0.049368  0.096668  0.000000      4.000000
  0.060339  0.096668  0.000000      4.000000
  0.071309  0.096668  0.000000      4.000000
  0.082280  0.096668  0.000000      4.000000
  0.005485  0.107409  0.000000      4.000000
  0.016456  0.107409  0.000000      4.000000
  0.027427  0.107409  0.000000      4.000000
  0.038397  0.107409  0.000000      4.000000
  0.049368  0.107409  0.000000      4.000000
  0.060339  0.107409  0.000000      4.000000
  0.071309  0.107409  0.000000      4.000000
  0.082280  0.107409  0.000000      4.000000
  0.005485  0.118150  0.000000      4.000000
  0.016456  0.118150  0.000000      4.000000
  0.027427  0.118150  0.000000      4.000000
  0.038397  0.118150  0.000000      4.000000
  0.049368  0.118150  0.000000      4.000000
  0.060339  0.118150  0.000000      4.000000
  0.071309  0.118150  0.000000      4.000000
  0.082280  0.118150  0.000000      4.000000
  0.005485  0.000000  0.010745      4.000000
  0.016456  0.000000  0.010745      4.000000
  0.027427  0.000000  0.010745      4.000000
  0.038397  0.000000  0.010745      4.000000
  0.049368  0.000000  0.010745      4.000000
  0.060339  0.000000  0.010745      4.000000
  0.071309  0.000000  0.010745      4.000000
  0.082280  0.000000  0.010745      4.000000
  0.005485  0.010741  0.010745      8.000000
  0.016456  0.010741  0.010745      8.000000
  0.027427  0.010741  0.010745      8.000000
  0.038397  0.010741  0.010745      8.000000
  0.049368  0.010741  0.010745      8.000000
  0.060339  0.010741  0.010745      8.000000
  0.071309  0.010741  0.010745      8.000000
  0.082280  0.010741  0.010745      8.000000
  0.005485  0.021482  0.010745      8.000000
  0.016456  0.021482  0.010745      8.000000
  0.027427  0.021482  0.010745      8.000000
  0.038397  0.021482  0.010745      8.000000
  0.049368  0.021482  0.010745      8.000000
  0.060339  0.021482  0.010745      8.000000
  0.071309  0.021482  0.010745      8.000000
  0.082280  0.021482  0.010745      8.000000
  0.005485  0.032223  0.010745      8.000000
  0.016456  0.032223  0.010745      8.000000
  0.027427  0.032223  0.010745      8.000000
  0.038397  0.032223  0.010745      8.000000
  0.049368  0.032223  0.010745      8.000000
  0.060339  0.032223  0.010745      8.000000
  0.071309  0.032223  0.010745      8.000000
  0.082280  0.032223  0.010745      8.000000
  0.005485  0.042964  0.010745      8.000000
  0.016456  0.042964  0.010745      8.000000
  0.027427  0.042964  0.010745      8.000000
  0.038397  0.042964  0.010745      8.000000
  0.049368  0.042964  0.010745      8.000000
  0.060339  0.042964  0.010745      8.000000
  0.071309  0.042964  0.010745      8.000000
  0.082280  0.042964  0.010745      8.000000
  0.005485  0.053705  0.010745      8.000000
  0.016456  0.053705  0.010745      8.000000
  0.027427  0.053705  0.010745      8.000000
  0.038397  0.053705  0.010745      8.000000
  0.049368  0.053705  0.010745      8.000000
  0.060339  0.053705  0.010745      8.000000
  0.071309  0.053705  0.010745      8.000000
  0.082280  0.053705  0.010745      8.000000
  0.005485  0.064446  0.010745      8.000000
  0.016456  0.064446  0.010745      8.000000
  0.027427  0.064446  0.010745      8.000000
  0.038397  0.064446  0.010745      8.000000
  0.049368  0.064446  0.010745      8.000000
  0.060339  0.064446  0.010745      8.000000
  0.071309  0.064446  0.010745      8.000000
  0.082280  0.064446  0.010745      8.000000
  0.005485  0.075187  0.010745      8.000000
  0.016456  0.075187  0.010745      8.000000
  0.027427  0.075187  0.010745      8.000000
  0.038397  0.075187  0.010745      8.000000
  0.049368  0.075187  0.010745      8.000000
  0.060339  0.075187  0.010745      8.000000
  0.071309  0.075187  0.010745      8.000000
  0.082280  0.075187  0.010745      8.000000
  0.005485  0.085928  0.010745      8.000000
  0.016456  0.085928  0.010745      8.000000
  0.027427  0.085928  0.010745      8.000000
  0.038397  0.085928  0.010745      8.000000
  0.049368  0.085928  0.010745      8.000000
  0.060339  0.085928  0.010745      8.000000
  0.071309  0.085928  0.010745      8.000000
  0.082280  0.085928  0.010745      8.000000
  0.005485  0.096668  0.010745      8.000000
  0.016456  0.096668  0.010745      8.000000
  0.027427  0.096668  0.010745      8.000000
  0.038397  0.096668  0.010745      8.000000
  0.049368  0.096668  0.010745      8.000000
  0.060339  0.096668  0.010745      8.000000
  0.071309  0.096668  0.010745      8.000000
  0.082280  0.096668  0.010745      8.000000
  0.005485  0.107409  0.010745      8.000000
  0.016456  0.107409  0.010745      8.000000
  0.027427  0.107409  0.010745      8.000000
  0.038397  0.107409  0.010745      8.000000
  0.049368  0.107409  0.010745      8.000000
  0.060339  0.107409  0.010745      8.000000
  0.071309  0.107409  0.010745      8.000000
  0.082280  0.107409  0.010745      8.000000
  0.005485  0.118150  0.010745      8.000000
  0.016456  0.118150  0.010745      8.000000
  0.027427  0.118150  0.010745      8.000000
  0.038397  0.118150  0.010745      8.000000
  0.049368  0.118150  0.010745      8.000000
  0.060339  0.118150  0.010745      8.000000
  0.071309  0.118150  0.010745      8.000000
  0.082280  0.118150  0.010745      8.000000
  0.005485  0.000000  0.021491      4.000000
  0.016456  0.000000  0.021491      4.000000
  0.027427  0.000000  0.021491      4.000000
  0.038397  0.000000  0.021491      4.000000
  0.049368  0.000000  0.021491      4.000000
  0.060339  0.000000  0.021491      4.000000
  0.071309  0.000000  0.021491      4.000000
  0.082280  0.000000  0.021491      4.000000
  0.005485  0.010741  0.021491      8.000000
  0.016456  0.010741  0.021491      8.000000
  0.027427  0.010741  0.021491      8.000000
  0.038397  0.010741  0.021491      8.000000
  0.049368  0.010741  0.021491      8.000000
  0.060339  0.010741  0.021491      8.000000
  0.071309  0.010741  0.021491      8.000000
  0.082280  0.010741  0.021491      8.000000
  0.005485  0.021482  0.021491      8.000000
  0.016456  0.021482  0.021491      8.000000
  0.027427  0.021482  0.021491      8.000000
  0.038397  0.021482  0.021491      8.000000
  0.049368  0.021482  0.021491      8.000000
  0.060339  0.021482  0.021491      8.000000
  0.071309  0.021482  0.021491      8.000000
  0.082280  0.021482  0.021491      8.000000
  0.005485  0.032223  0.021491      8.000000
  0.016456  0.032223  0.021491      8.000000
  0.027427  0.032223  0.021491      8.000000
  0.038397  0.032223  0.021491      8.000000
  0.049368  0.032223  0.021491      8.000000
  0.060339  0.032223  0.021491      8.000000
  0.071309  0.032223  0.021491      8.000000
  0.082280  0.032223  0.021491      8.000000
  0.005485  0.042964  0.021491      8.000000
  0.016456  0.042964  0.021491      8.000000
  0.027427  0.042964  0.021491      8.000000
  0.038397  0.042964  0.021491      8.000000
  0.049368  0.042964  0.021491      8.000000
  0.060339  0.042964  0.021491      8.000000
  0.071309  0.042964  0.021491      8.000000
  0.082280  0.042964  0.021491      8.000000
  0.005485  0.053705  0.021491      8.000000
  0.016456  0.053705  0.021491      8.000000
  0.027427  0.053705  0.021491      8.000000
  0.038397  0.053705  0.021491      8.000000
  0.049368  0.053705  0.021491      8.000000
  0.060339  0.053705  0.021491      8.000000
  0.071309  0.053705  0.021491      8.000000
  0.082280  0.053705  0.021491      8.000000
  0.005485  0.064446  0.021491      8.000000
  0.016456  0.064446  0.021491      8.000000
  0.027427  0.064446  0.021491      8.000000
  0.038397  0.064446  0.021491      8.000000
  0.049368  0.064446  0.021491      8.000000
  0.060339  0.064446  0.021491      8.000000
  0.071309  0.064446  0.021491      8.000000
  0.082280  0.064446  0.021491      8.000000
  0.005485  0.075187  0.021491      8.000000
  0.016456  0.075187  0.021491      8.000000
  0.027427  0.075187  0.021491      8.000000
  0.038397  0.075187  0.021491      8.000000
  0.049368  0.075187  0.021491      8.000000
  0.060339  0.075187  0.021491      8.000000
  0.071309  0.075187  0.021491      8.000000
  0.082280  0.075187  0.021491      8.000000
  0.005485  0.085928  0.021491      8.000000
  0.016456  0.085928  0.021491      8.000000
  0.027427  0.085928  0.021491      8.000000
  0.038397  0.085928  0.021491      8.000000
  0.049368  0.085928  0.021491      8.000000
  0.060339  0.085928  0.021491      8.000000
  0.071309  0.085928  0.021491      8.000000
  0.082280  0.085928  0.021491      8.000000
  0.005485  0.096668  0.021491      8.000000
  0.016456  0.096668  0.021491      8.000000
  0.027427  0.096668  0.021491      8.000000
  0.038397  0.096668  0.021491      8.000000
  0.049368  0.096668  0.021491      8.000000
  0.060339  0.096668  0.021491      8.000000
  0.071309  0.096668  0.021491      8.000000
  0.082280  0.096668  0.021491      8.000000
  0.005485  0.107409  0.021491      8.000000
  0.016456  0.107409  0.021491      8.000000
  0.027427  0.107409  0.021491      8.000000
  0.038397  0.107409  0.021491      8.000000
  0.049368  0.107409  0.021491      8.000000
  0.060339  0.107409  0.021491      8.000000
  0.071309  0.107409  0.021491      8.000000
  0.082280  0.107409  0.021491      8.000000
  0.005485  0.118150  0.021491      8.000000
  0.016456  0.118150  0.021491      8.000000
  0.027427  0.118150  0.021491      8.000000
  0.038397  0.118150  0.021491      8.000000
  0.049368  0.118150  0.021491      8.000000
  0.060339  0.118150  0.021491      8.000000
  0.071309  0.118150  0.021491      8.000000
  0.082280  0.118150  0.021491      8.000000
  0.005485  0.000000  0.032236      4.000000
  0.016456  0.000000  0.032236      4.000000
  0.027427  0.000000  0.032236      4.000000
  0.038397  0.000000  0.032236      4.000000
  0.049368  0.000000  0.032236      4.000000
  0.060339  0.000000  0.032236      4.000000
  0.071309  0.000000  0.032236      4.000000
  0.082280  0.000000  0.032236      4.000000
  0.005485  0.010741  0.032236      8.000000
  0.016456  0.010741  0.032236      8.000000
  0.027427  0.010741  0.032236      8.000000
  0.038397  0.010741  0.032236      8.000000
  0.049368  0.010741  0.032236      8.000000
  0.060339  0.010741  0.032236      8.000000
  0.071309  0.010741  0.032236      8.000000
  0.082280  0.010741  0.032236      8.000000
  0.005485  0.021482  0.032236      8.000000
  0.016456  0.021482  0.032236      8.000000
  0.027427  0.021482  0.032236      8.000000
  0.038397  0.021482  0.032236      8.000000
  0.049368  0.021482  0.032236      8.000000
  0.060339  0.021482  0.032236      8.000000
  0.071309  0.021482  0.032236      8.000000
  0.082280  0.021482  0.032236      8.000000
  0.005485  0.032223  0.032236      8.000000
  0.016456  0.032223  0.032236      8.000000
  0.027427  0.032223  0.032236      8.000000
  0.038397  0.032223  0.032236      8.000000
  0.049368  0.032223  0.032236      8.000000
  0.060339  0.032223  0.032236      8.000000
  0.071309  0.032223  0.032236      8.000000
  0.082280  0.032223  0.032236      8.000000
  0.005485  0.042964  0.032236      8.000000
  0.016456  0.042964  0.032236      8.000000
  0.027427  0.042964  0.032236      8.000000
  0.038397  0.042964  0.032236      8.000000
  0.049368  0.042964  0.032236      8.000000
  0.060339  0.042964  0.032236      8.000000
  0.071309  0.042964  0.032236      8.000000
  0.082280  0.042964  0.032236      8.000000
  0.005485  0.053705  0.032236      8.000000
  0.016456  0.053705  0.032236      8.000000
  0.027427  0.053705  0.032236      8.000000
  0.038397  0.053705  0.032236      8.000000
  0.049368  0.053705  0.032236      8.000000
  0.060339  0.053705  0.032236      8.000000
  0.071309  0.053705  0.032236      8.000000
  0.082280  0.053705  0.032236      8.000000
  0.005485  0.064446  0.032236      8.000000
  0.016456  0.064446  0.032236      8.000000
  0.027427  0.064446  0.032236      8.000000
  0.038397  0.064446  0.032236      8.000000
  0.049368  0.064446  0.032236      8.000000
  0.060339  0.064446  0.032236      8.000000
  0.071309  0.064446  0.032236      8.000000
  0.082280  0.064446  0.032236      8.000000
  0.005485  0.075187  0.032236      8.000000
  0.016456  0.075187  0.032236      8.000000
  0.027427  0.075187  0.032236      8.000000
  0.038397  0.075187  0.032236      8.000000
  0.049368  0.075187  0.032236      8.000000
  0.060339  0.075187  0.032236      8.000000
  0.071309  0.075187  0.032236      8.000000
  0.082280  0.075187  0.032236      8.000000
  0.005485  0.085928  0.032236      8.000000
  0.016456  0.085928  0.032236      8.000000
  0.027427  0.085928  0.032236      8.000000
  0.038397  0.085928  0.032236      8.000000
  0.049368  0.085928  0.032236      8.000000
  0.060339  0.085928  0.032236      8.000000
  0.071309  0.085928  0.032236      8.000000
  0.082280  0.085928  0.032236      8.000000
  0.005485  0.096668  0.032236      8.000000
  0.016456  0.096668  0.032236      8.000000
  0.027427  0.096668  0.032236      8.000000
  0.038397  0.096668  0.032236      8.000000
  0.049368  0.096668  0.032236      8.000000
  0.060339  0.096668  0.032236      8.000000
  0.071309  0.096668  0.032236      8.000000
  0.082280  0.096668  0.032236      8.000000
  0.005485  0.107409  0.032236      8.000000
  0.016456  0.107409  0.032236      8.000000
  0.027427  0.107409  0.032236      8.000000
  0.038397  0.107409  0.032236      8.000000
  0.049368  0.107409  0.032236      8.000000
  0.060339  0.107409  0.032236      8.000000
  0.071309  0.107409  0.032236      8.000000
  0.082280  0.107409  0.032236      8.000000
  0.005485  0.118150  0.032236      8.000000
  0.016456  0.118150  0.032236      8.000000
  0.027427  0.118150  0.032236      8.000000
  0.038397  0.118150  0.032236      8.000000
  0.049368  0.118150  0.032236      8.000000
  0.060339  0.118150  0.032236      8.000000
  0.071309  0.118150  0.032236      8.000000
  0.082280  0.118150  0.032236      8.000000
  0.005485  0.000000  0.042982      4.000000
  0.016456  0.000000  0.042982      4.000000
  0.027427  0.000000  0.042982      4.000000
  0.038397  0.000000  0.042982      4.000000
  0.049368  0.000000  0.042982      4.000000
  0.060339  0.000000  0.042982      4.000000
  0.071309  0.000000  0.042982      4.000000
  0.082280  0.000000  0.042982      4.000000
  0.005485  0.010741  0.042982      8.000000
  0.016456  0.010741  0.042982      8.000000
  0.027427  0.010741  0.042982      8.000000
  0.038397  0.010741  0.042982      8.000000
  0.049368  0.010741  0.042982      8.000000
  0.060339  0.010741  0.042982      8.000000
  0.071309  0.010741  0.042982      8.000000
  0.082280  0.010741  0.042982      8.000000
  0.005485  0.021482  0.042982      8.000000
  0.016456  0.021482  0.042982      8.000000
  0.027427  0.021482  0.042982      8.000000
  0.038397  0.021482  0.042982      8.000000
  0.049368  0.021482  0.042982      8.000000
  0.060339  0.021482  0.042982      8.000000
  0.071309  0.021482  0.042982      8.000000
  0.082280  0.021482  0.042982      8.000000
  0.005485  0.032223  0.042982      8.000000
  0.016456  0.032223  0.042982      8.000000
  0.027427  0.032223  0.042982      8.000000
  0.038397  0.032223  0.042982      8.000000
  0.049368  0.032223  0.042982      8.000000
  0.060339  0.032223  0.042982      8.000000
  0.071309  0.032223  0.042982      8.000000
  0.082280  0.032223  0.042982      8.000000
  0.005485  0.042964  0.042982      8.000000
  0.016456  0.042964  0.042982      8.000000
  0.027427  0.042964  0.042982      8.000000
  0.038397  0.042964  0.042982      8.000000
  0.049368  0.042964  0.042982      8.000000
  0.060339  0.042964  0.042982      8.000000
  0.071309  0.042964  0.042982      8.000000
  0.082280  0.042964  0.042982      8.000000
  0.005485  0.053705  0.042982      8.000000
  0.016456  0.053705  0.042982      8.000000
  0.027427  0.053705  0.042982      8.000000
  0.038397  0.053705  0.042982      8.000000
  0.049368  0.053705  0.042982      8.000000
  0.060339  0.053705  0.042982      8.000000
  0.071309  0.053705  0.042982      8.000000
  0.082280  0.053705  0.042982      8.000000
  0.005485  0.064446  0.042982      8.000000
  0.016456  0.064446  0.042982      8.000000
  0.027427  0.064446  0.042982      8.000000
  0.038397  0.064446  0.042982      8.000000
  0.049368  0.064446  0.042982      8.000000
  0.060339  0.064446  0.042982      8.000000
  0.071309  0.064446  0.042982      8.000000
  0.082280  0.064446  0.042982      8.000000
  0.005485  0.075187  0.042982      8.000000
  0.016456  0.075187  0.042982      8.000000
  0.027427  0.075187  0.042982      8.000000
  0.038397  0.075187  0.042982      8.000000
  0.049368  0.075187  0.042982      8.000000
  0.060339  0.075187  0.042982      8.000000
  0.071309  0.075187  0.042982      8.000000
  0.082280  0.075187  0.042982      8.000000
  0.005485  0.085928  0.042982      8.000000
  0.016456  0.085928  0.042982      8.000000
  0.027427  0.085928  0.042982      8.000000
  0.038397  0.085928  0.042982      8.000000
  0.049368  0.085928  0.042982      8.000000
  0.060339  0.085928  0.042982      8.000000
  0.071309  0.085928  0.042982      8.000000
  0.082280  0.085928  0.042982      8.000000
  0.005485  0.096668  0.042982      8.000000
  0.016456  0.096668  0.042982      8.000000
  0.027427  0.096668  0.042982      8.000000
  0.038397  0.096668  0.042982      8.000000
  0.049368  0.096668  0.042982      8.000000
  0.060339  0.096668  0.042982      8.000000
  0.071309  0.096668  0.042982      8.000000
  0.082280  0.096668  0.042982      8.000000
  0.005485  0.107409  0.042982      8.000000
  0.016456  0.107409  0.042982      8.000000
  0.027427  0.107409  0.042982      8.000000
  0.038397  0.107409  0.042982      8.000000
  0.049368  0.107409  0.042982      8.000000
  0.060339  0.107409  0.042982      8.000000
  0.071309  0.107409  0.042982      8.000000
  0.082280  0.107409  0.042982      8.000000
  0.005485  0.118150  0.042982      8.000000
  0.016456  0.118150  0.042982      8.000000
  0.027427  0.118150  0.042982      8.000000
  0.038397  0.118150  0.042982      8.000000
  0.049368  0.118150  0.042982      8.000000
  0.060339  0.118150  0.042982      8.000000
  0.071309  0.118150  0.042982      8.000000
  0.082280  0.118150  0.042982      8.000000
  0.005485  0.000000  0.053727      4.000000
  0.016456  0.000000  0.053727      4.000000
  0.027427  0.000000  0.053727      4.000000
  0.038397  0.000000  0.053727      4.000000
  0.049368  0.000000  0.053727      4.000000
  0.060339  0.000000  0.053727      4.000000
  0.071309  0.000000  0.053727      4.000000
  0.082280  0.000000  0.053727      4.000000
  0.005485  0.010741  0.053727      8.000000
  0.016456  0.010741  0.053727      8.000000
  0.027427  0.010741  0.053727      8.000000
  0.038397  0.010741  0.053727      8.000000
  0.049368  0.010741  0.053727      8.000000
  0.060339  0.010741  0.053727      8.000000
  0.071309  0.010741  0.053727      8.000000
  0.082280  0.010741  0.053727      8.000000
  0.005485  0.021482  0.053727      8.000000
  0.016456  0.021482  0.053727      8.000000
  0.027427  0.021482  0.053727      8.000000
  0.038397  0.021482  0.053727      8.000000
  0.049368  0.021482  0.053727      8.000000
  0.060339  0.021482  0.053727      8.000000
  0.071309  0.021482  0.053727      8.000000
  0.082280  0.021482  0.053727      8.000000
  0.005485  0.032223  0.053727      8.000000
  0.016456  0.032223  0.053727      8.000000
  0.027427  0.032223  0.053727      8.000000
  0.038397  0.032223  0.053727      8.000000
  0.049368  0.032223  0.053727      8.000000
  0.060339  0.032223  0.053727      8.000000
  0.071309  0.032223  0.053727      8.000000
  0.082280  0.032223  0.053727      8.000000
  0.005485  0.042964  0.053727      8.000000
  0.016456  0.042964  0.053727      8.000000
  0.027427  0.042964  0.053727      8.000000
  0.038397  0.042964  0.053727      8.000000
  0.049368  0.042964  0.053727      8.000000
  0.060339  0.042964  0.053727      8.000000
  0.071309  0.042964  0.053727      8.000000
  0.082280  0.042964  0.053727      8.000000
  0.005485  0.053705  0.053727      8.000000
  0.016456  0.053705  0.053727      8.000000
  0.027427  0.053705  0.053727      8.000000
  0.038397  0.053705  0.053727      8.000000
  0.049368  0.053705  0.053727      8.000000
  0.060339  0.053705  0.053727      8.000000
  0.071309  0.053705  0.053727      8.000000
  0.082280  0.053705  0.053727      8.000000
  0.005485  0.064446  0.053727      8.000000
  0.016456  0.064446  0.053727      8.000000
  0.027427  0.064446  0.053727      8.000000
  0.038397  0.064446  0.053727      8.000000
  0.049368  0.064446  0.053727      8.000000
  0.060339  0.064446  0.053727      8.000000
  0.071309  0.064446  0.053727      8.000000
  0.082280  0.064446  0.053727      8.000000
  0.005485  0.075187  0.053727      8.000000
  0.016456  0.075187  0.053727      8.000000
  0.027427  0.075187  0.053727      8.000000
  0.038397  0.075187  0.053727      8.000000
  0.049368  0.075187  0.053727      8.000000
  0.060339  0.075187  0.053727      8.000000
  0.071309  0.075187  0.053727      8.000000
  0.082280  0.075187  0.053727      8.000000
  0.005485  0.085928  0.053727      8.000000
  0.016456  0.085928  0.053727      8.000000
  0.027427  0.085928  0.053727      8.000000
  0.038397  0.085928  0.053727      8.000000
  0.049368  0.085928  0.053727      8.000000
  0.060339  0.085928  0.053727      8.000000
  0.071309  0.085928  0.053727      8.000000
  0.082280  0.085928  0.053727      8.000000
  0.005485  0.096668  0.053727      8.000000
  0.016456  0.096668  0.053727      8.000000
  0.027427  0.096668  0.053727      8.000000
  0.038397  0.096668  0.053727      8.000000
  0.049368  0.096668  0.053727      8.000000
  0.060339  0.096668  0.053727      8.000000
  0.071309  0.096668  0.053727      8.000000
  0.082280  0.096668  0.053727      8.000000
  0.005485  0.107409  0.053727      8.000000
  0.016456  0.107409  0.053727      8.000000
  0.027427  0.107409  0.053727      8.000000
  0.038397  0.107409  0.053727      8.000000
  0.049368  0.107409  0.053727      8.000000
  0.060339  0.107409  0.053727      8.000000
  0.071309  0.107409  0.053727      8.000000
  0.082280  0.107409  0.053727      8.000000
  0.005485  0.118150  0.053727      8.000000
  0.016456  0.118150  0.053727      8.000000
  0.027427  0.118150  0.053727      8.000000
  0.038397  0.118150  0.053727      8.000000
  0.049368  0.118150  0.053727      8.000000
  0.060339  0.118150  0.053727      8.000000
  0.071309  0.118150  0.053727      8.000000
  0.082280  0.118150  0.053727      8.000000
  0.005485  0.000000  0.064472      4.000000
  0.016456  0.000000  0.064472      4.000000
  0.027427  0.000000  0.064472      4.000000
  0.038397  0.000000  0.064472      4.000000
  0.049368  0.000000  0.064472      4.000000
  0.060339  0.000000  0.064472      4.000000
  0.071309  0.000000  0.064472      4.000000
  0.082280  0.000000  0.064472      4.000000
  0.005485  0.010741  0.064472      8.000000
  0.016456  0.010741  0.064472      8.000000
  0.027427  0.010741  0.064472      8.000000
  0.038397  0.010741  0.064472      8.000000
  0.049368  0.010741  0.064472      8.000000
  0.060339  0.010741  0.064472      8.000000
  0.071309  0.010741  0.064472      8.000000
  0.082280  0.010741  0.064472      8.000000
  0.005485  0.021482  0.064472      8.000000
  0.016456  0.021482  0.064472      8.000000
  0.027427  0.021482  0.064472      8.000000
  0.038397  0.021482  0.064472      8.000000
  0.049368  0.021482  0.064472      8.000000
  0.060339  0.021482  0.064472      8.000000
  0.071309  0.021482  0.064472      8.000000
  0.082280  0.021482  0.064472      8.000000
  0.005485  0.032223  0.064472      8.000000
  0.016456  0.032223  0.064472      8.000000
  0.027427  0.032223  0.064472      8.000000
  0.038397  0.032223  0.064472      8.000000
  0.049368  0.032223  0.064472      8.000000
  0.060339  0.032223  0.064472      8.000000
  0.071309  0.032223  0.064472      8.000000
  0.082280  0.032223  0.064472      8.000000
  0.005485  0.042964  0.064472      8.000000
  0.016456  0.042964  0.064472      8.000000
  0.027427  0.042964  0.064472      8.000000
  0.038397  0.042964  0.064472      8.000000
  0.049368  0.042964  0.064472      8.000000
  0.060339  0.042964  0.064472      8.000000
  0.071309  0.042964  0.064472      8.000000
  0.082280  0.042964  0.064472      8.000000
  0.005485  0.053705  0.064472      8.000000
  0.016456  0.053705  0.064472      8.000000
  0.027427  0.053705  0.064472      8.000000
  0.038397  0.053705  0.064472      8.000000
  0.049368  0.053705  0.064472      8.000000
  0.060339  0.053705  0.064472      8.000000
  0.071309  0.053705  0.064472      8.000000
  0.082280  0.053705  0.064472      8.000000
  0.005485  0.064446  0.064472      8.000000
  0.016456  0.064446  0.064472      8.000000
  0.027427  0.064446  0.064472      8.000000
  0.038397  0.064446  0.064472      8.000000
  0.049368  0.064446  0.064472      8.000000
  0.060339  0.064446  0.064472      8.000000
  0.071309  0.064446  0.064472      8.000000
  0.082280  0.064446  0.064472      8.000000
  0.005485  0.075187  0.064472      8.000000
  0.016456  0.075187  0.064472      8.000000
  0.027427  0.075187  0.064472      8.000000
  0.038397  0.075187  0.064472      8.000000
  0.049368  0.075187  0.064472      8.000000
  0.060339  0.075187  0.064472      8.000000
  0.071309  0.075187  0.064472      8.000000
  0.082280  0.075187  0.064472      8.000000
  0.005485  0.085928  0.064472      8.000000
  0.016456  0.085928  0.064472      8.000000
  0.027427  0.085928  0.064472      8.000000
  0.038397  0.085928  0.064472      8.000000
  0.049368  0.085928  0.064472      8.000000
  0.060339  0.085928  0.064472      8.000000
  0.071309  0.085928  0.064472      8.000000
  0.082280  0.085928  0.064472      8.000000
  0.005485  0.096668  0.064472      8.000000
  0.016456  0.096668  0.064472      8.000000
  0.027427  0.096668  0.064472      8.000000
  0.038397  0.096668  0.064472      8.000000
  0.049368  0.096668  0.064472      8.000000
  0.060339  0.096668  0.064472      8.000000
  0.071309  0.096668  0.064472      8.000000
  0.082280  0.096668  0.064472      8.000000
  0.005485  0.107409  0.064472      8.000000
  0.016456  0.107409  0.064472      8.000000
  0.027427  0.107409  0.064472      8.000000
  0.038397  0.107409  0.064472      8.000000
  0.049368  0.107409  0.064472      8.000000
  0.060339  0.107409  0.064472      8.000000
  0.071309  0.107409  0.064472      8.000000
  0.082280  0.107409  0.064472      8.000000
  0.005485  0.118150  0.064472      8.000000
  0.016456  0.118150  0.064472      8.000000
  0.027427  0.118150  0.064472      8.000000
  0.038397  0.118150  0.064472      8.000000
  0.049368  0.118150  0.064472      8.000000
  0.060339  0.118150  0.064472      8.000000
  0.071309  0.118150  0.064472      8.000000
  0.082280  0.118150  0.064472      8.000000
  0.005485  0.000000  0.075218      4.000000
  0.016456  0.000000  0.075218      4.000000
  0.027427  0.000000  0.075218      4.000000
  0.038397  0.000000  0.075218      4.000000
  0.049368  0.000000  0.075218      4.000000
  0.060339  0.000000  0.075218      4.000000
  0.071309  0.000000  0.075218      4.000000
  0.082280  0.000000  0.075218      4.000000
  0.005485  0.010741  0.075218      8.000000
  0.016456  0.010741  0.075218      8.000000
  0.027427  0.010741  0.075218      8.000000
  0.038397  0.010741  0.075218      8.000000
  0.049368  0.010741  0.075218      8.000000
  0.060339  0.010741  0.075218      8.000000
  0.071309  0.010741  0.075218      8.000000
  0.082280  0.010741  0.075218      8.000000
  0.005485  0.021482  0.075218      8.000000
  0.016456  0.021482  0.075218      8.000000
  0.027427  0.021482  0.075218      8.000000
  0.038397  0.021482  0.075218      8.000000
  0.049368  0.021482  0.075218      8.000000
  0.060339  0.021482  0.075218      8.000000
  0.071309  0.021482  0.075218      8.000000
  0.082280  0.021482  0.075218      8.000000
  0.005485  0.032223  0.075218      8.000000
  0.016456  0.032223  0.075218      8.000000
  0.027427  0.032223  0.075218      8.000000
  0.038397  0.032223  0.075218      8.000000
  0.049368  0.032223  0.075218      8.000000
  0.060339  0.032223  0.075218      8.000000
  0.071309  0.032223  0.075218      8.000000
  0.082280  0.032223  0.075218      8.000000
  0.005485  0.042964  0.075218      8.000000
  0.016456  0.042964  0.075218      8.000000
  0.027427  0.042964  0.075218      8.000000
  0.038397  0.042964  0.075218      8.000000
  0.049368  0.042964  0.075218      8.000000
  0.060339  0.042964  0.075218      8.000000
  0.071309  0.042964  0.075218      8.000000
  0.082280  0.042964  0.075218      8.000000
  0.005485  0.053705  0.075218      8.000000
  0.016456  0.053705  0.075218      8.000000
  0.027427  0.053705  0.075218      8.000000
  0.038397  0.053705  0.075218      8.000000
  0.049368  0.053705  0.075218      8.000000
  0.060339  0.053705  0.075218      8.000000
  0.071309  0.053705  0.075218      8.000000
  0.082280  0.053705  0.075218      8.000000
  0.005485  0.064446  0.075218      8.000000
  0.016456  0.064446  0.075218      8.000000
  0.027427  0.064446  0.075218      8.000000
  0.038397  0.064446  0.075218      8.000000
  0.049368  0.064446  0.075218      8.000000
  0.060339  0.064446  0.075218      8.000000
  0.071309  0.064446  0.075218      8.000000
  0.082280  0.064446  0.075218      8.000000
  0.005485  0.075187  0.075218      8.000000
  0.016456  0.075187  0.075218      8.000000
  0.027427  0.075187  0.075218      8.000000
  0.038397  0.075187  0.075218      8.000000
  0.049368  0.075187  0.075218      8.000000
  0.060339  0.075187  0.075218      8.000000
  0.071309  0.075187  0.075218      8.000000
  0.082280  0.075187  0.075218      8.000000
  0.005485  0.085928  0.075218      8.000000
  0.016456  0.085928  0.075218      8.000000
  0.027427  0.085928  0.075218      8.000000
  0.038397  0.085928  0.075218      8.000000
  0.049368  0.085928  0.075218      8.000000
  0.060339  0.085928  0.075218      8.000000
  0.071309  0.085928  0.075218      8.000000
  0.082280  0.085928  0.075218      8.000000
  0.005485  0.096668  0.075218      8.000000
  0.016456  0.096668  0.075218      8.000000
  0.027427  0.096668  0.075218      8.000000
  0.038397  0.096668  0.075218      8.000000
  0.049368  0.096668  0.075218      8.000000
[...]
     43      13.2331      0.00000
     44      13.3995      0.00000
     45      14.1789      0.00000
     46      15.3230      0.00000
     47      15.4630      0.00000
     48      15.5842      0.00000

 k-point   763 :       0.1562    0.4783    0.4667
  band No.  band energies     occupation 
      1     -12.3209      2.00000
      2     -11.5522      2.00000
      3      -8.5096      2.00000
      4      -7.9687      2.00000
      5      -6.3213      2.00000
      6      -6.2039      2.00000
      7      -5.6465      2.00000
      8      -5.2765      2.00000
      9      -3.4439      2.00000
     10      -2.6386      2.00000
     11      -2.3426      2.00000
     12      -1.7659      2.00000
     13      -1.5810      2.00000
     14      -1.5396      2.00000
     15      -1.1901      2.00000
     16      -0.7570      2.00000
     17      -0.4067      2.00000
     18      -0.1870      2.00000
     19       0.4222      2.00000
     20       1.7498      1.99997
     21       2.1134      0.00000
     22       3.1896      0.00000
     23       4.8023      0.00000
     24       6.3463      0.00000
     25       6.4756      0.00000
     26       6.8953      0.00000
     27       7.6485      0.00000
     28       8.2040      0.00000
     29       8.8344      0.00000
     30       9.2292      0.00000
     31       9.4145      0.00000
     32      10.4862      0.00000
     33      10.7156      0.00000
     34      11.3210      0.00000
     35      11.3870      0.00000
     36      11.5391      0.00000
     37      11.9507      0.00000
     38      12.1224      0.00000
     39      12.4354      0.00000
     40      12.5197      0.00000
     41      12.9828      0.00000
     42      13.0727      0.00000
     43      13.4571      0.00000
     44      13.5599      0.00000
     45      14.3914      0.00000
     46      14.8495      0.00000
     47      15.4428      0.00000
     48      15.4920      0.00000

 k-point   764 :       0.2187    0.4783    0.4667
  band No.  band energies     occupation 
      1     -12.2771      2.00000
      2     -11.6006      2.00000
      3      -8.5594      2.00000
      4      -8.0601      2.00000
      5      -6.1614      2.00000
      6      -6.0596      2.00000
      7      -5.6669      2.00000
      8      -5.1773      2.00000
      9      -3.6279      2.00000
     10      -2.6789      2.00000
     11      -2.5345      2.00000
     12      -1.9250      2.00000
     13      -1.7048      2.00000
     14      -1.4165      2.00000
     15      -1.1782      2.00000
     16      -0.5862      2.00000
     17      -0.1974      2.00000
     18       0.0073      2.00000
     19       0.4407      2.00000
     20       1.7180      2.00000
     21       2.0561      0.00001
     22       2.6725      0.00000
     23       4.9868      0.00000
     24       6.3729      0.00000
     25       6.7077      0.00000
     26       6.7645      0.00000
     27       7.8798      0.00000
     28       8.4390      0.00000
     29       8.6243      0.00000
     30       9.0745      0.00000
     31       9.5527      0.00000
     32      10.2083      0.00000
     33      10.8178      0.00000
     34      11.1364      0.00000
     35      11.3210      0.00000
     36      11.4677      0.00000
     37      11.8284      0.00000
     38      12.2543      0.00000
     39      12.4102      0.00000
     40      12.5933      0.00000
     41      13.1930      0.00000
     42      13.3632      0.00000
     43      13.6947      0.00000
     44      13.8033      0.00000
     45      14.3014      0.00000
     46      14.6634      0.00000
     47      15.3841      0.00000
     48      15.4369      0.00000

 k-point   765 :       0.2812    0.4783    0.4667
  band No.  band energies     occupation 
      1     -12.2204      2.00000
      2     -11.6630      2.00000
      3      -8.5924      2.00000
      4      -8.1645      2.00000
      5      -6.1079      2.00000
      6      -5.7522      2.00000
      7      -5.6947      2.00000
      8      -5.0534      2.00000
      9      -3.8302      2.00000
     10      -3.0184      2.00000
     11      -2.4435      2.00000
     12      -2.0555      2.00000
     13      -1.8601      2.00000
     14      -1.3481      2.00000
     15      -1.0864      2.00000
     16      -0.3922      2.00000
     17       0.0045      2.00000
     18       0.1887      2.00000
     19       0.4757      2.00000
     20       1.6829      2.00000
     21       1.9816      0.01575
     22       2.1457      0.00000
     23       5.2209      0.00000
     24       6.2793      0.00000
     25       6.6492      0.00000
     26       7.0185      0.00000
     27       7.8964      0.00000
     28       8.6339      0.00000
     29       8.7435      0.00000
     30       8.8204      0.00000
     31       9.6848      0.00000
     32       9.9990      0.00000
     33      10.7867      0.00000
     34      11.0224      0.00000
     35      11.2995      0.00000
     36      11.4380      0.00000
     37      11.7110      0.00000
     38      12.0697      0.00000
     39      12.6271      0.00000
     40      12.8237      0.00000
     41      13.4930      0.00000
     42      13.6067      0.00000
     43      13.7970      0.00000
     44      13.9477      0.00000
     45      14.1049      0.00000
     46      14.9108      0.00000
     47      15.2752      0.00000
     48      15.4409      0.00000

 k-point   766 :       0.3437    0.4783    0.4667
  band No.  band energies     occupation 
      1     -12.1525      2.00000
      2     -11.7369      2.00000
      3      -8.6004      2.00000
      4      -8.2722      2.00000
      5      -6.0461      2.00000
      6      -5.7374      2.00000
      7      -5.4088      2.00000
      8      -4.9070      2.00000
      9      -4.0384      2.00000
     10      -3.3911      2.00000
     11      -2.3199      2.00000
     12      -2.1483      2.00000
     13      -1.9950      2.00000
     14      -1.4773      2.00000
     15      -0.8004      2.00000
     16      -0.2021      2.00000
     17       0.1855      2.00000
     18       0.3388      2.00000
     19       0.5083      2.00000
     20       1.6315      2.00000
     21       1.6535      2.00000
     22       1.8947      1.03446
     23       5.4813      0.00000
     24       6.1926      0.00000
     25       6.6118      0.00000
     26       7.2330      0.00000
     27       7.7567      0.00000
     28       8.2806      0.00000
     29       8.9926      0.00000
     30       9.1329      0.00000
     31       9.7390      0.00000
     32       9.9207      0.00000
     33      10.6631      0.00000
     34      11.0238      0.00000
     35      11.2126      0.00000
     36      11.4447      0.00000
     37      11.6073      0.00000
     38      11.8860      0.00000
     39      12.8086      0.00000
     40      13.1565      0.00000
     41      13.4227      0.00000
     42      13.8522      0.00000
     43      13.9008      0.00000
     44      14.1005      0.00000
     45      14.3440      0.00000
     46      15.0731      0.00000
     47      15.0959      0.00000
     48      15.3730      0.00000

 k-point   767 :       0.4062    0.4783    0.4667
  band No.  band energies     occupation 
      1     -12.0754      2.00000
      2     -11.8189      2.00000
      3      -8.5807      2.00000
      4      -8.3744      2.00000
      5      -5.9794      2.00000
      6      -5.7874      2.00000
      7      -5.0559      2.00000
      8      -4.7349      2.00000
      9      -4.2450      2.00000
     10      -3.7745      2.00000
     11      -2.2046      2.00000
     12      -2.1699      2.00000
     13      -2.1018      2.00000
     14      -1.6510      2.00000
     15      -0.4644      2.00000
     16      -0.0493      2.00000
     17       0.3334      2.00000
     18       0.4388      2.00000
     19       0.5287      2.00000
     20       1.1534      2.00000
     21       1.6431      2.00000
     22       1.8038      1.99106
     23       5.7214      0.00000
     24       6.1057      0.00000
     25       6.7003      0.00000
     26       7.3626      0.00000
     27       7.6215      0.00000
     28       7.8062      0.00000
     29       9.2594      0.00000
     30       9.5262      0.00000
     31       9.7411      0.00000
     32       9.9337      0.00000
     33      10.5188      0.00000
     34      10.9960      0.00000
     35      11.1181      0.00000
     36      11.4669      0.00000
     37      11.5415      0.00000
     38      11.7009      0.00000
     39      12.9882      0.00000
     40      13.2407      0.00000
     41      13.5079      0.00000
     42      14.0478      0.00000
     43      14.1804      0.00000
     44      14.3611      0.00000
     45      14.4260      0.00000
     46      14.8461      0.00000
     47      15.0570      0.00000
     48      15.2008      0.00000

 k-point   768 :       0.4687    0.4783    0.4667
  band No.  band energies     occupation 
      1     -11.9919      2.00000
      2     -11.9052      2.00000
      3      -8.5341      2.00000
      4      -8.4637      2.00000
      5      -5.9115      2.00000
      6      -5.8463      2.00000
      7      -4.7332      2.00000
      8      -4.5529      2.00000
      9      -4.4084      2.00000
     10      -4.1488      2.00000
     11      -2.2090      2.00000
     12      -2.1747      2.00000
     13      -2.0102      2.00000
     14      -1.8336      2.00000
     15      -0.1478      2.00000
     16       0.0058      2.00000
     17       0.4341      2.00000
     18       0.4723      2.00000
     19       0.5702      2.00000
     20       0.7641      2.00000
     21       1.6650      2.00000
     22       1.7220      2.00000
     23       5.8951      0.00000
     24       6.0119      0.00000
     25       6.9541      0.00000
     26       7.3424      0.00000
     27       7.4449      0.00000
     28       7.5227      0.00000
     29       9.4880      0.00000
     30       9.6449      0.00000
     31       9.8547      0.00000
     32       9.9670      0.00000
     33      10.4851      0.00000
     34      10.7074      0.00000
     35      11.2720      0.00000
     36      11.4656      0.00000
     37      11.4930      0.00000
     38      11.5303      0.00000
     39      13.1215      0.00000
     40      13.1831      0.00000
     41      13.8723      0.00000
     42      14.1670      0.00000
     43      14.2401      0.00000
     44      14.2828      0.00000
     45      14.6699      0.00000
     46      14.7591      0.00000
     47      14.8427      0.00000
     48      14.9733      0.00000


--------------------------------------------------------------------------------------------------------


 soft charge-density along one line, spin component           1
         0         1         2         3         4         5         6         7         8         9
 total charge-density along one line
 
 pseudopotential strength for first ion, spin component:           1
  6.446   9.815   0.000  -0.009   0.005   0.000  -0.014   0.007
  9.815  14.939   0.000  -0.013   0.007   0.000  -0.021   0.011
  0.000   0.000  -2.174   0.000   0.000  -3.695   0.000   0.000
 -0.009  -0.013   0.000  -2.179  -0.001   0.000  -3.706  -0.002
  0.005   0.007   0.000  -0.001  -2.178   0.000  -0.002  -3.703
  0.000   0.000  -3.695   0.000   0.000  -6.081   0.000   0.000
 -0.014  -0.021   0.000  -3.706  -0.002   0.000  -6.103  -0.004
  0.007   0.011   0.000  -0.002  -3.703   0.000  -0.004  -6.099
 total augmentation occupancy for first ion, spin component:           1
  3.642  -0.977  -0.000  -0.245   0.416   0.000   0.124  -0.176
 -0.977   0.286   0.000   0.161  -0.196   0.000  -0.056   0.073
  0.000   0.000   2.279   0.000   0.000  -0.543   0.000   0.000
 -0.245   0.161   0.000   3.773   0.327   0.000  -1.053  -0.120
  0.416  -0.196  -0.000   0.327   3.599   0.000  -0.120  -0.978
  0.000   0.000  -0.543   0.000   0.000   0.134   0.000   0.000
  0.124  -0.056   0.000  -1.053  -0.120   0.000   0.303   0.043
 -0.176   0.073   0.000  -0.120  -0.978   0.000   0.043   0.276


------------------------ aborting loop because EDIFF is reached ----------------------------------------


    CHARGE:  cpu time      0.3497: real time      0.3513
    FORLOC:  cpu time      0.0011: real time      0.0011
    FORNL :  cpu time      2.5970: real time      2.6049
    STRESS:  cpu time     12.3223: real time     12.3691
    FORCOR:  cpu time      0.0088: real time      0.0088
    FORHAR:  cpu time      0.0028: real time      0.0028
    MIXING:  cpu time      0.0006: real time      0.0006
    OFIELD:  cpu time      0.0001: real time      0.0001

  FORCE on cell =-STRESS in cart. coord.  units (eV):
  Direction    XX          YY          ZZ          XY          YZ          ZX
  --------------------------------------------------------------------------------------
  Alpha Z    94.24358    94.24358    94.24358
  Ewald     -90.05465  -558.27634  -147.43815    -0.00000    -0.00000     0.00000
  Hartree   186.91198     6.09579   156.08196    -0.00000    -0.00000    -0.00000
  E(xc)    -134.90744  -135.88057  -134.86966    -0.00000    -0.00000    -0.00000
  Local    -493.68870   125.71773  -405.71466    -0.00000     0.00000     0.00000
  n-local    -8.84798   -10.94230    -9.24829    -0.00556    -0.00676     0.07305
  augment     1.32055     1.36494     1.34918     0.00000     0.00000     0.00000
  Kinetic   446.22740   477.90582   445.01357     0.24660     0.06679    -1.16345
  Fock        0.00000     0.00000     0.00000     0.00000     0.00000     0.00000
  -------------------------------------------------------------------------------------
  Total       1.20474     0.22863    -0.58248     0.00000     0.00000     0.00000
  in kB      13.49097     2.56027    -6.52271     0.00000     0.00000     0.00000
  external pressure =        3.18 kB  Pullay stress =        0.00 kB


 VOLUME and BASIS-vectors are now :
 -----------------------------------------------------------------------------
  energy-cutoff  :      480.00
  volume of cell :      143.07
      direct lattice vectors                 reciprocal lattice vectors
     5.697000000  0.000000000  0.000000000     0.175530981  0.000000000  0.000000000
     0.000000000  4.047900000  0.000000000     0.000000000  0.247041676  0.000000000
     0.000000000  0.000000000  6.204200000     0.000000000  0.000000000  0.161181135

  length of vectors
     5.697000000  4.047900000  6.204200000     0.175530981  0.247041676  0.161181135


 FORCES acting on ions
    electron-ion (+dipol)            ewald-force                    non-local-force                 convergence-correction
 -----------------------------------------------------------------------------------------------
   0.497E+02 -.309E-12 -.250E+02   -.515E+02 0.211E-14 0.284E+02   0.181E+01 0.198E-18 -.331E+01   -.905E-04 0.326E-14 0.106E-03
   -.497E+02 -.324E-12 0.250E+02   0.515E+02 0.448E-16 -.284E+02   -.181E+01 -.189E-18 0.331E+01   0.905E-04 0.406E-14 -.106E-03
   -.497E+02 -.272E-12 -.250E+02   0.515E+02 0.587E-14 0.284E+02   -.181E+01 -.201E-18 -.331E+01   0.905E-04 0.362E-14 0.106E-03
   0.497E+02 -.137E-13 0.250E+02   -.515E+02 0.181E-14 -.284E+02   0.181E+01 0.223E-18 0.331E+01   -.905E-04 0.337E-14 -.106E-03
   0.313E+02 0.812E-12 -.527E+02   -.341E+02 0.342E-14 0.571E+02   0.193E+01 0.462E-19 -.409E+01   -.654E-04 0.317E-14 -.108E-04
   -.313E+02 0.244E-12 0.527E+02   0.341E+02 0.354E-14 -.571E+02   -.193E+01 -.361E-19 0.409E+01   0.654E-04 0.347E-14 0.108E-04
   -.313E+02 0.848E-12 -.527E+02   0.341E+02 0.299E-14 0.571E+02   -.193E+01 -.463E-19 -.409E+01   0.654E-04 0.301E-14 -.108E-04
   0.313E+02 0.501E-14 0.527E+02   -.341E+02 0.353E-14 -.571E+02   0.193E+01 0.361E-19 0.409E+01   -.654E-04 0.381E-14 0.108E-04
   -.185E-13 -.558E+02 -.155E+02   -.720E-14 0.613E+02 0.166E+02   0.200E-17 -.540E+01 -.112E+01   0.117E-13 0.278E-03 0.107E-03
   -.360E-13 0.558E+02 0.155E+02   0.108E-13 -.613E+02 -.166E+02   -.853E-19 0.540E+01 0.112E+01   0.245E-14 -.278E-03 -.107E-03
   -.191E-13 0.558E+02 -.155E+02   0.393E-14 -.613E+02 0.166E+02   0.114E-17 0.540E+01 -.112E+01   0.114E-13 -.278E-03 0.107E-03
   -.354E-13 -.558E+02 0.155E+02   0.643E-14 0.613E+02 -.166E+02   -.102E-17 -.540E+01 0.112E+01   0.305E-14 0.278E-03 -.107E-03
   -.149E-13 0.114E-13 -.623E+02   0.123E-13 0.532E-14 0.649E+02   0.168E-19 0.350E-18 -.255E+01   -.182E-13 0.411E-14 0.102E-03
   -.149E-13 0.653E-12 0.623E+02   0.173E-13 0.235E-14 -.649E+02   0.633E-19 -.373E-18 0.255E+01   0.136E-13 0.322E-14 -.102E-03
 -----------------------------------------------------------------------------------------------
   -.106E-13 0.123E-11 -.151E-11   0.152E-13 0.767E-14 -.284E-13   0.213E-17 -.235E-19 0.000E+00   0.436E-13 0.310E-13 -.377E-13
 
 
 POSITION                                       TOTAL-FORCE (eV/Angst)
 -----------------------------------------------------------------------------------
      2.96945      2.02395      3.95803         0.007535     -0.000000      0.039145
      2.72755      2.02395      2.24617        -0.007535     -0.000000     -0.039145
      5.57605      2.02395      3.95803        -0.007535     -0.000000      0.039145
      0.12095      2.02395      2.24617         0.007535     -0.000000     -0.039145
      3.42333      2.02395      5.58322        -0.824852     -0.000000      0.281003
      2.27367      2.02395      0.62098         0.824852     -0.000000     -0.281003
      5.12217      2.02395      5.58322         0.824852      0.000000      0.281003
      0.57483      2.02395      0.62098        -0.824852      0.000000     -0.281003
      4.27275      3.20476      4.52739        -0.000000      0.066667     -0.076721
      1.42425      0.84314      1.67681        -0.000000     -0.066667      0.076721
      4.27275      0.84314      4.52739        -0.000000     -0.066667     -0.076721
      1.42425      3.20476      1.67681        -0.000000      0.066667      0.076721
      1.42425      2.02395      3.24895        -0.000000     -0.000000      0.049297
      4.27275      2.02395      2.95525        -0.000000      0.000000     -0.049297
 -----------------------------------------------------------------------------------
    total drift:                                0.000000      0.000000     -0.000000


--------------------------------------------------------------------------------------------------------



  FREE ENERGIE OF THE ION-ELECTRON SYSTEM (eV)
  ---------------------------------------------------
  free  energy   TOTEN  =       -90.58408156 eV

  energy  without entropy=      -90.58065302  energy(sigma->0) =      -90.58236729
 


--------------------------------------------------------------------------------------------------------


    POTLOK:  cpu time      0.0106: real time      0.0106


--------------------------------------------------------------------------------------------------------


     LOOP+:  cpu time    358.8416: real time    361.0600
    4ORBIT:  cpu time      0.0000: real time      0.0000

 total amount of memory used by VASP MPI-rank0   293148. kBytes
=======================================================================

   base      :      30000. kBytes
   nonl-proj :     170643. kBytes
   fftplans  :       1019. kBytes
   grid      :       3560. kBytes
   one-center:         43. kBytes
   wavefun   :      87883. kBytes
 
  
  
 General timing and accounting informations for this job:
 ========================================================
  
                  Total CPU time used (sec):      367.517
                            User time (sec):      365.699
                          System time (sec):        1.819
                         Elapsed time (sec):      371.749
  
                   Maximum memory used (kb):      691940.
                   Average memory used (kb):          N/A
  
                          Minor page faults:      1026557
                          Major page faults:         1763
                 Voluntary context switches:         5175
