<?xml version="1.0" encoding="ISO-8859-1"?>
<modeling>
 <generator>
  <i name="program" type="string">vasp </i>
  <i name="version" type="string">6.4.3  </i>
  <i name="subversion" type="string">19Mar24 (build May 31 2024 16:31:43) complex                          parallel </i>
  <i name="platform" type="string">LinuxIFC </i>
  <i name="date" type="string">2024 10 31 </i>
  <i name="time" type="string">00:22:36 </i>
 </generator>
 <incar>
  <i type="string" name="SYSTEM">Kpoints</i>
  <i type="int" name="ISTART">     0</i>
  <i type="string" name="PREC">Accurate</i>
  <i type="string" name="ALGO">Normal</i>
  <i type="int" name="ISPIN">     1</i>
  <i type="int" name="ICHARG">     2</i>
  <i type="int" name="NELM">   100</i>
  <i type="int" name="IBRION">    -1</i>
  <i name="EDIFF">      0.00000100</i>
  <i name="EDIFFG">     -0.00100000</i>
  <i type="int" name="NSW">     0</i>
  <i type="int" name="ISIF">     2</i>
  <i name="ENCUT">    480.00000000</i>
  <i name="POTIM">      0.50000000</i>
  <i type="int" name="ISMEAR">     0</i>
  <i name="SIGMA">      0.05000000</i>
  <i type="logical" name="LWAVE"> F  </i>
  <i type="logical" name="LCHARG"> F  </i>
  <i type="string" name="GGA">PE</i>
 </incar>
 <primitive_cell>
  <structure name="primitive_cell" >
   <crystal>
    <varray name="basis" >
     <v>       5.69700000       0.00000000       0.00000000 </v>
     <v>       0.00000000       4.04790000       0.00000000 </v>
     <v>       0.00000000       0.00000000       6.20420000 </v>
    </varray>
    <i name="volume">    143.07435078 </i>
    <varray name="rec_basis" >
     <v>       0.17553098       0.00000000       0.00000000 </v>
     <v>       0.00000000       0.24704168       0.00000000 </v>
     <v>       0.00000000       0.00000000       0.16118114 </v>
    </varray>
   </crystal>
   <varray name="positions" >
    <v>       0.52123000       0.50000000       0.63796000 </v>
    <v>       0.47877000       0.50000000       0.36204000 </v>
    <v>       0.97877000       0.50000000       0.63796000 </v>
    <v>       0.02123000       0.50000000       0.36204000 </v>
    <v>       0.60090000       0.50000000       0.89991000 </v>
    <v>       0.39910000       0.50000000       0.10009000 </v>
    <v>       0.89910000       0.50000000       0.89991000 </v>
    <v>       0.10090000       0.50000000       0.10009000 </v>
    <v>       0.75000000       0.79171000       0.72973000 </v>
    <v>       0.25000000       0.20829000       0.27027000 </v>
    <v>       0.75000000       0.20829000       0.72973000 </v>
    <v>       0.25000000       0.79171000       0.27027000 </v>
    <v>       0.25000000       0.50000000       0.52367000 </v>
    <v>       0.75000000       0.50000000       0.47633000 </v>
   </varray>
  </structure>
  <varray name="primitive_index" >
   <v type="int" >        1 </v>
   <v type="int" >        2 </v>
   <v type="int" >        3 </v>
   <v type="int" >        4 </v>
   <v type="int" >        5 </v>
   <v type="int" >        6 </v>
   <v type="int" >        7 </v>
   <v type="int" >        8 </v>
   <v type="int" >        9 </v>
   <v type="int" >       10 </v>
   <v type="int" >       11 </v>
   <v type="int" >       12 </v>
   <v type="int" >       13 </v>
   <v type="int" >       14 </v>
  </varray>
 </primitive_cell>
 <kpoints>
  <generation param="Monkhorst-Pack">
   <v type="int" name="divisions">      16       23       15 </v>
   <v name="usershift">      0.00000000       0.00000000       0.00000000 </v>
   <v name="genvec1">      0.06250000       0.00000000       0.00000000 </v>
   <v name="genvec2">      0.00000000       0.04347826       0.00000000 </v>
   <v name="genvec3">      0.00000000       0.00000000       0.06666667 </v>
   <v name="shift">      0.50000000       0.00000000       0.00000000 </v>
  </generation>
  <varray name="kpointlist" >
   <v>       0.03125000       0.00000000       0.00000000 </v>
   <v>       0.09375000       0.00000000       0.00000000 </v>
   <v>       0.15625000       0.00000000       0.00000000 </v>
   <v>       0.21875000       0.00000000       0.00000000 </v>
   <v>       0.28125000       0.00000000       0.00000000 </v>
   <v>       0.34375000       0.00000000       0.00000000 </v>
   <v>       0.40625000       0.00000000       0.00000000 </v>
   <v>       0.46875000       0.00000000       0.00000000 </v>
   <v>       0.03125000       0.04347826       0.00000000 </v>
   <v>       0.09375000       0.04347826       0.00000000 </v>
   <v>       0.15625000       0.04347826       0.00000000 </v>
   <v>       0.21875000       0.04347826       0.00000000 </v>
   <v>       0.28125000       0.04347826       0.00000000 </v>
   <v>       0.34375000       0.04347826       0.00000000 </v>
   <v>       0.40625000       0.04347826       0.00000000 </v>
   <v>       0.46875000       0.04347826       0.00000000 </v>
   <v>       0.03125000       0.08695652       0.00000000 </v>
   <v>       0.09375000       0.08695652       0.00000000 </v>
   <v>       0.15625000       0.08695652       0.00000000 </v>
   <v>       0.21875000       0.08695652       0.00000000 </v>
   <v>       0.28125000       0.08695652       0.00000000 </v>
   <v>       0.34375000       0.08695652       0.00000000 </v>
   <v>       0.40625000       0.08695652       0.00000000 </v>
   <v>       0.46875000       0.08695652       0.00000000 </v>
   <v>       0.03125000       0.13043478       0.00000000 </v>
   <v>       0.09375000       0.13043478       0.00000000 </v>
   <v>       0.15625000       0.13043478       0.00000000 </v>
   <v>       0.21875000       0.13043478       0.00000000 </v>
   <v>       0.28125000       0.13043478       0.00000000 </v>
   <v>       0.34375000       0.13043478       0.00000000 </v>
   <v>       0.40625000       0.13043478       0.00000000 </v>
   <v>       0.46875000       0.13043478       0.00000000 </v>
   <v>       0.03125000       0.17391304       0.00000000 </v>
   <v>       0.09375000       0.17391304       0.00000000 </v>
   <v>       0.15625000       0.17391304       0.00000000 </v>
   <v>       0.21875000       0.17391304       0.00000000 </v>
   <v>       0.28125000       0.17391304       0.00000000 </v>
   <v>       0.34375000       0.17391304       0.00000000 </v>
   <v>       0.40625000       0.17391304       0.00000000 </v>
   <v>       0.46875000       0.17391304       0.00000000 </v>
   <v>       0.03125000       0.21739130       0.00000000 </v>
   <v>       0.09375000       0.21739130       0.00000000 </v>
   <v>       0.15625000       0.21739130       0.00000000 </v>
   <v>       0.21875000       0.21739130       0.00000000 </v>
   <v>       0.28125000       0.21739130       0.00000000 </v>
   <v>       0.34375000       0.21739130       0.00000000 </v>
   <v>       0.40625000       0.21739130       0.00000000 </v>
   <v>       0.46875000       0.21739130       0.00000000 </v>
   <v>       0.03125000       0.26086957       0.00000000 </v>
   <v>       0.09375000       0.26086957       0.00000000 </v>
   <v>       0.15625000       0.26086957       0.00000000 </v>
   <v>       0.21875000       0.26086957       0.00000000 </v>
   <v>       0.28125000       0.26086957       0.00000000 </v>
   <v>       0.34375000       0.26086957       0.00000000 </v>
   <v>       0.40625000       0.26086957       0.00000000 </v>
   <v>       0.46875000       0.26086957       0.00000000 </v>
   <v>       0.03125000       0.30434783       0.00000000 </v>
   <v>       0.09375000       0.30434783       0.00000000 </v>
   <v>       0.15625000       0.30434783       0.00000000 </v>
   <v>       0.21875000       0.30434783       0.00000000 </v>
   <v>       0.28125000       0.30434783       0.00000000 </v>
   <v>       0.34375000       0.30434783       0.00000000 </v>
   <v>       0.40625000       0.30434783       0.00000000 </v>
   <v>       0.46875000       0.30434783       0.00000000 </v>
   <v>       0.03125000       0.34782609       0.00000000 </v>
   <v>       0.09375000       0.34782609       0.00000000 </v>
   <v>       0.15625000       0.34782609       0.00000000 </v>
   <v>       0.21875000       0.34782609       0.00000000 </v>
   <v>       0.28125000       0.34782609       0.00000000 </v>
   <v>       0.34375000       0.34782609       0.00000000 </v>
   <v>       0.40625000       0.34782609       0.00000000 </v>
   <v>       0.46875000       0.34782609       0.00000000 </v>
   <v>       0.03125000       0.39130435       0.00000000 </v>
   <v>       0.09375000       0.39130435       0.00000000 </v>
   <v>       0.15625000       0.39130435       0.00000000 </v>
   <v>       0.21875000       0.39130435       0.00000000 </v>
   <v>       0.28125000       0.39130435       0.00000000 </v>
   <v>       0.34375000       0.39130435       0.00000000 </v>
   <v>       0.40625000       0.39130435       0.00000000 </v>
   <v>       0.46875000       0.39130435       0.00000000 </v>
   <v>       0.03125000       0.43478261       0.00000000 </v>
   <v>       0.09375000       0.43478261       0.00000000 </v>
   <v>       0.15625000       0.43478261       0.00000000 </v>
   <v>       0.21875000       0.43478261       0.00000000 </v>
   <v>       0.28125000       0.43478261       0.00000000 </v>
   <v>       0.34375000       0.43478261       0.00000000 </v>
   <v>       0.40625000       0.43478261       0.00000000 </v>
   <v>       0.46875000       0.43478261       0.00000000 </v>
   <v>       0.03125000       0.47826087       0.00000000 </v>
   <v>       0.09375000       0.47826087       0.00000000 </v>
   <v>       0.15625000       0.47826087       0.00000000 </v>
   <v>       0.21875000       0.47826087       0.00000000 </v>
   <v>       0.28125000       0.47826087       0.00000000 </v>
   <v>       0.34375000       0.47826087       0.00000000 </v>
   <v>       0.40625000       0.47826087       0.00000000 </v>
   <v>       0.46875000       0.47826087       0.00000000 </v>
   <v>       0.03125000       0.00000000       0.06666667 </v>
   <v>       0.09375000       0.00000000       0.06666667 </v>
   <v>       0.15625000       0.00000000       0.06666667 </v>
   <v>       0.21875000       0.00000000       0.06666667 </v>
   <v>       0.28125000       0.00000000       0.06666667 </v>
   <v>       0.34375000       0.00000000       0.06666667 </v>
   <v>       0.40625000       0.00000000       0.06666667 </v>
   <v>       0.46875000       0.00000000       0.06666667 </v>
   <v>       0.03125000       0.04347826       0.06666667 </v>
   <v>       0.09375000       0.04347826       0.06666667 </v>
   <v>       0.15625000       0.04347826       0.06666667 </v>
   <v>       0.21875000       0.04347826       0.06666667 </v>
   <v>       0.28125000       0.04347826       0.06666667 </v>
   <v>       0.34375000       0.04347826       0.06666667 </v>
   <v>       0.40625000       0.04347826       0.06666667 </v>
   <v>       0.46875000       0.04347826       0.06666667 </v>
   <v>       0.03125000       0.08695652       0.06666667 </v>
   <v>       0.09375000       0.08695652       0.06666667 </v>
   <v>       0.15625000       0.08695652       0.06666667 </v>
   <v>       0.21875000       0.08695652       0.06666667 </v>
   <v>       0.28125000       0.08695652       0.06666667 </v>
   <v>       0.34375000       0.08695652       0.06666667 </v>
   <v>       0.40625000       0.08695652       0.06666667 </v>
   <v>       0.46875000       0.08695652       0.06666667 </v>
   <v>       0.03125000       0.13043478       0.06666667 </v>
   <v>       0.09375000       0.13043478       0.06666667 </v>
   <v>       0.15625000       0.13043478       0.06666667 </v>
   <v>       0.21875000       0.13043478       0.06666667 </v>
   <v>       0.28125000       0.13043478       0.06666667 </v>
   <v>       0.34375000       0.13043478       0.06666667 </v>
   <v>       0.40625000       0.13043478       0.06666667 </v>
   <v>       0.46875000       0.13043478       0.06666667 </v>
   <v>       0.03125000       0.17391304       0.06666667 </v>
   <v>       0.09375000       0.17391304       0.06666667 </v>
   <v>       0.15625000       0.17391304       0.06666667 </v>
   <v>       0.21875000       0.17391304       0.06666667 </v>
   <v>       0.28125000       0.17391304       0.06666667 </v>
   <v>       0.34375000       0.17391304       0.06666667 </v>
   <v>       0.40625000       0.17391304       0.06666667 </v>
   <v>       0.46875000       0.17391304       0.06666667 </v>
   <v>       0.03125000       0.21739130       0.06666667 </v>
   <v>       0.09375000       0.21739130       0.06666667 </v>
   <v>       0.15625000       0.21739130       0.06666667 </v>
   <v>       0.21875000       0.21739130       0.06666667 </v>
   <v>       0.28125000       0.21739130       0.06666667 </v>
   <v>       0.34375000       0.21739130       0.06666667 </v>
   <v>       0.40625000       0.21739130       0.06666667 </v>
   <v>       0.46875000       0.21739130       0.06666667 </v>
   <v>       0.03125000       0.26086957       0.06666667 </v>
   <v>       0.09375000       0.26086957       0.06666667 </v>
   <v>       0.15625000       0.26086957       0.06666667 </v>
   <v>       0.21875000       0.26086957       0.06666667 </v>
   <v>       0.28125000       0.26086957       0.06666667 </v>
   <v>       0.34375000       0.26086957       0.06666667 </v>
   <v>       0.40625000       0.26086957       0.06666667 </v>
   <v>       0.46875000       0.26086957       0.06666667 </v>
   <v>       0.03125000       0.30434783       0.06666667 </v>
   <v>       0.09375000       0.30434783       0.06666667 </v>
   <v>       0.15625000       0.30434783       0.06666667 </v>
   <v>       0.21875000       0.30434783       0.06666667 </v>
   <v>       0.28125000       0.30434783       0.06666667 </v>
   <v>       0.34375000       0.30434783       0.06666667 </v>
   <v>       0.40625000       0.30434783       0.06666667 </v>
   <v>       0.46875000       0.30434783       0.06666667 </v>
   <v>       0.03125000       0.34782609       0.06666667 </v>
   <v>       0.09375000       0.34782609       0.06666667 </v>
   <v>       0.15625000       0.34782609       0.06666667 </v>
   <v>       0.21875000       0.34782609       0.06666667 </v>
   <v>       0.28125000       0.34782609       0.06666667 </v>
   <v>       0.34375000       0.34782609       0.06666667 </v>
   <v>       0.40625000       0.34782609       0.06666667 </v>
   <v>       0.46875000       0.34782609       0.06666667 </v>
   <v>       0.03125000       0.39130435       0.06666667 </v>
   <v>       0.09375000       0.39130435       0.06666667 </v>
   <v>       0.15625000       0.39130435       0.06666667 </v>
   <v>       0.21875000       0.39130435       0.06666667 </v>
   <v>       0.28125000       0.39130435       0.06666667 </v>
   <v>       0.34375000       0.39130435       0.06666667 </v>
   <v>       0.40625000       0.39130435       0.06666667 </v>
   <v>       0.46875000       0.39130435       0.06666667 </v>
   <v>       0.03125000       0.43478261       0.06666667 </v>
   <v>       0.09375000       0.43478261       0.06666667 </v>
   <v>       0.15625000       0.43478261       0.06666667 </v>
   <v>       0.21875000       0.43478261       0.06666667 </v>
   <v>       0.28125000       0.43478261       0.06666667 </v>
   <v>       0.34375000       0.43478261       0.06666667 </v>
   <v>       0.40625000       0.43478261       0.06666667 </v>
   <v>       0.46875000       0.43478261       0.06666667 </v>
   <v>       0.03125000       0.47826087       0.06666667 </v>
   <v>       0.09375000       0.47826087       0.06666667 </v>
   <v>       0.15625000       0.47826087       0.06666667 </v>
   <v>       0.21875000       0.47826087       0.06666667 </v>
   <v>       0.28125000       0.47826087       0.06666667 </v>
   <v>       0.34375000       0.47826087       0.06666667 </v>
   <v>       0.40625000       0.47826087       0.06666667 </v>
   <v>       0.46875000       0.47826087       0.06666667 </v>
   <v>       0.03125000       0.00000000       0.13333333 </v>
   <v>       0.09375000       0.00000000       0.13333333 </v>
   <v>       0.15625000       0.00000000       0.13333333 </v>
   <v>       0.21875000       0.00000000       0.13333333 </v>
   <v>       0.28125000       0.00000000       0.13333333 </v>
   <v>       0.34375000       0.00000000       0.13333333 </v>
   <v>       0.40625000       0.00000000       0.13333333 </v>
   <v>       0.46875000       0.00000000       0.13333333 </v>
   <v>       0.03125000       0.04347826       0.13333333 </v>
   <v>       0.09375000       0.04347826       0.13333333 </v>
   <v>       0.15625000       0.04347826       0.13333333 </v>
   <v>       0.21875000       0.04347826       0.13333333 </v>
   <v>       0.28125000       0.04347826       0.13333333 </v>
   <v>       0.34375000       0.04347826       0.13333333 </v>
   <v>       0.40625000       0.04347826       0.13333333 </v>
   <v>       0.46875000       0.04347826       0.13333333 </v>
   <v>       0.03125000       0.08695652       0.13333333 </v>
   <v>       0.09375000       0.08695652       0.13333333 </v>
   <v>       0.15625000       0.08695652       0.13333333 </v>
   <v>       0.21875000       0.08695652       0.13333333 </v>
   <v>       0.28125000       0.08695652       0.13333333 </v>
   <v>       0.34375000       0.08695652       0.13333333 </v>
   <v>       0.40625000       0.08695652       0.13333333 </v>
   <v>       0.46875000       0.08695652       0.13333333 </v>
   <v>       0.03125000       0.13043478       0.13333333 </v>
   <v>       0.09375000       0.13043478       0.13333333 </v>
   <v>       0.15625000       0.13043478       0.13333333 </v>
   <v>       0.21875000       0.13043478       0.13333333 </v>
   <v>       0.28125000       0.13043478       0.13333333 </v>
   <v>       0.34375000       0.13043478       0.13333333 </v>
   <v>       0.40625000       0.13043478       0.13333333 </v>
   <v>       0.46875000       0.13043478       0.13333333 </v>
   <v>       0.03125000       0.17391304       0.13333333 </v>
   <v>       0.09375000       0.17391304       0.13333333 </v>
   <v>       0.15625000       0.17391304       0.13333333 </v>
   <v>       0.21875000       0.17391304       0.13333333 </v>
   <v>       0.28125000       0.17391304       0.13333333 </v>
   <v>       0.34375000       0.17391304       0.13333333 </v>
   <v>       0.40625000       0.17391304       0.13333333 </v>
   <v>       0.46875000       0.17391304       0.13333333 </v>
   <v>       0.03125000       0.21739130       0.13333333 </v>
   <v>       0.09375000       0.21739130       0.13333333 </v>
   <v>       0.15625000       0.21739130       0.13333333 </v>
   <v>       0.21875000       0.21739130       0.13333333 </v>
   <v>       0.28125000       0.21739130       0.13333333 </v>
   <v>       0.34375000       0.21739130       0.13333333 </v>
   <v>       0.40625000       0.21739130       0.13333333 </v>
   <v>       0.46875000       0.21739130       0.13333333 </v>
   <v>       0.03125000       0.26086957       0.13333333 </v>
   <v>       0.09375000       0.26086957       0.13333333 </v>
   <v>       0.15625000       0.26086957       0.13333333 </v>
   <v>       0.21875000       0.26086957       0.13333333 </v>
   <v>       0.28125000       0.26086957       0.13333333 </v>
   <v>       0.34375000       0.26086957       0.13333333 </v>
   <v>       0.40625000       0.26086957       0.13333333 </v>
   <v>       0.46875000       0.26086957       0.13333333 </v>
   <v>       0.03125000       0.30434783       0.13333333 </v>
   <v>       0.09375000       0.30434783       0.13333333 </v>
   <v>       0.15625000       0.30434783       0.13333333 </v>
   <v>       0.21875000       0.30434783       0.13333333 </v>
   <v>       0.28125000       0.30434783       0.13333333 </v>
   <v>       0.34375000       0.30434783       0.13333333 </v>
   <v>       0.40625000       0.30434783       0.13333333 </v>
   <v>       0.46875000       0.30434783       0.13333333 </v>
   <v>       0.03125000       0.34782609       0.13333333 </v>
   <v>       0.09375000       0.34782609       0.13333333 </v>
   <v>       0.15625000       0.34782609       0.13333333 </v>
   <v>       0.21875000       0.34782609       0.13333333 </v>
   <v>       0.28125000       0.34782609       0.13333333 </v>
   <v>       0.34375000       0.34782609       0.13333333 </v>
   <v>       0.40625000       0.34782609       0.13333333 </v>
   <v>       0.46875000       0.34782609       0.13333333 </v>
   <v>       0.03125000       0.39130435       0.13333333 </v>
   <v>       0.09375000       0.39130435       0.13333333 </v>
   <v>       0.15625000       0.39130435       0.13333333 </v>
   <v>       0.21875000       0.39130435       0.13333333 </v>
   <v>       0.28125000       0.39130435       0.13333333 </v>
   <v>       0.34375000       0.39130435       0.13333333 </v>
   <v>       0.40625000       0.39130435       0.13333333 </v>
   <v>       0.46875000       0.39130435       0.13333333 </v>
   <v>       0.03125000       0.43478261       0.13333333 </v>
   <v>       0.09375000       0.43478261       0.13333333 </v>
   <v>       0.15625000       0.43478261       0.13333333 </v>
   <v>       0.21875000       0.43478261       0.13333333 </v>
   <v>       0.28125000       0.43478261       0.13333333 </v>
   <v>       0.34375000       0.43478261       0.13333333 </v>
   <v>       0.40625000       0.43478261       0.13333333 </v>
   <v>       0.46875000       0.43478261       0.13333333 </v>
   <v>       0.03125000       0.47826087       0.13333333 </v>
   <v>       0.09375000       0.47826087       0.13333333 </v>
   <v>       0.15625000       0.47826087       0.13333333 </v>
   <v>       0.21875000       0.47826087       0.13333333 </v>
   <v>       0.28125000       0.47826087       0.13333333 </v>
   <v>       0.34375000       0.47826087       0.13333333 </v>
   <v>       0.40625000       0.47826087       0.13333333 </v>
   <v>       0.46875000       0.47826087       0.13333333 </v>
   <v>       0.03125000       0.00000000       0.20000000 </v>
   <v>       0.09375000       0.00000000       0.20000000 </v>
   <v>       0.15625000       0.00000000       0.20000000 </v>
   <v>       0.21875000       0.00000000       0.20000000 </v>
   <v>       0.28125000       0.00000000       0.20000000 </v>
   <v>       0.34375000       0.00000000       0.20000000 </v>
   <v>       0.40625000       0.00000000       0.20000000 </v>
   <v>       0.46875000       0.00000000       0.20000000 </v>
   <v>       0.03125000       0.04347826       0.20000000 </v>
   <v>       0.09375000       0.04347826       0.20000000 </v>
   <v>       0.15625000       0.04347826       0.20000000 </v>
   <v>       0.21875000       0.04347826       0.20000000 </v>
   <v>       0.28125000       0.04347826       0.20000000 </v>
   <v>       0.34375000       0.04347826       0.20000000 </v>
   <v>       0.40625000       0.04347826       0.20000000 </v>
   <v>       0.46875000       0.04347826       0.20000000 </v>
   <v>       0.03125000       0.08695652       0.20000000 </v>
   <v>       0.09375000       0.08695652       0.20000000 </v>
   <v>       0.15625000       0.08695652       0.20000000 </v>
   <v>       0.21875000       0.08695652       0.20000000 </v>
   <v>       0.28125000       0.08695652       0.20000000 </v>
   <v>       0.34375000       0.08695652       0.20000000 </v>
   <v>       0.40625000       0.08695652       0.20000000 </v>
   <v>       0.46875000       0.08695652       0.20000000 </v>
   <v>       0.03125000       0.13043478       0.20000000 </v>
   <v>       0.09375000       0.13043478       0.20000000 </v>
   <v>       0.15625000       0.13043478       0.20000000 </v>
   <v>       0.21875000       0.13043478       0.20000000 </v>
   <v>       0.28125000       0.13043478       0.20000000 </v>
   <v>       0.34375000       0.13043478       0.20000000 </v>
   <v>       0.40625000       0.13043478       0.20000000 </v>
   <v>       0.46875000       0.13043478       0.20000000 </v>
   <v>       0.03125000       0.17391304       0.20000000 </v>
   <v>       0.09375000       0.17391304       0.20000000 </v>
   <v>       0.15625000       0.17391304       0.20000000 </v>
   <v>       0.21875000       0.17391304       0.20000000 </v>
   <v>       0.28125000       0.17391304       0.20000000 </v>
   <v>       0.34375000       0.17391304       0.20000000 </v>
   <v>       0.40625000       0.17391304       0.20000000 </v>
   <v>       0.46875000       0.17391304       0.20000000 </v>
   <v>       0.03125000       0.21739130       0.20000000 </v>
   <v>       0.09375000       0.21739130       0.20000000 </v>
   <v>       0.15625000       0.21739130       0.20000000 </v>
   <v>       0.21875000       0.21739130       0.20000000 </v>
   <v>       0.28125000       0.21739130       0.20000000 </v>
   <v>       0.34375000       0.21739130       0.20000000 </v>
   <v>       0.40625000       0.21739130       0.20000000 </v>
   <v>       0.46875000       0.21739130       0.20000000 </v>
   <v>       0.03125000       0.26086957       0.20000000 </v>
   <v>       0.09375000       0.26086957       0.20000000 </v>
   <v>       0.15625000       0.26086957       0.20000000 </v>
   <v>       0.21875000       0.26086957       0.20000000 </v>
   <v>       0.28125000       0.26086957       0.20000000 </v>
   <v>       0.34375000       0.26086957       0.20000000 </v>
   <v>       0.40625000       0.26086957       0.20000000 </v>
   <v>       0.46875000       0.26086957       0.20000000 </v>
   <v>       0.03125000       0.30434783       0.20000000 </v>
   <v>       0.09375000       0.30434783       0.20000000 </v>
   <v>       0.15625000       0.30434783       0.20000000 </v>
   <v>       0.21875000       0.30434783       0.20000000 </v>
   <v>       0.28125000       0.30434783       0.20000000 </v>
   <v>       0.34375000       0.30434783       0.20000000 </v>
   <v>       0.40625000       0.30434783       0.20000000 </v>
   <v>       0.46875000       0.30434783       0.20000000 </v>
   <v>       0.03125000       0.34782609       0.20000000 </v>
   <v>       0.09375000       0.34782609       0.20000000 </v>
   <v>       0.15625000       0.34782609       0.20000000 </v>
   <v>       0.21875000       0.34782609       0.20000000 </v>
   <v>       0.28125000       0.34782609       0.20000000 </v>
   <v>       0.34375000       0.34782609       0.20000000 </v>
   <v>       0.40625000       0.34782609       0.20000000 </v>
   <v>       0.46875000       0.34782609       0.20000000 </v>
   <v>       0.03125000       0.39130435       0.20000000 </v>
   <v>       0.09375000       0.39130435       0.20000000 </v>
   <v>       0.15625000       0.39130435       0.20000000 </v>
   <v>       0.21875000       0.39130435       0.20000000 </v>
   <v>       0.28125000       0.39130435       0.20000000 </v>
   <v>       0.34375000       0.39130435       0.20000000 </v>
   <v>       0.40625000       0.39130435       0.20000000 </v>
   <v>       0.46875000       0.39130435       0.20000000 </v>
   <v>       0.03125000       0.43478261       0.20000000 </v>
   <v>       0.09375000       0.43478261       0.20000000 </v>
   <v>       0.15625000       0.43478261       0.20000000 </v>
   <v>       0.21875000       0.43478261       0.20000000 </v>
   <v>       0.28125000       0.43478261       0.20000000 </v>
   <v>       0.34375000       0.43478261       0.20000000 </v>
   <v>       0.40625000       0.43478261       0.20000000 </v>
   <v>       0.46875000       0.43478261       0.20000000 </v>
   <v>       0.03125000       0.47826087       0.20000000 </v>
   <v>       0.09375000       0.47826087       0.20000000 </v>
   <v>       0.15625000       0.47826087       0.20000000 </v>
   <v>       0.21875000       0.47826087       0.20000000 </v>
   <v>       0.28125000       0.47826087       0.20000000 </v>
   <v>       0.34375000       0.47826087       0.20000000 </v>
   <v>       0.40625000       0.47826087       0.20000000 </v>
   <v>       0.46875000       0.47826087       0.20000000 </v>
   <v>       0.03125000       0.00000000       0.26666667 </v>
   <v>       0.09375000       0.00000000       0.26666667 </v>
   <v>       0.15625000       0.00000000       0.26666667 </v>
   <v>       0.21875000       0.00000000       0.26666667 </v>
   <v>       0.28125000       0.00000000       0.26666667 </v>
   <v>       0.34375000       0.00000000       0.26666667 </v>
   <v>       0.40625000       0.00000000       0.26666667 </v>
   <v>       0.46875000       0.00000000       0.26666667 </v>
   <v>       0.03125000       0.04347826       0.26666667 </v>
   <v>       0.09375000       0.04347826       0.26666667 </v>
   <v>       0.15625000       0.04347826       0.26666667 </v>
   <v>       0.21875000       0.04347826       0.26666667 </v>
   <v>       0.28125000       0.04347826       0.26666667 </v>
   <v>       0.34375000       0.04347826       0.26666667 </v>
   <v>       0.40625000       0.04347826       0.26666667 </v>
   <v>       0.46875000       0.04347826       0.26666667 </v>
   <v>       0.03125000       0.08695652       0.26666667 </v>
   <v>       0.09375000       0.08695652       0.26666667 </v>
   <v>       0.15625000       0.08695652       0.26666667 </v>
   <v>       0.21875000       0.08695652       0.26666667 </v>
   <v>       0.28125000       0.08695652       0.26666667 </v>
   <v>       0.34375000       0.08695652       0.26666667 </v>
   <v>       0.40625000       0.08695652       0.26666667 </v>
   <v>       0.46875000       0.08695652       0.26666667 </v>
   <v>       0.03125000       0.13043478       0.26666667 </v>
   <v>       0.09375000       0.13043478       0.26666667 </v>
   <v>       0.15625000       0.13043478       0.26666667 </v>
   <v>       0.21875000       0.13043478       0.26666667 </v>
   <v>       0.28125000       0.13043478       0.26666667 </v>
   <v>       0.34375000       0.13043478       0.26666667 </v>
   <v>       0.40625000       0.13043478       0.26666667 </v>
   <v>       0.46875000       0.13043478       0.26666667 </v>
   <v>       0.03125000       0.17391304       0.26666667 </v>
   <v>       0.09375000       0.17391304       0.26666667 </v>
   <v>       0.15625000       0.17391304       0.26666667 </v>
   <v>       0.21875000       0.17391304       0.26666667 </v>
   <v>       0.28125000       0.17391304       0.26666667 </v>
   <v>       0.34375000       0.17391304       0.26666667 </v>
   <v>       0.40625000       0.17391304       0.26666667 </v>
   <v>       0.46875000       0.17391304       0.26666667 </v>
   <v>       0.03125000       0.21739130       0.26666667 </v>
   <v>       0.09375000       0.21739130       0.26666667 </v>
   <v>       0.15625000       0.21739130       0.26666667 </v>
   <v>       0.21875000       0.21739130       0.26666667 </v>
   <v>       0.28125000       0.21739130       0.26666667 </v>
   <v>       0.34375000       0.21739130       0.26666667 </v>
   <v>       0.40625000       0.21739130       0.26666667 </v>
   <v>       0.46875000       0.21739130       0.26666667 </v>
   <v>       0.03125000       0.26086957       0.26666667 </v>
   <v>       0.09375000       0.26086957       0.26666667 </v>
   <v>       0.15625000       0.26086957       0.26666667 </v>
   <v>       0.21875000       0.26086957       0.26666667 </v>
   <v>       0.28125000       0.26086957       0.26666667 </v>
   <v>       0.34375000       0.26086957       0.26666667 </v>
   <v>       0.40625000       0.26086957       0.26666667 </v>
   <v>       0.46875000       0.26086957       0.26666667 </v>
   <v>       0.03125000       0.30434783       0.26666667 </v>
   <v>       0.09375000       0.30434783       0.26666667 </v>
   <v>       0.15625000       0.30434783       0.26666667 </v>
   <v>       0.21875000       0.30434783       0.26666667 </v>
   <v>       0.28125000       0.30434783       0.26666667 </v>
   <v>       0.34375000       0.30434783       0.26666667 </v>
   <v>       0.40625000       0.30434783       0.26666667 </v>
   <v>       0.46875000       0.30434783       0.26666667 </v>
   <v>       0.03125000       0.34782609       0.26666667 </v>
   <v>       0.09375000       0.34782609       0.26666667 </v>
   <v>       0.15625000       0.34782609       0.26666667 </v>
   <v>       0.21875000       0.34782609       0.26666667 </v>
   <v>       0.28125000       0.34782609       0.26666667 </v>
   <v>       0.34375000       0.34782609       0.26666667 </v>
   <v>       0.40625000       0.34782609       0.26666667 </v>
   <v>       0.46875000       0.34782609       0.26666667 </v>
   <v>       0.03125000       0.39130435       0.26666667 </v>
   <v>       0.09375000       0.39130435       0.26666667 </v>
   <v>       0.15625000       0.39130435       0.26666667 </v>
   <v>       0.21875000       0.39130435       0.26666667 </v>
   <v>       0.28125000       0.39130435       0.26666667 </v>
   <v>       0.34375000       0.39130435       0.26666667 </v>
   <v>       0.40625000       0.39130435       0.26666667 </v>
   <v>       0.46875000       0.39130435       0.26666667 </v>
   <v>       0.03125000       0.43478261       0.26666667 </v>
   <v>       0.09375000       0.43478261       0.26666667 </v>
   <v>       0.15625000       0.43478261       0.26666667 </v>
   <v>       0.21875000       0.43478261       0.26666667 </v>
   <v>       0.28125000       0.43478261       0.26666667 </v>
   <v>       0.34375000       0.43478261       0.26666667 </v>
   <v>       0.40625000       0.43478261       0.26666667 </v>
   <v>       0.46875000       0.43478261       0.26666667 </v>
   <v>       0.03125000       0.47826087       0.26666667 </v>
   <v>       0.09375000       0.47826087       0.26666667 </v>
   <v>       0.15625000       0.47826087       0.26666667 </v>
   <v>       0.21875000       0.47826087       0.26666667 </v>
   <v>       0.28125000       0.47826087       0.26666667 </v>
   <v>       0.34375000       0.47826087       0.26666667 </v>
   <v>       0.40625000       0.47826087       0.26666667 </v>
   <v>       0.46875000       0.47826087       0.26666667 </v>
   <v>       0.03125000       0.00000000       0.33333333 </v>
   <v>       0.09375000       0.00000000       0.33333333 </v>
   <v>       0.15625000       0.00000000       0.33333333 </v>
   <v>       0.21875000       0.00000000       0.33333333 </v>
   <v>       0.28125000       0.00000000       0.33333333 </v>
   <v>       0.34375000       0.00000000       0.33333333 </v>
   <v>       0.40625000       0.00000000       0.33333333 </v>
   <v>       0.46875000       0.00000000       0.33333333 </v>
   <v>       0.03125000       0.04347826       0.33333333 </v>
   <v>       0.09375000       0.04347826       0.33333333 </v>
   <v>       0.15625000       0.04347826       0.33333333 </v>
   <v>       0.21875000       0.04347826       0.33333333 </v>
   <v>       0.28125000       0.04347826       0.33333333 </v>
   <v>       0.34375000       0.04347826       0.33333333 </v>
   <v>       0.40625000       0.04347826       0.33333333 </v>
   <v>       0.46875000       0.04347826       0.33333333 </v>
   <v>       0.03125000       0.08695652       0.33333333 </v>
   <v>       0.09375000       0.08695652       0.33333333 </v>
   <v>       0.15625000       0.08695652       0.33333333 </v>
   <v>       0.21875000       0.08695652       0.33333333 </v>
   <v>       0.28125000       0.08695652       0.33333333 </v>
   <v>       0.34375000       0.08695652       0.33333333 </v>
   <v>       0.40625000       0.08695652       0.33333333 </v>
   <v>       0.46875000       0.08695652       0.33333333 </v>
   <v>       0.03125000       0.13043478       0.33333333 </v>
   <v>       0.09375000       0.13043478       0.33333333 </v>
   <v>       0.15625000       0.13043478       0.33333333 </v>
   <v>       0.21875000       0.13043478       0.33333333 </v>
   <v>       0.28125000       0.13043478       0.33333333 </v>
   <v>       0.34375000       0.13043478       0.33333333 </v>
   <v>       0.40625000       0.13043478       0.33333333 </v>
   <v>       0.46875000       0.13043478       0.33333333 </v>
   <v>       0.03125000       0.17391304       0.33333333 </v>
   <v>       0.09375000       0.17391304       0.33333333 </v>
   <v>       0.15625000       0.17391304       0.33333333 </v>
   <v>       0.21875000       0.17391304       0.33333333 </v>
   <v>       0.28125000       0.17391304       0.33333333 </v>
   <v>       0.34375000       0.17391304       0.33333333 </v>
   <v>       0.40625000       0.17391304       0.33333333 </v>
   <v>       0.46875000       0.17391304       0.33333333 </v>
   <v>       0.03125000       0.21739130       0.33333333 </v>
   <v>       0.09375000       0.21739130       0.33333333 </v>
   <v>       0.15625000       0.21739130       0.33333333 </v>
   <v>       0.21875000       0.21739130       0.33333333 </v>
   <v>       0.28125000       0.21739130       0.33333333 </v>
   <v>       0.34375000       0.21739130       0.33333333 </v>
   <v>       0.40625000       0.21739130       0.33333333 </v>
   <v>       0.46875000       0.21739130       0.33333333 </v>
   <v>       0.03125000       0.26086957       0.33333333 </v>
   <v>       0.09375000       0.26086957       0.33333333 </v>
   <v>       0.15625000       0.26086957       0.33333333 </v>
   <v>       0.21875000       0.26086957       0.33333333 </v>
   <v>       0.28125000       0.26086957       0.33333333 </v>
   <v>       0.34375000       0.26086957       0.33333333 </v>
   <v>       0.40625000       0.26086957       0.33333333 </v>
   <v>       0.46875000       0.26086957       0.33333333 </v>
   <v>       0.03125000       0.30434783       0.33333333 </v>
   <v>       0.09375000       0.30434783       0.33333333 </v>
   <v>       0.15625000       0.30434783       0.33333333 </v>
   <v>       0.21875000       0.30434783       0.33333333 </v>
   <v>       0.28125000       0.30434783       0.33333333 </v>
   <v>       0.34375000       0.30434783       0.33333333 </v>
   <v>       0.40625000       0.30434783       0.33333333 </v>
   <v>       0.46875000       0.30434783       0.33333333 </v>
   <v>       0.03125000       0.34782609       0.33333333 </v>
   <v>       0.09375000       0.34782609       0.33333333 </v>
   <v>       0.15625000       0.34782609       0.33333333 </v>
   <v>       0.21875000       0.34782609       0.33333333 </v>
   <v>       0.28125000       0.34782609       0.33333333 </v>
   <v>       0.34375000       0.34782609       0.33333333 </v>
   <v>       0.40625000       0.34782609       0.33333333 </v>
   <v>       0.46875000       0.34782609       0.33333333 </v>
   <v>       0.03125000       0.39130435       0.33333333 </v>
   <v>       0.09375000       0.39130435       0.33333333 </v>
   <v>       0.15625000       0.39130435       0.33333333 </v>
   <v>       0.21875000       0.39130435       0.33333333 </v>
   <v>       0.28125000       0.39130435       0.33333333 </v>
   <v>       0.34375000       0.39130435       0.33333333 </v>
   <v>       0.40625000       0.39130435       0.33333333 </v>
   <v>       0.46875000       0.39130435       0.33333333 </v>
   <v>       0.03125000       0.43478261       0.33333333 </v>
   <v>       0.09375000       0.43478261       0.33333333 </v>
   <v>       0.15625000       0.43478261       0.33333333 </v>
   <v>       0.21875000       0.43478261       0.33333333 </v>
   <v>       0.28125000       0.43478261       0.33333333 </v>
   <v>       0.34375000       0.43478261       0.33333333 </v>
   <v>       0.40625000       0.43478261       0.33333333 </v>
   <v>       0.46875000       0.43478261       0.33333333 </v>
   <v>       0.03125000       0.47826087       0.33333333 </v>
   <v>       0.09375000       0.47826087       0.33333333 </v>
   <v>       0.15625000       0.47826087       0.33333333 </v>
   <v>       0.21875000       0.47826087       0.33333333 </v>
   <v>       0.28125000       0.47826087       0.33333333 </v>
   <v>       0.34375000       0.47826087       0.33333333 </v>
   <v>       0.40625000       0.47826087       0.33333333 </v>
   <v>       0.46875000       0.47826087       0.33333333 </v>
   <v>       0.03125000       0.00000000       0.40000000 </v>
   <v>       0.09375000       0.00000000       0.40000000 </v>
   <v>       0.15625000       0.00000000       0.40000000 </v>
   <v>       0.21875000       0.00000000       0.40000000 </v>
   <v>       0.28125000       0.00000000       0.40000000 </v>
   <v>       0.34375000       0.00000000       0.40000000 </v>
   <v>       0.40625000       0.00000000       0.40000000 </v>
   <v>       0.46875000       0.00000000       0.40000000 </v>
   <v>       0.03125000       0.04347826       0.40000000 </v>
   <v>       0.09375000       0.04347826       0.40000000 </v>
   <v>       0.15625000       0.04347826       0.40000000 </v>
   <v>       0.21875000       0.04347826       0.40000000 </v>
   <v>       0.28125000       0.04347826       0.40000000 </v>
   <v>       0.34375000       0.04347826       0.40000000 </v>
   <v>       0.40625000       0.04347826       0.40000000 </v>
   <v>       0.46875000       0.04347826       0.40000000 </v>
   <v>       0.03125000       0.08695652       0.40000000 </v>
   <v>       0.09375000       0.08695652       0.40000000 </v>
   <v>       0.15625000       0.08695652       0.40000000 </v>
   <v>       0.21875000       0.08695652       0.40000000 </v>
   <v>       0.28125000       0.08695652       0.40000000 </v>
   <v>       0.34375000       0.08695652       0.40000000 </v>
   <v>       0.40625000       0.08695652       0.40000000 </v>
   <v>       0.46875000       0.08695652       0.40000000 </v>
   <v>       0.03125000       0.13043478       0.40000000 </v>
   <v>       0.09375000       0.13043478       0.40000000 </v>
   <v>       0.15625000       0.13043478       0.40000000 </v>
   <v>       0.21875000       0.13043478       0.40000000 </v>
   <v>       0.28125000       0.13043478       0.40000000 </v>
   <v>       0.34375000       0.13043478       0.40000000 </v>
   <v>       0.40625000       0.13043478       0.40000000 </v>
   <v>       0.46875000       0.13043478       0.40000000 </v>
   <v>       0.03125000       0.17391304       0.40000000 </v>
   <v>       0.09375000       0.17391304       0.40000000 </v>
   <v>       0.15625000       0.17391304       0.40000000 </v>
   <v>       0.21875000       0.17391304       0.40000000 </v>
   <v>       0.28125000       0.17391304       0.40000000 </v>
   <v>       0.34375000       0.17391304       0.40000000 </v>
   <v>       0.40625000       0.17391304       0.40000000 </v>
   <v>       0.46875000       0.17391304       0.40000000 </v>
   <v>       0.03125000       0.21739130       0.40000000 </v>
   <v>       0.09375000       0.21739130       0.40000000 </v>
   <v>       0.15625000       0.21739130       0.40000000 </v>
   <v>       0.21875000       0.21739130       0.40000000 </v>
   <v>       0.28125000       0.21739130       0.40000000 </v>
   <v>       0.34375000       0.21739130       0.40000000 </v>
   <v>       0.40625000       0.21739130       0.40000000 </v>
   <v>       0.46875000       0.21739130       0.40000000 </v>
   <v>       0.03125000       0.26086957       0.40000000 </v>
   <v>       0.09375000       0.26086957       0.40000000 </v>
   <v>       0.15625000       0.26086957       0.40000000 </v>
   <v>       0.21875000       0.26086957       0.40000000 </v>
   <v>       0.28125000       0.26086957       0.40000000 </v>
   <v>       0.34375000       0.26086957       0.40000000 </v>
   <v>       0.40625000       0.26086957       0.40000000 </v>
   <v>       0.46875000       0.26086957       0.40000000 </v>
   <v>       0.03125000       0.30434783       0.40000000 </v>
   <v>       0.09375000       0.30434783       0.40000000 </v>
   <v>       0.15625000       0.30434783       0.40000000 </v>
   <v>       0.21875000       0.30434783       0.40000000 </v>
   <v>       0.28125000       0.30434783       0.40000000 </v>
   <v>       0.34375000       0.30434783       0.40000000 </v>
   <v>       0.40625000       0.30434783       0.40000000 </v>
   <v>       0.46875000       0.30434783       0.40000000 </v>
   <v>       0.03125000       0.34782609       0.40000000 </v>
   <v>       0.09375000       0.34782609       0.40000000 </v>
   <v>       0.15625000       0.34782609       0.40000000 </v>
   <v>       0.21875000       0.34782609       0.40000000 </v>
   <v>       0.28125000       0.34782609       0.40000000 </v>
   <v>       0.34375000       0.34782609       0.40000000 </v>
   <v>       0.40625000       0.34782609       0.40000000 </v>
   <v>       0.46875000       0.34782609       0.40000000 </v>
   <v>       0.03125000       0.39130435       0.40000000 </v>
   <v>       0.09375000       0.39130435       0.40000000 </v>
   <v>       0.15625000       0.39130435       0.40000000 </v>
   <v>       0.21875000       0.39130435       0.40000000 </v>
   <v>       0.28125000       0.39130435       0.40000000 </v>
   <v>       0.34375000       0.39130435       0.40000000 </v>
   <v>       0.40625000       0.39130435       0.40000000 </v>
   <v>       0.46875000       0.39130435       0.40000000 </v>
   <v>       0.03125000       0.43478261       0.40000000 </v>
   <v>       0.09375000       0.43478261       0.40000000 </v>
   <v>       0.15625000       0.43478261       0.40000000 </v>
   <v>       0.21875000       0.43478261       0.40000000 </v>
   <v>       0.28125000       0.43478261       0.40000000 </v>
   <v>       0.34375000       0.43478261       0.40000000 </v>
   <v>       0.40625000       0.43478261       0.40000000 </v>
   <v>       0.46875000       0.43478261       0.40000000 </v>
   <v>       0.03125000       0.47826087       0.40000000 </v>
   <v>       0.09375000       0.47826087       0.40000000 </v>
   <v>       0.15625000       0.47826087       0.40000000 </v>
   <v>       0.21875000       0.47826087       0.40000000 </v>
   <v>       0.28125000       0.47826087       0.40000000 </v>
   <v>       0.34375000       0.47826087       0.40000000 </v>
   <v>       0.40625000       0.47826087       0.40000000 </v>
   <v>       0.46875000       0.47826087       0.40000000 </v>
   <v>       0.03125000       0.00000000       0.46666667 </v>
   <v>       0.09375000       0.00000000       0.46666667 </v>
   <v>       0.15625000       0.00000000       0.46666667 </v>
   <v>       0.21875000       0.00000000       0.46666667 </v>
   <v>       0.28125000       0.00000000       0.46666667 </v>
   <v>       0.34375000       0.00000000       0.46666667 </v>
   <v>       0.40625000       0.00000000       0.46666667 </v>
   <v>       0.46875000       0.00000000       0.46666667 </v>
   <v>       0.03125000       0.04347826       0.46666667 </v>
   <v>       0.09375000       0.04347826       0.46666667 </v>
   <v>       0.15625000       0.04347826       0.46666667 </v>
   <v>       0.21875000       0.04347826       0.46666667 </v>
   <v>       0.28125000       0.04347826       0.46666667 </v>
   <v>       0.34375000       0.04347826       0.46666667 </v>
   <v>       0.40625000       0.04347826       0.46666667 </v>
   <v>       0.46875000       0.04347826       0.46666667 </v>
   <v>       0.03125000       0.08695652       0.46666667 </v>
   <v>       0.09375000       0.08695652       0.46666667 </v>
   <v>       0.15625000       0.08695652       0.46666667 </v>
   <v>       0.21875000       0.08695652       0.46666667 </v>
   <v>       0.28125000       0.08695652       0.46666667 </v>
   <v>       0.34375000       0.08695652       0.46666667 </v>
   <v>       0.40625000       0.08695652       0.46666667 </v>
   <v>       0.46875000       0.08695652       0.46666667 </v>
   <v>       0.03125000       0.13043478       0.46666667 </v>
   <v>       0.09375000       0.13043478       0.46666667 </v>
   <v>       0.15625000       0.13043478       0.46666667 </v>
   <v>       0.21875000       0.13043478       0.46666667 </v>
   <v>       0.28125000       0.13043478       0.46666667 </v>
   <v>       0.34375000       0.13043478       0.46666667 </v>
   <v>       0.40625000       0.13043478       0.46666667 </v>
   <v>       0.46875000       0.13043478       0.46666667 </v>
   <v>       0.03125000       0.17391304       0.46666667 </v>
   <v>       0.09375000       0.17391304       0.46666667 </v>
   <v>       0.15625000       0.17391304       0.46666667 </v>
   <v>       0.21875000       0.17391304       0.46666667 </v>
   <v>       0.28125000       0.17391304       0.46666667 </v>
   <v>       0.34375000       0.17391304       0.46666667 </v>
   <v>       0.40625000       0.17391304       0.46666667 </v>
   <v>       0.46875000       0.17391304       0.46666667 </v>
   <v>       0.03125000       0.21739130       0.46666667 </v>
   <v>       0.09375000       0.21739130       0.46666667 </v>
   <v>       0.15625000       0.21739130       0.46666667 </v>
   <v>       0.21875000       0.21739130       0.46666667 </v>
   <v>       0.28125000       0.21739130       0.46666667 </v>
   <v>       0.34375000       0.21739130       0.46666667 </v>
   <v>       0.40625000       0.21739130       0.46666667 </v>
   <v>       0.46875000       0.21739130       0.46666667 </v>
   <v>       0.03125000       0.26086957       0.46666667 </v>
   <v>       0.09375000       0.26086957       0.46666667 </v>
   <v>       0.15625000       0.26086957       0.46666667 </v>
   <v>       0.21875000       0.26086957       0.46666667 </v>
   <v>       0.28125000       0.26086957       0.46666667 </v>
   <v>       0.34375000       0.26086957       0.46666667 </v>
   <v>       0.40625000       0.26086957       0.46666667 </v>
   <v>       0.46875000       0.26086957       0.46666667 </v>
   <v>       0.03125000       0.30434783       0.46666667 </v>
   <v>       0.09375000       0.30434783       0.46666667 </v>
   <v>       0.15625000       0.30434783       0.46666667 </v>
   <v>       0.21875000       0.30434783       0.46666667 </v>
   <v>       0.28125000       0.30434783       0.46666667 </v>
   <v>       0.34375000       0.30434783       0.46666667 </v>
   <v>       0.40625000       0.30434783       0.46666667 </v>
   <v>       0.46875000       0.30434783       0.46666667 </v>
   <v>       0.03125000       0.34782609       0.46666667 </v>
   <v>       0.09375000       0.34782609       0.46666667 </v>
   <v>       0.15625000       0.34782609       0.46666667 </v>
   <v>       0.21875000       0.34782609       0.46666667 </v>
   <v>       0.28125000       0.34782609       0.46666667 </v>
   <v>       0.34375000       0.34782609       0.46666667 </v>
   <v>       0.40625000       0.34782609       0.46666667 </v>
   <v>       0.46875000       0.34782609       0.46666667 </v>
   <v>       0.03125000       0.39130435       0.46666667 </v>
   <v>       0.09375000       0.39130435       0.46666667 </v>
   <v>       0.15625000       0.39130435       0.46666667 </v>
   <v>       0.21875000       0.39130435       0.46666667 </v>
   <v>       0.28125000       0.39130435       0.46666667 </v>
   <v>       0.34375000       0.39130435       0.46666667 </v>
   <v>       0.40625000       0.39130435       0.46666667 </v>
   <v>       0.46875000       0.39130435       0.46666667 </v>
   <v>       0.03125000       0.43478261       0.46666667 </v>
   <v>       0.09375000       0.43478261       0.46666667 </v>
   <v>       0.15625000       0.43478261       0.46666667 </v>
   <v>       0.21875000       0.43478261       0.46666667 </v>
   <v>       0.28125000       0.43478261       0.46666667 </v>
   <v>       0.34375000       0.43478261       0.46666667 </v>
   <v>       0.40625000       0.43478261       0.46666667 </v>
   <v>       0.46875000       0.43478261       0.46666667 </v>
   <v>       0.03125000       0.47826087       0.46666667 </v>
   <v>       0.09375000       0.47826087       0.46666667 </v>
   <v>       0.15625000       0.47826087       0.46666667 </v>
   <v>       0.21875000       0.47826087       0.46666667 </v>
   <v>       0.28125000       0.47826087       0.46666667 </v>
   <v>       0.34375000       0.47826087       0.46666667 </v>
   <v>       0.40625000       0.47826087       0.46666667 </v>
   <v>       0.46875000       0.47826087       0.46666667 </v>
  </varray>
  <varray name="weights" >
   <v>       0.00036232 </v>
   <v>       0.00036232 </v>
   <v>       0.00036232 </v>
   <v>       0.00036232 </v>
   <v>       0.00036232 </v>
   <v>       0.00036232 </v>
   <v>       0.00036232 </v>
   <v>       0.00036232 </v>
   <v>       0.00072464 </v>
   <v>       0.00072464 </v>
   <v>       0.00072464 </v>
   <v>       0.00072464 </v>
   <v>       0.00072464 </v>
   <v>       0.00072464 </v>
   <v>       0.00072464 </v>
   <v>       0.00072464 </v>
   <v>       0.00072464 </v>
   <v>       0.00072464 </v>
   <v>       0.00072464 </v>
   <v>       0.00072464 </v>
   <v>       0.00072464 </v>
   <v>       0.00072464 </v>
   <v>       0.00072464 </v>
   <v>       0.00072464 </v>
   <v>       0.00072464 </v>
   <v>       0.00072464 </v>
   <v>       0.00072464 </v>
   <v>       0.00072464 </v>
   <v>       0.00072464 </v>
   <v>       0.00072464 </v>
   <v>       0.00072464 </v>
   <v>       0.00072464 </v>
   <v>       0.00072464 </v>
   <v>       0.00072464 </v>
   <v>       0.00072464 </v>
   <v>       0.00072464 </v>
   <v>       0.00072464 </v>
   <v>       0.00072464 </v>
   <v>       0.00072464 </v>
   <v>       0.00072464 </v>
   <v>       0.00072464 </v>
   <v>       0.00072464 </v>
   <v>       0.00072464 </v>
   <v>       0.00072464 </v>
   <v>       0.00072464 </v>
   <v>       0.00072464 </v>
   <v>       0.00072464 </v>
   <v>       0.00072464 </v>
   <v>       0.00072464 </v>
   <v>       0.00072464 </v>
   <v>       0.00072464 </v>
   <v>       0.00072464 </v>
   <v>       0.00072464 </v>
   <v>       0.00072464 </v>
   <v>       0.00072464 </v>
   <v>       0.00072464 </v>
   <v>       0.00072464 </v>
   <v>       0.00072464 </v>
   <v>       0.00072464 </v>
   <v>       0.00072464 </v>
   <v>       0.00072464 </v>
   <v>       0.00072464 </v>
   <v>       0.00072464 </v>
   <v>       0.00072464 </v>
   <v>       0.00072464 </v>
   <v>       0.00072464 </v>
   <v>       0.00072464 </v>
   <v>       0.00072464 </v>
   <v>       0.00072464 </v>
   <v>       0.00072464 </v>
   <v>       0.00072464 </v>
   <v>       0.00072464 </v>
   <v>       0.00072464 </v>
   <v>       0.00072464 </v>
   <v>       0.00072464 </v>
   <v>       0.00072464 </v>
   <v>       0.00072464 </v>
   <v>       0.00072464 </v>
   <v>       0.00072464 </v>
   <v>       0.00072464 </v>
   <v>       0.00072464 </v>
   <v>       0.00072464 </v>
   <v>       0.00072464 </v>
   <v>       0.00072464 </v>
   <v>       0.00072464 </v>
   <v>       0.00072464 </v>
   <v>       0.00072464 </v>
   <v>       0.00072464 </v>
   <v>       0.00072464 </v>
   <v>       0.00072464 </v>
   <v>       0.00072464 </v>
   <v>       0.00072464 </v>
   <v>       0.00072464 </v>
   <v>       0.00072464 </v>
   <v>       0.00072464 </v>
   <v>       0.00072464 </v>
   <v>       0.00072464 </v>
   <v>       0.00072464 </v>
   <v>       0.00072464 </v>
   <v>       0.00072464 </v>
   <v>       0.00072464 </v>
   <v>       0.00072464 </v>
   <v>       0.00072464 </v>
   <v>       0.00072464 </v>
   <v>       0.00144928 </v>
   <v>       0.00144928 </v>
   <v>       0.00144928 </v>
   <v>       0.00144928 </v>
   <v>       0.00144928 </v>
   <v>       0.00144928 </v>
   <v>       0.00144928 </v>
   <v>       0.00144928 </v>
   <v>       0.00144928 </v>
   <v>       0.00144928 </v>
   <v>       0.00144928 </v>
   <v>       0.00144928 </v>
   <v>       0.00144928 </v>
   <v>       0.00144928 </v>
   <v>       0.00144928 </v>
   <v>       0.00144928 </v>
   <v>       0.00144928 </v>
   <v>       0.00144928 </v>
   <v>       0.00144928 </v>
   <v>       0.00144928 </v>
   <v>       0.00144928 </v>
   <v>       0.00144928 </v>
   <v>       0.00144928 </v>
   <v>       0.00144928 </v>
   <v>       0.00144928 </v>
   <v>       0.00144928 </v>
   <v>       0.00144928 </v>
   <v>       0.00144928 </v>
   <v>       0.00144928 </v>
   <v>       0.00144928 </v>
   <v>       0.00144928 </v>
   <v>       0.00144928 </v>
   <v>       0.00144928 </v>
   <v>       0.00144928 </v>
   <v>       0.00144928 </v>
   <v>       0.00144928 </v>
   <v>       0.00144928 </v>
   <v>       0.00144928 </v>
   <v>       0.00144928 </v>
   <v>       0.00144928 </v>
   <v>       0.00144928 </v>
   <v>       0.00144928 </v>
   <v>       0.00144928 </v>
   <v>       0.00144928 </v>
   <v>       0.00144928 </v>
   <v>       0.00144928 </v>
   <v>       0.00144928 </v>
   <v>       0.00144928 </v>
   <v>       0.00144928 </v>
   <v>       0.00144928 </v>
   <v>       0.00144928 </v>
   <v>       0.00144928 </v>
   <v>       0.00144928 </v>
   <v>       0.00144928 </v>
   <v>       0.00144928 </v>
   <v>       0.00144928 </v>
   <v>       0.00144928 </v>
   <v>       0.00144928 </v>
   <v>       0.00144928 </v>
   <v>       0.00144928 </v>
   <v>       0.00144928 </v>
   <v>       0.00144928 </v>
   <v>       0.00144928 </v>
   <v>       0.00144928 </v>
   <v>       0.00144928 </v>
   <v>       0.00144928 </v>
   <v>       0.00144928 </v>
   <v>       0.00144928 </v>
   <v>       0.00144928 </v>
   <v>       0.00144928 </v>
   <v>       0.00144928 </v>
   <v>       0.00144928 </v>
   <v>       0.00144928 </v>
   <v>       0.00144928 </v>
   <v>       0.00144928 </v>
   <v>       0.00144928 </v>
   <v>       0.00144928 </v>
   <v>       0.00144928 </v>
   <v>       0.00144928 </v>
   <v>       0.00144928 </v>
   <v>       0.00144928 </v>
   <v>       0.00144928 </v>
   <v>       0.00144928 </v>
   <v>       0.00144928 </v>
   <v>       0.00144928 </v>
   <v>       0.00144928 </v>
   <v>       0.00144928 </v>
   <v>       0.00144928 </v>
   <v>       0.00072464 </v>
   <v>       0.00072464 </v>
   <v>       0.00072464 </v>
   <v>       0.00072464 </v>
   <v>       0.00072464 </v>
   <v>       0.00072464 </v>
   <v>       0.00072464 </v>
   <v>       0.00072464 </v>
   <v>       0.00144928 </v>
   <v>       0.00144928 </v>
   <v>       0.00144928 </v>
   <v>       0.00144928 </v>
   <v>       0.00144928 </v>
   <v>       0.00144928 </v>
   <v>       0.00144928 </v>
   <v>       0.00144928 </v>
   <v>       0.00144928 </v>
   <v>       0.00144928 </v>
   <v>       0.00144928 </v>
   <v>       0.00144928 </v>
   <v>       0.00144928 </v>
   <v>       0.00144928 </v>
   <v>       0.00144928 </v>
   <v>       0.00144928 </v>
   <v>       0.00144928 </v>
   <v>       0.00144928 </v>
   <v>       0.00144928 </v>
   <v>       0.00144928 </v>
   <v>       0.00144928 </v>
   <v>       0.00144928 </v>
   <v>       0.00144928 </v>
   <v>       0.00144928 </v>
   <v>       0.00144928 </v>
   <v>       0.00144928 </v>
   <v>       0.00144928 </v>
   <v>       0.00144928 </v>
   <v>       0.00144928 </v>
   <v>       0.00144928 </v>
   <v>       0.00144928 </v>
   <v>       0.00144928 </v>
   <v>       0.00144928 </v>
   <v>       0.00144928 </v>
   <v>       0.00144928 </v>
   <v>       0.00144928 </v>
   <v>       0.00144928 </v>
   <v>       0.00144928 </v>
   <v>       0.00144928 </v>
   <v>       0.00144928 </v>
   <v>       0.00144928 </v>
   <v>       0.00144928 </v>
   <v>       0.00144928 </v>
   <v>       0.00144928 </v>
   <v>       0.00144928 </v>
   <v>       0.00144928 </v>
   <v>       0.00144928 </v>
   <v>       0.00144928 </v>
   <v>       0.00144928 </v>
   <v>       0.00144928 </v>
   <v>       0.00144928 </v>
   <v>       0.00144928 </v>
   <v>       0.00144928 </v>
   <v>       0.00144928 </v>
   <v>       0.00144928 </v>
   <v>       0.00144928 </v>
   <v>       0.00144928 </v>
   <v>       0.00144928 </v>
   <v>       0.00144928 </v>
   <v>       0.00144928 </v>
   <v>       0.00144928 </v>
   <v>       0.00144928 </v>
   <v>       0.00144928 </v>
   <v>       0.00144928 </v>
   <v>       0.00144928 </v>
   <v>       0.00144928 </v>
   <v>       0.00144928 </v>
   <v>       0.00144928 </v>
   <v>       0.00144928 </v>
   <v>       0.00144928 </v>
   <v>       0.00144928 </v>
   <v>       0.00144928 </v>
   <v>       0.00144928 </v>
   <v>       0.00144928 </v>
   <v>       0.00144928 </v>
   <v>       0.00144928 </v>
   <v>       0.00144928 </v>
   <v>       0.00144928 </v>
   <v>       0.00144928 </v>
   <v>       0.00144928 </v>
   <v>       0.00144928 </v>
   <v>       0.00144928 </v>
   <v>       0.00144928 </v>
   <v>       0.00144928 </v>
   <v>       0.00144928 </v>
   <v>       0.00144928 </v>
   <v>       0.00144928 </v>
   <v>       0.00144928 </v>
   <v>       0.00072464 </v>
   <v>       0.00072464 </v>
   <v>       0.00072464 </v>
   <v>       0.00072464 </v>
   <v>       0.00072464 </v>
   <v>       0.00072464 </v>
   <v>       0.00072464 </v>
   <v>       0.00072464 </v>
   <v>       0.00144928 </v>
   <v>       0.00144928 </v>
   <v>       0.00144928 </v>
   <v>       0.00144928 </v>
   <v>       0.00144928 </v>
   <v>       0.00144928 </v>
   <v>       0.00144928 </v>
   <v>       0.00144928 </v>
   <v>       0.00144928 </v>
   <v>       0.00144928 </v>
   <v>       0.00144928 </v>
   <v>       0.00144928 </v>
   <v>       0.00144928 </v>
   <v>       0.00144928 </v>
   <v>       0.00144928 </v>
   <v>       0.00144928 </v>
   <v>       0.00144928 </v>
   <v>       0.00144928 </v>
   <v>       0.00144928 </v>
   <v>       0.00144928 </v>
   <v>       0.00144928 </v>
   <v>       0.00144928 </v>
   <v>       0.00144928 </v>
   <v>       0.00144928 </v>
   <v>       0.00144928 </v>
   <v>       0.00144928 </v>
   <v>       0.00144928 </v>
   <v>       0.00144928 </v>
   <v>       0.00144928 </v>
   <v>       0.00144928 </v>
   <v>       0.00144928 </v>
   <v>       0.00144928 </v>
   <v>       0.00144928 </v>
   <v>       0.00144928 </v>
   <v>       0.00144928 </v>
   <v>       0.00144928 </v>
   <v>       0.00144928 </v>
   <v>       0.00144928 </v>
   <v>       0.00144928 </v>
   <v>       0.00144928 </v>
   <v>       0.00144928 </v>
   <v>       0.00144928 </v>
   <v>       0.00144928 </v>
   <v>       0.00144928 </v>
   <v>       0.00144928 </v>
   <v>       0.00144928 </v>
   <v>       0.00144928 </v>
   <v>       0.00144928 </v>
   <v>       0.00144928 </v>
   <v>       0.00144928 </v>
   <v>       0.00144928 </v>
   <v>       0.00144928 </v>
   <v>       0.00144928 </v>
   <v>       0.00144928 </v>
   <v>       0.00144928 </v>
   <v>       0.00144928 </v>
   <v>       0.00144928 </v>
   <v>       0.00144928 </v>
   <v>       0.00144928 </v>
   <v>       0.00144928 </v>
   <v>       0.00144928 </v>
   <v>       0.00144928 </v>
   <v>       0.00144928 </v>
   <v>       0.00144928 </v>
   <v>       0.00144928 </v>
   <v>       0.00144928 </v>
   <v>       0.00144928 </v>
   <v>       0.00144928 </v>
   <v>       0.00144928 </v>
   <v>       0.00144928 </v>
   <v>       0.00144928 </v>
   <v>       0.00144928 </v>
   <v>       0.00144928 </v>
   <v>       0.00144928 </v>
   <v>       0.00144928 </v>
   <v>       0.00144928 </v>
   <v>       0.00144928 </v>
   <v>       0.00144928 </v>
   <v>       0.00144928 </v>
   <v>       0.00144928 </v>
   <v>       0.00144928 </v>
   <v>       0.00144928 </v>
   <v>       0.00144928 </v>
   <v>       0.00144928 </v>
   <v>       0.00144928 </v>
   <v>       0.00144928 </v>
   <v>       0.00144928 </v>
   <v>       0.00144928 </v>
   <v>       0.00072464 </v>
   <v>       0.00072464 </v>
   <v>       0.00072464 </v>
   <v>       0.00072464 </v>
   <v>       0.00072464 </v>
   <v>       0.00072464 </v>
   <v>       0.00072464 </v>
   <v>       0.00072464 </v>
   <v>       0.00144928 </v>
   <v>       0.00144928 </v>
   <v>       0.00144928 </v>
   <v>       0.00144928 </v>
   <v>       0.00144928 </v>
   <v>       0.00144928 </v>
   <v>       0.00144928 </v>
   <v>       0.00144928 </v>
   <v>       0.00144928 </v>
   <v>       0.00144928 </v>
   <v>       0.00144928 </v>
   <v>       0.00144928 </v>
   <v>       0.00144928 </v>
   <v>       0.00144928 </v>
   <v>       0.00144928 </v>
   <v>       0.00144928 </v>
   <v>       0.00144928 </v>
   <v>       0.00144928 </v>
   <v>       0.00144928 </v>
   <v>       0.00144928 </v>
   <v>       0.00144928 </v>
   <v>       0.00144928 </v>
   <v>       0.00144928 </v>
   <v>       0.00144928 </v>
   <v>       0.00144928 </v>
   <v>       0.00144928 </v>
   <v>       0.00144928 </v>
   <v>       0.00144928 </v>
   <v>       0.00144928 </v>
   <v>       0.00144928 </v>
   <v>       0.00144928 </v>
   <v>       0.00144928 </v>
   <v>       0.00144928 </v>
   <v>       0.00144928 </v>
   <v>       0.00144928 </v>
   <v>       0.00144928 </v>
   <v>       0.00144928 </v>
   <v>       0.00144928 </v>
   <v>       0.00144928 </v>
   <v>       0.00144928 </v>
   <v>       0.00144928 </v>
   <v>       0.00144928 </v>
   <v>       0.00144928 </v>
   <v>       0.00144928 </v>
   <v>       0.00144928 </v>
   <v>       0.00144928 </v>
   <v>       0.00144928 </v>
   <v>       0.00144928 </v>
   <v>       0.00144928 </v>
   <v>       0.00144928 </v>
   <v>       0.00144928 </v>
   <v>       0.00144928 </v>
   <v>       0.00144928 </v>
   <v>       0.00144928 </v>
   <v>       0.00144928 </v>
   <v>       0.00144928 </v>
   <v>       0.00144928 </v>
   <v>       0.00144928 </v>
   <v>       0.00144928 </v>
   <v>       0.00144928 </v>
   <v>       0.00144928 </v>
   <v>       0.00144928 </v>
   <v>       0.00144928 </v>
   <v>       0.00144928 </v>
   <v>       0.00144928 </v>
   <v>       0.00144928 </v>
   <v>       0.00144928 </v>
   <v>       0.00144928 </v>
   <v>       0.00144928 </v>
   <v>       0.00144928 </v>
   <v>       0.00144928 </v>
   <v>       0.00144928 </v>
   <v>       0.00144928 </v>
   <v>       0.00144928 </v>
   <v>       0.00144928 </v>
   <v>       0.00144928 </v>
   <v>       0.00144928 </v>
   <v>       0.00144928 </v>
   <v>       0.00144928 </v>
   <v>       0.00144928 </v>
   <v>       0.00144928 </v>
   <v>       0.00144928 </v>
   <v>       0.00144928 </v>
   <v>       0.00144928 </v>
   <v>       0.00144928 </v>
   <v>       0.00144928 </v>
   <v>       0.00144928 </v>
   <v>       0.00144928 </v>
   <v>       0.00072464 </v>
   <v>       0.00072464 </v>
   <v>       0.00072464 </v>
   <v>       0.00072464 </v>
   <v>       0.00072464 </v>
   <v>       0.00072464 </v>
   <v>       0.00072464 </v>
   <v>       0.00072464 </v>
   <v>       0.00144928 </v>
   <v>       0.00144928 </v>
   <v>       0.00144928 </v>
   <v>       0.00144928 </v>
   <v>       0.00144928 </v>
   <v>       0.00144928 </v>
   <v>       0.00144928 </v>
   <v>       0.00144928 </v>
   <v>       0.00144928 </v>
   <v>       0.00144928 </v>
   <v>       0.00144928 </v>
   <v>       0.00144928 </v>
   <v>       0.00144928 </v>
   <v>       0.00144928 </v>
   <v>       0.00144928 </v>
   <v>       0.00144928 </v>
   <v>       0.00144928 </v>
   <v>       0.00144928 </v>
   <v>       0.00144928 </v>
   <v>       0.00144928 </v>
   <v>       0.00144928 </v>
   <v>       0.00144928 </v>
   <v>       0.00144928 </v>
   <v>       0.00144928 </v>
   <v>       0.00144928 </v>
   <v>       0.00144928 </v>
   <v>       0.00144928 </v>
   <v>       0.00144928 </v>
   <v>       0.00144928 </v>
   <v>       0.00144928 </v>
   <v>       0.00144928 </v>
   <v>       0.00144928 </v>
   <v>       0.00144928 </v>
   <v>       0.00144928 </v>
   <v>       0.00144928 </v>
   <v>       0.00144928 </v>
   <v>       0.00144928 </v>
   <v>       0.00144928 </v>
   <v>       0.00144928 </v>
   <v>       0.00144928 </v>
   <v>       0.00144928 </v>
   <v>       0.00144928 </v>
   <v>       0.00144928 </v>
   <v>       0.00144928 </v>
   <v>       0.00144928 </v>
   <v>       0.00144928 </v>
   <v>       0.00144928 </v>
   <v>       0.00144928 </v>
   <v>       0.00144928 </v>
   <v>       0.00144928 </v>
   <v>       0.00144928 </v>
   <v>       0.00144928 </v>
   <v>       0.00144928 </v>
   <v>       0.00144928 </v>
   <v>       0.00144928 </v>
   <v>       0.00144928 </v>
   <v>       0.00144928 </v>
   <v>       0.00144928 </v>
   <v>       0.00144928 </v>
   <v>       0.00144928 </v>
   <v>       0.00144928 </v>
   <v>       0.00144928 </v>
   <v>       0.00144928 </v>
   <v>       0.00144928 </v>
   <v>       0.00144928 </v>
   <v>       0.00144928 </v>
   <v>       0.00144928 </v>
   <v>       0.00144928 </v>
   <v>       0.00144928 </v>
   <v>       0.00144928 </v>
   <v>       0.00144928 </v>
   <v>       0.00144928 </v>
   <v>       0.00144928 </v>
   <v>       0.00144928 </v>
   <v>       0.00144928 </v>
   <v>       0.00144928 </v>
   <v>       0.00144928 </v>
   <v>       0.00144928 </v>
   <v>       0.00144928 </v>
   <v>       0.00144928 </v>
   <v>       0.00144928 </v>
   <v>       0.00144928 </v>
   <v>       0.00144928 </v>
   <v>       0.00144928 </v>
   <v>       0.00144928 </v>
   <v>       0.00144928 </v>
   <v>       0.00144928 </v>
   <v>       0.00144928 </v>
   <v>       0.00072464 </v>
   <v>       0.00072464 </v>
   <v>       0.00072464 </v>
   <v>       0.00072464 </v>
   <v>       0.00072464 </v>
   <v>       0.00072464 </v>
   <v>       0.00072464 </v>
   <v>       0.00072464 </v>
   <v>       0.00144928 </v>
   <v>       0.00144928 </v>
   <v>       0.00144928 </v>
   <v>       0.00144928 </v>
   <v>       0.00144928 </v>
   <v>       0.00144928 </v>
   <v>       0.00144928 </v>
   <v>       0.00144928 </v>
   <v>       0.00144928 </v>
   <v>       0.00144928 </v>
   <v>       0.00144928 </v>
   <v>       0.00144928 </v>
   <v>       0.00144928 </v>
   <v>       0.00144928 </v>
   <v>       0.00144928 </v>
   <v>       0.00144928 </v>
   <v>       0.00144928 </v>
   <v>       0.00144928 </v>
   <v>       0.00144928 </v>
   <v>       0.00144928 </v>
   <v>       0.00144928 </v>
   <v>       0.00144928 </v>
   <v>       0.00144928 </v>
   <v>       0.00144928 </v>
   <v>       0.00144928 </v>
   <v>       0.00144928 </v>
   <v>       0.00144928 </v>
   <v>       0.00144928 </v>
   <v>       0.00144928 </v>
   <v>       0.00144928 </v>
   <v>       0.00144928 </v>
   <v>       0.00144928 </v>
   <v>       0.00144928 </v>
   <v>       0.00144928 </v>
   <v>       0.00144928 </v>
   <v>       0.00144928 </v>
   <v>       0.00144928 </v>
   <v>       0.00144928 </v>
   <v>       0.00144928 </v>
   <v>       0.00144928 </v>
   <v>       0.00144928 </v>
   <v>       0.00144928 </v>
   <v>       0.00144928 </v>
   <v>       0.00144928 </v>
   <v>       0.00144928 </v>
   <v>       0.00144928 </v>
   <v>       0.00144928 </v>
   <v>       0.00144928 </v>
   <v>       0.00144928 </v>
   <v>       0.00144928 </v>
   <v>       0.00144928 </v>
   <v>       0.00144928 </v>
   <v>       0.00144928 </v>
   <v>       0.00144928 </v>
   <v>       0.00144928 </v>
   <v>       0.00144928 </v>
   <v>       0.00144928 </v>
   <v>       0.00144928 </v>
   <v>       0.00144928 </v>
   <v>       0.00144928 </v>
   <v>       0.00144928 </v>
   <v>       0.00144928 </v>
   <v>       0.00144928 </v>
   <v>       0.00144928 </v>
   <v>       0.00144928 </v>
   <v>       0.00144928 </v>
   <v>       0.00144928 </v>
   <v>       0.00144928 </v>
   <v>       0.00144928 </v>
   <v>       0.00144928 </v>
   <v>       0.00144928 </v>
   <v>       0.00144928 </v>
   <v>       0.00144928 </v>
   <v>       0.00144928 </v>
   <v>       0.00144928 </v>
   <v>       0.00144928 </v>
   <v>       0.00144928 </v>
   <v>       0.00144928 </v>
   <v>       0.00144928 </v>
   <v>       0.00144928 </v>
   <v>       0.00144928 </v>
   <v>       0.00144928 </v>
   <v>       0.00144928 </v>
   <v>       0.00144928 </v>
   <v>       0.00144928 </v>
   <v>       0.00144928 </v>
   <v>       0.00144928 </v>
   <v>       0.00144928 </v>
   <v>       0.00072464 </v>
   <v>       0.00072464 </v>
   <v>       0.00072464 </v>
   <v>       0.00072464 </v>
   <v>       0.00072464 </v>
   <v>       0.00072464 </v>
   <v>       0.00072464 </v>
   <v>       0.00072464 </v>
   <v>       0.00144928 </v>
   <v>       0.00144928 </v>
   <v>       0.00144928 </v>
   <v>       0.00144928 </v>
   <v>       0.00144928 </v>
   <v>       0.00144928 </v>
   <v>       0.00144928 </v>
   <v>       0.00144928 </v>
   <v>       0.00144928 </v>
   <v>       0.00144928 </v>
   <v>       0.00144928 </v>
   <v>       0.00144928 </v>
   <v>       0.00144928 </v>
   <v>       0.00144928 </v>
   <v>       0.00144928 </v>
   <v>       0.00144928 </v>
   <v>       0.00144928 </v>
   <v>       0.00144928 </v>
   <v>       0.00144928 </v>
   <v>       0.00144928 </v>
   <v>       0.00144928 </v>
   <v>       0.00144928 </v>
   <v>       0.00144928 </v>
   <v>       0.00144928 </v>
   <v>       0.00144928 </v>
   <v>       0.00144928 </v>
   <v>       0.00144928 </v>
   <v>       0.00144928 </v>
   <v>       0.00144928 </v>
   <v>       0.00144928 </v>
   <v>       0.00144928 </v>
   <v>       0.00144928 </v>
   <v>       0.00144928 </v>
   <v>       0.00144928 </v>
   <v>       0.00144928 </v>
   <v>       0.00144928 </v>
   <v>       0.00144928 </v>
   <v>       0.00144928 </v>
   <v>       0.00144928 </v>
   <v>       0.00144928 </v>
   <v>       0.00144928 </v>
   <v>       0.00144928 </v>
   <v>       0.00144928 </v>
   <v>       0.00144928 </v>
   <v>       0.00144928 </v>
   <v>       0.00144928 </v>
   <v>       0.00144928 </v>
   <v>       0.00144928 </v>
   <v>       0.00144928 </v>
   <v>       0.00144928 </v>
   <v>       0.00144928 </v>
   <v>       0.00144928 </v>
   <v>       0.00144928 </v>
   <v>       0.00144928 </v>
   <v>       0.00144928 </v>
   <v>       0.00144928 </v>
   <v>       0.00144928 </v>
   <v>       0.00144928 </v>
   <v>       0.00144928 </v>
   <v>       0.00144928 </v>
   <v>       0.00144928 </v>
   <v>       0.00144928 </v>
   <v>       0.00144928 </v>
   <v>       0.00144928 </v>
   <v>       0.00144928 </v>
   <v>       0.00144928 </v>
   <v>       0.00144928 </v>
   <v>       0.00144928 </v>
   <v>       0.00144928 </v>
   <v>       0.00144928 </v>
   <v>       0.00144928 </v>
   <v>       0.00144928 </v>
   <v>       0.00144928 </v>
   <v>       0.00144928 </v>
   <v>       0.00144928 </v>
   <v>       0.00144928 </v>
   <v>       0.00144928 </v>
   <v>       0.00144928 </v>
   <v>       0.00144928 </v>
   <v>       0.00144928 </v>
   <v>       0.00144928 </v>
   <v>       0.00144928 </v>
   <v>       0.00144928 </v>
   <v>       0.00144928 </v>
   <v>       0.00144928 </v>
   <v>       0.00144928 </v>
   <v>       0.00144928 </v>
   <v>       0.00144928 </v>
  </varray>
 </kpoints>
 <parameters>
  <separator name="general" >
   <i type="string" name="SYSTEM">Kpoints</i>
   <i type="logical" name="LCOMPAT"> F  </i>
  </separator>
  <separator name="electronic" >
   <i type="string" name="PREC">accura</i>
   <i name="ENMAX">    480.00000000</i>
   <i name="ENAUG">    535.51400000</i>
   <i name="EDIFF">      0.00000100</i>
   <i type="int" name="IALGO">    38</i>
   <i type="int" name="IWAVPR">    10</i>
   <i type="int" name="NBANDS">    48</i>
   <i type="int" name="NBANDSLOW">    -1</i>
   <i type="int" name="NBANDSHIGH">    -1</i>
   <i name="NELECT">     42.00000000</i>
   <i type="int" name="TURBO">     0</i>
   <i type="int" name="IRESTART">     0</i>
   <i type="int" name="NREBOOT">     0</i>
   <i type="int" name="NMIN">     0</i>
   <i name="EREF">      0.00000000</i>
   <separator name="electronic smearing" >
    <i type="int" name="ISMEAR">     0</i>
    <i name="SIGMA">      0.05000000</i>
    <i name="KSPACING">      0.50000000</i>
    <i type="logical" name="KGAMMA"> T  </i>
    <i type="logical" name="KBLOWUP"> T  </i>
   </separator>
   <separator name="electronic projectors" >
    <i type="logical" name="LREAL"> F  </i>
    <v name="ROPT">      0.00000000</v>
    <i type="int" name="LMAXPAW">  -100</i>
    <i type="int" name="LMAXMIX">     2</i>
    <i type="logical" name="NLSPLINE"> F  </i>
   </separator>
   <separator name="electronic startup" >
    <i type="int" name="ISTART">     0</i>
    <i type="int" name="ICHARG">     2</i>
    <i type="int" name="INIWAV">     1</i>
   </separator>
   <separator name="electronic spin" >
    <i type="int" name="ISPIN">     1</i>
    <i type="logical" name="LNONCOLLINEAR"> F  </i>
    <v name="MAGMOM">      1.00000000      1.00000000      1.00000000      1.00000000      1.00000000      1.00000000      1.00000000      1.00000000      1.00000000      1.00000000      1.00000000      1.00000000      1.00000000      1.00000000</v>
    <i name="NUPDOWN">     -1.00000000</i>
    <i type="logical" name="LSORBIT"> F  </i>
    <v name="SAXIS">      0.00000000      0.00000000      1.00000000</v>
    <i type="logical" name="LSPIRAL"> F  </i>
    <v name="QSPIRAL">      0.00000000      0.00000000      0.00000000</v>
    <i type="logical" name="LZEROZ"> F  </i>
   </separator>
   <separator name="electronic exchange-correlation" >
    <i type="logical" name="LASPH"> F  </i>
   </separator>
   <separator name="electronic convergence" >
    <i type="int" name="NELM">   100</i>
    <i type="int" name="NELMDL">    -5</i>
    <i type="int" name="NELMIN">     2</i>
    <i name="ENINI">    480.00000000</i>
    <separator name="electronic convergence detail" >
     <i type="logical" name="LDIAG"> T  </i>
     <i type="logical" name="LSUBROT"> F  </i>
     <i name="WEIMIN">      0.00000000</i>
     <i name="EBREAK">      0.00000001</i>
     <i name="DEPER">      0.30000000</i>
     <i type="int" name="NRMM">     4</i>
     <i name="TIME">      0.40000000</i>
    </separator>
   </separator>
   <separator name="electronic mixer" >
    <i name="AMIX">      0.40000000</i>
    <i name="BMIX">      1.00000000</i>
    <i name="AMIN">      0.10000000</i>
    <i name="AMIX_MAG">      1.60000000</i>
    <i name="BMIX_MAG">      1.00000000</i>
    <separator name="electronic mixer details" >
     <i type="int" name="IMIX">     4</i>
     <i type="logical" name="MIXFIRST"> F  </i>
     <i type="int" name="MAXMIX">   -45</i>
     <i name="WC">    100.00000000</i>
     <i type="int" name="INIMIX">     1</i>
     <i type="int" name="MIXPRE">     1</i>
     <i type="int" name="MREMOVE">     5</i>
    </separator>
   </separator>
   <separator name="electronic dipolcorrection" >
    <i type="logical" name="LDIPOL"> F  </i>
    <i type="logical" name="LMONO"> F  </i>
    <i type="int" name="IDIPOL">     0</i>
    <i name="EPSILON">      1.00000000</i>
    <v name="DIPOL">   -100.00000000   -100.00000000   -100.00000000</v>
    <i name="EFIELD">      0.00000000</i>
    <i type="logical" name="LVACPOTAV"> F  </i>
   </separator>
  </separator>
  <separator name="grids" >
   <i type="int" name="NGX">    42</i>
   <i type="int" name="NGY">    30</i>
   <i type="int" name="NGZ">    48</i>
   <i type="int" name="NGXF">    84</i>
   <i type="int" name="NGYF">    60</i>
   <i type="int" name="NGZF">    96</i>
   <i type="logical" name="ADDGRID"> F  </i>
  </separator>
  <separator name="ionic" >
   <i type="int" name="NSW">     0</i>
   <i type="int" name="IBRION">    -1</i>
   <i type="int" name="MDALGO">     0</i>
   <i type="int" name="ISIF">     2</i>
   <i name="PSTRESS">      0.00000000</i>
   <i name="EDIFFG">     -0.00100000</i>
   <i type="int" name="NFREE">     0</i>
   <i name="POTIM">      0.50000000</i>
   <i name="SMASS">     -3.00000000</i>
   <i name="SCALEE">      1.00000000</i>
  </separator>
  <separator name="ionic md" >
   <i name="TEBEG">      0.00010000</i>
   <i name="TEEND">      0.00010000</i>
   <i type="int" name="NBLOCK">     1</i>
   <i type="int" name="KBLOCK">     1</i>
   <i type="int" name="NPACO">   256</i>
   <i name="APACO">     10.00000000</i>
  </separator>
  <separator name="symmetry" >
   <i type="int" name="ISYM">     2</i>
   <i name="SYMPREC">      0.00001000</i>
  </separator>
  <separator name="dos" >
   <i type="int" name="LORBIT">     0</i>
   <v name="RWIGS">     -1.00000000</v>
   <i type="int" name="NEDOS">   301</i>
[...]
       <r>   -2.2046    1.0000 </r>
       <r>   -2.1699    1.0000 </r>
       <r>   -2.1018    1.0000 </r>
       <r>   -1.6510    1.0000 </r>
       <r>   -0.4644    1.0000 </r>
       <r>   -0.0493    1.0000 </r>
       <r>    0.3334    1.0000 </r>
       <r>    0.4388    1.0000 </r>
       <r>    0.5287    1.0000 </r>
       <r>    1.1534    1.0000 </r>
       <r>    1.6431    1.0000 </r>
       <r>    1.8038    0.9955 </r>
       <r>    5.7214    0.0000 </r>
       <r>    6.1057    0.0000 </r>
       <r>    6.7003    0.0000 </r>
       <r>    7.3626    0.0000 </r>
       <r>    7.6215    0.0000 </r>
       <r>    7.8062    0.0000 </r>
       <r>    9.2594    0.0000 </r>
       <r>    9.5262    0.0000 </r>
       <r>    9.7411    0.0000 </r>
       <r>    9.9337    0.0000 </r>
       <r>   10.5188    0.0000 </r>
       <r>   10.9960    0.0000 </r>
       <r>   11.1181    0.0000 </r>
       <r>   11.4669    0.0000 </r>
       <r>   11.5415    0.0000 </r>
       <r>   11.7009    0.0000 </r>
       <r>   12.9882    0.0000 </r>
       <r>   13.2407    0.0000 </r>
       <r>   13.5079    0.0000 </r>
       <r>   14.0478    0.0000 </r>
       <r>   14.1804    0.0000 </r>
       <r>   14.3611    0.0000 </r>
       <r>   14.4260    0.0000 </r>
       <r>   14.8461    0.0000 </r>
       <r>   15.0570    0.0000 </r>
       <r>   15.2008    0.0000 </r>
      </set>
      <set comment="kpoint 768">
       <r>  -11.9919    1.0000 </r>
       <r>  -11.9052    1.0000 </r>
       <r>   -8.5341    1.0000 </r>
       <r>   -8.4637    1.0000 </r>
       <r>   -5.9115    1.0000 </r>
       <r>   -5.8463    1.0000 </r>
       <r>   -4.7332    1.0000 </r>
       <r>   -4.5529    1.0000 </r>
       <r>   -4.4084    1.0000 </r>
       <r>   -4.1488    1.0000 </r>
       <r>   -2.2090    1.0000 </r>
       <r>   -2.1747    1.0000 </r>
       <r>   -2.0102    1.0000 </r>
       <r>   -1.8336    1.0000 </r>
       <r>   -0.1478    1.0000 </r>
       <r>    0.0058    1.0000 </r>
       <r>    0.4341    1.0000 </r>
       <r>    0.4723    1.0000 </r>
       <r>    0.5702    1.0000 </r>
       <r>    0.7641    1.0000 </r>
       <r>    1.6650    1.0000 </r>
       <r>    1.7220    1.0000 </r>
       <r>    5.8951    0.0000 </r>
       <r>    6.0119    0.0000 </r>
       <r>    6.9541    0.0000 </r>
       <r>    7.3424    0.0000 </r>
       <r>    7.4449    0.0000 </r>
       <r>    7.5227    0.0000 </r>
       <r>    9.4880    0.0000 </r>
       <r>    9.6449    0.0000 </r>
       <r>    9.8547    0.0000 </r>
       <r>    9.9670    0.0000 </r>
       <r>   10.4851    0.0000 </r>
       <r>   10.7074    0.0000 </r>
       <r>   11.2720    0.0000 </r>
       <r>   11.4656    0.0000 </r>
       <r>   11.4930    0.0000 </r>
       <r>   11.5303    0.0000 </r>
       <r>   13.1215    0.0000 </r>
       <r>   13.1831    0.0000 </r>
       <r>   13.8723    0.0000 </r>
       <r>   14.1670    0.0000 </r>
       <r>   14.2401    0.0000 </r>
       <r>   14.2828    0.0000 </r>
       <r>   14.6699    0.0000 </r>
       <r>   14.7591    0.0000 </r>
       <r>   14.8427    0.0000 </r>
       <r>   14.9733    0.0000 </r>
      </set>
     </set>
    </set>
   </array>
  </eigenvalues>
  <separator name="orbital magnetization" >
   <v name="MAGDIPOLOUT">      0.00000000      0.00000000      0.00000000</v>
  </separator>
  <dos>
   <i name="efermi">      1.89624781 </i>
   <total>
    <array>
     <dimension dim="1">gridpoints</dimension>
     <dimension dim="2">spin</dimension>
     <field>energy</field>
     <field>total</field>
     <field>integrated</field>
     <set>
      <set comment="spin 1">
       <r>   -14.1945     0.0000     0.0000 </r>
       <r>   -14.0872     0.0000     0.0000 </r>
       <r>   -13.9798     0.0000     0.0000 </r>
       <r>   -13.8725     0.0000     0.0000 </r>
       <r>   -13.7652     0.0000     0.0000 </r>
       <r>   -13.6579     0.0000     0.0000 </r>
       <r>   -13.5506     0.0000     0.0000 </r>
       <r>   -13.4433     0.0000     0.0000 </r>
       <r>   -13.3359     0.0000     0.0000 </r>
       <r>   -13.2286     0.0000     0.0000 </r>
       <r>   -13.1213     0.0000     0.0000 </r>
       <r>   -13.0140     0.0000     0.0000 </r>
       <r>   -12.9067     0.0000     0.0000 </r>
       <r>   -12.7994     0.0023     0.0003 </r>
       <r>   -12.6920     0.4306     0.0465 </r>
       <r>   -12.5847     2.2832     0.2915 </r>
       <r>   -12.4774     3.5273     0.6700 </r>
       <r>   -12.3701     4.3446     1.1363 </r>
       <r>   -12.2628     3.5581     1.5181 </r>
       <r>   -12.1555     2.8652     1.8256 </r>
       <r>   -12.0481     2.6313     2.1080 </r>
       <r>   -11.9408     2.5855     2.3855 </r>
       <r>   -11.8335     2.7389     2.6794 </r>
       <r>   -11.7262     3.3210     3.0358 </r>
       <r>   -11.6189     3.6232     3.4246 </r>
       <r>   -11.5116     3.1369     3.7613 </r>
       <r>   -11.4042     1.7424     3.9482 </r>
       <r>   -11.2969     0.4723     3.9989 </r>
       <r>   -11.1896     0.0100     4.0000 </r>
       <r>   -11.0823     0.0000     4.0000 </r>
       <r>   -10.9750     0.0000     4.0000 </r>
       <r>   -10.8677     0.0000     4.0000 </r>
       <r>   -10.7603     0.0000     4.0000 </r>
       <r>   -10.6530     0.0000     4.0000 </r>
       <r>   -10.5457     0.0000     4.0000 </r>
       <r>   -10.4384     0.0000     4.0000 </r>
       <r>   -10.3311     0.0000     4.0000 </r>
       <r>   -10.2238     0.0000     4.0000 </r>
       <r>   -10.1165     0.0000     4.0000 </r>
       <r>   -10.0091     0.0000     4.0000 </r>
       <r>    -9.9018     0.0000     4.0000 </r>
       <r>    -9.7945     0.0000     4.0000 </r>
       <r>    -9.6872     0.0000     4.0000 </r>
       <r>    -9.5799     0.0000     4.0000 </r>
       <r>    -9.4726     0.0000     4.0000 </r>
       <r>    -9.3652     0.0000     4.0000 </r>
       <r>    -9.2579     0.0000     4.0000 </r>
       <r>    -9.1506     0.0000     4.0000 </r>
       <r>    -9.0433     0.0000     4.0000 </r>
       <r>    -8.9360     0.0005     4.0001 </r>
       <r>    -8.8287     0.2681     4.0288 </r>
       <r>    -8.7213     2.0772     4.2517 </r>
       <r>    -8.6140     5.2799     4.8184 </r>
       <r>    -8.5067     7.0104     5.5707 </r>
       <r>    -8.3994     6.2677     6.2433 </r>
       <r>    -8.2921     5.3094     6.8131 </r>
       <r>    -8.1848     4.8851     7.3374 </r>
       <r>    -8.0774     3.8393     7.7494 </r>
       <r>    -7.9701     1.7001     7.9318 </r>
       <r>    -7.8628     0.5845     7.9945 </r>
       <r>    -7.7555     0.0508     8.0000 </r>
       <r>    -7.6482     0.0000     8.0000 </r>
       <r>    -7.5409     0.0000     8.0000 </r>
       <r>    -7.4335     0.0000     8.0000 </r>
       <r>    -7.3262     0.0000     8.0000 </r>
       <r>    -7.2189     0.0000     8.0000 </r>
       <r>    -7.1116     0.0000     8.0000 </r>
       <r>    -7.0043     0.0026     8.0003 </r>
       <r>    -6.8970     0.0970     8.0107 </r>
       <r>    -6.7896     0.2836     8.0411 </r>
       <r>    -6.6823     0.4519     8.0896 </r>
       <r>    -6.5750     0.6961     8.1643 </r>
       <r>    -6.4677     0.8962     8.2605 </r>
       <r>    -6.3604     1.3644     8.4069 </r>
       <r>    -6.2531     2.1123     8.6336 </r>
       <r>    -6.1457     2.8548     8.9400 </r>
       <r>    -6.0384     3.9945     9.3687 </r>
       <r>    -5.9311     3.9493     9.7925 </r>
       <r>    -5.8238     3.9955    10.2213 </r>
       <r>    -5.7165     4.1291    10.6644 </r>
       <r>    -5.6092     3.9738    11.0908 </r>
       <r>    -5.5018     4.1255    11.5336 </r>
       <r>    -5.3945     4.4326    12.0093 </r>
       <r>    -5.2872     4.7719    12.5214 </r>
       <r>    -5.1799     4.4639    13.0004 </r>
       <r>    -5.0726     3.9116    13.4202 </r>
       <r>    -4.9653     3.4318    13.7885 </r>
       <r>    -4.8580     2.4730    14.0539 </r>
       <r>    -4.7506     2.4633    14.3182 </r>
       <r>    -4.6433     2.9402    14.6338 </r>
       <r>    -4.5360     3.5803    15.0180 </r>
       <r>    -4.4287     3.5861    15.4028 </r>
       <r>    -4.3214     2.9385    15.7182 </r>
       <r>    -4.2141     3.0606    16.0466 </r>
       <r>    -4.1067     2.8739    16.3550 </r>
       <r>    -3.9994     3.0108    16.6781 </r>
       <r>    -3.8921     2.8751    16.9867 </r>
       <r>    -3.7848     3.1098    17.3204 </r>
       <r>    -3.6775     2.9799    17.6402 </r>
       <r>    -3.5702     2.7327    17.9335 </r>
       <r>    -3.4628     2.6920    18.2224 </r>
       <r>    -3.3555     3.0581    18.5505 </r>
       <r>    -3.2482     2.6246    18.8322 </r>
       <r>    -3.1409     2.6309    19.1146 </r>
       <r>    -3.0336     3.0844    19.4456 </r>
       <r>    -2.9263     3.0495    19.7728 </r>
       <r>    -2.8189     2.8045    20.0738 </r>
       <r>    -2.7116     2.4425    20.3359 </r>
       <r>    -2.6043     2.5548    20.6101 </r>
       <r>    -2.4970     2.9732    20.9291 </r>
       <r>    -2.3897     3.1515    21.2673 </r>
       <r>    -2.2824     3.5824    21.6518 </r>
       <r>    -2.1750     3.6081    22.0390 </r>
       <r>    -2.0677     3.1966    22.3821 </r>
       <r>    -1.9604     3.9945    22.8107 </r>
       <r>    -1.8531     4.9159    23.3383 </r>
       <r>    -1.7458     5.4528    23.9235 </r>
       <r>    -1.6385     5.9269    24.5595 </r>
       <r>    -1.5311     5.7437    25.1759 </r>
       <r>    -1.4238     6.5170    25.8753 </r>
       <r>    -1.3165     5.5064    26.4662 </r>
       <r>    -1.2092     4.9692    26.9995 </r>
       <r>    -1.1019     5.6835    27.6094 </r>
       <r>    -0.9946     3.9637    28.0348 </r>
       <r>    -0.8872     2.6417    28.3183 </r>
       <r>    -0.7799     2.6115    28.5985 </r>
       <r>    -0.6726     3.3161    28.9544 </r>
       <r>    -0.5653     4.6567    29.4541 </r>
       <r>    -0.4580     6.0356    30.1019 </r>
       <r>    -0.3507     6.5360    30.8033 </r>
       <r>    -0.2433     5.9694    31.4439 </r>
       <r>    -0.1360     6.6370    32.1561 </r>
       <r>    -0.0287     7.2648    32.9358 </r>
       <r>     0.0786     6.1387    33.5946 </r>
       <r>     0.1859     6.3550    34.2765 </r>
       <r>     0.2932     8.8911    35.2307 </r>
       <r>     0.4005     8.3555    36.1274 </r>
       <r>     0.5079     8.6218    37.0527 </r>
       <r>     0.6152     4.7190    37.5591 </r>
       <r>     0.7225     3.1657    37.8988 </r>
       <r>     0.8298     3.0657    38.2278 </r>
       <r>     0.9371     3.1949    38.5707 </r>
       <r>     1.0444     3.3412    38.9292 </r>
       <r>     1.1518     3.6273    39.3185 </r>
       <r>     1.2591     4.1431    39.7631 </r>
       <r>     1.3664     3.3465    40.1223 </r>
       <r>     1.4737     3.7708    40.5269 </r>
       <r>     1.5810     4.0093    40.9572 </r>
       <r>     1.6883     4.2486    41.4131 </r>
       <r>     1.7957     3.0631    41.7419 </r>
       <r>     1.9030     2.5784    42.0186 </r>
       <r>     2.0103     2.9115    42.3310 </r>
       <r>     2.1176     2.9084    42.6431 </r>
       <r>     2.2249     2.3652    42.8970 </r>
       <r>     2.3322     1.7560    43.0854 </r>
       <r>     2.4396     1.4048    43.2362 </r>
       <r>     2.5469     1.2096    43.3660 </r>
       <r>     2.6542     0.8463    43.4568 </r>
       <r>     2.7615     0.5679    43.5177 </r>
       <r>     2.8688     0.3896    43.5595 </r>
       <r>     2.9761     0.5389    43.6174 </r>
       <r>     3.0835     0.6466    43.6868 </r>
       <r>     3.1908     0.5459    43.7454 </r>
       <r>     3.2981     0.3036    43.7779 </r>
       <r>     3.4054     0.3120    43.8114 </r>
       <r>     3.5127     0.4310    43.8577 </r>
       <r>     3.6200     0.4181    43.9026 </r>
       <r>     3.7274     0.2925    43.9339 </r>
       <r>     3.8347     0.1953    43.9549 </r>
       <r>     3.9420     0.3006    43.9872 </r>
       <r>     4.0493     0.1180    43.9998 </r>
       <r>     4.1566     0.0018    44.0000 </r>
       <r>     4.2639     0.0406    44.0044 </r>
       <r>     4.3713     0.2211    44.0281 </r>
       <r>     4.4786     0.3646    44.0672 </r>
       <r>     4.5859     0.4968    44.1205 </r>
       <r>     4.6932     0.7201    44.1978 </r>
       <r>     4.8005     0.8127    44.2851 </r>
       <r>     4.9078     0.8450    44.3757 </r>
       <r>     5.0151     1.0298    44.4863 </r>
       <r>     5.1225     1.0838    44.6026 </r>
       <r>     5.2298     1.3040    44.7425 </r>
       <r>     5.3371     1.7165    44.9267 </r>
       <r>     5.4444     2.1163    45.1538 </r>
       <r>     5.5517     2.5047    45.4226 </r>
       <r>     5.6590     2.8661    45.7302 </r>
       <r>     5.7664     3.3640    46.0912 </r>
       <r>     5.8737     3.6265    46.4804 </r>
       <r>     5.9810     4.0046    46.9102 </r>
       <r>     6.0883     4.6492    47.4091 </r>
       <r>     6.1956     4.4891    47.8908 </r>
       <r>     6.3029     4.2741    48.3495 </r>
       <r>     6.4103     4.1764    48.7977 </r>
       <r>     6.5176     4.3235    49.2617 </r>
       <r>     6.6249     3.9158    49.6819 </r>
       <r>     6.7322     3.7344    50.0827 </r>
       <r>     6.8395     3.7545    50.4856 </r>
       <r>     6.9468     4.3278    50.9500 </r>
       <r>     7.0542     4.9027    51.4762 </r>
       <r>     7.1615     5.0188    52.0148 </r>
       <r>     7.2688     5.0754    52.5595 </r>
       <r>     7.3761     4.6152    53.0547 </r>
       <r>     7.4834     4.4659    53.5340 </r>
       <r>     7.5907     4.1824    53.9828 </r>
       <r>     7.6981     3.4951    54.3579 </r>
       <r>     7.8054     3.2110    54.7025 </r>
       <r>     7.9127     3.0068    55.0252 </r>
       <r>     8.0200     3.4001    55.3901 </r>
       <r>     8.1273     3.5709    55.7733 </r>
       <r>     8.2346     3.8812    56.1898 </r>
       <r>     8.3420     4.0254    56.6218 </r>
       <r>     8.4493     4.0855    57.0602 </r>
       <r>     8.5566     4.0875    57.4989 </r>
       <r>     8.6639     4.1799    57.9475 </r>
       <r>     8.7712     4.7503    58.4573 </r>
       <r>     8.8785     5.3623    59.0327 </r>
       <r>     8.9859     4.9055    59.5592 </r>
       <r>     9.0932     4.8686    60.0816 </r>
       <r>     9.2005     5.4192    60.6632 </r>
       <r>     9.3078     4.9112    61.1903 </r>
       <r>     9.4151     4.7963    61.7050 </r>
       <r>     9.5224     4.4741    62.1851 </r>
       <r>     9.6298     4.7910    62.6993 </r>
       <r>     9.7371     5.1052    63.2472 </r>
       <r>     9.8444     5.0210    63.7860 </r>
       <r>     9.9517     5.0640    64.3294 </r>
       <r>    10.0590     4.3074    64.7917 </r>
       <r>    10.1663     3.9478    65.2154 </r>
       <r>    10.2736     4.1996    65.6660 </r>
       <r>    10.3810     5.0438    66.2073 </r>
       <r>    10.4883     5.7794    66.8276 </r>
       <r>    10.5956     5.0686    67.3715 </r>
       <r>    10.7029     4.3741    67.8409 </r>
       <r>    10.8102     3.8630    68.2555 </r>
       <r>    10.9175     3.4069    68.6211 </r>
       <r>    11.0249     4.7085    69.1264 </r>
       <r>    11.1322     5.3545    69.7010 </r>
       <r>    11.2395     6.2871    70.3757 </r>
       <r>    11.3468     5.7195    70.9895 </r>
       <r>    11.4541     4.9529    71.5210 </r>
       <r>    11.5614     4.6986    72.0253 </r>
       <r>    11.6688     4.8140    72.5419 </r>
       <r>    11.7761     4.7767    73.0545 </r>
       <r>    11.8834     4.9241    73.5830 </r>
       <r>    11.9907     5.8994    74.2161 </r>
       <r>    12.0980     6.2031    74.8818 </r>
       <r>    12.2053     5.8628    75.5109 </r>
       <r>    12.3127     4.6733    76.0125 </r>
       <r>    12.4200     5.7893    76.6337 </r>
       <r>    12.5273     6.0983    77.2882 </r>
       <r>    12.6346     5.6660    77.8962 </r>
       <r>    12.7419     5.8694    78.5261 </r>
       <r>    12.8492     5.9392    79.1635 </r>
       <r>    12.9566     5.8418    79.7904 </r>
       <r>    13.0639     6.2646    80.4627 </r>
       <r>    13.1712     5.8695    81.0926 </r>
       <r>    13.2785     6.3438    81.7734 </r>
       <r>    13.3858     5.5232    82.3661 </r>
       <r>    13.4931     5.3519    82.9405 </r>
       <r>    13.6005     5.5062    83.5314 </r>
       <r>    13.7078     5.3021    84.1004 </r>
       <r>    13.8151     5.8027    84.7231 </r>
       <r>    13.9224     5.4928    85.3126 </r>
       <r>    14.0297     5.7041    85.9247 </r>
       <r>    14.1370     4.9481    86.4557 </r>
       <r>    14.2444     5.0026    86.9926 </r>
       <r>    14.3517     5.0233    87.5316 </r>
       <r>    14.4590     4.7723    88.0438 </r>
       <r>    14.5663     5.0613    88.5869 </r>
       <r>    14.6736     5.4140    89.1680 </r>
       <r>    14.7809     4.6740    89.6696 </r>
       <r>    14.8883     4.2551    90.1262 </r>
       <r>    14.9956     5.0399    90.6671 </r>
       <r>    15.1029     6.3587    91.3495 </r>
       <r>    15.2102     5.8468    91.9769 </r>
       <r>    15.3175     5.7592    92.5950 </r>
       <r>    15.4248     5.8732    93.2253 </r>
       <r>    15.5321     5.9839    93.8674 </r>
       <r>    15.6395     5.4678    94.4542 </r>
       <r>    15.7468     4.0083    94.8844 </r>
       <r>    15.8541     2.8979    95.1954 </r>
       <r>    15.9614     2.2961    95.4418 </r>
       <r>    16.0687     1.5157    95.6044 </r>
       <r>    16.1760     1.1374    95.7265 </r>
       <r>    16.2834     1.0335    95.8374 </r>
       <r>    16.3907     0.8454    95.9281 </r>
       <r>    16.4980     0.5457    95.9867 </r>
       <r>    16.6053     0.1226    95.9998 </r>
       <r>    16.7126     0.0015    96.0000 </r>
       <r>    16.8199     0.0000    96.0000 </r>
       <r>    16.9273     0.0000    96.0000 </r>
       <r>    17.0346     0.0000    96.0000 </r>
       <r>    17.1419     0.0000    96.0000 </r>
       <r>    17.2492     0.0000    96.0000 </r>
       <r>    17.3565     0.0000    96.0000 </r>
       <r>    17.4638     0.0000    96.0000 </r>
       <r>    17.5712     0.0000    96.0000 </r>
       <r>    17.6785     0.0000    96.0000 </r>
       <r>    17.7858     0.0000    96.0000 </r>
       <r>    17.8931     0.0000    96.0000 </r>
       <r>    18.0004     0.0000    96.0000 </r>
      </set>
     </set>
    </array>
   </total>
  </dos>
 </calculation>
 <structure name="finalpos" >
  <crystal>
   <varray name="basis" >
    <v>       5.69700000       0.00000000       0.00000000 </v>
    <v>       0.00000000       4.04790000       0.00000000 </v>
    <v>       0.00000000       0.00000000       6.20420000 </v>
   </varray>
   <i name="volume">    143.07435078 </i>
   <varray name="rec_basis" >
    <v>       0.17553098       0.00000000       0.00000000 </v>
    <v>       0.00000000       0.24704168       0.00000000 </v>
    <v>       0.00000000       0.00000000       0.16118114 </v>
   </varray>
  </crystal>
  <varray name="positions" >
   <v>       0.52123000       0.50000000       0.63796000 </v>
   <v>       0.47877000       0.50000000       0.36204000 </v>
   <v>       0.97877000       0.50000000       0.63796000 </v>
   <v>       0.02123000       0.50000000       0.36204000 </v>
   <v>       0.60090000       0.50000000       0.89991000 </v>
   <v>       0.39910000       0.50000000       0.10009000 </v>
   <v>       0.89910000       0.50000000       0.89991000 </v>
   <v>       0.10090000       0.50000000       0.10009000 </v>
   <v>       0.75000000       0.79171000       0.72973000 </v>
   <v>       0.25000000       0.20829000       0.27027000 </v>
   <v>       0.75000000       0.20829000       0.72973000 </v>
   <v>       0.25000000       0.79171000       0.27027000 </v>
   <v>       0.25000000       0.50000000       0.52367000 </v>
   <v>       0.75000000       0.50000000       0.47633000 </v>
  </varray>
 </structure>
</modeling>
