  14  14   0   0
  0.1020121E+02  0.5693582E-09  0.4045471E-09  0.6200478E-09  0.5000000E-15
  1.000000000000000E-004
  CAR 
 Convergence                             
     18.00566091    -14.19037020  301      1.89456838      1.00000000
    -14.190  0.0000E+00  0.0000E+00
    -14.083  0.0000E+00  0.0000E+00
    -13.976  0.0000E+00  0.0000E+00
    -13.868  0.0000E+00  0.0000E+00
    -13.761  0.0000E+00  0.0000E+00
    -13.654  0.0000E+00  0.0000E+00
    -13.546  0.0000E+00  0.0000E+00
    -13.439  0.0000E+00  0.0000E+00
    -13.332  0.0000E+00  0.0000E+00
    -13.224  0.0000E+00  0.0000E+00
    -13.117  0.0000E+00  0.0000E+00
    -13.010  0.4269E-16  0.4582E-17
    -12.903  0.2880E-07  0.3090E-08
    -12.795  0.3789E-02  0.4066E-03
    -12.688  0.5078E+00  0.5491E-01
    -12.581  0.2388E+01  0.3112E+00
    -12.473  0.3560E+01  0.6933E+00
    -12.366  0.4368E+01  0.1162E+01
    -12.259  0.3539E+01  0.1542E+01
    -12.151  0.2734E+01  0.1835E+01
    -12.044  0.2749E+01  0.2130E+01
    -11.937  0.2508E+01  0.2399E+01
    -11.829  0.2771E+01  0.2697E+01
    -11.722  0.3434E+01  0.3065E+01
    -11.615  0.3535E+01  0.3445E+01
    -11.507  0.3104E+01  0.3778E+01
    -11.400  0.1654E+01  0.3955E+01
    -11.293  0.4107E+00  0.3999E+01
    -11.185  0.6625E-02  0.4000E+01
    -11.078  0.1415E-06  0.4000E+01
    -10.971  0.6503E-15  0.4000E+01
    -10.863  0.0000E+00  0.4000E+01
    -10.756  0.0000E+00  0.4000E+01
    -10.649  0.0000E+00  0.4000E+01
    -10.541  0.0000E+00  0.4000E+01
    -10.434  0.0000E+00  0.4000E+01
    -10.327  0.0000E+00  0.4000E+01
    -10.220  0.0000E+00  0.4000E+01
    -10.112  0.0000E+00  0.4000E+01
    -10.005  0.0000E+00  0.4000E+01
     -9.898  0.0000E+00  0.4000E+01
     -9.790  0.0000E+00  0.4000E+01
     -9.683  0.0000E+00  0.4000E+01
     -9.576  0.0000E+00  0.4000E+01
     -9.468  0.0000E+00  0.4000E+01
     -9.361  0.0000E+00  0.4000E+01
     -9.254  0.0000E+00  0.4000E+01
     -9.146  0.0000E+00  0.4000E+01
     -9.039  0.8754E-09  0.4000E+01
     -8.932  0.6053E-03  0.4000E+01
     -8.824  0.2736E+00  0.4029E+01
     -8.717  0.2081E+01  0.4253E+01
     -8.610  0.5311E+01  0.4823E+01
     -8.502  0.6976E+01  0.5571E+01
     -8.395  0.6304E+01  0.6248E+01
     -8.288  0.5324E+01  0.6819E+01
     -8.180  0.4830E+01  0.7338E+01
     -8.073  0.3877E+01  0.7754E+01
     -7.966  0.1667E+01  0.7933E+01
     -7.858  0.5767E+00  0.7994E+01
     -7.751  0.5161E-01  0.8000E+01
     -7.644  0.2340E-04  0.8000E+01
     -7.537  0.2522E-11  0.8000E+01
     -7.429  0.0000E+00  0.8000E+01
     -7.322  0.0000E+00  0.8000E+01
     -7.215  0.0000E+00  0.8000E+01
     -7.107  0.5175E-09  0.8000E+01
     -7.000  0.4143E-03  0.8000E+01
     -6.893  0.1144E+00  0.8012E+01
     -6.785  0.2568E+00  0.8040E+01
     -6.678  0.4270E+00  0.8086E+01
     -6.571  0.7660E+00  0.8168E+01
     -6.463  0.8541E+00  0.8260E+01
     -6.356  0.1450E+01  0.8415E+01
     -6.249  0.1976E+01  0.8627E+01
     -6.141  0.3059E+01  0.8956E+01
     -6.034  0.3777E+01  0.9361E+01
     -5.927  0.4109E+01  0.9802E+01
     -5.819  0.4042E+01  0.1024E+02
     -5.712  0.3851E+01  0.1065E+02
     -5.605  0.4071E+01  0.1109E+02
     -5.497  0.4222E+01  0.1154E+02
     -5.390  0.4535E+01  0.1203E+02
     -5.283  0.4587E+01  0.1252E+02
     -5.175  0.4488E+01  0.1300E+02
     -5.068  0.3862E+01  0.1341E+02
     -4.961  0.3230E+01  0.1376E+02
     -4.854  0.2941E+01  0.1408E+02
     -4.746  0.2351E+01  0.1433E+02
     -4.639  0.2896E+01  0.1464E+02
     -4.532  0.3366E+01  0.1500E+02
     -4.424  0.3484E+01  0.1537E+02
     -4.317  0.3317E+01  0.1573E+02
     -4.210  0.2950E+01  0.1605E+02
     -4.102  0.2905E+01  0.1636E+02
     -3.995  0.2952E+01  0.1668E+02
     -3.888  0.2850E+01  0.1698E+02
     -3.780  0.3125E+01  0.1732E+02
     -3.673  0.2863E+01  0.1762E+02
     -3.566  0.2704E+01  0.1791E+02
     -3.458  0.3058E+01  0.1824E+02
     -3.351  0.2628E+01  0.1852E+02
     -3.244  0.2876E+01  0.1883E+02
     -3.136  0.2721E+01  0.1913E+02
     -3.029  0.2753E+01  0.1942E+02
     -2.922  0.3028E+01  0.1975E+02
     -2.814  0.2969E+01  0.2006E+02
     -2.707  0.2423E+01  0.2032E+02
     -2.600  0.2667E+01  0.2061E+02
     -2.492  0.3025E+01  0.2094E+02
     -2.385  0.2977E+01  0.2125E+02
     -2.278  0.3199E+01  0.2160E+02
     -2.171  0.4017E+01  0.2203E+02
     -2.063  0.3655E+01  0.2242E+02
     -1.956  0.3299E+01  0.2278E+02
     -1.849  0.5193E+01  0.2333E+02
     -1.741  0.5607E+01  0.2393E+02
     -1.634  0.5582E+01  0.2453E+02
     -1.527  0.6185E+01  0.2520E+02
     -1.419  0.6093E+01  0.2585E+02
     -1.312  0.5543E+01  0.2645E+02
     -1.205  0.4686E+01  0.2695E+02
     -1.097  0.6491E+01  0.2765E+02
     -0.990  0.3884E+01  0.2806E+02
     -0.883  0.2265E+01  0.2831E+02
     -0.775  0.2695E+01  0.2860E+02
     -0.668  0.2880E+01  0.2890E+02
     -0.561  0.4572E+01  0.2939E+02
     -0.453  0.6879E+01  0.3013E+02
     -0.346  0.5650E+01  0.3074E+02
     -0.239  0.6732E+01  0.3146E+02
     -0.131  0.6356E+01  0.3214E+02
     -0.024  0.6752E+01  0.3287E+02
      0.083  0.6714E+01  0.3359E+02
      0.191  0.6330E+01  0.3427E+02
      0.298  0.8788E+01  0.3521E+02
      0.405  0.7925E+01  0.3606E+02
      0.512  0.8706E+01  0.3700E+02
      0.620  0.5171E+01  0.3755E+02
      0.727  0.2898E+01  0.3786E+02
      0.834  0.3323E+01  0.3822E+02
      0.942  0.3585E+01  0.3860E+02
      1.049  0.3545E+01  0.3898E+02
      1.156  0.2786E+01  0.3928E+02
      1.264  0.3409E+01  0.3965E+02
      1.371  0.4504E+01  0.4013E+02
      1.478  0.3760E+01  0.4054E+02
      1.586  0.3738E+01  0.4094E+02
      1.693  0.4567E+01  0.4143E+02
      1.800  0.3168E+01  0.4177E+02
      1.908  0.2484E+01  0.4203E+02
      2.015  0.2648E+01  0.4232E+02
      2.122  0.2093E+01  0.4254E+02
      2.230  0.2653E+01  0.4283E+02
      2.337  0.2550E+01  0.4310E+02
      2.444  0.1913E+01  0.4331E+02
      2.552  0.8241E+00  0.4339E+02
      2.659  0.3784E+00  0.4344E+02
      2.766  0.5703E+00  0.4350E+02
      2.874  0.4189E+00  0.4354E+02
      2.981  0.3060E+00  0.4357E+02
      3.088  0.7721E+00  0.4366E+02
      3.195  0.1008E+01  0.4377E+02
      3.303  0.5191E+00  0.4382E+02
      3.410  0.1130E-01  0.4382E+02
      3.517  0.1377E+00  0.4384E+02
      3.625  0.3977E+00  0.4388E+02
      3.732  0.3245E+00  0.4391E+02
      3.839  0.3769E+00  0.4396E+02
      3.947  0.3952E+00  0.4400E+02
      4.054  0.2379E-01  0.4400E+02
      4.161  0.5005E-04  0.4400E+02
      4.269  0.3879E-01  0.4400E+02
      4.376  0.1825E+00  0.4402E+02
      4.483  0.4074E+00  0.4407E+02
      4.591  0.4821E+00  0.4412E+02
      4.698  0.6422E+00  0.4419E+02
      4.805  0.8948E+00  0.4428E+02
      4.913  0.8454E+00  0.4437E+02
      5.020  0.8561E+00  0.4447E+02
      5.127  0.1285E+01  0.4460E+02
      5.235  0.1142E+01  0.4473E+02
      5.342  0.1651E+01  0.4490E+02
      5.449  0.2211E+01  0.4514E+02
      5.557  0.2482E+01  0.4541E+02
      5.664  0.2784E+01  0.4571E+02
      5.771  0.3401E+01  0.4607E+02
      5.878  0.3204E+01  0.4642E+02
      5.986  0.4342E+01  0.4688E+02
      6.093  0.4729E+01  0.4739E+02
      6.200  0.4032E+01  0.4782E+02
      6.308  0.4632E+01  0.4832E+02
      6.415  0.4093E+01  0.4876E+02
      6.522  0.4048E+01  0.4919E+02
      6.630  0.4453E+01  0.4967E+02
      6.737  0.3218E+01  0.5002E+02
      6.844  0.4015E+01  0.5045E+02
      6.952  0.4614E+01  0.5094E+02
      7.059  0.4535E+01  0.5143E+02
      7.166  0.4342E+01  0.5189E+02
      7.274  0.5611E+01  0.5250E+02
      7.381  0.4888E+01  0.5302E+02
      7.488  0.4440E+01  0.5350E+02
      7.596  0.4169E+01  0.5395E+02
      7.703  0.3554E+01  0.5433E+02
      7.810  0.3134E+01  0.5466E+02
      7.918  0.2998E+01  0.5498E+02
      8.025  0.2986E+01  0.5531E+02
      8.132  0.4171E+01  0.5575E+02
      8.240  0.3870E+01  0.5617E+02
      8.347  0.3663E+01  0.5656E+02
      8.454  0.3984E+01  0.5699E+02
      8.561  0.4197E+01  0.5744E+02
      8.669  0.4440E+01  0.5792E+02
      8.776  0.4192E+01  0.5837E+02
      8.883  0.5226E+01  0.5893E+02
      8.991  0.5006E+01  0.5946E+02
      9.098  0.5294E+01  0.6003E+02
      9.205  0.5245E+01  0.6059E+02
      9.313  0.4947E+01  0.6113E+02
      9.420  0.4703E+01  0.6163E+02
      9.527  0.4354E+01  0.6210E+02
      9.635  0.5109E+01  0.6265E+02
      9.742  0.5022E+01  0.6319E+02
      9.849  0.5308E+01  0.6375E+02
      9.957  0.4472E+01  0.6423E+02
     10.064  0.3614E+01  0.6462E+02
     10.171  0.5168E+01  0.6518E+02
     10.279  0.4713E+01  0.6568E+02
     10.386  0.4097E+01  0.6612E+02
     10.493  0.5454E+01  0.6671E+02
     10.601  0.5797E+01  0.6733E+02
     10.708  0.4057E+01  0.6777E+02
     10.815  0.3872E+01  0.6818E+02
     10.923  0.3217E+01  0.6853E+02
     11.030  0.4661E+01  0.6903E+02
     11.137  0.5515E+01  0.6962E+02
     11.244  0.6145E+01  0.7028E+02
     11.352  0.5985E+01  0.7092E+02
     11.459  0.5326E+01  0.7149E+02
     11.566  0.4252E+01  0.7195E+02
     11.674  0.4472E+01  0.7243E+02
     11.781  0.4911E+01  0.7295E+02
     11.888  0.4798E+01  0.7347E+02
     11.996  0.6048E+01  0.7412E+02
     12.103  0.5939E+01  0.7476E+02
     12.210  0.5952E+01  0.7540E+02
     12.318  0.5645E+01  0.7600E+02
     12.425  0.5021E+01  0.7654E+02
     12.532  0.5667E+01  0.7715E+02
     12.640  0.6001E+01  0.7779E+02
     12.747  0.6055E+01  0.7844E+02
     12.854  0.5860E+01  0.7907E+02
     12.962  0.5851E+01  0.7970E+02
     13.069  0.5583E+01  0.8030E+02
     13.176  0.6348E+01  0.8098E+02
     13.284  0.6242E+01  0.8165E+02
     13.391  0.5356E+01  0.8222E+02
     13.498  0.6140E+01  0.8288E+02
     13.606  0.5299E+01  0.8345E+02
     13.713  0.4802E+01  0.8397E+02
     13.820  0.6103E+01  0.8462E+02
     13.927  0.5525E+01  0.8521E+02
     14.035  0.5334E+01  0.8579E+02
     14.142  0.5474E+01  0.8637E+02
     14.249  0.4692E+01  0.8688E+02
     14.357  0.4878E+01  0.8740E+02
     14.464  0.5045E+01  0.8794E+02
     14.571  0.4971E+01  0.8848E+02
     14.679  0.5271E+01  0.8904E+02
     14.786  0.5152E+01  0.8959E+02
     14.893  0.4090E+01  0.9003E+02
     15.001  0.5110E+01  0.9058E+02
     15.108  0.6205E+01  0.9125E+02
     15.215  0.5614E+01  0.9185E+02
     15.323  0.5649E+01  0.9246E+02
     15.430  0.6042E+01  0.9311E+02
     15.537  0.5718E+01  0.9372E+02
     15.645  0.5925E+01  0.9435E+02
     15.752  0.4578E+01  0.9485E+02
     15.859  0.2452E+01  0.9511E+02
     15.967  0.2703E+01  0.9540E+02
     16.074  0.1869E+01  0.9560E+02
     16.181  0.1150E+01  0.9572E+02
     16.289  0.8656E+00  0.9582E+02
     16.396  0.7201E+00  0.9589E+02
     16.503  0.8119E+00  0.9598E+02
     16.610  0.1770E+00  0.9600E+02
     16.718  0.1673E-02  0.9600E+02
     16.825  0.2012E-07  0.9600E+02
     16.932  0.3941E-16  0.9600E+02
     17.040  0.0000E+00  0.9600E+02
     17.147  0.0000E+00  0.9600E+02
     17.254  0.0000E+00  0.9600E+02
     17.362  0.0000E+00  0.9600E+02
     17.469  0.0000E+00  0.9600E+02
     17.576  0.0000E+00  0.9600E+02
     17.684  0.0000E+00  0.9600E+02
     17.791  0.0000E+00  0.9600E+02
     17.898  0.0000E+00  0.9600E+02
     18.006  0.0000E+00  0.9600E+02
