   14   14    1    1
  0.1020121E+02  0.5693582E-09  0.4045471E-09  0.6200477E-09  0.5000000E-15
  1.000000000000000E-004
  CAR 
 Convergence                             
     42    175     48
 
  0.5000000E-01  0.3571429E-01  0.0000000E+00  0.3174603E-02
      1        -12.726914   1.000000
      2        -11.584772   1.000000
      3         -8.655297   1.000000
      4         -8.418321   1.000000
      5         -6.058568   1.000000
      6         -5.124669   1.000000
      7         -4.659824   1.000000
      8         -4.271580   1.000000
      9         -4.028087   1.000000
     10         -3.538194   1.000000
     11         -2.585504   1.000000
     12         -2.316232   1.000000
     13         -1.824743   1.000000
     14         -1.087936   1.000000
     15         -0.062488   1.000000
     16         -0.032443   1.000000
     17          0.165870   1.000000
     18          0.188118   1.000000
     19          0.575365   1.000000
     20          2.028775   0.000074
     21          2.092122   0.000000
     22          2.228749   0.000000
     23          5.472011   0.000000
     24          5.763428   0.000000
     25          5.853530   0.000000
     26          5.973462   0.000000
     27          6.830578   0.000000
     28          7.564559   0.000000
     29          7.894831   0.000000
     30          8.556192   0.000000
     31          8.826572   0.000000
     32          8.971326   0.000000
     33          9.079590   0.000000
     34         10.140676   0.000000
     35         11.200131   0.000000
     36         11.357598   0.000000
     37         11.688839   0.000000
     38         11.803994   0.000000
     39         11.960711   0.000000
     40         12.421617   0.000000
     41         12.893115   0.000000
     42         13.477585   0.000000
     43         13.504775   0.000000
     44         15.412619   0.000000
     45         15.599540   0.000000
     46         16.091998   0.000000
     47         16.360125   0.000000
     48         16.384413   0.000000
 
  0.1500000E+00  0.3571429E-01  0.0000000E+00  0.3174603E-02
      1        -12.683147   1.000000
      2        -11.658542   1.000000
      3         -8.634255   1.000000
      4         -8.406819   1.000000
      5         -5.990245   1.000000
      6         -5.466559   1.000000
      7         -4.782932   1.000000
      8         -4.005118   1.000000
      9         -3.787234   1.000000
     10         -3.199967   1.000000
     11         -2.655905   1.000000
     12         -2.296016   1.000000
     13         -1.903842   1.000000
     14         -1.395080   1.000000
     15         -0.022046   1.000000
     16         -0.009177   1.000000
     17          0.102502   1.000000
     18          0.207893   1.000000
     19          0.480325   1.000000
     20          1.942469   0.087737
     21          2.014101   0.000361
     22          2.107338   0.000000
     23          5.560562   0.000000
     24          5.773104   0.000000
     25          5.879937   0.000000
     26          6.319822   0.000000
     27          6.744821   0.000000
     28          7.202220   0.000000
     29          8.106163   0.000000
     30          8.692516   0.000000
     31          9.085468   0.000000
     32          9.155095   0.000000
     33          9.225595   0.000000
     34         10.255818   0.000000
     35         10.964513   0.000000
     36         11.153503   0.000000
     37         11.273432   0.000000
     38         11.720741   0.000000
     39         12.178112   0.000000
     40         12.511744   0.000000
     41         13.146643   0.000000
     42         13.152668   0.000000
     43         14.037522   0.000000
     44         14.899800   0.000000
     45         15.777684   0.000000
     46         15.855109   0.000000
     47         16.255836   0.000000
     48         16.542205   0.000000
 
  0.2500000E+00  0.3571429E-01  0.0000000E+00  0.3174603E-02
      1        -12.597482   1.000000
      2        -11.791477   1.000000
      3         -8.590725   1.000000
      4         -8.392111   1.000000
      5         -5.968747   1.000000
      6         -5.793583   1.000000
      7         -4.737228   1.000000
      8         -3.877222   1.000000
      9         -3.275979   1.000000
     10         -2.825206   1.000000
     11         -2.706872   1.000000
     12         -2.255340   1.000000
     13         -2.015048   1.000000
     14         -1.899682   1.000000
     15         -0.208755   1.000000
     16          0.022450   1.000000
     17          0.152982   1.000000
     18          0.164902   1.000000
     19          0.450054   1.000000
     20          1.794855   0.997601
     21          1.877126   0.689118
     22          1.881185   0.647483
     23          5.681229   0.000000
     24          5.729704   0.000000
     25          6.189109   0.000000
     26          6.618452   0.000000
     27          6.779022   0.000000
     28          6.947402   0.000000
     29          8.257967   0.000000
     30          8.840722   0.000000
     31          9.024319   0.000000
     32          9.599003   0.000000
     33          9.669135   0.000000
     34         10.302162   0.000000
     35         10.508794   0.000000
     36         10.649121   0.000000
     37         11.394809   0.000000
     38         11.862218   0.000000
     39         12.413209   0.000000
     40         12.591382   0.000000
     41         12.813597   0.000000
     42         12.944514   0.000000
     43         14.663913   0.000000
     44         14.946708   0.000000
     45         15.250134   0.000000
     46         16.011668   0.000000
     47         16.029898   0.000000
     48         16.321582   0.000000
 
  0.3500000E+00  0.3571429E-01  0.0000000E+00  0.3174603E-02
      1        -12.473919   1.000000
      2        -11.960838   1.000000
      3         -8.528913   1.000000
      4         -8.388960   1.000000
      5         -6.049910   1.000000
      6         -6.026794   1.000000
      7         -4.409454   1.000000
      8         -3.707846   1.000000
      9         -3.019736   1.000000
     10         -2.890887   1.000000
     11         -2.437397   1.000000
     12         -2.244988   1.000000
     13         -2.136434   1.000000
     14         -2.116724   1.000000
     15         -0.507843   1.000000
     16         -0.235000   1.000000
     17          0.180634   1.000000
     18          0.256330   1.000000
     19          0.623413   1.000000
     20          1.541227   1.000000
     21          1.671648   1.000000
     22          1.732642   0.999998
     23          5.714145   0.000000
     24          5.766714   0.000000
     25          6.516687   0.000000
     26          6.687841   0.000000
     27          6.713898   0.000000
     28          7.430076   0.000000
     29          8.382945   0.000000
     30          8.708118   0.000000
     31          8.831439   0.000000
     32          9.555320   0.000000
     33         10.079463   0.000000
     34         10.139410   0.000000
     35         10.421664   0.000000
     36         11.175428   0.000000
     37         11.424770   0.000000
     38         11.971227   0.000000
     39         12.227021   0.000000
     40         12.300459   0.000000
     41         12.542301   0.000000
     42         13.279009   0.000000
     43         14.736366   0.000000
     44         15.002819   0.000000
     45         15.293891   0.000000
     46         15.401312   0.000000
     47         15.601256   0.000000
     48         16.405700   0.000000
 
  0.4500000E+00  0.3571429E-01  0.0000000E+00  0.3174603E-02
      1        -12.319126   1.000000
      2        -12.143238   1.000000
      3         -8.462737   1.000000
      4         -8.411660   1.000000
      5         -6.140307   1.000000
      6         -6.135605   1.000000
      7         -3.893621   1.000000
      8         -3.498111   1.000000
      9         -3.293788   1.000000
     10         -3.259437   1.000000
     11         -2.355638   1.000000
     12         -2.226173   1.000000
     13         -1.952465   1.000000
     14         -1.900466   1.000000
     15         -0.728332   1.000000
     16         -0.593139   1.000000
     17          0.264056   1.000000
     18          0.297806   1.000000
     19          0.884398   1.000000
     20          1.202098   1.000000
     21          1.590986   1.000000
     22          1.618572   1.000000
     23          5.741725   0.000000
     24          5.778569   0.000000
     25          6.494789   0.000000
     26          6.558573   0.000000
     27          7.384132   0.000000
     28          8.092134   0.000000
     29          8.112986   0.000000
     30          8.501281   0.000000
     31          8.640645   0.000000
     32          8.808934   0.000000
     33         10.522408   0.000000
     34         10.539821   0.000000
     35         10.784894   0.000000
     36         11.243330   0.000000
     37         11.428046   0.000000
     38         11.626253   0.000000
     39         11.960440   0.000000
     40         12.506373   0.000000
     41         12.737932   0.000000
     42         13.275146   0.000000
     43         14.613533   0.000000
     44         14.762377   0.000000
     45         14.893991   0.000000
     46         14.952438   0.000000
     47         16.132457   0.000000
     48         16.476577   0.000000
 
  0.5000000E-01  0.1071429E+00  0.0000000E+00  0.3174603E-02
      1        -12.702861   1.000000
      2        -11.563204   1.000000
      3         -8.636452   1.000000
      4         -8.395119   1.000000
      5         -6.031714   1.000000
      6         -5.090903   1.000000
      7         -4.637696   1.000000
      8         -4.569544   1.000000
      9         -4.172188   1.000000
     10         -3.515247   1.000000
     11         -3.279306   1.000000
     12         -1.785386   1.000000
     13         -1.083346   1.000000
     14         -1.025351   1.000000
     15         -0.296640   1.000000
     16         -0.268629   1.000000
     17          0.179361   1.000000
     18          0.258388   1.000000
     19          0.653884   1.000000
     20          1.760547   0.999925
     21          1.840777   0.935927
     22          2.281049   0.000000
     23          5.589629   0.000000
     24          5.722608   0.000000
     25          5.755404   0.000000
     26          6.023203   0.000000
     27          7.117293   0.000000
     28          7.850368   0.000000
     29          8.096261   0.000000
     30          8.205676   0.000000
     31          8.830476   0.000000
     32          9.124682   0.000000
     33          9.174584   0.000000
     34         10.594244   0.000000
     35         11.288531   0.000000
     36         11.416291   0.000000
     37         11.622523   0.000000
     38         11.907000   0.000000
     39         12.071298   0.000000
     40         12.702713   0.000000
     41         12.892835   0.000000
     42         13.213206   0.000000
     43         13.220280   0.000000
     44         15.360125   0.000000
     45         15.411092   0.000000
     46         15.886012   0.000000
     47         15.900375   0.000000
     48         16.249817   0.000000
 
  0.1500000E+00  0.1071429E+00  0.0000000E+00  0.3174603E-02
      1        -12.659191   1.000000
      2        -11.636822   1.000000
      3         -8.615269   1.000000
      4         -8.383999   1.000000
      5         -5.961600   1.000000
      6         -5.436450   1.000000
      7         -4.762835   1.000000
      8         -4.486071   1.000000
      9         -3.747508   1.000000
     10         -3.360365   1.000000
     11         -3.161721   1.000000
     12         -1.763608   1.000000
     13         -1.389664   1.000000
     14         -1.145269   1.000000
     15         -0.257519   1.000000
     16         -0.186880   1.000000
     17          0.147144   1.000000
     18          0.229264   1.000000
     19          0.551209   1.000000
     20          1.679904   1.000000
     21          1.764221   0.999886
     22          2.149994   0.000000
     23          5.665358   0.000000
     24          5.820973   0.000000
     25          5.951221   0.000000
     26          6.126342   0.000000
     27          7.033617   0.000000
     28          7.524920   0.000000
     29          8.242104   0.000000
     30          8.377572   0.000000
     31          9.156751   0.000000
     32          9.183904   0.000000
     33          9.438499   0.000000
     34         10.520943   0.000000
     35         10.895264   0.000000
     36         11.105848   0.000000
     37         11.471035   0.000000
     38         11.893626   0.000000
     39         12.291213   0.000000
     40         12.759477   0.000000
     41         12.890278   0.000000
     42         13.176807   0.000000
     43         13.754041   0.000000
     44         14.985179   0.000000
     45         15.426914   0.000000
     46         15.776331   0.000000
     47         15.825298   0.000000
     48         16.429969   0.000000
 
  0.2500000E+00  0.1071429E+00  0.0000000E+00  0.3174603E-02
      1        -12.573723   1.000000
      2        -11.769487   1.000000
      3         -8.571532   1.000000
      4         -8.369997   1.000000
      5         -5.937331   1.000000
      6         -5.763126   1.000000
      7         -4.720530   1.000000
      8         -4.377111   1.000000
      9         -3.482700   1.000000
     10         -3.221095   1.000000
     11         -2.694670   1.000000
     12         -1.895111   1.000000
     13         -1.719165   1.000000
     14         -1.309150   1.000000
     15         -0.211215   1.000000
     16         -0.209896   1.000000
     17          0.060695   1.000000
     18          0.216485   1.000000
     19          0.474705   1.000000
     20          1.544716   1.000000
     21          1.633959   1.000000
     22          1.901349   0.423956
     23          5.871379   0.000000
     24          5.948412   0.000000
     25          6.025882   0.000000
     26          6.575924   0.000000
     27          6.912557   0.000000
     28          7.296658   0.000000
     29          8.448104   0.000000
     30          8.511333   0.000000
     31          9.125361   0.000000
     32          9.636496   0.000000
     33          9.895291   0.000000
     34         10.145506   0.000000
     35         10.375338   0.000000
     36         10.847108   0.000000
     37         11.537884   0.000000
     38         12.127806   0.000000
     39         12.332601   0.000000
     40         12.575506   0.000000
     41         12.984132   0.000000
     42         13.044339   0.000000
     43         14.331514   0.000000
     44         15.115680   0.000000
     45         15.188894   0.000000
     46         15.673871   0.000000
     47         15.735708   0.000000
     48         16.449983   0.000000
 
  0.3500000E+00  0.1071429E+00  0.0000000E+00  0.3174603E-02
      1        -12.450433   1.000000
      2        -11.938476   1.000000
      3         -8.509474   1.000000
      4         -8.367739   1.000000
      5         -6.017282   1.000000
      6         -5.995427   1.000000
      7         -4.394897   1.000000
      8         -4.229552   1.000000
      9         -3.654867   1.000000
     10         -2.840716   1.000000
     11         -2.355500   1.000000
     12         -2.210980   1.000000
     13         -1.654680   1.000000
     14         -1.472902   1.000000
     15         -0.469059   1.000000
     16         -0.298859   1.000000
     17          0.093060   1.000000
     18          0.122531   1.000000
     19          0.634145   1.000000
     20          1.405031   1.000000
     21          1.488314   1.000000
     22          1.576807   1.000000
     23          5.889671   0.000000
     24          6.022212   0.000000
     25          6.531413   0.000000
     26          6.822501   0.000000
     27          6.895113   0.000000
     28          7.388149   0.000000
     29          8.435813   0.000000
     30          8.619706   0.000000
     31          8.961704   0.000000
     32          9.390189   0.000000
     33         10.094332   0.000000
     34         10.121873   0.000000
     35         10.462736   0.000000
     36         11.252955   0.000000
     37         11.385390   0.000000
     38         11.864795   0.000000
     39         12.320209   0.000000
     40         12.566701   0.000000
     41         12.742832   0.000000
     42         13.482133   0.000000
     43         14.791933   0.000000
     44         14.798894   0.000000
     45         15.182307   0.000000
     46         15.334036   0.000000
     47         15.681128   0.000000
     48         16.418394   0.000000
 
  0.4500000E+00  0.1071429E+00  0.0000000E+00  0.3174603E-02
      1        -12.295986   1.000000
      2        -12.120483   1.000000
      3         -8.442960   1.000000
      4         -8.391288   1.000000
      5         -6.108121   1.000000
      6         -6.102960   1.000000
      7         -4.049984   1.000000
      8         -3.886410   1.000000
      9         -3.845124   1.000000
     10         -3.280892   1.000000
     11         -2.101832   1.000000
     12         -1.907183   1.000000
     13         -1.586524   1.000000
     14         -1.584717   1.000000
     15         -0.689907   1.000000
     16         -0.589470   1.000000
     17          0.125550   1.000000
     18          0.156836   1.000000
     19          0.893820   1.000000
     20          1.208435   1.000000
     21          1.351324   1.000000
     22          1.375588   1.000000
     23          5.940413   0.000000
     24          6.005617   0.000000
     25          6.811016   0.000000
     26          6.861375   0.000000
     27          7.200078   0.000000
     28          7.913922   0.000000
     29          7.959998   0.000000
     30          8.643839   0.000000
     31          8.712844   0.000000
     32          8.826149   0.000000
     33         10.342595   0.000000
     34         10.590522   0.000000
     35         10.826678   0.000000
     36         10.933244   0.000000
     37         11.575180   0.000000
     38         11.685720   0.000000
     39         12.040179   0.000000
     40         12.676434   0.000000
     41         13.047333   0.000000
     42         13.507264   0.000000
     43         14.574515   0.000000
     44         14.758882   0.000000
     45         14.855067   0.000000
     46         15.072396   0.000000
     47         16.156278   0.000000
     48         16.450576   0.000000
 
  0.5000000E-01  0.1785714E+00  0.0000000E+00  0.3174603E-02
      1        -12.658420   1.000000
      2        -11.523429   1.000000
      3         -8.601946   1.000000
      4         -8.352311   1.000000
      5         -5.982062   1.000000
      6         -5.126661   1.000000
      7         -4.999702   1.000000
      8         -4.595749   1.000000
      9         -4.156204   1.000000
     10         -3.901911   1.000000
     11         -3.461885   1.000000
     12         -1.196740   1.000000
     13         -1.073975   1.000000
     14         -0.641478   1.000000
     15         -0.534607   1.000000
     16         -0.166114   1.000000
     17          0.200607   1.000000
     18          0.311562   1.000000
     19          0.732523   1.000000
     20          1.376968   1.000000
     21          1.440959   1.000000
     22          2.319308   0.000000
     23          5.299279   0.000000
     24          5.465616   0.000000
     25          6.138753   0.000000
     26          6.212311   0.000000
     27          7.554132   0.000000
     28          7.642857   0.000000
     29          8.333889   0.000000
     30          8.747395   0.000000
     31          8.903148   0.000000
     32          9.267495   0.000000
     33          9.393938   0.000000
     34         10.901817   0.000000
     35         11.339389   0.000000
     36         11.594396   0.000000
     37         11.718901   0.000000
     38         12.108113   0.000000
     39         12.287634   0.000000
     40         12.767990   0.000000
     41         12.781835   0.000000
     42         13.031875   0.000000
     43         13.244364   0.000000
     44         14.706016   0.000000
     45         15.188573   0.000000
     46         15.372759   0.000000
     47         15.454479   0.000000
     48         15.991289   0.000000
 
  0.1500000E+00  0.1785714E+00  0.0000000E+00  0.3174603E-02
      1        -12.614936   1.000000
      2        -11.596760   1.000000
      3         -8.580461   1.000000
      4         -8.341894   1.000000
      5         -5.908519   1.000000
      6         -5.388466   1.000000
      7         -5.027182   1.000000
      8         -4.724984   1.000000
      9         -3.968300   1.000000
     10         -3.705192   1.000000
     11         -3.122268   1.000000
     12         -1.381420   1.000000
     13         -1.170165   1.000000
     14         -0.748310   1.000000
     15         -0.496538   1.000000
     16         -0.085315   1.000000
     17          0.181868   1.000000
     18          0.254474   1.000000
     19          0.620126   1.000000
     20          1.297730   1.000000
     21          1.371163   1.000000
     22          2.183246   0.000000
     23          5.379474   0.000000
     24          5.812398   0.000000
     25          6.158322   0.000000
     26          6.252879   0.000000
     27          7.473236   0.000000
     28          7.799422   0.000000
     29          8.066115   0.000000
     30          8.837828   0.000000
     31          9.278555   0.000000
     32          9.307608   0.000000
     33          9.678962   0.000000
     34         10.537214   0.000000
     35         10.800345   0.000000
     36         11.297786   0.000000
     37         11.736971   0.000000
     38         12.219756   0.000000
     39         12.452664   0.000000
     40         12.521088   0.000000
     41         13.186450   0.000000
     42         13.293579   0.000000
     43         13.461989   0.000000
     44         14.715308   0.000000
     45         14.849391   0.000000
     46         15.315993   0.000000
     47         15.518182   0.000000
     48         16.014866   0.000000
 
  0.2500000E+00  0.1785714E+00  0.0000000E+00  0.3174603E-02
      1        -12.529822   1.000000
      2        -11.728903   1.000000
      3         -8.536315   1.000000
      4         -8.329232   1.000000
      5         -5.878836   1.000000
      6         -5.708227   1.000000
      7         -4.935435   1.000000
      8         -4.689334   1.000000
      9         -4.092396   1.000000
     10         -3.170495   1.000000
     11         -2.650597   1.000000
     12         -1.878688   1.000000
     13         -1.129393   1.000000
     14         -0.886922   1.000000
     15         -0.443399   1.000000
     16         -0.074967   1.000000
     17          0.022245   1.000000
     18          0.266641   1.000000
     19          0.504816   1.000000
     20          1.166047   1.000000
     21          1.252713   1.000000
     22          1.926286   0.184828
     23          5.701091   0.000000
     24          6.113313   0.000000
     25          6.289618   0.000000
     26          6.382454   0.000000
     27          7.370477   0.000000
     28          7.876390   0.000000
     29          8.033210   0.000000
     30          8.966292   0.000000
     31          9.270551   0.000000
     32          9.741515   0.000000
     33          9.871455   0.000000
     34         10.160872   0.000000
     35         10.274929   0.000000
     36         11.085895   0.000000
     37         11.606766   0.000000
     38         12.126709   0.000000
     39         12.531639   0.000000
     40         12.821611   0.000000
     41         13.069656   0.000000
     42         13.468711   0.000000
     43         13.984643   0.000000
     44         14.622922   0.000000
     45         14.899315   0.000000
     46         15.334578   0.000000
     47         15.538202   0.000000
     48         16.225414   0.000000
 
  0.3500000E+00  0.1785714E+00  0.0000000E+00  0.3174603E-02
      1        -12.407051   1.000000
      2        -11.897220   1.000000
      3         -8.473820   1.000000
      4         -8.328691   1.000000
      5         -5.956487   1.000000
      6         -5.937602   1.000000
      7         -4.799214   1.000000
      8         -4.368081   1.000000
      9         -4.257557   1.000000
     10         -2.801790   1.000000
     11         -2.314230   1.000000
     12         -2.169798   1.000000
     13         -1.072672   1.000000
     14         -1.023587   1.000000
     15         -0.447957   1.000000
     16         -0.361513   1.000000
     17          0.066293   1.000000
     18          0.070797   1.000000
     19          0.651824   1.000000
     20          1.036298   1.000000
     21          1.119785   1.000000
     22          1.590862   1.000000
     23          6.124260   0.000000
     24          6.237258   0.000000
     25          6.414319   0.000000
     26          6.817785   0.000000
     27          7.313984   0.000000
     28          7.797268   0.000000
     29          8.087391   0.000000
     30          9.065921   0.000000
     31          9.123099   0.000000
     32          9.197077   0.000000
     33          9.910348   0.000000
     34         10.209487   0.000000
     35         10.722030   0.000000
     36         11.099625   0.000000
     37         11.352203   0.000000
     38         11.972936   0.000000
     39         12.382888   0.000000
     40         13.007357   0.000000
     41         13.058295   0.000000
     42         13.813881   0.000000
     43         14.408453   0.000000
     44         14.423044   0.000000
     45         15.057516   0.000000
     46         15.150426   0.000000
     47         15.642950   0.000000
     48         16.402049   0.000000
 
  0.4500000E+00  0.1785714E+00  0.0000000E+00  0.3174603E-02
      1        -12.253249   1.000000
      2        -12.078475   1.000000
      3         -8.406646   1.000000
      4         -8.353857   1.000000
      5         -6.048363   1.000000
      6         -6.042162   1.000000
      7         -4.630895   1.000000
      8         -4.444597   1.000000
      9         -3.854967   1.000000
     10         -3.258235   1.000000
     11         -2.032419   1.000000
     12         -1.866390   1.000000
     13         -1.094625   1.000000
     14         -1.032269   1.000000
     15         -0.620108   1.000000
     16         -0.612742   1.000000
     17          0.016407   1.000000
     18          0.059967   1.000000
     19          0.909503   1.000000
     20          0.974045   1.000000
     21          1.015030   1.000000
     22          1.236992   1.000000
     23          6.215814   0.000000
     24          6.333579   0.000000
     25          6.891199   0.000000
     26          7.232462   0.000000
     27          7.291473   0.000000
     28          7.636713   0.000000
     29          7.944684   0.000000
     30          8.457303   0.000000
     31          9.122204   0.000000
     32          9.154596   0.000000
     33         10.033805   0.000000
     34         10.505539   0.000000
     35         10.730348   0.000000
     36         10.998834   0.000000
     37         11.755623   0.000000
     38         11.776012   0.000000
     39         12.161931   0.000000
     40         12.935333   0.000000
     41         13.438320   0.000000
     42         13.786681   0.000000
     43         14.254478   0.000000
     44         14.409207   0.000000
     45         15.018334   0.000000
     46         15.158672   0.000000
     47         16.018846   0.000000
     48         16.323316   0.000000
 
  0.5000000E-01  0.2500000E+00  0.0000000E+00  0.3174603E-02
      1        -12.600841   1.000000
      2        -11.472046   1.000000
      3         -8.557855   1.000000
      4         -8.296930   1.000000
      5         -5.917596   1.000000
      6         -5.608017   1.000000
      7         -4.929183   1.000000
      8         -4.539300   1.000000
      9         -4.422522   1.000000
     10         -4.116800   1.000000
     11         -3.399714   1.000000
     12         -1.214562   1.000000
     13         -1.059769   1.000000
     14         -0.997004   1.000000
     15         -0.185346   1.000000
     16          0.228957   1.000000
     17          0.355157   1.000000
     18          0.605130   1.000000
     19          0.796404   1.000000
     20          0.991310   1.000000
     21          1.005549   1.000000
     22          2.353671   0.000000
     23          4.954667   0.000000
     24          5.171271   0.000000
     25          6.373146   0.000000
     26          6.602500   0.000000
     27          7.283584   0.000000
     28          7.987054   0.000000
     29          8.723271   0.000000
     30          9.076348   0.000000
     31          9.489626   0.000000
     32          9.598548   0.000000
     33          9.675186   0.000000
     34         10.763316   0.000000
     35         11.290945   0.000000
     36         11.986687   0.000000
     37         12.036277   0.000000
     38         12.317941   0.000000
     39         12.444462   0.000000
     40         12.467910   0.000000
     41         12.586734   0.000000
     42         13.017452   0.000000
     43         13.822781   0.000000
     44         13.902555   0.000000
     45         14.445147   0.000000
     46         15.126804   0.000000
     47         15.426484   0.000000
     48         15.892119   0.000000
 
  0.1500000E+00  0.2500000E+00  0.0000000E+00  0.3174603E-02
      1        -12.557599   1.000000
      2        -11.545011   1.000000
      3         -8.535983   1.000000
      4         -8.287478   1.000000
      5         -5.839426   1.000000
      6         -5.573294   1.000000
      7         -5.267040   1.000000
      8         -4.674900   1.000000