<?xml version="1.0" encoding="ISO-8859-1"?>
<modeling>
 <generator>
  <i name="program" type="string">vasp </i>
  <i name="version" type="string">6.4.3  </i>
  <i name="subversion" type="string">19Mar24 (build May 31 2024 16:31:43) complex                          parallel </i>
  <i name="platform" type="string">LinuxIFC </i>
  <i name="date" type="string">2024 11 11 </i>
  <i name="time" type="string">15:58:13 </i>
 </generator>
 <incar>
  <i type="string" name="SYSTEM">Convergence</i>
  <i type="int" name="ISTART">     0</i>
  <i type="string" name="PREC">Accurate</i>
  <i type="string" name="ALGO">Normal</i>
  <i type="int" name="ISPIN">     1</i>
  <i type="int" name="ICHARG">     2</i>
  <i type="int" name="NELM">   100</i>
  <i type="int" name="IBRION">    -1</i>
  <i name="EDIFF">      0.00000100</i>
  <i name="EDIFFG">     -0.00100000</i>
  <i type="int" name="NSW">     0</i>
  <i type="int" name="ISIF">     2</i>
  <i name="ENCUT">    600.00000000</i>
  <i name="POTIM">      0.50000000</i>
  <i type="int" name="ISMEAR">     0</i>
  <i name="SIGMA">      0.05000000</i>
  <i type="logical" name="LWAVE"> F  </i>
  <i type="logical" name="LCHARG"> F  </i>
  <i type="string" name="GGA">PE</i>
 </incar>
 <primitive_cell>
  <structure name="primitive_cell" >
   <crystal>
    <varray name="basis" >
     <v>       5.70326670       0.00000000       0.00000000 </v>
     <v>       0.00000000       4.05235269       0.00000000 </v>
     <v>       0.00000000       0.00000000       6.21102462 </v>
    </varray>
    <i name="volume">    143.54701569 </i>
    <varray name="rec_basis" >
     <v>       0.17533811       0.00000000       0.00000000 </v>
     <v>       0.00000000       0.24677023       0.00000000 </v>
     <v>       0.00000000       0.00000000       0.16100403 </v>
    </varray>
   </crystal>
   <varray name="positions" >
    <v>       0.52123000       0.50000000       0.63796000 </v>
    <v>       0.47877000       0.50000000       0.36204000 </v>
    <v>       0.97877000       0.50000000       0.63796000 </v>
    <v>       0.02123000       0.50000000       0.36204000 </v>
    <v>       0.60090000       0.50000000       0.89991000 </v>
    <v>       0.39910000       0.50000000       0.10009000 </v>
    <v>       0.89910000       0.50000000       0.89991000 </v>
    <v>       0.10090000       0.50000000       0.10009000 </v>
    <v>       0.75000000       0.79171000       0.72973000 </v>
    <v>       0.25000000       0.20829000       0.27027000 </v>
    <v>       0.75000000       0.20829000       0.72973000 </v>
    <v>       0.25000000       0.79171000       0.27027000 </v>
    <v>       0.25000000       0.50000000       0.52367000 </v>
    <v>       0.75000000       0.50000000       0.47633000 </v>
   </varray>
  </structure>
  <varray name="primitive_index" >
   <v type="int" >        1 </v>
   <v type="int" >        2 </v>
   <v type="int" >        3 </v>
   <v type="int" >        4 </v>
   <v type="int" >        5 </v>
   <v type="int" >        6 </v>
   <v type="int" >        7 </v>
   <v type="int" >        8 </v>
   <v type="int" >        9 </v>
   <v type="int" >       10 </v>
   <v type="int" >       11 </v>
   <v type="int" >       12 </v>
   <v type="int" >       13 </v>
   <v type="int" >       14 </v>
  </varray>
 </primitive_cell>
 <kpoints>
  <generation param="Monkhorst-Pack">
   <v type="int" name="divisions">      10       14        9 </v>
   <v name="usershift">      0.00000000       0.00000000       0.00000000 </v>
   <v name="genvec1">      0.10000000       0.00000000       0.00000000 </v>
   <v name="genvec2">      0.00000000       0.07142857       0.00000000 </v>
   <v name="genvec3">      0.00000000       0.00000000       0.11111111 </v>
   <v name="shift">      0.50000000       0.50000000       0.00000000 </v>
  </generation>
  <varray name="kpointlist" >
   <v>       0.05000000       0.03571429       0.00000000 </v>
   <v>       0.15000000       0.03571429       0.00000000 </v>
   <v>       0.25000000       0.03571429       0.00000000 </v>
   <v>       0.35000000       0.03571429       0.00000000 </v>
   <v>       0.45000000       0.03571429       0.00000000 </v>
   <v>       0.05000000       0.10714286       0.00000000 </v>
   <v>       0.15000000       0.10714286       0.00000000 </v>
   <v>       0.25000000       0.10714286       0.00000000 </v>
   <v>       0.35000000       0.10714286       0.00000000 </v>
   <v>       0.45000000       0.10714286       0.00000000 </v>
   <v>       0.05000000       0.17857143       0.00000000 </v>
   <v>       0.15000000       0.17857143       0.00000000 </v>
   <v>       0.25000000       0.17857143       0.00000000 </v>
   <v>       0.35000000       0.17857143       0.00000000 </v>
   <v>       0.45000000       0.17857143       0.00000000 </v>
   <v>       0.05000000       0.25000000       0.00000000 </v>
   <v>       0.15000000       0.25000000       0.00000000 </v>
   <v>       0.25000000       0.25000000       0.00000000 </v>
   <v>       0.35000000       0.25000000       0.00000000 </v>
   <v>       0.45000000       0.25000000       0.00000000 </v>
   <v>       0.05000000       0.32142857       0.00000000 </v>
   <v>       0.15000000       0.32142857       0.00000000 </v>
   <v>       0.25000000       0.32142857       0.00000000 </v>
   <v>       0.35000000       0.32142857       0.00000000 </v>
   <v>       0.45000000       0.32142857       0.00000000 </v>
   <v>       0.05000000       0.39285714       0.00000000 </v>
   <v>       0.15000000       0.39285714       0.00000000 </v>
   <v>       0.25000000       0.39285714       0.00000000 </v>
   <v>       0.35000000       0.39285714       0.00000000 </v>
   <v>       0.45000000       0.39285714       0.00000000 </v>
   <v>       0.05000000       0.46428571       0.00000000 </v>
   <v>       0.15000000       0.46428571       0.00000000 </v>
   <v>       0.25000000       0.46428571       0.00000000 </v>
   <v>       0.35000000       0.46428571       0.00000000 </v>
   <v>       0.45000000       0.46428571       0.00000000 </v>
   <v>       0.05000000       0.03571429       0.11111111 </v>
   <v>       0.15000000       0.03571429       0.11111111 </v>
   <v>       0.25000000       0.03571429       0.11111111 </v>
   <v>       0.35000000       0.03571429       0.11111111 </v>
   <v>       0.45000000       0.03571429       0.11111111 </v>
   <v>       0.05000000       0.10714286       0.11111111 </v>
   <v>       0.15000000       0.10714286       0.11111111 </v>
   <v>       0.25000000       0.10714286       0.11111111 </v>
   <v>       0.35000000       0.10714286       0.11111111 </v>
   <v>       0.45000000       0.10714286       0.11111111 </v>
   <v>       0.05000000       0.17857143       0.11111111 </v>
   <v>       0.15000000       0.17857143       0.11111111 </v>
   <v>       0.25000000       0.17857143       0.11111111 </v>
   <v>       0.35000000       0.17857143       0.11111111 </v>
   <v>       0.45000000       0.17857143       0.11111111 </v>
   <v>       0.05000000       0.25000000       0.11111111 </v>
   <v>       0.15000000       0.25000000       0.11111111 </v>
   <v>       0.25000000       0.25000000       0.11111111 </v>
   <v>       0.35000000       0.25000000       0.11111111 </v>
   <v>       0.45000000       0.25000000       0.11111111 </v>
   <v>       0.05000000       0.32142857       0.11111111 </v>
   <v>       0.15000000       0.32142857       0.11111111 </v>
   <v>       0.25000000       0.32142857       0.11111111 </v>
   <v>       0.35000000       0.32142857       0.11111111 </v>
   <v>       0.45000000       0.32142857       0.11111111 </v>
   <v>       0.05000000       0.39285714       0.11111111 </v>
   <v>       0.15000000       0.39285714       0.11111111 </v>
   <v>       0.25000000       0.39285714       0.11111111 </v>
   <v>       0.35000000       0.39285714       0.11111111 </v>
   <v>       0.45000000       0.39285714       0.11111111 </v>
   <v>       0.05000000       0.46428571       0.11111111 </v>
   <v>       0.15000000       0.46428571       0.11111111 </v>
   <v>       0.25000000       0.46428571       0.11111111 </v>
   <v>       0.35000000       0.46428571       0.11111111 </v>
   <v>       0.45000000       0.46428571       0.11111111 </v>
   <v>       0.05000000       0.03571429       0.22222222 </v>
   <v>       0.15000000       0.03571429       0.22222222 </v>
   <v>       0.25000000       0.03571429       0.22222222 </v>
   <v>       0.35000000       0.03571429       0.22222222 </v>
   <v>       0.45000000       0.03571429       0.22222222 </v>
   <v>       0.05000000       0.10714286       0.22222222 </v>
   <v>       0.15000000       0.10714286       0.22222222 </v>
   <v>       0.25000000       0.10714286       0.22222222 </v>
   <v>       0.35000000       0.10714286       0.22222222 </v>
   <v>       0.45000000       0.10714286       0.22222222 </v>
   <v>       0.05000000       0.17857143       0.22222222 </v>
   <v>       0.15000000       0.17857143       0.22222222 </v>
   <v>       0.25000000       0.17857143       0.22222222 </v>
   <v>       0.35000000       0.17857143       0.22222222 </v>
   <v>       0.45000000       0.17857143       0.22222222 </v>
   <v>       0.05000000       0.25000000       0.22222222 </v>
   <v>       0.15000000       0.25000000       0.22222222 </v>
   <v>       0.25000000       0.25000000       0.22222222 </v>
   <v>       0.35000000       0.25000000       0.22222222 </v>
   <v>       0.45000000       0.25000000       0.22222222 </v>
   <v>       0.05000000       0.32142857       0.22222222 </v>
   <v>       0.15000000       0.32142857       0.22222222 </v>
   <v>       0.25000000       0.32142857       0.22222222 </v>
   <v>       0.35000000       0.32142857       0.22222222 </v>
   <v>       0.45000000       0.32142857       0.22222222 </v>
   <v>       0.05000000       0.39285714       0.22222222 </v>
   <v>       0.15000000       0.39285714       0.22222222 </v>
   <v>       0.25000000       0.39285714       0.22222222 </v>
   <v>       0.35000000       0.39285714       0.22222222 </v>
   <v>       0.45000000       0.39285714       0.22222222 </v>
   <v>       0.05000000       0.46428571       0.22222222 </v>
   <v>       0.15000000       0.46428571       0.22222222 </v>
   <v>       0.25000000       0.46428571       0.22222222 </v>
   <v>       0.35000000       0.46428571       0.22222222 </v>
   <v>       0.45000000       0.46428571       0.22222222 </v>
   <v>       0.05000000       0.03571429       0.33333333 </v>
   <v>       0.15000000       0.03571429       0.33333333 </v>
   <v>       0.25000000       0.03571429       0.33333333 </v>
   <v>       0.35000000       0.03571429       0.33333333 </v>
   <v>       0.45000000       0.03571429       0.33333333 </v>
   <v>       0.05000000       0.10714286       0.33333333 </v>
   <v>       0.15000000       0.10714286       0.33333333 </v>
   <v>       0.25000000       0.10714286       0.33333333 </v>
   <v>       0.35000000       0.10714286       0.33333333 </v>
   <v>       0.45000000       0.10714286       0.33333333 </v>
   <v>       0.05000000       0.17857143       0.33333333 </v>
   <v>       0.15000000       0.17857143       0.33333333 </v>
   <v>       0.25000000       0.17857143       0.33333333 </v>
   <v>       0.35000000       0.17857143       0.33333333 </v>
   <v>       0.45000000       0.17857143       0.33333333 </v>
   <v>       0.05000000       0.25000000       0.33333333 </v>
   <v>       0.15000000       0.25000000       0.33333333 </v>
   <v>       0.25000000       0.25000000       0.33333333 </v>
   <v>       0.35000000       0.25000000       0.33333333 </v>
   <v>       0.45000000       0.25000000       0.33333333 </v>
   <v>       0.05000000       0.32142857       0.33333333 </v>
   <v>       0.15000000       0.32142857       0.33333333 </v>
   <v>       0.25000000       0.32142857       0.33333333 </v>
   <v>       0.35000000       0.32142857       0.33333333 </v>
   <v>       0.45000000       0.32142857       0.33333333 </v>
   <v>       0.05000000       0.39285714       0.33333333 </v>
   <v>       0.15000000       0.39285714       0.33333333 </v>
   <v>       0.25000000       0.39285714       0.33333333 </v>
   <v>       0.35000000       0.39285714       0.33333333 </v>
   <v>       0.45000000       0.39285714       0.33333333 </v>
   <v>       0.05000000       0.46428571       0.33333333 </v>
   <v>       0.15000000       0.46428571       0.33333333 </v>
   <v>       0.25000000       0.46428571       0.33333333 </v>
   <v>       0.35000000       0.46428571       0.33333333 </v>
   <v>       0.45000000       0.46428571       0.33333333 </v>
   <v>       0.05000000       0.03571429       0.44444444 </v>
   <v>       0.15000000       0.03571429       0.44444444 </v>
   <v>       0.25000000       0.03571429       0.44444444 </v>
   <v>       0.35000000       0.03571429       0.44444444 </v>
   <v>       0.45000000       0.03571429       0.44444444 </v>
   <v>       0.05000000       0.10714286       0.44444444 </v>
   <v>       0.15000000       0.10714286       0.44444444 </v>
   <v>       0.25000000       0.10714286       0.44444444 </v>
   <v>       0.35000000       0.10714286       0.44444444 </v>
   <v>       0.45000000       0.10714286       0.44444444 </v>
   <v>       0.05000000       0.17857143       0.44444444 </v>
   <v>       0.15000000       0.17857143       0.44444444 </v>
   <v>       0.25000000       0.17857143       0.44444444 </v>
   <v>       0.35000000       0.17857143       0.44444444 </v>
   <v>       0.45000000       0.17857143       0.44444444 </v>
   <v>       0.05000000       0.25000000       0.44444444 </v>
   <v>       0.15000000       0.25000000       0.44444444 </v>
   <v>       0.25000000       0.25000000       0.44444444 </v>
   <v>       0.35000000       0.25000000       0.44444444 </v>
   <v>       0.45000000       0.25000000       0.44444444 </v>
   <v>       0.05000000       0.32142857       0.44444444 </v>
   <v>       0.15000000       0.32142857       0.44444444 </v>
   <v>       0.25000000       0.32142857       0.44444444 </v>
   <v>       0.35000000       0.32142857       0.44444444 </v>
   <v>       0.45000000       0.32142857       0.44444444 </v>
   <v>       0.05000000       0.39285714       0.44444444 </v>
   <v>       0.15000000       0.39285714       0.44444444 </v>
   <v>       0.25000000       0.39285714       0.44444444 </v>
   <v>       0.35000000       0.39285714       0.44444444 </v>
   <v>       0.45000000       0.39285714       0.44444444 </v>
   <v>       0.05000000       0.46428571       0.44444444 </v>
   <v>       0.15000000       0.46428571       0.44444444 </v>
   <v>       0.25000000       0.46428571       0.44444444 </v>
   <v>       0.35000000       0.46428571       0.44444444 </v>
   <v>       0.45000000       0.46428571       0.44444444 </v>
  </varray>
  <varray name="weights" >
   <v>       0.00317460 </v>
   <v>       0.00317460 </v>
   <v>       0.00317460 </v>
   <v>       0.00317460 </v>
   <v>       0.00317460 </v>
   <v>       0.00317460 </v>
   <v>       0.00317460 </v>
   <v>       0.00317460 </v>
   <v>       0.00317460 </v>
   <v>       0.00317460 </v>
   <v>       0.00317460 </v>
   <v>       0.00317460 </v>
   <v>       0.00317460 </v>
   <v>       0.00317460 </v>
   <v>       0.00317460 </v>
   <v>       0.00317460 </v>
   <v>       0.00317460 </v>
   <v>       0.00317460 </v>
   <v>       0.00317460 </v>
   <v>       0.00317460 </v>
   <v>       0.00317460 </v>
   <v>       0.00317460 </v>
   <v>       0.00317460 </v>
   <v>       0.00317460 </v>
   <v>       0.00317460 </v>
   <v>       0.00317460 </v>
   <v>       0.00317460 </v>
   <v>       0.00317460 </v>
   <v>       0.00317460 </v>
   <v>       0.00317460 </v>
   <v>       0.00317460 </v>
   <v>       0.00317460 </v>
   <v>       0.00317460 </v>
   <v>       0.00317460 </v>
   <v>       0.00317460 </v>
   <v>       0.00634921 </v>
   <v>       0.00634921 </v>
   <v>       0.00634921 </v>
   <v>       0.00634921 </v>
   <v>       0.00634921 </v>
   <v>       0.00634921 </v>
   <v>       0.00634921 </v>
   <v>       0.00634921 </v>
   <v>       0.00634921 </v>
   <v>       0.00634921 </v>
   <v>       0.00634921 </v>
   <v>       0.00634921 </v>
   <v>       0.00634921 </v>
   <v>       0.00634921 </v>
   <v>       0.00634921 </v>
   <v>       0.00634921 </v>
   <v>       0.00634921 </v>
   <v>       0.00634921 </v>
   <v>       0.00634921 </v>
   <v>       0.00634921 </v>
   <v>       0.00634921 </v>
   <v>       0.00634921 </v>
   <v>       0.00634921 </v>
   <v>       0.00634921 </v>
   <v>       0.00634921 </v>
   <v>       0.00634921 </v>
   <v>       0.00634921 </v>
   <v>       0.00634921 </v>
   <v>       0.00634921 </v>
   <v>       0.00634921 </v>
   <v>       0.00634921 </v>
   <v>       0.00634921 </v>
   <v>       0.00634921 </v>
   <v>       0.00634921 </v>
   <v>       0.00634921 </v>
   <v>       0.00634921 </v>
   <v>       0.00634921 </v>
   <v>       0.00634921 </v>
   <v>       0.00634921 </v>
   <v>       0.00634921 </v>
   <v>       0.00634921 </v>
   <v>       0.00634921 </v>
   <v>       0.00634921 </v>
   <v>       0.00634921 </v>
   <v>       0.00634921 </v>
   <v>       0.00634921 </v>
   <v>       0.00634921 </v>
   <v>       0.00634921 </v>
   <v>       0.00634921 </v>
   <v>       0.00634921 </v>
   <v>       0.00634921 </v>
   <v>       0.00634921 </v>
   <v>       0.00634921 </v>
   <v>       0.00634921 </v>
   <v>       0.00634921 </v>
   <v>       0.00634921 </v>
   <v>       0.00634921 </v>
   <v>       0.00634921 </v>
   <v>       0.00634921 </v>
   <v>       0.00634921 </v>
   <v>       0.00634921 </v>
   <v>       0.00634921 </v>
   <v>       0.00634921 </v>
   <v>       0.00634921 </v>
   <v>       0.00634921 </v>
   <v>       0.00634921 </v>
   <v>       0.00634921 </v>
   <v>       0.00634921 </v>
   <v>       0.00634921 </v>
   <v>       0.00634921 </v>
   <v>       0.00634921 </v>
   <v>       0.00634921 </v>
   <v>       0.00634921 </v>
   <v>       0.00634921 </v>
   <v>       0.00634921 </v>
   <v>       0.00634921 </v>
   <v>       0.00634921 </v>
   <v>       0.00634921 </v>
   <v>       0.00634921 </v>
   <v>       0.00634921 </v>
   <v>       0.00634921 </v>
   <v>       0.00634921 </v>
   <v>       0.00634921 </v>
   <v>       0.00634921 </v>
   <v>       0.00634921 </v>
   <v>       0.00634921 </v>
   <v>       0.00634921 </v>
   <v>       0.00634921 </v>
   <v>       0.00634921 </v>
   <v>       0.00634921 </v>
   <v>       0.00634921 </v>
   <v>       0.00634921 </v>
   <v>       0.00634921 </v>
   <v>       0.00634921 </v>
   <v>       0.00634921 </v>
   <v>       0.00634921 </v>
   <v>       0.00634921 </v>
   <v>       0.00634921 </v>
   <v>       0.00634921 </v>
   <v>       0.00634921 </v>
   <v>       0.00634921 </v>
   <v>       0.00634921 </v>
   <v>       0.00634921 </v>
   <v>       0.00634921 </v>
   <v>       0.00634921 </v>
   <v>       0.00634921 </v>
   <v>       0.00634921 </v>
   <v>       0.00634921 </v>
   <v>       0.00634921 </v>
   <v>       0.00634921 </v>
   <v>       0.00634921 </v>
   <v>       0.00634921 </v>
   <v>       0.00634921 </v>
   <v>       0.00634921 </v>
   <v>       0.00634921 </v>
   <v>       0.00634921 </v>
   <v>       0.00634921 </v>
   <v>       0.00634921 </v>
   <v>       0.00634921 </v>
   <v>       0.00634921 </v>
   <v>       0.00634921 </v>
   <v>       0.00634921 </v>
   <v>       0.00634921 </v>
   <v>       0.00634921 </v>
   <v>       0.00634921 </v>
   <v>       0.00634921 </v>
   <v>       0.00634921 </v>
   <v>       0.00634921 </v>
   <v>       0.00634921 </v>
   <v>       0.00634921 </v>
   <v>       0.00634921 </v>
   <v>       0.00634921 </v>
   <v>       0.00634921 </v>
   <v>       0.00634921 </v>
   <v>       0.00634921 </v>
   <v>       0.00634921 </v>
   <v>       0.00634921 </v>
   <v>       0.00634921 </v>
   <v>       0.00634921 </v>
   <v>       0.00634921 </v>
  </varray>
 </kpoints>
 <parameters>
  <separator name="general" >
   <i type="string" name="SYSTEM">Convergence</i>
   <i type="logical" name="LCOMPAT"> F  </i>
  </separator>
  <separator name="electronic" >
   <i type="string" name="PREC">accura</i>
   <i name="ENMAX">    600.00000000</i>
   <i name="ENAUG">    535.51400000</i>
   <i name="EDIFF">      0.00000100</i>
   <i type="int" name="IALGO">    38</i>
   <i type="int" name="IWAVPR">    10</i>
   <i type="int" name="NBANDS">    48</i>
   <i type="int" name="NBANDSLOW">    -1</i>
   <i type="int" name="NBANDSHIGH">    -1</i>
   <i name="NELECT">     42.00000000</i>
   <i type="int" name="TURBO">     0</i>
   <i type="int" name="IRESTART">     0</i>
   <i type="int" name="NREBOOT">     0</i>
   <i type="int" name="NMIN">     0</i>
   <i name="EREF">      0.00000000</i>
   <separator name="electronic smearing" >
    <i type="int" name="ISMEAR">     0</i>
    <i name="SIGMA">      0.05000000</i>
    <i name="KSPACING">      0.50000000</i>
    <i type="logical" name="KGAMMA"> T  </i>
    <i type="logical" name="KBLOWUP"> T  </i>
   </separator>
   <separator name="electronic projectors" >
    <i type="logical" name="LREAL"> F  </i>
    <v name="ROPT">      0.00000000</v>
    <i type="int" name="LMAXPAW">  -100</i>
    <i type="int" name="LMAXMIX">     2</i>
    <i type="logical" name="NLSPLINE"> F  </i>
   </separator>
   <separator name="electronic startup" >
    <i type="int" name="ISTART">     0</i>
    <i type="int" name="ICHARG">     2</i>
    <i type="int" name="INIWAV">     1</i>
   </separator>
   <separator name="electronic spin" >
    <i type="int" name="ISPIN">     1</i>
    <i type="logical" name="LNONCOLLINEAR"> F  </i>
    <v name="MAGMOM">      1.00000000      1.00000000      1.00000000      1.00000000      1.00000000      1.00000000      1.00000000      1.00000000      1.00000000      1.00000000      1.00000000      1.00000000      1.00000000      1.00000000</v>
    <i name="NUPDOWN">     -1.00000000</i>
    <i type="logical" name="LSORBIT"> F  </i>
    <v name="SAXIS">      0.00000000      0.00000000      1.00000000</v>
    <i type="logical" name="LSPIRAL"> F  </i>
    <v name="QSPIRAL">      0.00000000      0.00000000      0.00000000</v>
    <i type="logical" name="LZEROZ"> F  </i>
   </separator>
   <separator name="electronic exchange-correlation" >
    <i type="logical" name="LASPH"> F  </i>
   </separator>
   <separator name="electronic convergence" >
    <i type="int" name="NELM">   100</i>
    <i type="int" name="NELMDL">    -5</i>
    <i type="int" name="NELMIN">     2</i>
    <i name="ENINI">    600.00000000</i>
    <separator name="electronic convergence detail" >
     <i type="logical" name="LDIAG"> T  </i>
     <i type="logical" name="LSUBROT"> F  </i>
     <i name="WEIMIN">      0.00000000</i>
     <i name="EBREAK">      0.00000001</i>
     <i name="DEPER">      0.30000000</i>
     <i type="int" name="NRMM">     4</i>
     <i name="TIME">      0.40000000</i>
    </separator>
   </separator>
   <separator name="electronic mixer" >
    <i name="AMIX">      0.40000000</i>
    <i name="BMIX">      1.00000000</i>
    <i name="AMIN">      0.10000000</i>
    <i name="AMIX_MAG">      1.60000000</i>
    <i name="BMIX_MAG">      1.00000000</i>
    <separator name="electronic mixer details" >
     <i type="int" name="IMIX">     4</i>
     <i type="logical" name="MIXFIRST"> F  </i>
     <i type="int" name="MAXMIX">   -45</i>
     <i name="WC">    100.00000000</i>
     <i type="int" name="INIMIX">     1</i>
     <i type="int" name="MIXPRE">     1</i>
     <i type="int" name="MREMOVE">     5</i>
    </separator>
   </separator>
   <separator name="electronic dipolcorrection" >
    <i type="logical" name="LDIPOL"> F  </i>
    <i type="logical" name="LMONO"> F  </i>
    <i type="int" name="IDIPOL">     0</i>
    <i name="EPSILON">      1.00000000</i>
    <v name="DIPOL">   -100.00000000   -100.00000000   -100.00000000</v>
    <i name="EFIELD">      0.00000000</i>
    <i type="logical" name="LVACPOTAV"> F  </i>
   </separator>
  </separator>
  <separator name="grids" >
   <i type="int" name="NGX">    48</i>
   <i type="int" name="NGY">    32</i>
   <i type="int" name="NGZ">    50</i>
   <i type="int" name="NGXF">    96</i>
   <i type="int" name="NGYF">    64</i>
   <i type="int" name="NGZF">   100</i>
   <i type="logical" name="ADDGRID"> F  </i>
  </separator>
  <separator name="ionic" >
   <i type="int" name="NSW">     0</i>
   <i type="int" name="IBRION">    -1</i>
   <i type="int" name="MDALGO">     0</i>
   <i type="int" name="ISIF">     2</i>
   <i name="PSTRESS">      0.00000000</i>
   <i name="EDIFFG">     -0.00100000</i>
   <i type="int" name="NFREE">     0</i>
   <i name="POTIM">      0.50000000</i>
   <i name="SMASS">     -3.00000000</i>
   <i name="SCALEE">      1.00000000</i>
  </separator>
  <separator name="ionic md" >
   <i name="TEBEG">      0.00010000</i>
   <i name="TEEND">      0.00010000</i>
   <i type="int" name="NBLOCK">     1</i>
   <i type="int" name="KBLOCK">     1</i>
   <i type="int" name="NPACO">   256</i>
   <i name="APACO">     10.00000000</i>
  </separator>
  <separator name="symmetry" >
   <i type="int" name="ISYM">     2</i>
   <i name="SYMPREC">      0.00001000</i>
  </separator>
  <separator name="dos" >
   <i type="int" name="LORBIT">     0</i>
   <v name="RWIGS">     -1.00000000</v>
   <i type="int" name="NEDOS">   301</i>
   <i name="EMIN">     10.00000000</i>
   <i name="EMAX">    -10.00000000</i>
   <i name="EFERMI">      0.00000000</i>
  </separator>
  <separator name="writing" >
   <i type="int" name="NWRITE">     2</i>
   <i type="logical" name="LWAVE"> F  </i>
   <i type="logical" name="LDOWNSAMPLE"> F  </i>
   <i type="logical" name="LCHARG"> F  </i>
   <i type="logical" name="LPARD"> F  </i>
   <i type="logical" name="LVTOT"> F  </i>
   <i type="logical" name="LVHAR"> F  </i>
   <i type="logical" name="LELF"> F  </i>
   <i type="logical" name="LOPTICS"> F  </i>
   <v name="STM">      0.00000000      0.00000000      0.00000000      0.00000000      0.00000000      0.00000000      0.00000000</v>
  </separator>
  <separator name="performance" >
   <i type="int" name="NPAR">    24</i>
   <i type="int" name="NSIM">     4</i>
   <i type="int" name="NBLK">    -1</i>
   <i type="logical" name="LPLANE"> T  </i>
   <i type="logical" name="LSCALAPACK"> T  </i>
   <i type="logical" name="LSCAAWARE"> F  </i>
   <i type="logical" name="LSCALU"> F  </i>
   <i type="logical" name="LASYNC"> F  </i>
   <i type="logical" name="LORBITALREAL"> F  </i>
  </separator>
  <separator name="miscellaneous" >
   <i type="int" name="IDIOT">     3</i>
   <i type="int" name="PHON_NSTRUCT">    -1</i>
   <i type="logical" name="LMUSIC"> F  </i>
   <v name="POMASS">     10.81100000</v>
   <v name="DARWINR">      0.00000000</v>
   <v name="DARWINV">      1.00000000</v>
   <i type="logical" name="LCORR"> T  </i>
  </separator>
  <i type="logical" name="GGA_COMPAT"> T  </i>
  <i type="logical" name="LBERRY"> F  </i>
  <i type="int" name="ICORELEVEL">     0</i>
  <i type="logical" name="LDAU"> F  </i>
  <i type="int" name="I_CONSTRAINED_M">     0</i>
  <separator name="electronic exchange-correlation" >
   <i type="string" name="GGA    ">PE</i>
   <i type="string" name="XC_C">1</i>
   <i type="int" name="VOSKOWN">     0</i>
   <i type="logical" name="LHFCALC"> F  </i>
   <i type="string" name="PRECFOCK"></i>
   <i type="logical" name="LSYMGRAD"> F  </i>
   <i type="logical" name="LHFONE"> F  </i>
   <i type="logical" name="LRHFCALC"> F  </i>
   <i type="logical" name="LTHOMAS"> F  </i>
   <i type="logical" name="LMODELHF"> F  </i>
   <i type="logical" name="LFOCKACE"> F  </i>
   <i name="ENCUT4O">     -1.00000000</i>
   <i type="int" name="EXXOEP">     0</i>
   <i type="int" name="FOURORBIT">     0</i>
   <i name="AEXX">      0.00000000</i>
   <i name="HFALPHA">      0.00000000</i>
   <i name="MCALPHA">      0.00000000</i>
   <i name="ALDAX">      1.00000000</i>
   <i name="AGGAX">      1.00000000</i>
   <i name="AMGGAX">      1.00000000</i>
   <i name="ALDAC">      1.00000000</i>
   <i name="AGGAC">      1.00000000</i>
   <i name="AMGGAC">      1.00000000</i>
   <i type="int" name="NKREDX">     1</i>
   <i type="int" name="NKREDY">     1</i>
   <i type="int" name="NKREDZ">     1</i>
   <i type="logical" name="SHIFTRED"> F  </i>
   <i type="logical" name="ODDONLY"> F  </i>
   <i type="logical" name="EVENONLY"> F  </i>
   <i type="int" name="LMAXFOCK">     0</i>
   <i type="int" name="NMAXFOCKAE">     0</i>
   <i type="logical" name="LFOCKAEDFT"> F  </i>
   <i name="HFSCREEN">      0.00000000</i>
   <i name="HFSCREENC">      0.00000000</i>
   <i type="int" name="NBANDSGWLOW">     0</i>
  </separator>
  <separator name="vdW DFT" >
   <i type="logical" name="LUSE_VDW"> F  </i>
   <i type="int" name="IVDW_NL">    -1</i>
   <i type="logical" name="LSPIN_VDW"> F  </i>
   <i name="ZAB_VDW">     -0.84910000</i>
   <i name="GAMMA_VDW">      1.39626340</i>
   <i name="ALPHA_VDW">      0.00000000</i>
   <i name="PARAM1">      0.12340000</i>
   <i name="PARAM2">      1.00000000</i>
   <i name="BPARAM">      6.30000000</i>
   <i name="CPARAM">      0.00930000</i>
  </separator>
  <separator name="model GW" >
   <i type="int" name="MODEL_GW">     0</i>
   <i name="MODEL_EPS0">      6.15201496</i>
   <i name="MODEL_ALPHA">      1.00000000</i>
  </separator>
  <separator name="linear response parameters" >
   <i type="logical" name="LEPSILON"> F  </i>
   <i type="logical" name="LRPA"> F  </i>
   <i type="logical" name="LNABLA"> F  </i>
   <i type="logical" name="LVEL"> F  </i>
   <i name="CSHIFT">      0.10000000</i>
   <i name="OMEGAMAX">     -1.00000000</i>
   <i name="DEG_THRESHOLD">      0.00200000</i>
   <i name="RTIME">     -0.10000000</i>
   <i name="WPLASMAI">      0.00000000</i>
   <v name="DFIELD">      0.00000000      0.00000000      0.00000000</v>
   <v name="WPLASMA">      0.00000000      0.00000000      0.00000000      0.00000000      0.00000000      0.00000000      0.00000000      0.00000000      0.00000000</v>
  </separator>
  <separator name="orbital magnetization" >
   <i type="logical" name="NUCIND"> F  </i>
   <v name="MAGPOS">      0.00000000      0.00000000      0.00000000</v>
   <i type="logical" name="LNICSALL"> T  </i>
   <i type="logical" name="ORBITALMAG"> F  </i>
   <i type="logical" name="LMAGBLOCH"> F  </i>
   <i type="logical" name="LCHIMAG"> F  </i>
   <i type="logical" name="LGAUGE"> T  </i>
   <i type="int" name="MAGATOM">     0</i>
   <v name="MAGDIPOL">      0.00000000      0.00000000      0.00000000</v>
   <v name="AVECCONST">      0.00000000      0.00000000      0.00000000</v>
  </separator>
  <separator name="response functions" >
   <i type="logical" name="LALL_IN_ONE"> F  </i>
   <i type="int" name="IALL_IN_ONE">    -1</i>
   <i type="int" name="NBANDS_WAVE">    -1</i>
   <i type="logical" name="LFINITE_TEMPERATURE"> F  </i>
   <i type="logical" name="LADDER"> F  </i>
   <i type="logical" name="LRPAFORCE"> F  </i>
   <i type="logical" name="LFXC"> F  </i>
   <i type="logical" name="LHARTREE"> T  </i>
   <i type="int" name="IBSE">     0</i>
   <v type="int" name="KPOINT">    -1     0     0     0</v>
   <i type="logical" name="LTCTC"> F  </i>
   <i type="logical" name="LTCTE"> F  </i>
   <i type="logical" name="LTETE"> F  </i>
   <i type="logical" name="LTRIPLET"> F  </i>
   <i type="logical" name="LFXCEPS"> F  </i>
   <i type="logical" name="LFXHEG"> F  </i>
   <i type="int" name="NATURALO">     2</i>
   <i type="logical" name="LHOLEGF"> F  </i>
   <i type="logical" name="L2ORDER"> F  </i>
   <i type="logical" name="LDMP1"> F  </i>
   <i type="logical" name="LMP2LT"> F  </i>
   <i type="logical" name="LSMP2LT"> F  </i>
   <i type="logical" name="LGWLF"> F  </i>
   <i name="ENCUTGW">     -1.60000002</i>
   <i name="ENCUTGWSOFT">     -1.60000002</i>
   <i name="ENCUTLF">     -1.00000000</i>
   <i type="logical" name="ESF_SPLINES"> F  </i>
   <i name="ESF_CONV">      0.01000000</i>
   <i type="int" name="ESF_NINTER">    15</i>
   <i type="int" name="LMAXMP2">    -1</i>
   <i name="SCISSOR">      0.00000000</i>
   <i type="int" name="NOMEGA">     0</i>
   <i type="int" name="NOMEGAR">     0</i>
   <i type="int" name="NBANDSGW">    -1</i>
   <i type="int" name="NBANDSO">    -1</i>
   <i type="int" name="NBANDSV">    -1</i>
   <i type="int" name="NELMGW">     1</i>
   <i type="int" name="NELMHF">     1</i>
   <i type="int" name="DIM">     3</i>
   <i type="int" name="IESPILON">     4</i>
   <i type="int" name="ANTIRES">     0</i>
   <i name="OMEGAMAX">    -30.00000000</i>
   <i name="OMEGAMIN">    -30.00000000</i>
   <i name="OMEGATL">   -200.00000000</i>
   <i type="int" name="OMEGAGRID">     0</i>
   <i name="CSHIFT">     -0.10000000</i>
   <i type="logical" name="LSELFENERGY"> F  </i>
   <i type="logical" name="LSPECTRAL"> F  </i>
   <i type="logical" name="LSPECTRALGW"> F  </i>
   <i type="logical" name="LSINGLES"> F  </i>
   <i type="logical" name="LFERMIGW"> F  </i>
   <i type="logical" name="ODDONLYGW"> F  </i>
   <i type="logical" name="EVENONLYGW"> F  </i>
   <i type="int" name="NKREDLFX">     1</i>
   <i type="int" name="NKREDLFY">     1</i>
   <i type="int" name="NKREDLFZ">     1</i>
   <i type="int" name="MAXMEM">  2800</i>
   <i type="int" name="TELESCOPE">     0</i>
   <i type="int" name="NTAUPAR">    -1</i>
   <i type="int" name="NOMEGAPAR">    -1</i>
   <i name="DAMP_NEWTON">      0.80000001</i>
   <i name="LAMBDA">      1.00000000</i>
  </separator>
  <separator name="External order field" >
   <i name="OFIELD_KAPPA">      0.00000000</i>
   <v name="OFIELD_K">      0.00000000      0.00000000      0.00000000</v>
   <i name="OFIELD_Q6_NEAR">      0.00000000</i>
   <i name="OFIELD_Q6_FAR">      0.00000000</i>
   <i name="OFIELD_A">      0.00000000</i>
  </separator>
  <separator name="optional k-points parameters" >
   <i type="int" name="KPOINTS_OPT_MODE">     1</i>
   <i type="logical" name="LKPOINTS_OPT"> F  </i>
  </separator>
 </parameters>
 <atominfo>
  <atoms>      14 </atoms>
  <types>       1 </types>
  <array name="atoms" >
   <dimension dim="1">ion</dimension>
   <field type="string">element</field>
   <field type="int">atomtype</field>
   <set>
    <rc><c>B </c><c>   1</c></rc>
    <rc><c>B </c><c>   1</c></rc>
    <rc><c>B </c><c>   1</c></rc>
    <rc><c>B </c><c>   1</c></rc>
    <rc><c>B </c><c>   1</c></rc>
    <rc><c>B </c><c>   1</c></rc>
    <rc><c>B </c><c>   1</c></rc>
    <rc><c>B </c><c>   1</c></rc>
    <rc><c>B </c><c>   1</c></rc>
    <rc><c>B </c><c>   1</c></rc>
    <rc><c>B </c><c>   1</c></rc>
    <rc><c>B </c><c>   1</c></rc>
    <rc><c>B </c><c>   1</c></rc>
    <rc><c>B </c><c>   1</c></rc>
   </set>
  </array>
  <array name="atomtypes" >
   <dimension dim="1">type</dimension>
   <field type="int">atomspertype</field>
   <field type="string">element</field>
   <field>mass</field>
   <field>valence</field>
   <field type="string">pseudopotential</field>
   <set>
    <rc><c>  14</c><c>B </c><c>     10.81100000</c><c>      3.00000000</c><c>  PAW_PBE B 06Sep2000                   </c></rc>
   </set>
  </array>
 </atominfo>
 <structure name="initialpos" >
  <crystal>
   <varray name="basis" >
    <v>       5.70326670       0.00000000       0.00000000 </v>
    <v>       0.00000000       4.05235269       0.00000000 </v>
    <v>       0.00000000       0.00000000       6.21102462 </v>
   </varray>
   <i name="volume">    143.54701569 </i>
   <varray name="rec_basis" >
    <v>       0.17533811       0.00000000       0.00000000 </v>
    <v>       0.00000000       0.24677023       0.00000000 </v>
    <v>       0.00000000       0.00000000       0.16100403 </v>
   </varray>
  </crystal>
  <varray name="positions" >
   <v>       0.52123000       0.50000000       0.63796000 </v>
   <v>       0.47877000       0.50000000       0.36204000 </v>
   <v>       0.97877000       0.50000000       0.63796000 </v>
   <v>       0.02123000       0.50000000       0.36204000 </v>
   <v>       0.60090000       0.50000000       0.89991000 </v>
   <v>       0.39910000       0.50000000       0.10009000 </v>
   <v>       0.89910000       0.50000000       0.89991000 </v>
   <v>       0.10090000       0.50000000       0.10009000 </v>
   <v>       0.75000000       0.79171000       0.72973000 </v>
   <v>       0.25000000       0.20829000       0.27027000 </v>
   <v>       0.75000000       0.20829000       0.72973000 </v>
   <v>       0.25000000       0.79171000       0.27027000 </v>
   <v>       0.25000000       0.50000000       0.52367000 </v>
   <v>       0.75000000       0.50000000       0.47633000 </v>
  </varray>
 </structure>
 <calculation>
  <scstep>
   <time name="dav">    6.48    6.49</time>
   <time name="total">    6.50    6.51</time>
   <energy>
    <i name="alphaZ">     93.93325906 </i>
    <i name="ewald">   -794.89219950 </i>
    <i name="hartreedc">   -271.66446002 </i>
    <i name="XCdc">     97.41771679 </i>
    <i name="pawpsdc">    608.99811708 </i>
    <i name="pawaedc">   -597.02363782 </i>
    <i name="eentropy">     -0.00146524 </i>
    <i name="bandstr">    -54.99482867 </i>
    <i name="atom">    996.37441054 </i>
    <i name="e_fr_energy">     78.14691222 </i>
    <i name="e_wo_entrp">     78.14837746 </i>
    <i name="e_0_energy">     78.14764484 </i>
   </energy>
  </scstep>
  <scstep>
   <time name="dav">    8.63    8.63</time>
   <time name="total">    8.63    8.63</time>
   <energy>
    <i name="e_fr_energy">    -91.79192156 </i>
    <i name="e_wo_entrp">    -91.78909906 </i>
    <i name="e_0_energy">    -91.79051031 </i>
   </energy>
  </scstep>
  <scstep>
   <time name="dav">    9.02    9.02</time>
   <time name="total">    9.02    9.02</time>
   <energy>
    <i name="e_fr_energy">    -97.54723142 </i>
    <i name="e_wo_entrp">    -97.54356843 </i>
    <i name="e_0_energy">    -97.54539993 </i>
   </energy>
  </scstep>
  <scstep>
   <time name="dav">    7.61    7.61</time>
   <time name="total">    7.61    7.61</time>
   <energy>
    <i name="e_fr_energy">    -97.58141456 </i>
    <i name="e_wo_entrp">    -97.57775373 </i>
    <i name="e_0_energy">    -97.57958414 </i>
   </energy>
  </scstep>
  <scstep>
   <time name="dav">    8.96    8.97</time>
   <time name="total">    9.07    9.07</time>
   <energy>
    <i name="e_fr_energy">    -97.58180194 </i>
    <i name="e_wo_entrp">    -97.57814114 </i>
    <i name="e_0_energy">    -97.57997154 </i>
   </energy>
  </scstep>
  <scstep>
   <time name="dav">    8.81    8.81</time>
   <time name="total">    8.94    8.94</time>
   <energy>
    <i name="e_fr_energy">    -92.21467509 </i>
    <i name="e_wo_entrp">    -92.21122947 </i>
    <i name="e_0_energy">    -92.21295228 </i>
   </energy>
  </scstep>
  <scstep>
   <time name="dav">    9.10    9.10</time>
   <time name="total">    9.22    9.22</time>
   <energy>
    <i name="e_fr_energy">    -90.57608839 </i>
    <i name="e_wo_entrp">    -90.57294482 </i>
    <i name="e_0_energy">    -90.57451660 </i>
   </energy>
  </scstep>
  <scstep>
   <time name="dav">    7.11    7.11</time>
   <time name="total">    7.23    7.23</time>
   <energy>
    <i name="e_fr_energy">    -90.58854467 </i>
    <i name="e_wo_entrp">    -90.58536375 </i>
    <i name="e_0_energy">    -90.58695421 </i>
   </energy>
  </scstep>
  <scstep>
   <time name="dav">    8.54    8.54</time>
   <time name="total">    8.66    8.66</time>
   <energy>
    <i name="e_fr_energy">    -90.60272476 </i>
    <i name="e_wo_entrp">    -90.59945979 </i>
    <i name="e_0_energy">    -90.60109228 </i>
   </energy>
  </scstep>
  <scstep>
   <time name="dav">    7.02    7.02</time>
   <time name="total">    7.14    7.14</time>
   <energy>
    <i name="e_fr_energy">    -90.60677089 </i>
    <i name="e_wo_entrp">    -90.60355142 </i>
    <i name="e_0_energy">    -90.60516115 </i>
   </energy>
  </scstep>
  <scstep>
   <time name="dav">    8.02    8.02</time>
   <time name="total">    8.13    8.13</time>
   <energy>
    <i name="e_fr_energy">    -90.60783919 </i>
    <i name="e_wo_entrp">    -90.60463027 </i>
    <i name="e_0_energy">    -90.60623473 </i>
   </energy>
  </scstep>
  <scstep>
   <time name="dav">    7.80    7.80</time>
   <time name="total">    7.93    7.93</time>
   <energy>
    <i name="e_fr_energy">    -90.60795385 </i>
    <i name="e_wo_entrp">    -90.60473882 </i>
    <i name="e_0_energy">    -90.60634633 </i>
   </energy>
  </scstep>
  <scstep>
   <time name="dav">    8.47    8.48</time>
   <time name="total">    8.60    8.60</time>
   <energy>
    <i name="e_fr_energy">    -90.60795870 </i>
    <i name="e_wo_entrp">    -90.60474345 </i>
    <i name="e_0_energy">    -90.60635107 </i>
   </energy>
  </scstep>
  <scstep>
   <time name="dav">    7.56    7.56</time>
   <time name="total">    7.58    7.58</time>
   <energy>
    <i name="alphaZ">     93.93325906 </i>
    <i name="ewald">   -794.89219950 </i>
    <i name="hartreedc">   -349.13459496 </i>
    <i name="XCdc">    101.49835652 </i>
    <i name="pawpsdc">   3715.85752623 </i>
    <i name="pawaedc">  -3705.03541772 </i>
    <i name="eentropy">     -0.00321538 </i>
    <i name="bandstr">   -149.20608418 </i>
    <i name="atom">    996.37441054 </i>
    <i name="e_fr_energy">    -90.60795938 </i>
    <i name="e_wo_entrp">    -90.60474400 </i>
    <i name="e_0_energy">    -90.60635169 </i>
   </energy>
  </scstep>
  <structure>
   <crystal>
    <varray name="basis" >
     <v>       5.70326670       0.00000000       0.00000000 </v>
     <v>       0.00000000       4.05235269       0.00000000 </v>
     <v>       0.00000000       0.00000000       6.21102462 </v>
    </varray>
    <i name="volume">    143.54701569 </i>
    <varray name="rec_basis" >
     <v>       0.17533811       0.00000000       0.00000000 </v>
     <v>       0.00000000       0.24677023       0.00000000 </v>
     <v>       0.00000000       0.00000000       0.16100403 </v>
    </varray>
   </crystal>
   <varray name="positions" >
    <v>       0.52123000       0.50000000       0.63796000 </v>
    <v>       0.47877000       0.50000000       0.36204000 </v>
    <v>       0.97877000       0.50000000       0.63796000 </v>
    <v>       0.02123000       0.50000000       0.36204000 </v>
    <v>       0.60090000       0.50000000       0.89991000 </v>
    <v>       0.39910000       0.50000000       0.10009000 </v>
    <v>       0.89910000       0.50000000       0.89991000 </v>
    <v>       0.10090000       0.50000000       0.10009000 </v>
    <v>       0.75000000       0.79171000       0.72973000 </v>
    <v>       0.25000000       0.20829000       0.27027000 </v>
    <v>       0.75000000       0.20829000       0.72973000 </v>
    <v>       0.25000000       0.79171000       0.27027000 </v>
    <v>       0.25000000       0.50000000       0.52367000 </v>
    <v>       0.75000000       0.50000000       0.47633000 </v>
   </varray>
  </structure>
  <varray name="forces" >
   <v>       0.01393034       0.00000000       0.04422537 </v>
   <v>      -0.01393034      -0.00000000      -0.04422537 </v>
   <v>      -0.01393034      -0.00000000       0.04422537 </v>
   <v>       0.01393034       0.00000000      -0.04422537 </v>
   <v>      -0.81874893      -0.00000000       0.25828925 </v>
   <v>       0.81874893       0.00000000      -0.25828925 </v>
   <v>       0.81874893       0.00000000       0.25828925 </v>
   <v>      -0.81874893      -0.00000000      -0.25828925 </v>
   <v>       0.00000000       0.06043424      -0.07448395 </v>
   <v>       0.00000000      -0.06043424       0.07448395 </v>
   <v>       0.00000000      -0.06043424      -0.07448395 </v>
   <v>       0.00000000       0.06043424       0.07448395 </v>
   <v>       0.00000000      -0.00000000       0.05170372 </v>
   <v>       0.00000000       0.00000000      -0.05170372 </v>
  </varray>
  <varray name="stress" >
   <v>       7.56776260       0.00000000       0.00000000 </v>
   <v>       0.00000000      -2.83131463       0.00000000 </v>
   <v>       0.00000000       0.00000000     -12.77561157 </v>
  </varray>
  <energy>
   <i name="e_fr_energy">    -90.60795938 </i>
   <i name="e_wo_entrp">    -90.60474400 </i>
   <i name="e_0_energy">    -90.60635169 </i>
  </energy>
  <time name="totalsc">  119.44  119.48</time>
  <eigenvalues>
   <array>
    <dimension dim="1">band</dimension>
    <dimension dim="2">kpoint</dimension>
    <dimension dim="3">spin</dimension>
    <field>eigene</field>
    <field>occ</field>
    <set>
     <set comment="spin 1">
      <set comment="kpoint 1">
       <r>  -12.7211    1.0000 </r>
       <r>  -11.5795    1.0000 </r>
       <r>   -8.6626    1.0000 </r>
       <r>   -8.4264    1.0000 </r>
       <r>   -6.0729    1.0000 </r>
       <r>   -5.1395    1.0000 </r>
       <r>   -4.6762    1.0000 </r>
       <r>   -4.2807    1.0000 </r>
       <r>   -4.0416    1.0000 </r>
       <r>   -3.5537    1.0000 </r>
       <r>   -2.6081    1.0000 </r>
       <r>   -2.3394    1.0000 </r>
       <r>   -1.8492    1.0000 </r>
       <r>   -1.1100    1.0000 </r>
       <r>   -0.0827    1.0000 </r>
       <r>   -0.0523    1.0000 </r>
       <r>    0.1391    1.0000 </r>
       <r>    0.1595    1.0000 </r>
       <r>    0.5485    1.0000 </r>
       <r>    2.0010    0.0001 </r>
       <r>    2.0635    0.0000 </r>
       <r>    2.1962    0.0000 </r>
       <r>    5.4322    0.0000 </r>
       <r>    5.7229    0.0000 </r>
       <r>    5.8102    0.0000 </r>
       <r>    5.9333    0.0000 </r>
       <r>    6.7851    0.0000 </r>
       <r>    7.5192    0.0000 </r>
       <r>    7.8466    0.0000 </r>
       <r>    8.4974    0.0000 </r>
       <r>    8.7577    0.0000 </r>
       <r>    8.9100    0.0000 </r>
       <r>    9.0013    0.0000 </r>
       <r>   10.0911    0.0000 </r>
       <r>   11.1541    0.0000 </r>
       <r>   11.2918    0.0000 </r>
       <r>   11.6201    0.0000 </r>
       <r>   11.7408    0.0000 </r>
       <r>   11.9045    0.0000 </r>
       <r>   12.3695    0.0000 </r>
       <r>   12.8228    0.0000 </r>
       <r>   13.4054    0.0000 </r>
       <r>   13.4328    0.0000 </r>
       <r>   15.3234    0.0000 </r>
       <r>   15.5171    0.0000 </r>
       <r>   16.0043    0.0000 </r>
       <r>   16.2823    0.0000 </r>
       <r>   16.3033    0.0000 </r>
      </set>
      <set comment="kpoint 2">
       <r>  -12.6774    1.0000 </r>
       <r>  -11.6533    1.0000 </r>
       <r>   -8.6415    1.0000 </r>
       <r>   -8.4149    1.0000 </r>
       <r>   -6.0049    1.0000 </r>
       <r>   -5.4791    1.0000 </r>
       <r>   -4.7978    1.0000 </r>
       <r>   -4.0174    1.0000 </r>
       <r>   -3.8003    1.0000 </r>
       <r>   -3.2173    1.0000 </r>
       <r>   -2.6780    1.0000 </r>
       <r>   -2.3195    1.0000 </r>
       <r>   -1.9270    1.0000 </r>
       <r>   -1.4166    1.0000 </r>
       <r>   -0.0426    1.0000 </r>
       <r>   -0.0346    1.0000 </r>
       <r>    0.0786    1.0000 </r>
       <r>    0.1808    1.0000 </r>
       <r>    0.4534    1.0000 </r>
       <r>    1.9149    0.0787 </r>
       <r>    1.9858    0.0003 </r>
       <r>    2.0754    0.0000 </r>
       <r>    5.5214    0.0000 </r>
       <r>    5.7293    0.0000 </r>
       <r>    5.8405    0.0000 </r>
       <r>    6.2775    0.0000 </r>
       <r>    6.7000    0.0000 </r>
       <r>    7.1584    0.0000 </r>
       <r>    8.0540    0.0000 </r>
       <r>    8.6338    0.0000 </r>
       <r>    9.0107    0.0000 </r>
       <r>    9.0880    0.0000 </r>
       <r>    9.1648    0.0000 </r>
       <r>   10.1996    0.0000 </r>
       <r>   10.9007    0.0000 </r>
       <r>   11.0879    0.0000 </r>
       <r>   11.2266    0.0000 </r>
       <r>   11.6586    0.0000 </r>
       <r>   12.1215    0.0000 </r>
       <r>   12.4575    0.0000 </r>
       <r>   13.0739    0.0000 </r>
       <r>   13.0817    0.0000 </r>
       <r>   13.9620    0.0000 </r>
       <r>   14.8135    0.0000 </r>
       <r>   15.6990    0.0000 </r>
       <r>   15.7811    0.0000 </r>
       <r>   16.1720    0.0000 </r>
       <r>   16.4596    0.0000 </r>
      </set>
      <set comment="kpoint 3">
       <r>  -12.5918    1.0000 </r>
       <r>  -11.7863    1.0000 </r>
       <r>   -8.5978    1.0000 </r>
       <r>   -8.4001    1.0000 </r>
       <r>   -5.9831    1.0000 </r>
       <r>   -5.8049    1.0000 </r>
       <r>   -4.7515    1.0000 </r>
       <r>   -3.8908    1.0000 </r>
       <r>   -3.2898    1.0000 </r>
       <r>   -2.8458    1.0000 </r>
       <r>   -2.7264    1.0000 </r>
       <r>   -2.2795    1.0000 </r>
       <r>   -2.0367    1.0000 </r>
       <r>   -1.9204    1.0000 </r>
       <r>   -0.2377    1.0000 </r>
       <r>   -0.0008    1.0000 </r>
       <r>    0.1273    1.0000 </r>
       <r>    0.1435    1.0000 </r>
       <r>    0.4232    1.0000 </r>
       <r>    1.7672    0.9971 </r>
       <r>    1.8467    0.6968 </r>
       <r>    1.8533    0.6287 </r>
       <r>    5.6426    0.0000 </r>
       <r>    5.6856    0.0000 </r>
       <r>    6.1494    0.0000 </r>
       <r>    6.5746    0.0000 </r>
       <r>    6.7348    0.0000 </r>
       <r>    6.9042    0.0000 </r>
       <r>    8.2034    0.0000 </r>
       <r>    8.7826    0.0000 </r>
       <r>    8.9566    0.0000 </r>
       <r>    9.5324    0.0000 </r>
       <r>    9.6095    0.0000 </r>
       <r>   10.2414    0.0000 </r>
       <r>   10.4439    0.0000 </r>
       <r>   10.5829    0.0000 </r>
       <r>   11.3450    0.0000 </r>
       <r>   11.8018    0.0000 </r>
       <r>   12.3561    0.0000 </r>
       <r>   12.5190    0.0000 </r>
       <r>   12.7553    0.0000 </r>
       <r>   12.8704    0.0000 </r>
       <r>   14.5863    0.0000 </r>
       <r>   14.8654    0.0000 </r>
       <r>   15.1811    0.0000 </r>
       <r>   15.9302    0.0000 </r>
       <r>   15.9509    0.0000 </r>
       <r>   16.2343    0.0000 </r>
      </set>
      <set comment="kpoint 4">
       <r>  -12.4684    1.0000 </r>
       <r>  -11.9557    1.0000 </r>
       <r>   -8.5360    1.0000 </r>
       <r>   -8.3968    1.0000 </r>
       <r>   -6.0631    1.0000 </r>
       <r>   -6.0378    1.0000 </r>
       <r>   -4.4246    1.0000 </r>
       <r>   -3.7225    1.0000 </r>
       <r>   -3.0392    1.0000 </r>
       <r>   -2.9064    1.0000 </r>
       <r>   -2.4555    1.0000 </r>
       <r>   -2.2659    1.0000 </r>
       <r>   -2.1619    1.0000 </r>
       <r>   -2.1367    1.0000 </r>
       <r>   -0.5368    1.0000 </r>
       <r>   -0.2629    1.0000 </r>
       <r>    0.1589    1.0000 </r>
       <r>    0.2341    1.0000 </r>
       <r>    0.5960    1.0000 </r>
       <r>    1.5112    1.0000 </r>
       <r>    1.6453    1.0000 </r>
       <r>    1.7054    1.0000 </r>
       <r>    5.6709    0.0000 </r>
       <r>    5.7276    0.0000 </r>
       <r>    6.4740    0.0000 </r>
       <r>    6.6463    0.0000 </r>
       <r>    6.6720    0.0000 </r>
       <r>    7.3822    0.0000 </r>
       <r>    8.3267    0.0000 </r>
       <r>    8.6540    0.0000 </r>
       <r>    8.7693    0.0000 </r>
       <r>    9.4980    0.0000 </r>
       <r>   10.0136    0.0000 </r>
       <r>   10.0804    0.0000 </r>
       <r>   10.3563    0.0000 </r>
       <r>   11.1007    0.0000 </r>
       <r>   11.3680    0.0000 </r>
       <r>   11.8998    0.0000 </r>
       <r>   12.1621    0.0000 </r>
       <r>   12.2309    0.0000 </r>
       <r>   12.4830    0.0000 </r>
       <r>   13.2177    0.0000 </r>
       <r>   14.6711    0.0000 </r>
       <r>   14.9294    0.0000 </r>
       <r>   15.2079    0.0000 </r>
       <r>   15.3261    0.0000 </r>
       <r>   15.5215    0.0000 </r>
       <r>   16.3253    0.0000 </r>
      </set>
      <set comment="kpoint 5">
       <r>  -12.3138    1.0000 </r>
       <r>  -12.1380    1.0000 </r>
       <r>   -8.4700    1.0000 </r>
       <r>   -8.4193    1.0000 </r>
       <r>   -6.1515    1.0000 </r>
       <r>   -6.1476    1.0000 </r>
       <r>   -3.9101    1.0000 </r>
       <r>   -3.5141    1.0000 </r>
       <r>   -3.3115    1.0000 </r>
       <r>   -3.2771    1.0000 </r>
       <r>   -2.3720    1.0000 </r>
       <r>   -2.2452    1.0000 </r>
       <r>   -1.9771    1.0000 </r>
       <r>   -1.9221    1.0000 </r>
       <r>   -0.7574    1.0000 </r>
       <r>   -0.6215    1.0000 </r>
       <r>    0.2419    1.0000 </r>
       <r>    0.2753    1.0000 </r>
       <r>    0.8563    1.0000 </r>
       <r>    1.1730    1.0000 </r>
       <r>    1.5648    1.0000 </r>
       <r>    1.5920    1.0000 </r>
       <r>    5.6996    0.0000 </r>
       <r>    5.7380    0.0000 </r>
       <r>    6.4533    0.0000 </r>
       <r>    6.5175    0.0000 </r>
       <r>    7.3391    0.0000 </r>
       <r>    8.0412    0.0000 </r>
       <r>    8.0641    0.0000 </r>
       <r>    8.4435    0.0000 </r>
       <r>    8.5810    0.0000 </r>
       <r>    8.7547    0.0000 </r>
       <r>   10.4635    0.0000 </r>
       <r>   10.4779    0.0000 </r>
       <r>   10.7181    0.0000 </r>
       <r>   11.1754    0.0000 </r>
       <r>   11.3595    0.0000 </r>
       <r>   11.5521    0.0000 </r>
       <r>   11.8846    0.0000 </r>
       <r>   12.4394    0.0000 </r>
       <r>   12.6780    0.0000 </r>
       <r>   13.2119    0.0000 </r>
       <r>   14.5494    0.0000 </r>
       <r>   14.6858    0.0000 </r>
       <r>   14.8247    0.0000 </r>
       <r>   14.8840    0.0000 </r>
       <r>   16.0464    0.0000 </r>
       <r>   16.3918    0.0000 </r>
      </set>
      <set comment="kpoint 6">
       <r>  -12.6971    1.0000 </r>
       <r>  -11.5580    1.0000 </r>
       <r>   -8.6440    1.0000 </r>
       <r>   -8.4033    1.0000 </r>
       <r>   -6.0462    1.0000 </r>
       <r>   -5.1058    1.0000 </r>
       <r>   -4.6543    1.0000 </r>
       <r>   -4.5794    1.0000 </r>
       <r>   -4.1852    1.0000 </r>
       <r>   -3.5310    1.0000 </r>
       <r>   -3.3003    1.0000 </r>
       <r>   -1.8085    1.0000 </r>
       <r>   -1.1055    1.0000 </r>
       <r>   -1.0513    1.0000 </r>
       <r>   -0.3158    1.0000 </r>
       <r>   -0.2878    1.0000 </r>
       <r>    0.1526    1.0000 </r>
       <r>    0.2298    1.0000 </r>
       <r>    0.6267    1.0000 </r>
       <r>    1.7340    0.9999 </r>
       <r>    1.8135    0.9273 </r>
       <r>    2.2482    0.0000 </r>
       <r>    5.5519    0.0000 </r>
       <r>    5.6811    0.0000 </r>
       <r>    5.7166    0.0000 </r>
       <r>    5.9774    0.0000 </r>
       <r>    7.0698    0.0000 </r>
       <r>    7.8043    0.0000 </r>
       <r>    8.0421    0.0000 </r>
       <r>    8.1556    0.0000 </r>
       <r>    8.7624    0.0000 </r>
       <r>    9.0519    0.0000 </r>
       <r>    9.1066    0.0000 </r>
       <r>   10.5409    0.0000 </r>
       <r>   11.2241    0.0000 </r>
       <r>   11.3673    0.0000 </r>
       <r>   11.5544    0.0000 </r>
       <r>   11.8433    0.0000 </r>
       <r>   12.0154    0.0000 </r>
       <r>   12.6482    0.0000 </r>
       <r>   12.8238    0.0000 </r>
       <r>   13.1442    0.0000 </r>
       <r>   13.1487    0.0000 </r>
       <r>   15.2770    0.0000 </r>
       <r>   15.3243    0.0000 </r>
       <r>   15.8065    0.0000 </r>
       <r>   15.8103    0.0000 </r>
       <r>   16.1655    0.0000 </r>
      </set>
      <set comment="kpoint 7">
       <r>  -12.6535    1.0000 </r>
       <r>  -11.6316    1.0000 </r>
       <r>   -8.6226    1.0000 </r>
       <r>   -8.3922    1.0000 </r>
       <r>   -5.9764    1.0000 </r>
       <r>   -5.4490    1.0000 </r>
       <r>   -4.7778    1.0000 </r>
       <r>   -4.4977    1.0000 </r>
       <r>   -3.7617    1.0000 </r>
       <r>   -3.3806    1.0000 </r>
       <r>   -3.1795    1.0000 </r>
       <r>   -1.7869    1.0000 </r>
       <r>   -1.4112    1.0000 </r>
       <r>   -1.1692    1.0000 </r>
       <r>   -0.2771    1.0000 </r>
       <r>   -0.2090    1.0000 </r>
       <r>    0.1198    1.0000 </r>
       <r>    0.2023    1.0000 </r>
       <r>    0.5239    1.0000 </r>
       <r>    1.6537    1.0000 </r>
       <r>    1.7372    0.9998 </r>
       <r>    2.1178    0.0000 </r>
       <r>    5.6279    0.0000 </r>
       <r>    5.7802    0.0000 </r>
       <r>    5.9059    0.0000 </r>
       <r>    6.0850    0.0000 </r>
       <r>    6.9868    0.0000 </r>
       <r>    7.4797    0.0000 </r>
       <r>    8.1879    0.0000 </r>
       <r>    8.3239    0.0000 </r>
       <r>    9.0815    0.0000 </r>
       <r>    9.1181    0.0000 </r>
       <r>    9.3751    0.0000 </r>
       <r>   10.4628    0.0000 </r>
       <r>   10.8327    0.0000 </r>
       <r>   11.0409    0.0000 </r>
       <r>   11.4215    0.0000 </r>
       <r>   11.8314    0.0000 </r>
       <r>   12.2346    0.0000 </r>
       <r>   12.6998    0.0000 </r>
       <r>   12.8235    0.0000 </r>
       <r>   13.1057    0.0000 </r>
       <r>   13.6808    0.0000 </r>
       <r>   14.8983    0.0000 </r>
       <r>   15.3452    0.0000 </r>
       <r>   15.7014    0.0000 </r>
       <r>   15.7411    0.0000 </r>
       <r>   16.3456    0.0000 </r>
      </set>
      <set comment="kpoint 8">
       <r>  -12.5681    1.0000 </r>
       <r>  -11.7644    1.0000 </r>
       <r>   -8.5788    1.0000 </r>
       <r>   -8.3782    1.0000 </r>
       <r>   -5.9520    1.0000 </r>
       <r>   -5.7746    1.0000 </r>
       <r>   -4.7349    1.0000 </r>
       <r>   -4.3897    1.0000 </r>
       <r>   -3.5021    1.0000 </r>
       <r>   -3.2366    1.0000 </r>
       <r>   -2.7140    1.0000 </r>
       <r>   -1.9158    1.0000 </r>
       <r>   -1.7428    1.0000 </r>
       <r>   -1.3313    1.0000 </r>
       <r>   -0.2398    1.0000 </r>
       <r>   -0.2308    1.0000 </r>
       <r>    0.0384    1.0000 </r>
       <r>    0.1894    1.0000 </r>
       <r>    0.4476    1.0000 </r>
       <r>    1.5190    1.0000 </r>
       <r>    1.6074    1.0000 </r>
       <r>    1.8702    0.4410 </r>
       <r>    5.8271    0.0000 </r>
       <r>    5.9081    0.0000 </r>
       <r>    5.9864    0.0000 </r>
       <r>    6.5324    0.0000 </r>
       <r>    6.8666    0.0000 </r>
       <r>    7.2524    0.0000 </r>
       <r>    8.3945    0.0000 </r>
       <r>    8.4558    0.0000 </r>
       <r>    9.0553    0.0000 </r>
       <r>    9.5707    0.0000 </r>
       <r>    9.8344    0.0000 </r>
       <r>   10.0861    0.0000 </r>
       <r>   10.3124    0.0000 </r>
       <r>   10.7792    0.0000 </r>
       <r>   11.4853    0.0000 </r>
       <r>   12.0664    0.0000 </r>
       <r>   12.2633    0.0000 </r>
       <r>   12.5177    0.0000 </r>
       <r>   12.9100    0.0000 </r>
       <r>   12.9841    0.0000 </r>
       <r>   14.2569    0.0000 </r>
       <r>   15.0315    0.0000 </r>
       <r>   15.1122    0.0000 </r>
       <r>   15.5930    0.0000 </r>
       <r>   15.6590    0.0000 </r>
       <r>   16.3660    0.0000 </r>
      </set>
      <set comment="kpoint 9">
       <r>  -12.4450    1.0000 </r>
       <r>  -11.9334    1.0000 </r>
       <r>   -8.5167    1.0000 </r>
       <r>   -8.3758    1.0000 </r>
       <r>   -6.0308    1.0000 </r>
       <r>   -6.0066    1.0000 </r>
       <r>   -4.4102    1.0000 </r>
       <r>   -4.2432    1.0000 </r>
       <r>   -3.6728    1.0000 </r>
       <r>   -2.8580    1.0000 </r>
       <r>   -2.3742    1.0000 </r>
       <r>   -2.2316    1.0000 </r>
       <r>   -1.6788    1.0000 </r>
       <r>   -1.4936    1.0000 </r>
       <r>   -0.4987    1.0000 </r>
       <r>   -0.3244    1.0000 </r>
       <r>    0.0698    1.0000 </r>
       <r>    0.1005    1.0000 </r>
       <r>    0.6066    1.0000 </r>
       <r>    1.3796    1.0000 </r>
       <r>    1.4623    1.0000 </r>
       <r>    1.5471    1.0000 </r>
       <r>    5.8448    0.0000 </r>
       <r>    5.9813    0.0000 </r>
       <r>    6.4911    0.0000 </r>
       <r>    6.7778    0.0000 </r>
       <r>    6.8512    0.0000 </r>
       <r>    7.3423    0.0000 </r>
       <r>    8.3847    0.0000 </r>
       <r>    8.5629    0.0000 </r>
       <r>    8.8985    0.0000 </r>
       <r>    9.3344    0.0000 </r>
       <r>   10.0315    0.0000 </r>
       <r>   10.0561    0.0000 </r>
       <r>   10.4023    0.0000 </r>
       <r>   11.1773    0.0000 </r>
       <r>   11.3243    0.0000 </r>
       <r>   11.7986    0.0000 </r>
       <r>   12.2432    0.0000 </r>
       <r>   12.5068    0.0000 </r>
       <r>   12.6823    0.0000 </r>
       <r>   13.4189    0.0000 </r>
       <r>   14.7172    0.0000 </r>
       <r>   14.7261    0.0000 </r>
       <r>   15.1020    0.0000 </r>
       <r>   15.2589    0.0000 </r>
       <r>   15.5983    0.0000 </r>
       <r>   16.3390    0.0000 </r>
      </set>
      <set comment="kpoint 10">
       <r>  -12.2907    1.0000 </r>
       <r>  -12.1153    1.0000 </r>
       <r>   -8.4504    1.0000 </r>
       <r>   -8.3990    1.0000 </r>
       <r>   -6.1196    1.0000 </r>
       <r>   -6.1152    1.0000 </r>
       <r>   -4.0649    1.0000 </r>
       <r>   -3.9026    1.0000 </r>
       <r>   -3.8619    1.0000 </r>
       <r>   -3.2987    1.0000 </r>
       <r>   -2.1193    1.0000 </r>
       <r>   -1.9268    1.0000 </r>
       <r>   -1.6107    1.0000 </r>
       <r>   -1.6062    1.0000 </r>
       <r>   -0.7194    1.0000 </r>
       <r>   -0.6175    1.0000 </r>
       <r>    0.1035    1.0000 </r>
       <r>    0.1346    1.0000 </r>
       <r>    0.8656    1.0000 </r>
       <r>    1.1795    1.0000 </r>
       <r>    1.3263    1.0000 </r>
       <r>    1.3503    1.0000 </r>
       <r>    5.8966    0.0000 </r>
       <r>    5.9632    0.0000 </r>
       <r>    6.7676    0.0000 </r>
       <r>    6.8183    0.0000 </r>
       <r>    7.1569    0.0000 </r>
       <r>    7.8669    0.0000 </r>
       <r>    7.9105    0.0000 </r>
       <r>    8.5906    0.0000 </r>
       <r>    8.6547    0.0000 </r>
       <r>    8.7667    0.0000 </r>
       <r>   10.2792    0.0000 </r>
       <r>   10.5282    0.0000 </r>
       <r>   10.7662    0.0000 </r>
       <r>   10.8666    0.0000 </r>
       <r>   11.5068    0.0000 </r>
       <r>   11.6109    0.0000 </r>
       <r>   11.9627    0.0000 </r>
       <r>   12.6070    0.0000 </r>
       <r>   12.9851    0.0000 </r>
       <r>   13.4420    0.0000 </r>
       <r>   14.5016    0.0000 </r>
       <r>   14.6867    0.0000 </r>
       <r>   14.7851    0.0000 </r>
       <r>   15.0029    0.0000 </r>
       <r>   16.0718    0.0000 </r>
       <r>   16.3665    0.0000 </r>
      </set>
      <set comment="kpoint 11">
       <r>  -12.6529    1.0000 </r>
       <r>  -11.5182    1.0000 </r>
       <r>   -8.6098    1.0000 </r>
       <r>   -8.3608    1.0000 </r>
       <r>   -5.9970    1.0000 </r>
       <r>   -5.1359    1.0000 </r>
       <r>   -5.0155    1.0000 </r>
       <r>   -4.6127    1.0000 </r>
       <r>   -4.1687    1.0000 </r>
       <r>   -3.9217    1.0000 </r>
       <r>   -3.4779    1.0000 </r>
       <r>   -1.2185    1.0000 </r>
       <r>   -1.0962    1.0000 </r>
       <r>   -0.6584    1.0000 </r>
       <r>   -0.5542    1.0000 </r>
       <r>   -0.1939    1.0000 </r>
       <r>    0.1737    1.0000 </r>
       <r>    0.2823    1.0000 </r>
       <r>    0.7048    1.0000 </r>
       <r>    1.3525    1.0000 </r>
       <r>    1.4156    1.0000 </r>
       <r>    2.2861    0.0000 </r>
       <r>    5.2644    0.0000 </r>
       <r>    5.4287    0.0000 </r>
       <r>    6.0941    0.0000 </r>
       <r>    6.1645    0.0000 </r>
       <r>    7.5030    0.0000 </r>
       <r>    7.5918    0.0000 </r>
       <r>    8.2853    0.0000 </r>
       <r>    8.6872    0.0000 </r>
       <r>    8.8442    0.0000 </r>
       <r>    9.1924    0.0000 </r>
       <r>    9.3289    0.0000 </r>
       <r>   10.8420    0.0000 </r>
       <r>   11.2775    0.0000 </r>
       <r>   11.5296    0.0000 </r>
       <r>   11.6659    0.0000 </r>
       <r>   12.0431    0.0000 </r>
       <r>   12.2314    0.0000 </r>
       <r>   12.7037    0.0000 </r>
       <r>   12.7164    0.0000 </r>
       <r>   12.9569    0.0000 </r>
       <r>   13.1854    0.0000 </r>
       <r>   14.6179    0.0000 </r>
       <r>   15.1076    0.0000 </r>
       <r>   15.2855    0.0000 </r>
       <r>   15.3837    0.0000 </r>
       <r>   15.9048    0.0000 </r>
      </set>
      <set comment="kpoint 12">
       <r>  -12.6095    1.0000 </r>
       <r>  -11.5916    1.0000 </r>
       <r>   -8.5881    1.0000 </r>
       <r>   -8.3504    1.0000 </r>
       <r>   -5.9238    1.0000 </r>
       <r>   -5.4006    1.0000 </r>
       <r>   -5.0386    1.0000 </r>
       <r>   -4.7403    1.0000 </r>
       <r>   -3.9874    1.0000 </r>
       <r>   -3.7198    1.0000 </r>
       <r>   -3.1401    1.0000 </r>
       <r>   -1.4029    1.0000 </r>
       <r>   -1.1924    1.0000 </r>
       <r>   -0.7663    1.0000 </r>
       <r>   -0.5162    1.0000 </r>
       <r>   -0.1124    1.0000 </r>
       <r>    0.1531    1.0000 </r>
       <r>    0.2273    1.0000 </r>
       <r>    0.5922    1.0000 </r>
       <r>    1.2736    1.0000 </r>
       <r>    1.3460    1.0000 </r>
       <r>    2.1507    0.0000 </r>
       <r>    5.3448    0.0000 </r>
       <r>    5.7733    0.0000 </r>
       <r>    6.1106    0.0000 </r>
       <r>    6.2091    0.0000 </r>
       <r>    7.4225    0.0000 </r>
       <r>    7.7483    0.0000 </r>
       <r>    8.0176    0.0000 </r>
       <r>    8.7791    0.0000 </r>
       <r>    9.2056    0.0000 </r>
       <r>    9.2465    0.0000 </r>
       <r>    9.6127    0.0000 </r>
       <r>   10.4777    0.0000 </r>
       <r>   10.7385    0.0000 </r>
       <r>   11.2343    0.0000 </r>
       <r>   11.6838    0.0000 </r>
       <r>   12.1563    0.0000 </r>
       <r>   12.3887    0.0000 </r>
       <r>   12.4612    0.0000 </r>
       <r>   13.1159    0.0000 </r>
       <r>   13.2324    0.0000 </r>
       <r>   13.3898    0.0000 </r>
       <r>   14.6298    0.0000 </r>
       <r>   14.7705    0.0000 </r>
       <r>   15.2219    0.0000 </r>
       <r>   15.4478    0.0000 </r>
       <r>   15.9353    0.0000 </r>
      </set>
      <set comment="kpoint 13">
       <r>  -12.5244    1.0000 </r>
       <r>  -11.7239    1.0000 </r>
       <r>   -8.5438    1.0000 </r>
       <r>   -8.3377    1.0000 </r>
       <r>   -5.8940    1.0000 </r>
       <r>   -5.7199    1.0000 </r>
       <r>   -4.9471    1.0000 </r>
       <r>   -4.7040    1.0000 </r>
       <r>   -4.1104    1.0000 </r>
       <r>   -3.1868    1.0000 </r>
       <r>   -2.6702    1.0000 </r>
       <r>   -1.8994    1.0000 </r>
       <r>   -1.1520    1.0000 </r>
       <r>   -0.9054    1.0000 </r>
       <r>   -0.4636    1.0000 </r>
       <r>   -0.1057    1.0000 </r>
       <r>   -0.0019    1.0000 </r>
       <r>    0.2388    1.0000 </r>
       <r>    0.4774    1.0000 </r>
       <r>    1.1424    1.0000 </r>
       <r>    1.2279    1.0000 </r>
       <r>    1.8948    0.1995 </r>
       <r>    5.6653    0.0000 </r>
       <r>    6.0657    0.0000 </r>
       <r>    6.2480    0.0000 </r>
       <r>    6.3394    0.0000 </r>
       <r>    7.3206    0.0000 </r>
       <r>    7.8291    0.0000 </r>
       <r>    7.9824    0.0000 </r>
       <r>    8.9079    0.0000 </r>
       <r>    9.2022    0.0000 </r>
       <r>    9.6779    0.0000 </r>
       <r>    9.8142    0.0000 </r>
       <r>   10.0949    0.0000 </r>
       <r>   10.2143    0.0000 </r>
       <r>   11.0184    0.0000 </r>
       <r>   11.5482    0.0000 </r>
       <r>   12.0635    0.0000 </r>
       <r>   12.4664    0.0000 </r>
       <r>   12.7624    0.0000 </r>
       <r>   12.9968    0.0000 </r>
       <r>   13.4040    0.0000 </r>
       <r>   13.9118    0.0000 </r>
       <r>   14.5403    0.0000 </r>
       <r>   14.8198    0.0000 </r>
       <r>   15.2451    0.0000 </r>
       <r>   15.4653    0.0000 </r>
       <r>   16.1461    0.0000 </r>
      </set>
      <set comment="kpoint 14">
       <r>  -12.4018    1.0000 </r>
       <r>  -11.8922    1.0000 </r>
       <r>   -8.4813    1.0000 </r>
       <r>   -8.3370    1.0000 </r>
       <r>   -5.9704    1.0000 </r>
       <r>   -5.9491    1.0000 </r>
       <r>   -4.8117    1.0000 </r>
       <r>   -4.3836    1.0000 </r>
       <r>   -4.2742    1.0000 </r>
       <r>   -2.8198    1.0000 </r>
       <r>   -2.3336    1.0000 </r>
       <r>   -2.1905    1.0000 </r>
       <r>   -1.0957    1.0000 </r>
       <r>   -1.0425    1.0000 </r>
       <r>   -0.4703    1.0000 </r>
       <r>   -0.3907    1.0000 </r>
       <r>    0.0417    1.0000 </r>
       <r>    0.0444    1.0000 </r>
       <r>    0.6242    1.0000 </r>
       <r>    1.0131    1.0000 </r>
       <r>    1.0955    1.0000 </r>
       <r>    1.5606    1.0000 </r>
       <r>    6.0775    0.0000 </r>
       <r>    6.1989    0.0000 </r>
       <r>    6.3705    0.0000 </r>
       <r>    6.7732    0.0000 </r>
       <r>    7.2657    0.0000 </r>
       <r>    7.7509    0.0000 </r>
       <r>    8.0390    0.0000 </r>
       <r>    9.0074    0.0000 </r>
       <r>    9.0676    0.0000 </r>
       <r>    9.1374    0.0000 </r>
       <r>    9.8460    0.0000 </r>
       <r>   10.1446    0.0000 </r>
       <r>   10.6627    0.0000 </r>
       <r>   11.0369    0.0000 </r>
       <r>   11.2761    0.0000 </r>
       <r>   11.9093    0.0000 </r>
       <r>   12.3053    0.0000 </r>
       <r>   12.9446    0.0000 </r>
       <r>   12.9956    0.0000 </r>
       <r>   13.7462    0.0000 </r>
       <r>   14.3285    0.0000 </r>
       <r>   14.3465    0.0000 </r>
       <r>   14.9791    0.0000 </r>
       <r>   15.0735    0.0000 </r>
       <r>   15.5601    0.0000 </r>
       <r>   16.3244    0.0000 </r>
      </set>
      <set comment="kpoint 15">
       <r>  -12.2481    1.0000 </r>
       <r>  -12.0734    1.0000 </r>
       <r>   -8.4143    1.0000 </r>
       <r>   -8.3619    1.0000 </r>
       <r>   -6.0602    1.0000 </r>
       <r>   -6.0549    1.0000 </r>
       <r>   -4.6445    1.0000 </r>
       <r>   -4.4597    1.0000 </r>
       <r>   -3.8718    1.0000 </r>
       <r>   -3.2763    1.0000 </r>
       <r>   -2.0514    1.0000 </r>
       <r>   -1.8866    1.0000 </r>
       <r>   -1.1152    1.0000 </r>
       <r>   -1.0550    1.0000 </r>
       <r>   -0.6461    1.0000 </r>
       <r>   -0.6409    1.0000 </r>
       <r>   -0.0075    1.0000 </r>
       <r>    0.0360    1.0000 </r>
       <r>    0.8813    1.0000 </r>
       <r>    0.9507    1.0000 </r>
       <r>    0.9912    1.0000 </r>
       <r>    1.2078    1.0000 </r>
       <r>    6.1694    0.0000 </r>
       <r>    6.2883    0.0000 </r>
       <r>    6.8498    0.0000 </r>
       <r>    7.1865    0.0000 </r>
       <r>    7.2444    0.0000 </r>
       <r>    7.5926    0.0000 </r>
       <r>    7.8975    0.0000 </r>
       <r>    8.4068    0.0000 </r>
       <r>    9.0630    0.0000 </r>
       <r>    9.0947    0.0000 </r>
       <r>    9.9705    0.0000 </r>
       <r>   10.4430    0.0000 </r>
       <r>   10.6661    0.0000 </r>
       <r>   10.9398    0.0000 </r>
       <r>   11.6866    0.0000 </r>
       <r>   11.7010    0.0000 </r>
       <r>   12.0823    0.0000 </r>
       <r>   12.8618    0.0000 </r>
       <r>   13.3731    0.0000 </r>
       <r>   13.7186    0.0000 </r>
       <r>   14.1788    0.0000 </r>
       <r>   14.3330    0.0000 </r>
       <r>   14.9459    0.0000 </r>
       <r>   15.0850    0.0000 </r>
       <r>   15.9376    0.0000 </r>
       <r>   16.2405    0.0000 </r>
      </set>
      <set comment="kpoint 16">
       <r>  -12.5956    1.0000 </r>
       <r>  -11.4669    1.0000 </r>
       <r>   -8.5661    1.0000 </r>
       <r>   -8.3059    1.0000 </r>
       <r>   -5.9331    1.0000 </r>
       <r>   -5.6163    1.0000 </r>
       <r>   -4.9456    1.0000 </r>
       <r>   -4.5567    1.0000 </r>
       <r>   -4.4412    1.0000 </r>
       <r>   -4.1295    1.0000 </r>
       <r>   -3.4162    1.0000 </r>
       <r>   -1.2299    1.0000 </r>
       <r>   -1.0820    1.0000 </r>
       <r>   -1.0115    1.0000 </r>
       <r>   -0.2106    1.0000 </r>
       <r>    0.2018    1.0000 </r>
       <r>    0.3253    1.0000 </r>
       <r>    0.5761    1.0000 </r>
       <r>    0.7682    1.0000 </r>
       <r>    0.9683    1.0000 </r>
       <r>    0.9823    1.0000 </r>
       <r>    2.3201    0.0000 </r>
       <r>    4.9225    0.0000 </r>
       <r>    5.1363    0.0000 </r>
       <r>    6.3242    0.0000 </r>
       <r>    6.5539    0.0000 </r>
       <r>    7.2347    0.0000 </r>
       <r>    7.9307    0.0000 </r>
       <r>    8.6589    0.0000 </r>
       <r>    9.0240    0.0000 </r>
       <r>    9.4168    0.0000 </r>
       <r>    9.5426    0.0000 </r>
       <r>    9.6100    0.0000 </r>
       <r>   10.7034    0.0000 </r>
       <r>   11.2261    0.0000 </r>
       <r>   11.9257    0.0000 </r>
       <r>   11.9805    0.0000 </r>
       <r>   12.2501    0.0000 </r>
       <r>   12.3822    0.0000 </r>
       <r>   12.4084    0.0000 </r>
       <r>   12.5223    0.0000 </r>
       <r>   12.9419    0.0000 </r>
       <r>   13.7369    0.0000 </r>
       <r>   13.8366    0.0000 </r>
       <r>   14.3645    0.0000 </r>
       <r>   15.0553    0.0000 </r>
       <r>   15.3571    0.0000 </r>
       <r>   15.7985    0.0000 </r>
      </set>
      <set comment="kpoint 17">
       <r>  -12.5524    1.0000 </r>
       <r>  -11.5399    1.0000 </r>
       <r>   -8.5440    1.0000 </r>
       <r>   -8.2964    1.0000 </r>
       <r>   -5.8553    1.0000 </r>
       <r>   -5.5815    1.0000 </r>
       <r>   -5.2818    1.0000 </r>
       <r>   -4.6906    1.0000 </r>
       <r>   -4.5063    1.0000 </r>
       <r>   -3.6663    1.0000 </r>
       <r>   -3.0787    1.0000 </r>
       <r>   -1.3966    1.0000 </r>
       <r>   -1.1732    1.0000 </r>
       <r>   -1.0265    1.0000 </r>
       <r>   -0.2118    1.0000 </r>
       <r>    0.1856    1.0000 </r>
       <r>    0.2589    1.0000 </r>
       <r>    0.5558    1.0000 </r>
       <r>    0.6468    1.0000 </r>
       <r>    0.9028    1.0000 </r>
       <r>    0.9407    1.0000 </r>
       <r>    2.1827    0.0000 </r>
       <r>    5.0185    0.0000 </r>
       <r>    5.4668    0.0000 </r>
       <r>    6.2702    0.0000 </r>
       <r>    6.6864    0.0000 </r>
       <r>    7.3700    0.0000 </r>
       <r>    7.8886    0.0000 </r>
       <r>    8.5966    0.0000 </r>
       <r>    9.1359    0.0000 </r>
       <r>    9.3837    0.0000 </r>
       <r>    9.7518    0.0000 </r>
       <r>    9.8515    0.0000 </r>
       <r>   10.2964    0.0000 </r>
       <r>   10.6662    0.0000 </r>
       <r>   11.6629    0.0000 </r>
       <r>   11.8467    0.0000 </r>
       <r>   12.2047    0.0000 </r>
       <r>   12.4338    0.0000 </r>
       <r>   12.6022    0.0000 </r>
       <r>   12.9150    0.0000 </r>
       <r>   13.3438    0.0000 </r>
       <r>   13.7384    0.0000 </r>
       <r>   13.8761    0.0000 </r>
       <r>   14.2043    0.0000 </r>
       <r>   15.0201    0.0000 </r>
       <r>   15.3862    0.0000 </r>
       <r>   15.6764    0.0000 </r>
      </set>
      <set comment="kpoint 18">
       <r>  -12.4678    1.0000 </r>
       <r>  -11.6715    1.0000 </r>
       <r>   -8.4991    1.0000 </r>
       <r>   -8.2855    1.0000 </r>
       <r>   -5.8180    1.0000 </r>
       <r>   -5.6673    1.0000 </r>
       <r>   -5.4283    1.0000 </r>
       <r>   -4.6644    1.0000 </r>
       <r>   -4.6279    1.0000 </r>
       <r>   -3.1279    1.0000 </r>
       <r>   -2.6100    1.0000 </r>
       <r>   -1.8806    1.0000 </r>
       <r>   -1.1127    1.0000 </r>
       <r>   -1.0457    1.0000 </r>
       <r>   -0.2298    1.0000 </r>
       <r>   -0.0682    1.0000 </r>
       <r>    0.2967    1.0000 </r>
       <r>    0.4890    1.0000 </r>
       <r>    0.5047    1.0000 </r>
       <r>    0.8137    1.0000 </r>
       <r>    0.8735    1.0000 </r>
       <r>    1.9232    0.0498 </r>
       <r>    5.3435    0.0000 </r>
       <r>    5.9399    0.0000 </r>
       <r>    6.2428    0.0000 </r>
       <r>    6.8000    0.0000 </r>
       <r>    7.5369    0.0000 </r>
       <r>    7.9104    0.0000 </r>
       <r>    8.5249    0.0000 </r>
       <r>    9.3229    0.0000 </r>
       <r>    9.3539    0.0000 </r>
       <r>    9.5552    0.0000 </r>
       <r>   10.0033    0.0000 </r>
       <r>   10.0672    0.0000 </r>
       <r>   10.5167    0.0000 </r>
       <r>   11.3438    0.0000 </r>
       <r>   11.3571    0.0000 </r>
       <r>   12.1987    0.0000 </r>
       <r>   12.6926    0.0000 </r>
       <r>   12.9151    0.0000 </r>
       <r>   13.1347    0.0000 </r>
       <r>   13.4727    0.0000 </r>
       <r>   13.7114    0.0000 </r>
       <r>   13.9679    0.0000 </r>
       <r>   14.3398    0.0000 </r>
       <r>   15.1117    0.0000 </r>
       <r>   15.3103    0.0000 </r>
       <r>   15.9396    0.0000 </r>
      </set>
      <set comment="kpoint 19">
       <r>  -12.3459    1.0000 </r>
       <r>  -11.8390    1.0000 </r>
       <r>   -8.4360    1.0000 </r>
       <r>   -8.2870    1.0000 </r>
       <r>   -5.8912    1.0000 </r>
       <r>   -5.8767    1.0000 </r>
       <r>   -5.3149    1.0000 </r>
       <r>   -4.7915    1.0000 </r>
       <r>   -4.3480    1.0000 </r>
       <r>   -2.7753    1.0000 </r>
       <r>   -2.2913    1.0000 </r>
       <r>   -2.1349    1.0000 </r>
       <r>   -1.0547    1.0000 </r>
       <r>   -1.0287    1.0000 </r>
       <r>   -0.3916    1.0000 </r>
       <r>   -0.3453    1.0000 </r>
       <r>    0.1345    1.0000 </r>
       <r>    0.3598    1.0000 </r>
       <r>    0.6440    1.0000 </r>
       <r>    0.7570    1.0000 </r>
       <r>    0.8069    1.0000 </r>
       <r>    1.5851    1.0000 </r>
       <r>    5.8695    0.0000 </r>
       <r>    6.2756    0.0000 </r>
       <r>    6.5163    0.0000 </r>
       <r>    6.7516    0.0000 </r>
       <r>    7.5372    0.0000 </r>
       <r>    7.9710    0.0000 </r>
       <r>    8.4801    0.0000 </r>
       <r>    8.8804    0.0000 </r>
       <r>    9.2342    0.0000 </r>
       <r>    9.5421    0.0000 </r>
       <r>    9.8595    0.0000 </r>
       <r>   10.3031    0.0000 </r>
       <r>   10.7543    0.0000 </r>
       <r>   11.0531    0.0000 </r>
       <r>   11.3936    0.0000 </r>
       <r>   12.1253    0.0000 </r>
       <r>   12.3708    0.0000 </r>
       <r>   13.1140    0.0000 </r>
       <r>   13.2372    0.0000 </r>
       <r>   13.6057    0.0000 </r>
       <r>   13.8491    0.0000 </r>
       <r>   14.1024    0.0000 </r>
       <r>   14.7084    0.0000 </r>
       <r>   14.9418    0.0000 </r>
       <r>   15.3803    0.0000 </r>
       <r>   16.2714    0.0000 </r>
      </set>
      <set comment="kpoint 20">
       <r>  -12.1930    1.0000 </r>
       <r>  -12.0193    1.0000 </r>
       <r>   -8.3681    1.0000 </r>
       <r>   -8.3141    1.0000 </r>
       <r>   -5.9831    1.0000 </r>
       <r>   -5.9759    1.0000 </r>
       <r>   -5.1542    1.0000 </r>
       <r>   -4.9734    1.0000 </r>
       <r>   -3.8398    1.0000 </r>
       <r>   -3.2463    1.0000 </r>
       <r>   -1.9948    1.0000 </r>
       <r>   -1.8405    1.0000 </r>
       <r>   -0.9932    1.0000 </r>
       <r>   -0.9336    1.0000 </r>
       <r>   -0.6882    1.0000 </r>
       <r>   -0.6452    1.0000 </r>
       <r>    0.1117    1.0000 </r>
       <r>    0.2125    1.0000 </r>
       <r>    0.7414    1.0000 </r>
       <r>    0.7576    1.0000 </r>
       <r>    0.9069    1.0000 </r>
       <r>    1.2293    1.0000 </r>
       <r>    6.4087    0.0000 </r>
       <r>    6.5283    0.0000 </r>
       <r>    6.5881    0.0000 </r>
       <r>    7.1049    0.0000 </r>
       <r>    7.1766    0.0000 </r>
       <r>    7.6607    0.0000 </r>
       <r>    8.4695    0.0000 </r>
       <r>    8.5334    0.0000 </r>
       <r>    9.4284    0.0000 </r>
       <r>    9.5983    0.0000 </r>
       <r>    9.8006    0.0000 </r>
       <r>   10.1007    0.0000 </r>
       <r>   10.8171    0.0000 </r>
       <r>   11.1943    0.0000 </r>
       <r>   11.8202    0.0000 </r>
       <r>   11.8986    0.0000 </r>
       <r>   12.2028    0.0000 </r>
       <r>   13.0951    0.0000 </r>
       <r>   13.3891    0.0000 </r>
       <r>   13.5716    0.0000 </r>
       <r>   13.7929    0.0000 </r>
       <r>   13.8981    0.0000 </r>
       <r>   15.0516    0.0000 </r>
       <r>   15.0686    0.0000 </r>
       <r>   15.6150    0.0000 </r>
       <r>   15.9163    0.0000 </r>
      </set>
      <set comment="kpoint 21">
       <r>  -12.5356    1.0000 </r>
[...]
       <r>   -2.3333    1.0000 </r>
       <r>   -2.1524    1.0000 </r>
       <r>   -1.9899    1.0000 </r>
       <r>   -1.5079    1.0000 </r>
       <r>   -0.7514    1.0000 </r>
       <r>   -0.2188    1.0000 </r>
       <r>    0.1529    1.0000 </r>
       <r>    0.3718    1.0000 </r>
       <r>    0.4931    1.0000 </r>
       <r>    1.5695    1.0000 </r>
       <r>    1.5960    1.0000 </r>
       <r>    1.8510    0.6533 </r>
       <r>    5.4881    0.0000 </r>
       <r>    6.1197    0.0000 </r>
       <r>    6.6398    0.0000 </r>
       <r>    7.1802    0.0000 </r>
       <r>    7.7417    0.0000 </r>
       <r>    8.1942    0.0000 </r>
       <r>    8.9567    0.0000 </r>
       <r>    9.1118    0.0000 </r>
       <r>    9.6833    0.0000 </r>
       <r>    9.9173    0.0000 </r>
       <r>   10.5453    0.0000 </r>
       <r>   10.9972    0.0000 </r>
       <r>   11.1560    0.0000 </r>
       <r>   11.4244    0.0000 </r>
       <r>   11.5225    0.0000 </r>
       <r>   11.9089    0.0000 </r>
       <r>   12.7914    0.0000 </r>
       <r>   13.0849    0.0000 </r>
       <r>   13.3208    0.0000 </r>
       <r>   13.6978    0.0000 </r>
       <r>   13.8146    0.0000 </r>
       <r>   14.1058    0.0000 </r>
       <r>   14.4216    0.0000 </r>
       <r>   14.9209    0.0000 </r>
       <r>   15.0409    0.0000 </r>
       <r>   15.3407    0.0000 </r>
      </set>
      <set comment="kpoint 175">
       <r>  -12.0179    1.0000 </r>
       <r>  -11.8788    1.0000 </r>
       <r>   -8.5525    1.0000 </r>
       <r>   -8.4403    1.0000 </r>
       <r>   -5.9336    1.0000 </r>
       <r>   -5.8281    1.0000 </r>
       <r>   -4.9028    1.0000 </r>
       <r>   -4.5806    1.0000 </r>
       <r>   -4.4234    1.0000 </r>
       <r>   -3.9868    1.0000 </r>
       <r>   -2.2047    1.0000 </r>
       <r>   -2.1435    1.0000 </r>
       <r>   -2.0756    1.0000 </r>
       <r>   -1.7912    1.0000 </r>
       <r>   -0.2352    1.0000 </r>
       <r>   -0.0233    1.0000 </r>
       <r>    0.3747    1.0000 </r>
       <r>    0.4625    1.0000 </r>
       <r>    0.5297    1.0000 </r>
       <r>    0.8568    1.0000 </r>
       <r>    1.6100    1.0000 </r>
       <r>    1.7095    1.0000 </r>
       <r>    5.8330    0.0000 </r>
       <r>    6.0176    0.0000 </r>
       <r>    6.8425    0.0000 </r>
       <r>    7.3675    0.0000 </r>
       <r>    7.4443    0.0000 </r>
       <r>    7.5366    0.0000 </r>
       <r>    9.3613    0.0000 </r>
       <r>    9.5428    0.0000 </r>
       <r>    9.7506    0.0000 </r>
       <r>    9.9281    0.0000 </r>
       <r>   10.4200    0.0000 </r>
       <r>   10.7669    0.0000 </r>
       <r>   11.2023    0.0000 </r>
       <r>   11.4644    0.0000 </r>
       <r>   11.4680    0.0000 </r>
       <r>   11.5700    0.0000 </r>
       <r>   13.0340    0.0000 </r>
       <r>   13.1386    0.0000 </r>
       <r>   13.6597    0.0000 </r>
       <r>   14.0015    0.0000 </r>
       <r>   14.1338    0.0000 </r>
       <r>   14.2330    0.0000 </r>
       <r>   14.5406    0.0000 </r>
       <r>   14.6897    0.0000 </r>
       <r>   14.8400    0.0000 </r>
       <r>   14.9882    0.0000 </r>
      </set>
     </set>
    </set>
   </array>
  </eigenvalues>
  <separator name="orbital magnetization" >
   <v name="MAGDIPOLOUT">      0.00000000      0.00000000      0.00000000</v>
  </separator>
  <dos>
   <i name="efermi">      1.86493663 </i>
   <total>
    <array>
     <dimension dim="1">gridpoints</dimension>
     <dimension dim="2">spin</dimension>
     <field>energy</field>
     <field>total</field>
     <field>integrated</field>
     <set>
      <set comment="spin 1">
       <r>   -14.1801     0.0000     0.0000 </r>
       <r>   -14.0731     0.0000     0.0000 </r>
       <r>   -13.9661     0.0000     0.0000 </r>
       <r>   -13.8591     0.0000     0.0000 </r>
       <r>   -13.7521     0.0000     0.0000 </r>
       <r>   -13.6451     0.0000     0.0000 </r>
       <r>   -13.5381     0.0000     0.0000 </r>
       <r>   -13.4311     0.0000     0.0000 </r>
       <r>   -13.3241     0.0000     0.0000 </r>
       <r>   -13.2171     0.0000     0.0000 </r>
       <r>   -13.1102     0.0000     0.0000 </r>
       <r>   -13.0032     0.0000     0.0000 </r>
       <r>   -12.8962     0.0000     0.0000 </r>
       <r>   -12.7892     0.0039     0.0004 </r>
       <r>   -12.6822     0.5098     0.0550 </r>
       <r>   -12.5752     2.3941     0.3111 </r>
       <r>   -12.4682     3.5719     0.6933 </r>
       <r>   -12.3612     4.3773     1.1616 </r>
       <r>   -12.2542     3.5391     1.5403 </r>
       <r>   -12.1472     2.7369     1.8331 </r>
       <r>   -12.0402     2.7545     2.1279 </r>
       <r>   -11.9332     2.5001     2.3954 </r>
       <r>   -11.8262     2.7718     2.6919 </r>
       <r>   -11.7192     3.4145     3.0573 </r>
       <r>   -11.6122     3.5368     3.4357 </r>
       <r>   -11.5052     3.1339     3.7710 </r>
       <r>   -11.3982     1.6922     3.9521 </r>
       <r>   -11.2912     0.4396     3.9991 </r>
       <r>   -11.1842     0.0084     4.0000 </r>
       <r>   -11.0772     0.0000     4.0000 </r>
       <r>   -10.9702     0.0000     4.0000 </r>
       <r>   -10.8632     0.0000     4.0000 </r>
       <r>   -10.7562     0.0000     4.0000 </r>
       <r>   -10.6492     0.0000     4.0000 </r>
       <r>   -10.5422     0.0000     4.0000 </r>
       <r>   -10.4353     0.0000     4.0000 </r>
       <r>   -10.3283     0.0000     4.0000 </r>
       <r>   -10.2213     0.0000     4.0000 </r>
       <r>   -10.1143     0.0000     4.0000 </r>
       <r>   -10.0073     0.0000     4.0000 </r>
       <r>    -9.9003     0.0000     4.0000 </r>
       <r>    -9.7933     0.0000     4.0000 </r>
       <r>    -9.6863     0.0000     4.0000 </r>
       <r>    -9.5793     0.0000     4.0000 </r>
       <r>    -9.4723     0.0000     4.0000 </r>
       <r>    -9.3653     0.0000     4.0000 </r>
       <r>    -9.2583     0.0000     4.0000 </r>
       <r>    -9.1513     0.0000     4.0000 </r>
       <r>    -9.0443     0.0000     4.0000 </r>
       <r>    -8.9373     0.0007     4.0001 </r>
       <r>    -8.8303     0.2808     4.0301 </r>
       <r>    -8.7233     2.1079     4.2556 </r>
       <r>    -8.6163     5.3695     4.8302 </r>
       <r>    -8.5093     7.0104     5.5803 </r>
       <r>    -8.4023     6.2856     6.2528 </r>
       <r>    -8.2953     5.3288     6.8230 </r>
       <r>    -8.1883     4.8452     7.3414 </r>
       <r>    -8.0813     3.8645     7.7548 </r>
       <r>    -7.9743     1.6625     7.9327 </r>
       <r>    -7.8674     0.5766     7.9944 </r>
       <r>    -7.7604     0.0521     8.0000 </r>
       <r>    -7.6534     0.0000     8.0000 </r>
       <r>    -7.5464     0.0000     8.0000 </r>
       <r>    -7.4394     0.0000     8.0000 </r>
       <r>    -7.3324     0.0000     8.0000 </r>
       <r>    -7.2254     0.0000     8.0000 </r>
       <r>    -7.1184     0.0000     8.0000 </r>
       <r>    -7.0114     0.0004     8.0000 </r>
       <r>    -6.9044     0.1104     8.0119 </r>
       <r>    -6.7974     0.2593     8.0396 </r>
       <r>    -6.6904     0.4246     8.0850 </r>
       <r>    -6.5834     0.7663     8.1670 </r>
       <r>    -6.4764     0.8460     8.2575 </r>
       <r>    -6.3694     1.4347     8.4110 </r>
       <r>    -6.2624     1.9401     8.6186 </r>
       <r>    -6.1554     3.0520     8.9452 </r>
       <r>    -6.0484     3.7973     9.3515 </r>
       <r>    -5.9414     4.1221     9.7925 </r>
       <r>    -5.8344     4.0520    10.2261 </r>
       <r>    -5.7274     3.8826    10.6415 </r>
       <r>    -5.6204     4.0757    11.0776 </r>
       <r>    -5.5134     4.2174    11.5288 </r>
       <r>    -5.4064     4.5642    12.0172 </r>
       <r>    -5.2994     4.6207    12.5116 </r>
       <r>    -5.1925     4.4973    12.9928 </r>
       <r>    -5.0855     3.8820    13.4081 </r>
       <r>    -4.9785     3.2228    13.7530 </r>
       <r>    -4.8715     2.9721    14.0710 </r>
       <r>    -4.7645     2.3113    14.3183 </r>
       <r>    -4.6575     2.8976    14.6283 </r>
       <r>    -4.5505     3.3723    14.9891 </r>
       <r>    -4.4435     3.4497    15.3582 </r>
       <r>    -4.3365     3.3591    15.7176 </r>
       <r>    -4.2295     2.9622    16.0346 </r>
       <r>    -4.1225     2.9112    16.3461 </r>
       <r>    -4.0155     2.9328    16.6599 </r>
       <r>    -3.9085     2.8807    16.9681 </r>
       <r>    -3.8015     3.1079    17.3006 </r>
       <r>    -3.6945     2.8951    17.6104 </r>
       <r>    -3.5875     2.7076    17.9001 </r>
       <r>    -3.4805     3.0766    18.2293 </r>
       <r>    -3.3735     2.6575    18.5136 </r>
       <r>    -3.2665     2.8343    18.8169 </r>
       <r>    -3.1595     2.7875    19.1151 </r>
       <r>    -3.0525     2.7143    19.4056 </r>
       <r>    -2.9455     3.0786    19.7349 </r>
       <r>    -2.8385     2.9847    20.0543 </r>
       <r>    -2.7315     2.4445    20.3159 </r>
       <r>    -2.6246     2.6389    20.5982 </r>
       <r>    -2.5176     3.0122    20.9205 </r>
       <r>    -2.4106     3.0025    21.2417 </r>
       <r>    -2.3036     3.1830    21.5823 </r>
       <r>    -2.1966     4.0011    22.0104 </r>
       <r>    -2.0896     3.6568    22.4017 </r>
       <r>    -1.9826     3.2175    22.7459 </r>
       <r>    -1.8756     5.0080    23.2818 </r>
       <r>    -1.7686     5.5356    23.8741 </r>
       <r>    -1.6616     5.6453    24.4781 </r>
       <r>    -1.5546     6.1725    25.1385 </r>
       <r>    -1.4476     6.1448    25.7960 </r>
       <r>    -1.3406     5.6092    26.3961 </r>
       <r>    -1.2336     4.6870    26.8976 </r>
       <r>    -1.1266     6.4899    27.5920 </r>
       <r>    -1.0196     4.1508    28.0362 </r>
       <r>    -0.9126     2.2852    28.2807 </r>
       <r>    -0.8056     2.7054    28.5701 </r>
       <r>    -0.6986     2.8831    28.8786 </r>
       <r>    -0.5916     4.4397    29.3536 </r>
       <r>    -0.4846     6.8221    30.0836 </r>
       <r>    -0.3776     5.6784    30.6911 </r>
       <r>    -0.2706     6.6446    31.4021 </r>
       <r>    -0.1636     6.3801    32.0847 </r>
       <r>    -0.0566     6.7365    32.8055 </r>
       <r>     0.0503     6.8269    33.5360 </r>
       <r>     0.1573     6.2454    34.2042 </r>
       <r>     0.2643     8.8336    35.1494 </r>
       <r>     0.3713     8.0874    36.0147 </r>
       <r>     0.4783     8.6804    36.9434 </r>
       <r>     0.5853     5.3782    37.5189 </r>
       <r>     0.6923     3.0054    37.8405 </r>
       <r>     0.7993     3.2365    38.1868 </r>
       <r>     0.9063     3.5912    38.5710 </r>
       <r>     1.0133     3.5816    38.9542 </r>
       <r>     1.1203     2.8059    39.2544 </r>
       <r>     1.2273     3.3655    39.6145 </r>
       <r>     1.3343     4.4767    40.0935 </r>
       <r>     1.4413     3.8172    40.5019 </r>
       <r>     1.5483     3.7013    40.8980 </r>
       <r>     1.6553     4.5892    41.3890 </r>
       <r>     1.7623     3.3401    41.7464 </r>
       <r>     1.8693     2.4751    42.0112 </r>
       <r>     1.9763     2.6779    42.2977 </r>
       <r>     2.0833     2.0963    42.5220 </r>
       <r>     2.1903     2.6483    42.8054 </r>
       <r>     2.2973     2.6067    43.0843 </r>
       <r>     2.4043     1.9745    43.2955 </r>
       <r>     2.5113     0.8992    43.3917 </r>
       <r>     2.6182     0.3795    43.4324 </r>
       <r>     2.7252     0.5753    43.4939 </r>
       <r>     2.8322     0.4209    43.5389 </r>
       <r>     2.9392     0.3057    43.5716 </r>
       <r>     3.0462     0.7362    43.6504 </r>
       <r>     3.1532     1.0236    43.7599 </r>
       <r>     3.2602     0.5663    43.8205 </r>
       <r>     3.3672     0.0163    43.8223 </r>
       <r>     3.4742     0.1212    43.8352 </r>
       <r>     3.5812     0.3927    43.8772 </r>
       <r>     3.6882     0.3389    43.9135 </r>
       <r>     3.7952     0.3651    43.9526 </r>
       <r>     3.9022     0.4121    43.9967 </r>
       <r>     4.0092     0.0311    44.0000 </r>
       <r>     4.1162     0.0000    44.0000 </r>
       <r>     4.2232     0.0202    44.0022 </r>
       <r>     4.3302     0.1658    44.0199 </r>
       <r>     4.4372     0.3868    44.0613 </r>
       <r>     4.5442     0.4518    44.1096 </r>
       <r>     4.6512     0.6218    44.1761 </r>
       <r>     4.7582     0.8732    44.2696 </r>
       <r>     4.8652     0.8383    44.3593 </r>
       <r>     4.9722     0.8647    44.4518 </r>
       <r>     5.0792     1.2556    44.5861 </r>
       <r>     5.1862     1.1763    44.7120 </r>
       <r>     5.2931     1.5981    44.8830 </r>
       <r>     5.4001     2.1478    45.1128 </r>
       <r>     5.5071     2.5001    45.3803 </r>
       <r>     5.6141     2.7958    45.6794 </r>
       <r>     5.7211     3.3069    46.0332 </r>
       <r>     5.8281     3.2584    46.3819 </r>
       <r>     5.9351     4.2488    46.8365 </r>
       <r>     6.0421     4.8031    47.3504 </r>
       <r>     6.1491     4.0812    47.7871 </r>
       <r>     6.2561     4.6056    48.2798 </r>
       <r>     6.3631     4.2587    48.7355 </r>
       <r>     6.4701     3.9697    49.1602 </r>
       <r>     6.5771     4.5179    49.6436 </r>
       <r>     6.6841     3.2528    49.9917 </r>
       <r>     6.7911     3.9665    50.4161 </r>
       <r>     6.8981     4.6065    50.9089 </r>
       <r>     7.0051     4.5833    51.3993 </r>
       <r>     7.1121     4.3401    51.8637 </r>
       <r>     7.2191     5.5797    52.4607 </r>
       <r>     7.3261     4.9852    52.9941 </r>
       <r>     7.4331     4.4783    53.4733 </r>
       <r>     7.5401     4.2259    53.9254 </r>
       <r>     7.6471     3.5899    54.3095 </r>
       <r>     7.7541     3.1087    54.6421 </r>
       <r>     7.8610     3.0279    54.9661 </r>
       <r>     7.9680     2.9701    55.2839 </r>
       <r>     8.0750     4.1595    55.7289 </r>
       <r>     8.1820     3.9203    56.1484 </r>
       <r>     8.2890     3.7355    56.5481 </r>
       <r>     8.3960     4.0088    56.9770 </r>
       <r>     8.5030     4.2459    57.4313 </r>
       <r>     8.6100     4.4888    57.9116 </r>
       <r>     8.7170     4.2783    58.3694 </r>
       <r>     8.8240     5.3339    58.9401 </r>
       <r>     8.9310     4.8305    59.4569 </r>
       <r>     9.0380     5.2838    60.0223 </r>
       <r>     9.1450     5.2290    60.5817 </r>
       <r>     9.2520     5.0073    61.1175 </r>
       <r>     9.3590     4.6691    61.6171 </r>
       <r>     9.4660     4.3994    62.0878 </r>
       <r>     9.5730     5.0932    62.6327 </r>
       <r>     9.6800     5.0370    63.1717 </r>
       <r>     9.7870     5.2866    63.7373 </r>
       <r>     9.8940     4.4936    64.2181 </r>
       <r>    10.0010     3.6786    64.6117 </r>
       <r>    10.1080     5.1891    65.1669 </r>
       <r>    10.2150     4.7218    65.6721 </r>
       <r>    10.3220     4.1543    66.1166 </r>
       <r>    10.4290     5.3501    66.6891 </r>
       <r>    10.5359     5.8293    67.3128 </r>
       <r>    10.6429     4.0809    67.7494 </r>
       <r>    10.7499     3.9087    68.1676 </r>
       <r>    10.8569     3.2714    68.5177 </r>
       <r>    10.9639     4.6869    69.0191 </r>
       <r>    11.0709     5.4236    69.5994 </r>
       <r>    11.1779     6.2722    70.2705 </r>
       <r>    11.2849     6.0056    70.9131 </r>
       <r>    11.3919     5.2088    71.4704 </r>
       <r>    11.4989     4.3957    71.9408 </r>
       <r>    11.6059     4.4764    72.4197 </r>
       <r>    11.7129     4.9734    72.9518 </r>
       <r>    11.8199     4.8227    73.4679 </r>
       <r>    11.9269     6.0023    74.1101 </r>
       <r>    12.0339     6.0041    74.7525 </r>
       <r>    12.1409     6.0489    75.3997 </r>
       <r>    12.2479     5.5622    75.9948 </r>
       <r>    12.3549     4.9981    76.5296 </r>
       <r>    12.4619     5.7168    77.1413 </r>
       <r>    12.5689     5.9719    77.7803 </r>
       <r>    12.6759     5.9576    78.4177 </r>
       <r>    12.7829     5.9395    79.0532 </r>
       <r>    12.8899     5.8857    79.6829 </r>
       <r>    12.9969     5.6185    80.2841 </r>
       <r>    13.1038     6.3485    80.9634 </r>
       <r>    13.2108     6.3070    81.6382 </r>
       <r>    13.3178     5.4454    82.2208 </r>
       <r>    13.4248     6.1229    82.8759 </r>
       <r>    13.5318     5.4159    83.4554 </r>
       <r>    13.6388     4.8346    83.9727 </r>
       <r>    13.7458     6.1755    84.6335 </r>
       <r>    13.8528     5.5188    85.2240 </r>
       <r>    13.9598     5.3657    85.7981 </r>
       <r>    14.0668     5.4777    86.3842 </r>
       <r>    14.1738     4.6777    86.8846 </r>
       <r>    14.2808     4.9536    87.4147 </r>
       <r>    14.3878     4.9723    87.9467 </r>
       <r>    14.4948     4.9453    88.4758 </r>
       <r>    14.6018     5.2743    89.0401 </r>
       <r>    14.7088     5.1942    89.5959 </r>
       <r>    14.8158     4.0991    90.0345 </r>
       <r>    14.9228     5.0275    90.5724 </r>
       <r>    15.0298     6.1511    91.2305 </r>
       <r>    15.1368     5.6908    91.8394 </r>
       <r>    15.2438     5.7148    92.4509 </r>
       <r>    15.3508     6.0035    93.0932 </r>
       <r>    15.4578     5.7643    93.7100 </r>
       <r>    15.5648     6.0005    94.3520 </r>
       <r>    15.6718     4.6198    94.8463 </r>
       <r>    15.7787     2.5056    95.1144 </r>
       <r>    15.8857     2.7080    95.4042 </r>
       <r>    15.9927     1.8465    95.6017 </r>
       <r>    16.0997     1.1347    95.7231 </r>
       <r>    16.2067     0.8834    95.8177 </r>
       <r>    16.3137     0.7093    95.8935 </r>
       <r>    16.4207     0.8150    95.9808 </r>
       <r>    16.5277     0.1782    95.9998 </r>
       <r>    16.6347     0.0017    96.0000 </r>
       <r>    16.7417     0.0000    96.0000 </r>
       <r>    16.8487     0.0000    96.0000 </r>
       <r>    16.9557     0.0000    96.0000 </r>
       <r>    17.0627     0.0000    96.0000 </r>
       <r>    17.1697     0.0000    96.0000 </r>
       <r>    17.2767     0.0000    96.0000 </r>
       <r>    17.3837     0.0000    96.0000 </r>
       <r>    17.4907     0.0000    96.0000 </r>
       <r>    17.5977     0.0000    96.0000 </r>
       <r>    17.7047     0.0000    96.0000 </r>
       <r>    17.8117     0.0000    96.0000 </r>
       <r>    17.9187     0.0000    96.0000 </r>
      </set>
     </set>
    </array>
   </total>
  </dos>
 </calculation>
 <structure name="finalpos" >
  <crystal>
   <varray name="basis" >
    <v>       5.70326670       0.00000000       0.00000000 </v>
    <v>       0.00000000       4.05235269       0.00000000 </v>
    <v>       0.00000000       0.00000000       6.21102462 </v>
   </varray>
   <i name="volume">    143.54701569 </i>
   <varray name="rec_basis" >
    <v>       0.17533811       0.00000000       0.00000000 </v>
    <v>       0.00000000       0.24677023       0.00000000 </v>
    <v>       0.00000000       0.00000000       0.16100403 </v>
   </varray>
  </crystal>
  <varray name="positions" >
   <v>       0.52123000       0.50000000       0.63796000 </v>
   <v>       0.47877000       0.50000000       0.36204000 </v>
   <v>       0.97877000       0.50000000       0.63796000 </v>
   <v>       0.02123000       0.50000000       0.36204000 </v>
   <v>       0.60090000       0.50000000       0.89991000 </v>
   <v>       0.39910000       0.50000000       0.10009000 </v>
   <v>       0.89910000       0.50000000       0.89991000 </v>
   <v>       0.10090000       0.50000000       0.10009000 </v>
   <v>       0.75000000       0.79171000       0.72973000 </v>
   <v>       0.25000000       0.20829000       0.27027000 </v>
   <v>       0.75000000       0.20829000       0.72973000 </v>
   <v>       0.25000000       0.79171000       0.27027000 </v>
   <v>       0.25000000       0.50000000       0.52367000 </v>
   <v>       0.75000000       0.50000000       0.47633000 </v>
  </varray>
 </structure>
</modeling>
