       N       E                     dE             d eps       ncg     rms          rms(c)
DAV:   1     0.783358743617E+02    0.78336E+02   -0.19986E+04 16800   0.862E+02
DAV:   2    -0.917366309275E+02   -0.17007E+03   -0.15939E+03 22944   0.167E+02
DAV:   3    -0.975414551361E+02   -0.58048E+01   -0.57714E+01 24840   0.274E+01
DAV:   4    -0.975757889643E+02   -0.34334E-01   -0.34332E-01 19848   0.245E+00
DAV:   5    -0.975761722006E+02   -0.38324E-03   -0.38323E-03 24792   0.246E-01    0.123E+01
DAV:   6    -0.922134950453E+02    0.53627E+01   -0.39116E+00 24312   0.655E+00    0.678E+00
DAV:   7    -0.905760115471E+02    0.16375E+01   -0.31924E+00 25152   0.583E+00    0.170E+00
DAV:   8    -0.905884958227E+02   -0.12484E-01   -0.23290E-01 18456   0.167E+00    0.703E-01
DAV:   9    -0.906026741439E+02   -0.14178E-01   -0.16826E-02 23544   0.438E-01    0.197E-01
DAV:  10    -0.906067117600E+02   -0.40376E-02   -0.20923E-03 19032   0.161E-01    0.609E-02
DAV:  11    -0.906077801442E+02   -0.10684E-02   -0.62858E-04 21792   0.870E-02    0.320E-02
DAV:  12    -0.906078947532E+02   -0.11461E-03   -0.91809E-05 20832   0.370E-02    0.427E-03
DAV:  13    -0.906078996428E+02   -0.48896E-05   -0.41163E-06 23616   0.880E-03    0.179E-03
DAV:  14    -0.906079003206E+02   -0.67782E-06   -0.28102E-07 20472   0.229E-03
   1 F= -.90607900E+02 E0= -.90606293E+02  d E =-.321559E-02
