   14   14    1    1
  0.1021318E+02  0.5700971E-09  0.4044058E-09  0.6201871E-09  0.5000000E-15
  1.000000000000000E-004
  CAR 
 PDoS                                    
     42    175     48
 
  0.5000000E-01  0.3571429E-01  0.0000000E+00  0.3174603E-02
      1        -12.691251   1.000000
      2        -11.525479   1.000000
      3         -8.654433   1.000000
      4         -8.362592   1.000000
      5         -6.039531   1.000000
      6         -5.162502   1.000000
      7         -4.704877   1.000000
      8         -4.297579   1.000000
      9         -4.000760   1.000000
     10         -3.472838   1.000000
     11         -2.551484   1.000000
     12         -2.309242   1.000000
     13         -1.782180   1.000000
     14         -1.107282   1.000000
     15         -0.080720   1.000000
     16          0.006641   1.000000
     17          0.046230   1.000000
     18          0.100576   1.000000
     19          0.676161   1.000000
     20          2.074342   0.014092
     21          2.087091   0.008774
     22          2.249868   0.000001
     23          5.549712   0.000000
     24          5.686407   0.000000
     25          5.774564   0.000000
     26          5.991265   0.000000
     27          6.752653   0.000000
     28          7.569222   0.000000
     29          7.903625   0.000000
     30          8.527199   0.000000
     31          8.901153   0.000000
     32          8.944316   0.000000
     33          9.063635   0.000000
     34         10.114162   0.000000
     35         11.233606   0.000000
     36         11.340626   0.000000
     37         11.520945   0.000000
     38         11.674314   0.000000
     39         12.000284   0.000000
     40         12.342762   0.000000
     41         12.969848   0.000000
     42         13.407261   0.000000
     43         13.433170   0.000000
     44         15.395582   0.000000
     45         15.529248   0.000000
     46         16.043918   0.000000
     47         16.315777   0.000000
     48         16.334546   0.000000
 
  0.1500000E+00  0.3571429E-01  0.0000000E+00  0.3174603E-02
      1        -12.646988   1.000000
      2        -11.601816   1.000000
      3         -8.628098   1.000000
      4         -8.351054   1.000000
      5         -5.972684   1.000000
      6         -5.502453   1.000000
      7         -4.820845   1.000000
      8         -3.978380   1.000000
      9         -3.814911   1.000000
     10         -3.140319   1.000000
     11         -2.620381   1.000000
     12         -2.289470   1.000000
     13         -1.870090   1.000000
     14         -1.413555   1.000000
     15         -0.138815   1.000000
     16          0.045839   1.000000
     17          0.061474   1.000000
     18          0.148222   1.000000
     19          0.573848   1.000000
     20          1.990273   0.157255
     21          1.994790   0.142379
     22          2.123288   0.001945
     23          5.628941   0.000000
     24          5.698928   0.000000
     25          5.835563   0.000000
     26          6.308873   0.000000
     27          6.673955   0.000000
     28          7.210986   0.000000
     29          8.123597   0.000000
     30          8.666211   0.000000
     31          9.077426   0.000000
     32          9.201017   0.000000
     33          9.208561   0.000000
     34         10.189645   0.000000
     35         10.939468   0.000000
     36         11.125633   0.000000
     37         11.308192   0.000000
     38         11.541888   0.000000
     39         12.214078   0.000000
     40         12.437160   0.000000
     41         13.078275   0.000000
     42         13.191110   0.000000
     43         13.980153   0.000000
     44         14.856709   0.000000
     45         15.723103   0.000000
     46         15.818643   0.000000
     47         16.196363   0.000000
     48         16.502396   0.000000
 
  0.2500000E+00  0.3571429E-01  0.0000000E+00  0.3174603E-02
      1        -12.560289   1.000000
      2        -11.738846   1.000000
      3         -8.575579   1.000000
      4         -8.336970   1.000000
      5         -5.959741   1.000000
      6         -5.828246   1.000000
      7         -4.768283   1.000000
      8         -3.844361   1.000000
      9         -3.309589   1.000000
     10         -2.779149   1.000000
     11         -2.654618   1.000000
     12         -2.249534   1.000000
     13         -1.992011   1.000000
     14         -1.917975   1.000000
     15         -0.355999   1.000000
     16          0.064556   1.000000
     17          0.173581   1.000000
     18          0.183429   1.000000
     19          0.472706   1.000000
     20          1.821205   0.917001
     21          1.859248   0.801549
     22          1.888250   0.668953
     23          5.660162   0.000000
     24          5.730846   0.000000
     25          6.164289   0.000000
     26          6.561475   0.000000
     27          6.764696   0.000000
     28          6.952214   0.000000
     29          8.270886   0.000000
     30          8.823587   0.000000
     31          9.014226   0.000000
     32          9.637879   0.000000
     33          9.650617   0.000000
     34         10.262211   0.000000
     35         10.442898   0.000000
     36         10.583491   0.000000
     37         11.436020   0.000000
     38         11.767547   0.000000
     39         12.390611   0.000000
     40         12.527610   0.000000
     41         12.790872   0.000000
     42         12.986094   0.000000
     43         14.611772   0.000000
     44         14.880517   0.000000
     45         15.218848   0.000000
     46         15.949921   0.000000
     47         15.957465   0.000000
     48         16.250884   0.000000
 
  0.3500000E+00  0.3571429E-01  0.0000000E+00  0.3174603E-02
      1        -12.435088   1.000000
      2        -11.912606   1.000000
      3         -8.502964   1.000000
      4         -8.336498   1.000000
      5         -6.058772   1.000000
      6         -6.054657   1.000000
      7         -4.433226   1.000000
      8         -3.673805   1.000000
      9         -2.980490   1.000000
     10         -2.919538   1.000000
     11         -2.445116   1.000000
     12         -2.180498   1.000000
     13         -2.144007   1.000000
     14         -2.103186   1.000000
     15         -0.638735   1.000000
     16         -0.208136   1.000000
     17          0.254972   1.000000
     18          0.290304   1.000000
     19          0.603363   1.000000
     20          1.536281   1.000000
     21          1.682186   0.999598
     22          1.708376   0.998563
     23          5.656156   0.000000
     24          5.785871   0.000000
     25          6.482822   0.000000
     26          6.692658   0.000000
     27          6.705443   0.000000
     28          7.403618   0.000000
     29          8.383038   0.000000
     30          8.704818   0.000000
     31          8.815186   0.000000
     32          9.511878   0.000000
     33         10.107186   0.000000
     34         10.127392   0.000000
     35         10.369670   0.000000
     36         11.073017   0.000000
     37         11.471999   0.000000
     38         11.914728   0.000000
     39         12.183341   0.000000
     40         12.345414   0.000000
     41         12.478409   0.000000
     42         13.284299   0.000000
     43         14.700003   0.000000
     44         14.936378   0.000000
     45         15.214441   0.000000
     46         15.365915   0.000000
     47         15.533513   0.000000
     48         16.379474   0.000000
 
  0.4500000E+00  0.3571429E-01  0.0000000E+00  0.3174603E-02
      1        -12.277953   1.000000
      2        -12.098923   1.000000
      3         -8.425781   1.000000
      4         -8.365300   1.000000
      5         -6.166451   1.000000
      6         -6.152452   1.000000
      7         -3.913913   1.000000
      8         -3.463274   1.000000
      9         -3.313189   1.000000
     10         -3.222044   1.000000
     11         -2.351822   1.000000
     12         -2.212684   1.000000
     13         -1.960945   1.000000
     14         -1.861132   1.000000
     15         -0.813364   1.000000
     16         -0.598881   1.000000
     17          0.335661   1.000000
     18          0.355203   1.000000
     19          0.862095   1.000000
     20          1.186622   1.000000
     21          1.580974   0.999999
     22          1.596281   0.999998
     23          5.700004   0.000000
     24          5.762361   0.000000
     25          6.486925   0.000000
     26          6.565300   0.000000
     27          7.376965   0.000000
     28          8.059924   0.000000
     29          8.112689   0.000000
     30          8.488457   0.000000
     31          8.618664   0.000000
     32          8.771685   0.000000
     33         10.509783   0.000000
     34         10.545716   0.000000
     35         10.728926   0.000000
     36         11.218112   0.000000
     37         11.453807   0.000000
     38         11.679117   0.000000
     39         11.866477   0.000000
     40         12.417889   0.000000
     41         12.723628   0.000000
     42         13.282371   0.000000
     43         14.584163   0.000000
     44         14.679832   0.000000
     45         14.814758   0.000000
     46         14.924606   0.000000
     47         16.114618   0.000000
     48         16.481974   0.000000
 
  0.5000000E-01  0.1071429E+00  0.0000000E+00  0.3174603E-02
      1        -12.666931   1.000000
      2        -11.503531   1.000000
      3         -8.635429   1.000000
      4         -8.339097   1.000000
      5         -6.012846   1.000000
      6         -5.128499   1.000000
      7         -4.683020   1.000000
      8         -4.546950   1.000000
      9         -4.201283   1.000000
     10         -3.447798   1.000000
     11         -3.247726   1.000000
     12         -1.774096   1.000000
     13         -1.102563   1.000000
     14         -0.982891   1.000000
     15         -0.308733   1.000000
     16         -0.230136   1.000000
     17          0.109051   1.000000
     18          0.114508   1.000000
     19          0.761072   1.000000
     20          1.817481   0.924761
     21          1.823124   0.912774
     22          2.299996   0.000000
     23          5.527250   0.000000
     24          5.768517   0.000000
     25          5.795788   0.000000
     26          5.930012   0.000000
     27          7.033762   0.000000
     28          7.855883   0.000000
     29          8.073805   0.000000
     30          8.220351   0.000000
     31          8.904605   0.000000
     32          9.101549   0.000000
     33          9.146392   0.000000
     34         10.566996   0.000000
     35         11.267020   0.000000
     36         11.458402   0.000000
     37         11.591423   0.000000
     38         11.655173   0.000000
     39         12.102277   0.000000
     40         12.618065   0.000000
     41         12.939467   0.000000
     42         13.145902   0.000000
     43         13.190837   0.000000
     44         15.306785   0.000000
     45         15.387566   0.000000
     46         15.854642   0.000000
     47         15.882197   0.000000
     48         16.198559   0.000000
 
  0.1500000E+00  0.1071429E+00  0.0000000E+00  0.3174603E-02
      1        -12.622761   1.000000
      2        -11.579727   1.000000
      3         -8.608943   1.000000
      4         -8.327954   1.000000
      5         -5.944145   1.000000
      6         -5.472141   1.000000
      7         -4.800966   1.000000
      8         -4.459290   1.000000
      9         -3.783681   1.000000
     10         -3.322572   1.000000
     11         -3.107464   1.000000
     12         -1.752215   1.000000
     13         -1.407856   1.000000
     14         -1.115243   1.000000
     15         -0.237139   1.000000
     16         -0.191863   1.000000
     17          0.033782   1.000000
     18          0.167238   1.000000
     19          0.652902   1.000000
     20          1.727604   0.996625
     21          1.745365   0.993009
     22          2.163065   0.000281
     23          5.630579   0.000000
     24          5.880981   0.000000
     25          5.885233   0.000000
     26          6.098314   0.000000
     27          6.957445   0.000000
     28          7.535543   0.000000
     29          8.221113   0.000000
     30          8.401562   0.000000
     31          9.147063   0.000000
     32          9.233744   0.000000
     33          9.407224   0.000000
     34         10.457486   0.000000
     35         10.854138   0.000000
     36         11.069234   0.000000
     37         11.513909   0.000000
     38         11.750283   0.000000
     39         12.320538   0.000000
     40         12.679621   0.000000
     41         12.824091   0.000000
     42         13.206573   0.000000
     43         13.714739   0.000000
     44         14.934179   0.000000
     45         15.395473   0.000000
     46         15.750123   0.000000
     47         15.793044   0.000000
     48         16.384167   0.000000
 
  0.2500000E+00  0.1071429E+00  0.0000000E+00  0.3174603E-02
      1        -12.536256   1.000000
      2        -11.716506   1.000000
      3         -8.556212   1.000000
      4         -8.314606   1.000000
      5         -5.928390   1.000000
      6         -5.797781   1.000000
      7         -4.751757   1.000000
      8         -4.349413   1.000000
      9         -3.449031   1.000000
     10         -3.259690   1.000000
     11         -2.636876   1.000000
     12         -1.911885   1.000000
     13         -1.708044   1.000000
     14         -1.288304   1.000000
     15         -0.338219   1.000000
     16         -0.150396   1.000000
     17          0.058288   1.000000
     18          0.212492   1.000000
     19          0.517228   1.000000
     20          1.576385   0.999999
     21          1.612941   0.999993
     22          1.905010   0.579258
     23          5.807591   0.000000
     24          5.992973   0.000000
     25          5.997242   0.000000
     26          6.551425   0.000000
     27          6.852221   0.000000
     28          7.306951   0.000000
     29          8.432645   0.000000
     30          8.529791   0.000000
     31          9.119660   0.000000
     32          9.672348   0.000000
     33          9.866956   0.000000
     34         10.108102   0.000000
     35         10.343880   0.000000
     36         10.730287   0.000000
     37         11.581172   0.000000
     38         12.064447   0.000000
     39         12.281000   0.000000
     40         12.558994   0.000000
     41         12.999466   0.000000
     42         13.019190   0.000000
     43         14.293124   0.000000
     44         15.035155   0.000000
     45         15.172322   0.000000
     46         15.640543   0.000000
     47         15.692809   0.000000
     48         16.381216   0.000000
 
  0.3500000E+00  0.1071429E+00  0.0000000E+00  0.3174603E-02
      1        -12.411318   1.000000
      2        -11.889912   1.000000
      3         -8.483351   1.000000
      4         -8.315065   1.000000
      5         -6.027474   1.000000
      6         -6.022156   1.000000
      7         -4.418717   1.000000
      8         -4.201167   1.000000
      9         -3.622885   1.000000
     10         -2.873088   1.000000
     11         -2.377398   1.000000
     12         -2.151615   1.000000
     13         -1.641748   1.000000
     14         -1.455682   1.000000
     15         -0.596027   1.000000
     16         -0.265580   1.000000
     17          0.160607   1.000000
     18          0.161426   1.000000
     19          0.616502   1.000000
     20          1.416476   1.000000
     21          1.465215   1.000000
     22          1.569594   1.000000
     23          5.828943   0.000000
     24          6.033593   0.000000
     25          6.518111   0.000000
     26          6.788920   0.000000
     27          6.890921   0.000000
     28          7.373944   0.000000
     29          8.433221   0.000000
     30          8.625000   0.000000
     31          8.948757   0.000000
     32          9.345811   0.000000
     33         10.070417   0.000000
     34         10.147111   0.000000
     35         10.424348   0.000000
     36         11.140546   0.000000
     37         11.385548   0.000000
     38         11.864257   0.000000
     39         12.381166   0.000000
     40         12.520436   0.000000
     41         12.679404   0.000000
     42         13.476134   0.000000
     43         14.742184   0.000000
     44         14.775050   0.000000
     45         15.116982   0.000000
     46         15.314957   0.000000
     47         15.592414   0.000000
     48         16.381597   0.000000
 
  0.4500000E+00  0.1071429E+00  0.0000000E+00  0.3174603E-02
      1        -12.254511   1.000000
      2        -12.075853   1.000000
      3         -8.405828   1.000000
      4         -8.344745   1.000000
      5         -6.134359   1.000000
      6         -6.119926   1.000000
      7         -4.020770   1.000000
      8         -3.903492   1.000000
      9         -3.817751   1.000000
     10         -3.300799   1.000000
     11         -2.124562   1.000000
     12         -1.886593   1.000000
     13         -1.563331   1.000000
     14         -1.548754   1.000000
     15         -0.776642   1.000000
     16         -0.597499   1.000000
     17          0.199667   1.000000
     18          0.219049   1.000000
     19          0.871536   1.000000
     20          1.194215   1.000000
     21          1.339465   1.000000
     22          1.353924   1.000000
     23          5.893794   0.000000
     24          5.982003   0.000000
     25          6.803671   0.000000
     26          6.865850   0.000000
     27          7.192557   0.000000
     28          7.912785   0.000000
     29          7.929354   0.000000
     30          8.605060   0.000000
     31          8.705690   0.000000
     32          8.812009   0.000000
     33         10.311901   0.000000
     34         10.596158   0.000000
     35         10.782576   0.000000
     36         10.890996   0.000000
     37         11.620163   0.000000
     38         11.744695   0.000000
     39         11.948637   0.000000
     40         12.587997   0.000000
     41         13.033381   0.000000
     42         13.511712   0.000000
     43         14.531361   0.000000
     44         14.701002   0.000000
     45         14.805809   0.000000
     46         15.048292   0.000000
     47         16.109848   0.000000
     48         16.445655   0.000000
 
  0.5000000E-01  0.1785714E+00  0.0000000E+00  0.3174603E-02
      1        -12.621986   1.000000
      2        -11.463038   1.000000
      3         -8.600625   1.000000
      4         -8.295724   1.000000
      5         -5.963514   1.000000
      6         -5.116552   1.000000
      7         -5.024033   1.000000
      8         -4.641624   1.000000
      9         -4.191894   1.000000
     10         -3.869752   1.000000
     11         -3.395919   1.000000
     12         -1.187199   1.000000
     13         -1.092589   1.000000
     14         -0.672444   1.000000
     15         -0.466855   1.000000
     16         -0.118561   1.000000
     17          0.135731   1.000000
     18          0.150902   1.000000
     19          0.846168   1.000000
     20          1.423751   1.000000
     21          1.430539   1.000000
     22          2.335383   0.000000
     23          5.269166   0.000000
     24          5.442118   0.000000
     25          6.121815   0.000000
     26          6.203302   0.000000
     27          7.463152   0.000000
     28          7.624332   0.000000
     29          8.339841   0.000000
     30          8.794227   0.000000
     31          8.947448   0.000000
     32          9.236301   0.000000
     33          9.359389   0.000000
     34         10.882353   0.000000
     35         11.302786   0.000000
     36         11.574468   0.000000
     37         11.773497   0.000000
     38         11.879752   0.000000
     39         12.304149   0.000000
     40         12.716372   0.000000
     41         12.740623   0.000000
     42         13.082042   0.000000
     43         13.153019   0.000000
     44         14.698206   0.000000
     45         15.183983   0.000000
     46         15.351467   0.000000
     47         15.433190   0.000000
     48         15.947531   0.000000
 
  0.1500000E+00  0.1785714E+00  0.0000000E+00  0.3174603E-02
      1        -12.577995   1.000000
      2        -11.538968   1.000000
      3         -8.573827   1.000000
      4         -8.285310   1.000000
      5         -5.891269   1.000000
      6         -5.421432   1.000000
      7         -5.006612   1.000000
      8         -4.763554   1.000000
      9         -3.936938   1.000000
     10         -3.743908   1.000000
     11         -3.063092   1.000000
     12         -1.399190   1.000000
     13         -1.160814   1.000000
     14         -0.769792   1.000000
     15         -0.428412   1.000000
     16         -0.054293   1.000000
     17          0.042353   1.000000
     18          0.190774   1.000000
     19          0.728321   1.000000
     20          1.342136   1.000000
     21          1.353431   1.000000
     22          2.193833   0.000051
     23          5.358408   0.000000
     24          5.783618   0.000000
     25          6.073861   0.000000
     26          6.308542   0.000000
     27          7.390548   0.000000
     28          7.781468   0.000000
     29          8.079090   0.000000
     30          8.878242   0.000000
     31          9.261248   0.000000
     32          9.339868   0.000000
     33          9.638901   0.000000
     34         10.503612   0.000000
     35         10.774682   0.000000
     36         11.192577   0.000000
     37         11.787406   0.000000
     38         12.137103   0.000000
     39         12.412208   0.000000
     40         12.521220   0.000000
     41         13.189871   0.000000
     42         13.203266   0.000000
     43         13.448018   0.000000
     44         14.713673   0.000000
     45         14.814888   0.000000
     46         15.302212   0.000000
     47         15.496638   0.000000
     48         15.966447   0.000000
 
  0.2500000E+00  0.1785714E+00  0.0000000E+00  0.3174603E-02
      1        -12.491832   1.000000
      2        -11.675255   1.000000
      3         -8.520672   1.000000
      4         -8.273356   1.000000
      5         -5.870009   1.000000
      6         -5.742489   1.000000
      7         -4.912032   1.000000
      8         -4.720903   1.000000
      9         -4.062434   1.000000
     10         -3.211652   1.000000
     11         -2.591449   1.000000
     12         -1.895952   1.000000
     13         -1.120686   1.000000
     14         -0.902094   1.000000
     15         -0.375466   1.000000
     16         -0.206978   1.000000
     17          0.065830   1.000000
     18          0.247080   1.000000
     19          0.561963   1.000000
     20          1.194281   1.000000
     21          1.233847   1.000000
     22          1.928082   0.449752
     23          5.686528   0.000000
     24          6.038893   0.000000
     25          6.257735   0.000000
     26          6.414599   0.000000
     27          7.308899   0.000000
     28          7.889021   0.000000
     29          8.018807   0.000000
     30          8.993133   0.000000
     31          9.263267   0.000000
     32          9.768266   0.000000
     33          9.824973   0.000000
     34         10.114012   0.000000
     35         10.280300   0.000000
     36         10.948340   0.000000
     37         11.610444   0.000000
     38         12.128349   0.000000
     39         12.513906   0.000000
     40         12.812434   0.000000
     41         13.086407   0.000000
     42         13.397110   0.000000
     43         13.962644   0.000000
     44         14.622915   0.000000
     45         14.833735   0.000000
     46         15.312249   0.000000
     47         15.521801   0.000000
     48         16.188387   0.000000
 
  0.3500000E+00  0.1785714E+00  0.0000000E+00  0.3174603E-02
      1        -12.367394   1.000000
      2        -11.848025   1.000000
      3         -8.447363   1.000000
      4         -8.275608   1.000000
      5         -5.969666   1.000000
      6         -5.961593   1.000000
      7         -4.774722   1.000000
      8         -4.391971   1.000000
      9         -4.229220   1.000000
     10         -2.835003   1.000000
     11         -2.339119   1.000000
     12         -2.110256   1.000000
     13         -1.063366   1.000000
     14         -1.035377   1.000000
     15         -0.476137   1.000000
     16         -0.393196   1.000000
     17          0.123916   1.000000
     18          0.128636   1.000000
     19          0.635627   1.000000
     20          1.043843   1.000000
     21          1.099406   1.000000
     22          1.582535   0.999999
     23          6.062566   0.000000
     24          6.224198   0.000000
     25          6.408448   0.000000
     26          6.785996   0.000000
     27          7.285584   0.000000
     28          7.807041   0.000000
     29          8.081339   0.000000
     30          9.076740   0.000000
     31          9.088765   0.000000
     32          9.181173   0.000000
     33          9.880927   0.000000
     34         10.228760   0.000000
     35         10.693305   0.000000
     36         11.067168   0.000000
     37         11.232880   0.000000
     38         12.015338   0.000000
     39         12.439401   0.000000
     40         12.983162   0.000000
     41         12.999902   0.000000
     42         13.786495   0.000000
     43         14.395934   0.000000
     44         14.400679   0.000000
     45         15.029514   0.000000
     46         15.120757   0.000000
     47         15.583811   0.000000
     48         16.373972   0.000000
 
  0.4500000E+00  0.1785714E+00  0.0000000E+00  0.3174603E-02
      1        -12.211209   1.000000
      2        -12.033250   1.000000
      3         -8.369179   1.000000
      4         -8.306963   1.000000
      5         -6.074756   1.000000
      6         -6.059359   1.000000
      7         -4.605383   1.000000
      8         -4.417881   1.000000
      9         -3.875069   1.000000
     10         -3.278184   1.000000
     11         -2.058235   1.000000
     12         -1.840520   1.000000
     13         -1.077466   1.000000
     14         -1.007612   1.000000
     15         -0.691731   1.000000
     16         -0.622953   1.000000
     17          0.089271   1.000000
     18          0.133710   1.000000
     19          0.887976   1.000000
     20          0.963135   1.000000
     21          0.993603   1.000000
     22          1.218806   1.000000
     23          6.161977   0.000000
     24          6.296920   0.000000
     25          6.888454   0.000000
     26          7.208615   0.000000
     27          7.286548   0.000000
     28          7.627431   0.000000
     29          7.937951   0.000000
     30          8.427441   0.000000
     31          9.120586   0.000000
     32          9.147393   0.000000
     33          9.995080   0.000000
     34         10.469779   0.000000
     35         10.723616   0.000000
     36         10.955477   0.000000
     37         11.807050   0.000000
     38         11.841501   0.000000
     39         12.072281   0.000000
     40         12.847332   0.000000
     41         13.431580   0.000000
     42         13.783101   0.000000
     43         14.238540   0.000000
     44         14.379690   0.000000
     45         14.990556   0.000000
     46         15.145096   0.000000
     47         15.959883   0.000000
     48         16.302653   0.000000
 
  0.5000000E-01  0.2500000E+00  0.0000000E+00  0.3174603E-02
      1        -12.563725   1.000000
      2        -11.410695   1.000000
      3         -8.556141   1.000000
      4         -8.239553   1.000000
      5         -5.899477   1.000000
      6         -5.586261   1.000000
      7         -4.968426   1.000000
      8         -4.585878   1.000000
      9         -4.393682   1.000000
     10         -4.154104   1.000000
     11         -3.330848   1.000000
     12         -1.183004   1.000000
     13         -1.077204   1.000000
     14         -1.024260   1.000000
     15         -0.142478   1.000000
     16          0.166151   1.000000
     17          0.187771   1.000000
     18          0.673109   1.000000
     19          0.912790   1.000000
     20          0.990079   1.000000
     21          1.025668   1.000000
     22          2.368376   0.000000
     23          4.955570   0.000000
     24          5.114008   0.000000
     25          6.287497   0.000000
     26          6.654424   0.000000
     27          7.272945   0.000000
     28          7.890084   0.000000
     29          8.798214   0.000000
     30          9.077193   0.000000
     31          9.431446   0.000000
     32          9.613789   0.000000
     33          9.632493   0.000000
     34         10.744886   0.000000
     35         11.269371   0.000000
     36         11.969426   0.000000
     37         12.091236   0.000000
     38         12.146431   0.000000
     39         12.394278   0.000000
     40         12.475061   0.000000
     41         12.569366   0.000000
     42         13.035136   0.000000
     43         13.775896   0.000000
     44         13.845959   0.000000
     45         14.467992   0.000000
     46         15.076862   0.000000
     47         15.413096   0.000000
     48         15.856937   0.000000
 
  0.1500000E+00  0.2500000E+00  0.0000000E+00  0.3174603E-02
      1        -12.519971   1.000000
      2        -11.486280   1.000000
      3         -8.528941   1.000000
      4         -8.230141   1.000000
      5         -5.822443   1.000000
      6         -5.555080   1.000000
      7         -5.301075   1.000000
      8         -4.713926   1.000000