       N       E                     dE             d eps       ncg     rms          rms(c)
DAV:   1     0.867812778687E+02    0.86781E+02   -0.20731E+04 16800   0.907E+02
DAV:   2    -0.914591852985E+02   -0.17824E+03   -0.16689E+03 22848   0.173E+02
DAV:   3    -0.976116394765E+02   -0.61525E+01   -0.61137E+01 24912   0.285E+01
DAV:   4    -0.976481416468E+02   -0.36502E-01   -0.36500E-01 19584   0.254E+00
DAV:   5    -0.976485424158E+02   -0.40077E-03   -0.40076E-03 24984   0.254E-01    0.123E+01
DAV:   6    -0.922327756665E+02    0.54158E+01   -0.39477E+00 24312   0.659E+00    0.680E+00
DAV:   7    -0.905812279883E+02    0.16515E+01   -0.32194E+00 25104   0.586E+00    0.171E+00
DAV:   8    -0.905936316783E+02   -0.12404E-01   -0.23494E-01 18504   0.168E+00    0.705E-01
DAV:   9    -0.906077962617E+02   -0.14165E-01   -0.16923E-02 23400   0.440E-01    0.198E-01
DAV:  10    -0.906118457607E+02   -0.40495E-02   -0.20987E-03 19056   0.162E-01    0.610E-02
DAV:  11    -0.906129154082E+02   -0.10696E-02   -0.62917E-04 21624   0.874E-02    0.321E-02
DAV:  12    -0.906130315611E+02   -0.11615E-03   -0.93454E-05 20592   0.374E-02    0.429E-03
DAV:  13    -0.906130364341E+02   -0.48731E-05   -0.41266E-06 23424   0.889E-03    0.182E-03
DAV:  14    -0.906130371217E+02   -0.68756E-06   -0.28941E-07 20496   0.233E-03
   1 F= -.90613037E+02 E0= -.90611430E+02  d E =-.321362E-02
