 running   24 mpi-ranks, with    1 threads/rank, on    1 nodes
 distrk:  each k-point on   24 cores,    1 groups
 distr:  one band on    1 cores,   24 groups
 vasp.6.4.3 19Mar24 (build May 31 2024 16:31:43) complex                        
  
 POSCAR found type information on POSCAR B 
 POSCAR found :  1 types and       1 ions
 Reading from existing POTCAR
 scaLAPACK will be used
 Reading from existing POTCAR
 LDA part: xc-table for (Slater+PW92), standard interpolation
 POSCAR, INCAR and KPOINTS ok, starting setup
 FFT: planning ... GRIDC
 FFT: planning ... GRID_SOFT
 FFT: planning ... GRID
 WAVECAR not read
 entering main loop
       N       E                     dE             d eps       ncg     rms          rms(c)
DAV:   1     0.806670340870E+01    0.80667E+01   -0.34695E+02  8400   0.398E+01
DAV:   2     0.112989317648E+00   -0.79537E+01   -0.79263E+01 16320   0.579E+00
DAV:   3    -0.547351806511E-01   -0.16772E+00   -0.14500E+00  8640   0.148E+00
DAV:   4    -0.582134842269E-01   -0.34783E-02   -0.32777E-02  9432   0.180E-01
DAV:   5    -0.582522519668E-01   -0.38768E-04   -0.38749E-04 12912   0.215E-02    0.848E-03
DAV:   6    -0.582524889258E-01   -0.23696E-06   -0.29492E-06 11016   0.339E-03
   1 F= -.58252489E-01 E0= -.31751820E-01  d E =-.530013E-01
