 running   24 mpi-ranks, with    1 threads/rank, on    1 nodes
 distrk:  each k-point on   24 cores,    1 groups
 distr:  one band on    1 cores,   24 groups
 vasp.6.4.3 19Mar24 (build May 31 2024 16:31:43) complex                        
  
 POSCAR found type information on POSCAR B 
 POSCAR found :  1 types and       1 ions
 Reading from existing POTCAR
 scaLAPACK will be used
 Reading from existing POTCAR
 LDA part: xc-table for (Slater+PW92), standard interpolation
 POSCAR, INCAR and KPOINTS ok, starting setup
 FFT: planning ... GRIDC
 FFT: planning ... GRID_SOFT
 FFT: planning ... GRID
 WAVECAR not read
 entering main loop
       N       E                     dE             d eps       ncg     rms          rms(c)
DAV:   1     0.799452380401E+01    0.79945E+01   -0.34748E+02  8400   0.400E+01
DAV:   2     0.104359612132E+00   -0.78902E+01   -0.78641E+01 16512   0.576E+00
DAV:   3    -0.548510745118E-01   -0.15921E+00   -0.13702E+00  8544   0.145E+00
DAV:   4    -0.582130829192E-01   -0.33620E-02   -0.31928E-02  9504   0.178E-01
DAV:   5    -0.582522040810E-01   -0.39121E-04   -0.39103E-04 13464   0.218E-02    0.848E-03
DAV:   6    -0.582531367721E-01   -0.93269E-06   -0.26124E-06 10944   0.292E-03
   1 F= -.58253137E-01 E0= -.31752466E-01  d E =-.530013E-01
