<?xml version="1.0" encoding="ISO-8859-1"?>
<modeling>
 <generator>
  <i name="program" type="string">vasp </i>
  <i name="version" type="string">6.4.3  </i>
  <i name="subversion" type="string">19Mar24 (build May 31 2024 16:31:43) complex                          parallel </i>
  <i name="platform" type="string">LinuxIFC </i>
  <i name="date" type="string">2024 11 05 </i>
  <i name="time" type="string">22:41:58 </i>
 </generator>
 <incar>
  <i type="string" name="SYSTEM">Convergence</i>
  <i type="int" name="ISTART">     0</i>
  <i type="string" name="PREC">Accurate</i>
  <i type="string" name="ALGO">Normal</i>
  <i type="int" name="ISPIN">     1</i>
  <i type="int" name="ICHARG">     2</i>
  <i type="int" name="NELM">   100</i>
  <i type="int" name="IBRION">    -1</i>
  <i name="EDIFF">      0.00000100</i>
  <i name="EDIFFG">     -0.00100000</i>
  <i type="int" name="NSW">     0</i>
  <i type="int" name="ISIF">     2</i>
  <i name="ENCUT">    600.00000000</i>
  <i name="POTIM">      0.50000000</i>
  <i type="int" name="ISMEAR">     0</i>
  <i name="SIGMA">      0.05000000</i>
  <i type="logical" name="LWAVE"> F  </i>
  <i type="logical" name="LCHARG"> F  </i>
  <i type="string" name="GGA">PE</i>
 </incar>
 <primitive_cell>
  <structure name="primitive_cell" >
   <crystal>
    <varray name="basis" >
     <v>      15.02250000       0.00000000       0.00000000 </v>
     <v>       0.00000000      12.51875000       0.00000000 </v>
     <v>       0.00000000       0.00000000      18.02700000 </v>
    </varray>
    <i name="volume">   3390.21029264 </i>
    <varray name="rec_basis" >
     <v>       0.06656682       0.00000000       0.00000000 </v>
     <v>       0.00000000       0.07988018       0.00000000 </v>
     <v>       0.00000000       0.00000000       0.05547235 </v>
    </varray>
   </crystal>
   <varray name="positions" >
    <v>       0.52123000       0.54500000       0.63796000 </v>
   </varray>
  </structure>
  <varray name="primitive_index" >
   <v type="int" >        1 </v>
  </varray>
 </primitive_cell>
 <kpoints>
  <generation param="Monkhorst-Pack">
   <v type="int" name="divisions">      10       14        9 </v>
   <v name="usershift">      0.00000000       0.00000000       0.00000000 </v>
   <v name="genvec1">      0.10000000       0.00000000       0.00000000 </v>
   <v name="genvec2">      0.00000000       0.07142857       0.00000000 </v>
   <v name="genvec3">      0.00000000       0.00000000       0.11111111 </v>
   <v name="shift">      0.50000000       0.50000000       0.00000000 </v>
  </generation>
  <varray name="kpointlist" >
   <v>       0.05000000       0.03571429       0.00000000 </v>
   <v>       0.15000000       0.03571429       0.00000000 </v>
   <v>       0.25000000       0.03571429       0.00000000 </v>
   <v>       0.35000000       0.03571429       0.00000000 </v>
   <v>       0.45000000       0.03571429       0.00000000 </v>
   <v>       0.05000000       0.10714286       0.00000000 </v>
   <v>       0.15000000       0.10714286       0.00000000 </v>
   <v>       0.25000000       0.10714286       0.00000000 </v>
   <v>       0.35000000       0.10714286       0.00000000 </v>
   <v>       0.45000000       0.10714286       0.00000000 </v>
   <v>       0.05000000       0.17857143       0.00000000 </v>
   <v>       0.15000000       0.17857143       0.00000000 </v>
   <v>       0.25000000       0.17857143       0.00000000 </v>
   <v>       0.35000000       0.17857143       0.00000000 </v>
   <v>       0.45000000       0.17857143       0.00000000 </v>
   <v>       0.05000000       0.25000000       0.00000000 </v>
   <v>       0.15000000       0.25000000       0.00000000 </v>
   <v>       0.25000000       0.25000000       0.00000000 </v>
   <v>       0.35000000       0.25000000       0.00000000 </v>
   <v>       0.45000000       0.25000000       0.00000000 </v>
   <v>       0.05000000       0.32142857       0.00000000 </v>
   <v>       0.15000000       0.32142857       0.00000000 </v>
   <v>       0.25000000       0.32142857       0.00000000 </v>
   <v>       0.35000000       0.32142857       0.00000000 </v>
   <v>       0.45000000       0.32142857       0.00000000 </v>
   <v>       0.05000000       0.39285714       0.00000000 </v>
   <v>       0.15000000       0.39285714       0.00000000 </v>
   <v>       0.25000000       0.39285714       0.00000000 </v>
   <v>       0.35000000       0.39285714       0.00000000 </v>
   <v>       0.45000000       0.39285714       0.00000000 </v>
   <v>       0.05000000       0.46428571       0.00000000 </v>
   <v>       0.15000000       0.46428571       0.00000000 </v>
   <v>       0.25000000       0.46428571       0.00000000 </v>
   <v>       0.35000000       0.46428571       0.00000000 </v>
   <v>       0.45000000       0.46428571       0.00000000 </v>
   <v>       0.05000000       0.03571429       0.11111111 </v>
   <v>       0.15000000       0.03571429       0.11111111 </v>
   <v>       0.25000000       0.03571429       0.11111111 </v>
   <v>       0.35000000       0.03571429       0.11111111 </v>
   <v>       0.45000000       0.03571429       0.11111111 </v>
   <v>       0.05000000       0.10714286       0.11111111 </v>
   <v>       0.15000000       0.10714286       0.11111111 </v>
   <v>       0.25000000       0.10714286       0.11111111 </v>
   <v>       0.35000000       0.10714286       0.11111111 </v>
   <v>       0.45000000       0.10714286       0.11111111 </v>
   <v>       0.05000000       0.17857143       0.11111111 </v>
   <v>       0.15000000       0.17857143       0.11111111 </v>
   <v>       0.25000000       0.17857143       0.11111111 </v>
   <v>       0.35000000       0.17857143       0.11111111 </v>
   <v>       0.45000000       0.17857143       0.11111111 </v>
   <v>       0.05000000       0.25000000       0.11111111 </v>
   <v>       0.15000000       0.25000000       0.11111111 </v>
   <v>       0.25000000       0.25000000       0.11111111 </v>
   <v>       0.35000000       0.25000000       0.11111111 </v>
   <v>       0.45000000       0.25000000       0.11111111 </v>
   <v>       0.05000000       0.32142857       0.11111111 </v>
   <v>       0.15000000       0.32142857       0.11111111 </v>
   <v>       0.25000000       0.32142857       0.11111111 </v>
   <v>       0.35000000       0.32142857       0.11111111 </v>
   <v>       0.45000000       0.32142857       0.11111111 </v>
   <v>       0.05000000       0.39285714       0.11111111 </v>
   <v>       0.15000000       0.39285714       0.11111111 </v>
   <v>       0.25000000       0.39285714       0.11111111 </v>
   <v>       0.35000000       0.39285714       0.11111111 </v>
   <v>       0.45000000       0.39285714       0.11111111 </v>
   <v>       0.05000000       0.46428571       0.11111111 </v>
   <v>       0.15000000       0.46428571       0.11111111 </v>
   <v>       0.25000000       0.46428571       0.11111111 </v>
   <v>       0.35000000       0.46428571       0.11111111 </v>
   <v>       0.45000000       0.46428571       0.11111111 </v>
   <v>       0.05000000       0.03571429       0.22222222 </v>
   <v>       0.15000000       0.03571429       0.22222222 </v>
   <v>       0.25000000       0.03571429       0.22222222 </v>
   <v>       0.35000000       0.03571429       0.22222222 </v>
   <v>       0.45000000       0.03571429       0.22222222 </v>
   <v>       0.05000000       0.10714286       0.22222222 </v>
   <v>       0.15000000       0.10714286       0.22222222 </v>
   <v>       0.25000000       0.10714286       0.22222222 </v>
   <v>       0.35000000       0.10714286       0.22222222 </v>
   <v>       0.45000000       0.10714286       0.22222222 </v>
   <v>       0.05000000       0.17857143       0.22222222 </v>
   <v>       0.15000000       0.17857143       0.22222222 </v>
   <v>       0.25000000       0.17857143       0.22222222 </v>
   <v>       0.35000000       0.17857143       0.22222222 </v>
   <v>       0.45000000       0.17857143       0.22222222 </v>
   <v>       0.05000000       0.25000000       0.22222222 </v>
   <v>       0.15000000       0.25000000       0.22222222 </v>
   <v>       0.25000000       0.25000000       0.22222222 </v>
   <v>       0.35000000       0.25000000       0.22222222 </v>
   <v>       0.45000000       0.25000000       0.22222222 </v>
   <v>       0.05000000       0.32142857       0.22222222 </v>
   <v>       0.15000000       0.32142857       0.22222222 </v>
   <v>       0.25000000       0.32142857       0.22222222 </v>
   <v>       0.35000000       0.32142857       0.22222222 </v>
   <v>       0.45000000       0.32142857       0.22222222 </v>
   <v>       0.05000000       0.39285714       0.22222222 </v>
   <v>       0.15000000       0.39285714       0.22222222 </v>
   <v>       0.25000000       0.39285714       0.22222222 </v>
   <v>       0.35000000       0.39285714       0.22222222 </v>
   <v>       0.45000000       0.39285714       0.22222222 </v>
   <v>       0.05000000       0.46428571       0.22222222 </v>
   <v>       0.15000000       0.46428571       0.22222222 </v>
   <v>       0.25000000       0.46428571       0.22222222 </v>
   <v>       0.35000000       0.46428571       0.22222222 </v>
   <v>       0.45000000       0.46428571       0.22222222 </v>
   <v>       0.05000000       0.03571429       0.33333333 </v>
   <v>       0.15000000       0.03571429       0.33333333 </v>
   <v>       0.25000000       0.03571429       0.33333333 </v>
   <v>       0.35000000       0.03571429       0.33333333 </v>
   <v>       0.45000000       0.03571429       0.33333333 </v>
   <v>       0.05000000       0.10714286       0.33333333 </v>
   <v>       0.15000000       0.10714286       0.33333333 </v>
   <v>       0.25000000       0.10714286       0.33333333 </v>
   <v>       0.35000000       0.10714286       0.33333333 </v>
   <v>       0.45000000       0.10714286       0.33333333 </v>
   <v>       0.05000000       0.17857143       0.33333333 </v>
   <v>       0.15000000       0.17857143       0.33333333 </v>
   <v>       0.25000000       0.17857143       0.33333333 </v>
   <v>       0.35000000       0.17857143       0.33333333 </v>
   <v>       0.45000000       0.17857143       0.33333333 </v>
   <v>       0.05000000       0.25000000       0.33333333 </v>
   <v>       0.15000000       0.25000000       0.33333333 </v>
   <v>       0.25000000       0.25000000       0.33333333 </v>
   <v>       0.35000000       0.25000000       0.33333333 </v>
   <v>       0.45000000       0.25000000       0.33333333 </v>
   <v>       0.05000000       0.32142857       0.33333333 </v>
   <v>       0.15000000       0.32142857       0.33333333 </v>
   <v>       0.25000000       0.32142857       0.33333333 </v>
   <v>       0.35000000       0.32142857       0.33333333 </v>
   <v>       0.45000000       0.32142857       0.33333333 </v>
   <v>       0.05000000       0.39285714       0.33333333 </v>
   <v>       0.15000000       0.39285714       0.33333333 </v>
   <v>       0.25000000       0.39285714       0.33333333 </v>
   <v>       0.35000000       0.39285714       0.33333333 </v>
   <v>       0.45000000       0.39285714       0.33333333 </v>
   <v>       0.05000000       0.46428571       0.33333333 </v>
   <v>       0.15000000       0.46428571       0.33333333 </v>
   <v>       0.25000000       0.46428571       0.33333333 </v>
   <v>       0.35000000       0.46428571       0.33333333 </v>
   <v>       0.45000000       0.46428571       0.33333333 </v>
   <v>       0.05000000       0.03571429       0.44444444 </v>
   <v>       0.15000000       0.03571429       0.44444444 </v>
   <v>       0.25000000       0.03571429       0.44444444 </v>
   <v>       0.35000000       0.03571429       0.44444444 </v>
   <v>       0.45000000       0.03571429       0.44444444 </v>
   <v>       0.05000000       0.10714286       0.44444444 </v>
   <v>       0.15000000       0.10714286       0.44444444 </v>
   <v>       0.25000000       0.10714286       0.44444444 </v>
   <v>       0.35000000       0.10714286       0.44444444 </v>
   <v>       0.45000000       0.10714286       0.44444444 </v>
   <v>       0.05000000       0.17857143       0.44444444 </v>
   <v>       0.15000000       0.17857143       0.44444444 </v>
   <v>       0.25000000       0.17857143       0.44444444 </v>
   <v>       0.35000000       0.17857143       0.44444444 </v>
   <v>       0.45000000       0.17857143       0.44444444 </v>
   <v>       0.05000000       0.25000000       0.44444444 </v>
   <v>       0.15000000       0.25000000       0.44444444 </v>
   <v>       0.25000000       0.25000000       0.44444444 </v>
   <v>       0.35000000       0.25000000       0.44444444 </v>
   <v>       0.45000000       0.25000000       0.44444444 </v>
   <v>       0.05000000       0.32142857       0.44444444 </v>
   <v>       0.15000000       0.32142857       0.44444444 </v>
   <v>       0.25000000       0.32142857       0.44444444 </v>
   <v>       0.35000000       0.32142857       0.44444444 </v>
   <v>       0.45000000       0.32142857       0.44444444 </v>
   <v>       0.05000000       0.39285714       0.44444444 </v>
   <v>       0.15000000       0.39285714       0.44444444 </v>
   <v>       0.25000000       0.39285714       0.44444444 </v>
   <v>       0.35000000       0.39285714       0.44444444 </v>
   <v>       0.45000000       0.39285714       0.44444444 </v>
   <v>       0.05000000       0.46428571       0.44444444 </v>
   <v>       0.15000000       0.46428571       0.44444444 </v>
   <v>       0.25000000       0.46428571       0.44444444 </v>
   <v>       0.35000000       0.46428571       0.44444444 </v>
   <v>       0.45000000       0.46428571       0.44444444 </v>
  </varray>
  <varray name="weights" >
   <v>       0.00317460 </v>
   <v>       0.00317460 </v>
   <v>       0.00317460 </v>
   <v>       0.00317460 </v>
   <v>       0.00317460 </v>
   <v>       0.00317460 </v>
   <v>       0.00317460 </v>
   <v>       0.00317460 </v>
   <v>       0.00317460 </v>
   <v>       0.00317460 </v>
   <v>       0.00317460 </v>
   <v>       0.00317460 </v>
   <v>       0.00317460 </v>
   <v>       0.00317460 </v>
   <v>       0.00317460 </v>
   <v>       0.00317460 </v>
   <v>       0.00317460 </v>
   <v>       0.00317460 </v>
   <v>       0.00317460 </v>
   <v>       0.00317460 </v>
   <v>       0.00317460 </v>
   <v>       0.00317460 </v>
   <v>       0.00317460 </v>
   <v>       0.00317460 </v>
   <v>       0.00317460 </v>
   <v>       0.00317460 </v>
   <v>       0.00317460 </v>
   <v>       0.00317460 </v>
   <v>       0.00317460 </v>
   <v>       0.00317460 </v>
   <v>       0.00317460 </v>
   <v>       0.00317460 </v>
   <v>       0.00317460 </v>
   <v>       0.00317460 </v>
   <v>       0.00317460 </v>
   <v>       0.00634921 </v>
   <v>       0.00634921 </v>
   <v>       0.00634921 </v>
   <v>       0.00634921 </v>
   <v>       0.00634921 </v>
   <v>       0.00634921 </v>
   <v>       0.00634921 </v>
   <v>       0.00634921 </v>
   <v>       0.00634921 </v>
   <v>       0.00634921 </v>
   <v>       0.00634921 </v>
   <v>       0.00634921 </v>
   <v>       0.00634921 </v>
   <v>       0.00634921 </v>
   <v>       0.00634921 </v>
   <v>       0.00634921 </v>
   <v>       0.00634921 </v>
   <v>       0.00634921 </v>
   <v>       0.00634921 </v>
   <v>       0.00634921 </v>
   <v>       0.00634921 </v>
   <v>       0.00634921 </v>
   <v>       0.00634921 </v>
   <v>       0.00634921 </v>
   <v>       0.00634921 </v>
   <v>       0.00634921 </v>
   <v>       0.00634921 </v>
   <v>       0.00634921 </v>
   <v>       0.00634921 </v>
   <v>       0.00634921 </v>
   <v>       0.00634921 </v>
   <v>       0.00634921 </v>
   <v>       0.00634921 </v>
   <v>       0.00634921 </v>
   <v>       0.00634921 </v>
   <v>       0.00634921 </v>
   <v>       0.00634921 </v>
   <v>       0.00634921 </v>
   <v>       0.00634921 </v>
   <v>       0.00634921 </v>
   <v>       0.00634921 </v>
   <v>       0.00634921 </v>
   <v>       0.00634921 </v>
   <v>       0.00634921 </v>
   <v>       0.00634921 </v>
   <v>       0.00634921 </v>
   <v>       0.00634921 </v>
   <v>       0.00634921 </v>
   <v>       0.00634921 </v>
   <v>       0.00634921 </v>
   <v>       0.00634921 </v>
   <v>       0.00634921 </v>
   <v>       0.00634921 </v>
   <v>       0.00634921 </v>
   <v>       0.00634921 </v>
   <v>       0.00634921 </v>
   <v>       0.00634921 </v>
   <v>       0.00634921 </v>
   <v>       0.00634921 </v>
   <v>       0.00634921 </v>
   <v>       0.00634921 </v>
   <v>       0.00634921 </v>
   <v>       0.00634921 </v>
   <v>       0.00634921 </v>
   <v>       0.00634921 </v>
   <v>       0.00634921 </v>
   <v>       0.00634921 </v>
   <v>       0.00634921 </v>
   <v>       0.00634921 </v>
   <v>       0.00634921 </v>
   <v>       0.00634921 </v>
   <v>       0.00634921 </v>
   <v>       0.00634921 </v>
   <v>       0.00634921 </v>
   <v>       0.00634921 </v>
   <v>       0.00634921 </v>
   <v>       0.00634921 </v>
   <v>       0.00634921 </v>
   <v>       0.00634921 </v>
   <v>       0.00634921 </v>
   <v>       0.00634921 </v>
   <v>       0.00634921 </v>
   <v>       0.00634921 </v>
   <v>       0.00634921 </v>
   <v>       0.00634921 </v>
   <v>       0.00634921 </v>
   <v>       0.00634921 </v>
   <v>       0.00634921 </v>
   <v>       0.00634921 </v>
   <v>       0.00634921 </v>
   <v>       0.00634921 </v>
   <v>       0.00634921 </v>
   <v>       0.00634921 </v>
   <v>       0.00634921 </v>
   <v>       0.00634921 </v>
   <v>       0.00634921 </v>
   <v>       0.00634921 </v>
   <v>       0.00634921 </v>
   <v>       0.00634921 </v>
   <v>       0.00634921 </v>
   <v>       0.00634921 </v>
   <v>       0.00634921 </v>
   <v>       0.00634921 </v>
   <v>       0.00634921 </v>
   <v>       0.00634921 </v>
   <v>       0.00634921 </v>
   <v>       0.00634921 </v>
   <v>       0.00634921 </v>
   <v>       0.00634921 </v>
   <v>       0.00634921 </v>
   <v>       0.00634921 </v>
   <v>       0.00634921 </v>
   <v>       0.00634921 </v>
   <v>       0.00634921 </v>
   <v>       0.00634921 </v>
   <v>       0.00634921 </v>
   <v>       0.00634921 </v>
   <v>       0.00634921 </v>
   <v>       0.00634921 </v>
   <v>       0.00634921 </v>
   <v>       0.00634921 </v>
   <v>       0.00634921 </v>
   <v>       0.00634921 </v>
   <v>       0.00634921 </v>
   <v>       0.00634921 </v>
   <v>       0.00634921 </v>
   <v>       0.00634921 </v>
   <v>       0.00634921 </v>
   <v>       0.00634921 </v>
   <v>       0.00634921 </v>
   <v>       0.00634921 </v>
   <v>       0.00634921 </v>
   <v>       0.00634921 </v>
   <v>       0.00634921 </v>
   <v>       0.00634921 </v>
   <v>       0.00634921 </v>
   <v>       0.00634921 </v>
   <v>       0.00634921 </v>
   <v>       0.00634921 </v>
   <v>       0.00634921 </v>
  </varray>
 </kpoints>
 <parameters>
  <separator name="general" >
   <i type="string" name="SYSTEM">Convergence</i>
   <i type="logical" name="LCOMPAT"> F  </i>
  </separator>
  <separator name="electronic" >
   <i type="string" name="PREC">accura</i>
   <i name="ENMAX">    600.00000000</i>
   <i name="ENAUG">    535.51400000</i>
   <i name="EDIFF">      0.00000100</i>
   <i type="int" name="IALGO">    38</i>
   <i type="int" name="IWAVPR">    10</i>
   <i type="int" name="NBANDS">    24</i>
   <i type="int" name="NBANDSLOW">    -1</i>
   <i type="int" name="NBANDSHIGH">    -1</i>
   <i name="NELECT">      3.00000000</i>
   <i type="int" name="TURBO">     0</i>
   <i type="int" name="IRESTART">     0</i>
   <i type="int" name="NREBOOT">     0</i>
   <i type="int" name="NMIN">     0</i>
   <i name="EREF">      0.00000000</i>
   <separator name="electronic smearing" >
    <i type="int" name="ISMEAR">     0</i>
    <i name="SIGMA">      0.05000000</i>
    <i name="KSPACING">      0.50000000</i>
    <i type="logical" name="KGAMMA"> T  </i>
    <i type="logical" name="KBLOWUP"> T  </i>
   </separator>
   <separator name="electronic projectors" >
    <i type="logical" name="LREAL"> F  </i>
    <v name="ROPT">      0.00000000</v>
    <i type="int" name="LMAXPAW">  -100</i>
    <i type="int" name="LMAXMIX">     2</i>
    <i type="logical" name="NLSPLINE"> F  </i>
   </separator>
   <separator name="electronic startup" >
    <i type="int" name="ISTART">     0</i>
    <i type="int" name="ICHARG">     2</i>
    <i type="int" name="INIWAV">     1</i>
   </separator>
   <separator name="electronic spin" >
    <i type="int" name="ISPIN">     1</i>
    <i type="logical" name="LNONCOLLINEAR"> F  </i>
    <v name="MAGMOM">      1.00000000</v>
    <i name="NUPDOWN">     -1.00000000</i>
    <i type="logical" name="LSORBIT"> F  </i>
    <v name="SAXIS">      0.00000000      0.00000000      1.00000000</v>
    <i type="logical" name="LSPIRAL"> F  </i>
    <v name="QSPIRAL">      0.00000000      0.00000000      0.00000000</v>
    <i type="logical" name="LZEROZ"> F  </i>
   </separator>
   <separator name="electronic exchange-correlation" >
    <i type="logical" name="LASPH"> F  </i>
   </separator>
   <separator name="electronic convergence" >
    <i type="int" name="NELM">   100</i>
    <i type="int" name="NELMDL">    -5</i>
    <i type="int" name="NELMIN">     2</i>
    <i name="ENINI">    600.00000000</i>
    <separator name="electronic convergence detail" >
     <i type="logical" name="LDIAG"> T  </i>
     <i type="logical" name="LSUBROT"> F  </i>
     <i name="WEIMIN">      0.00000000</i>
     <i name="EBREAK">      0.00000001</i>
     <i name="DEPER">      0.30000000</i>
     <i type="int" name="NRMM">     4</i>
     <i name="TIME">      0.40000000</i>
    </separator>
   </separator>
   <separator name="electronic mixer" >
    <i name="AMIX">      0.40000000</i>
    <i name="BMIX">      1.00000000</i>
    <i name="AMIN">      0.10000000</i>
    <i name="AMIX_MAG">      1.60000000</i>
    <i name="BMIX_MAG">      1.00000000</i>
    <separator name="electronic mixer details" >
     <i type="int" name="IMIX">     4</i>
     <i type="logical" name="MIXFIRST"> F  </i>
     <i type="int" name="MAXMIX">   -45</i>
     <i name="WC">    100.00000000</i>
     <i type="int" name="INIMIX">     1</i>
     <i type="int" name="MIXPRE">     1</i>
     <i type="int" name="MREMOVE">     5</i>
    </separator>
   </separator>
   <separator name="electronic dipolcorrection" >
    <i type="logical" name="LDIPOL"> F  </i>
    <i type="logical" name="LMONO"> F  </i>
    <i type="int" name="IDIPOL">     0</i>
    <i name="EPSILON">      1.00000000</i>
    <v name="DIPOL">   -100.00000000   -100.00000000   -100.00000000</v>
    <i name="EFIELD">      0.00000000</i>
    <i type="logical" name="LVACPOTAV"> F  </i>
   </separator>
  </separator>
  <separator name="grids" >
   <i type="int" name="NGX">   120</i>
   <i type="int" name="NGY">   100</i>
   <i type="int" name="NGZ">   144</i>
   <i type="int" name="NGXF">   240</i>
   <i type="int" name="NGYF">   200</i>
   <i type="int" name="NGZF">   288</i>
   <i type="logical" name="ADDGRID"> F  </i>
  </separator>
  <separator name="ionic" >
   <i type="int" name="NSW">     0</i>
   <i type="int" name="IBRION">    -1</i>
   <i type="int" name="MDALGO">     0</i>
   <i type="int" name="ISIF">     2</i>
   <i name="PSTRESS">      0.00000000</i>
   <i name="EDIFFG">     -0.00100000</i>
   <i type="int" name="NFREE">     0</i>
   <i name="POTIM">      0.50000000</i>
   <i name="SMASS">     -3.00000000</i>
   <i name="SCALEE">      1.00000000</i>
  </separator>
  <separator name="ionic md" >
   <i name="TEBEG">      0.00010000</i>
   <i name="TEEND">      0.00010000</i>
   <i type="int" name="NBLOCK">     1</i>
   <i type="int" name="KBLOCK">     1</i>
   <i type="int" name="NPACO">   256</i>
   <i name="APACO">     10.00000000</i>
  </separator>
  <separator name="symmetry" >
   <i type="int" name="ISYM">     2</i>
   <i name="SYMPREC">      0.00001000</i>
  </separator>
  <separator name="dos" >
   <i type="int" name="LORBIT">     0</i>
   <v name="RWIGS">     -1.00000000</v>
   <i type="int" name="NEDOS">   301</i>
   <i name="EMIN">     10.00000000</i>
   <i name="EMAX">    -10.00000000</i>
   <i name="EFERMI">      0.00000000</i>
  </separator>
  <separator name="writing" >
   <i type="int" name="NWRITE">     2</i>
   <i type="logical" name="LWAVE"> F  </i>
   <i type="logical" name="LDOWNSAMPLE"> F  </i>
   <i type="logical" name="LCHARG"> F  </i>
   <i type="logical" name="LPARD"> F  </i>
   <i type="logical" name="LVTOT"> F  </i>
   <i type="logical" name="LVHAR"> F  </i>
   <i type="logical" name="LELF"> F  </i>
   <i type="logical" name="LOPTICS"> F  </i>
   <v name="STM">      0.00000000      0.00000000      0.00000000      0.00000000      0.00000000      0.00000000      0.00000000</v>
  </separator>
  <separator name="performance" >
   <i type="int" name="NPAR">    24</i>
   <i type="int" name="NSIM">     4</i>
   <i type="int" name="NBLK">    -1</i>
   <i type="logical" name="LPLANE"> T  </i>
   <i type="logical" name="LSCALAPACK"> T  </i>
   <i type="logical" name="LSCAAWARE"> F  </i>
   <i type="logical" name="LSCALU"> F  </i>
   <i type="logical" name="LASYNC"> F  </i>
   <i type="logical" name="LORBITALREAL"> F  </i>
  </separator>
  <separator name="miscellaneous" >
   <i type="int" name="IDIOT">     3</i>
   <i type="int" name="PHON_NSTRUCT">    -1</i>
   <i type="logical" name="LMUSIC"> F  </i>
   <v name="POMASS">     10.81100000</v>
   <v name="DARWINR">      0.00000000</v>
   <v name="DARWINV">      1.00000000</v>
   <i type="logical" name="LCORR"> T  </i>
  </separator>
  <i type="logical" name="GGA_COMPAT"> T  </i>
  <i type="logical" name="LBERRY"> F  </i>
  <i type="int" name="ICORELEVEL">     0</i>
  <i type="logical" name="LDAU"> F  </i>
  <i type="int" name="I_CONSTRAINED_M">     0</i>
  <separator name="electronic exchange-correlation" >
   <i type="string" name="GGA    ">PE</i>
   <i type="string" name="XC_C">1</i>
   <i type="int" name="VOSKOWN">     0</i>
   <i type="logical" name="LHFCALC"> F  </i>
   <i type="string" name="PRECFOCK"></i>
   <i type="logical" name="LSYMGRAD"> F  </i>
   <i type="logical" name="LHFONE"> F  </i>
   <i type="logical" name="LRHFCALC"> F  </i>
   <i type="logical" name="LTHOMAS"> F  </i>
   <i type="logical" name="LMODELHF"> F  </i>
   <i type="logical" name="LFOCKACE"> F  </i>
   <i name="ENCUT4O">     -1.00000000</i>
   <i type="int" name="EXXOEP">     0</i>
   <i type="int" name="FOURORBIT">     0</i>
   <i name="AEXX">      0.00000000</i>
   <i name="HFALPHA">      0.00000000</i>
   <i name="MCALPHA">      0.00000000</i>
   <i name="ALDAX">      1.00000000</i>
   <i name="AGGAX">      1.00000000</i>
   <i name="AMGGAX">      1.00000000</i>
   <i name="ALDAC">      1.00000000</i>
   <i name="AGGAC">      1.00000000</i>
   <i name="AMGGAC">      1.00000000</i>
   <i type="int" name="NKREDX">     1</i>
   <i type="int" name="NKREDY">     1</i>
   <i type="int" name="NKREDZ">     1</i>
   <i type="logical" name="SHIFTRED"> F  </i>
   <i type="logical" name="ODDONLY"> F  </i>
   <i type="logical" name="EVENONLY"> F  </i>
   <i type="int" name="LMAXFOCK">     0</i>
   <i type="int" name="NMAXFOCKAE">     0</i>
   <i type="logical" name="LFOCKAEDFT"> F  </i>
   <i name="HFSCREEN">      0.00000000</i>
   <i name="HFSCREENC">      0.00000000</i>
   <i type="int" name="NBANDSGWLOW">     0</i>
  </separator>
  <separator name="vdW DFT" >
   <i type="logical" name="LUSE_VDW"> F  </i>
   <i type="int" name="IVDW_NL">    -1</i>
   <i type="logical" name="LSPIN_VDW"> F  </i>
   <i name="ZAB_VDW">     -0.84910000</i>
   <i name="GAMMA_VDW">      1.39626340</i>
   <i name="ALPHA_VDW">      0.00000000</i>
   <i name="PARAM1">      0.12340000</i>
   <i name="PARAM2">      1.00000000</i>
   <i name="BPARAM">      6.30000000</i>
   <i name="CPARAM">      0.00930000</i>
  </separator>
  <separator name="model GW" >
   <i type="int" name="MODEL_GW">     0</i>
   <i name="MODEL_EPS0">   2034.12617558</i>
   <i name="MODEL_ALPHA">      1.00000000</i>
  </separator>
  <separator name="linear response parameters" >
   <i type="logical" name="LEPSILON"> F  </i>
   <i type="logical" name="LRPA"> F  </i>
   <i type="logical" name="LNABLA"> F  </i>
   <i type="logical" name="LVEL"> F  </i>
   <i name="CSHIFT">      0.10000000</i>
   <i name="OMEGAMAX">     -1.00000000</i>
   <i name="DEG_THRESHOLD">      0.00200000</i>
   <i name="RTIME">     -0.10000000</i>
   <i name="WPLASMAI">      0.00000000</i>
   <v name="DFIELD">      0.00000000      0.00000000      0.00000000</v>
   <v name="WPLASMA">      0.00000000      0.00000000      0.00000000      0.00000000      0.00000000      0.00000000      0.00000000      0.00000000      0.00000000</v>
  </separator>
  <separator name="orbital magnetization" >
   <i type="logical" name="NUCIND"> F  </i>
   <v name="MAGPOS">      0.00000000      0.00000000      0.00000000</v>
   <i type="logical" name="LNICSALL"> T  </i>
   <i type="logical" name="ORBITALMAG"> F  </i>
   <i type="logical" name="LMAGBLOCH"> F  </i>
   <i type="logical" name="LCHIMAG"> F  </i>
   <i type="logical" name="LGAUGE"> T  </i>
   <i type="int" name="MAGATOM">     0</i>
   <v name="MAGDIPOL">      0.00000000      0.00000000      0.00000000</v>
   <v name="AVECCONST">      0.00000000      0.00000000      0.00000000</v>
  </separator>
  <separator name="response functions" >
   <i type="logical" name="LALL_IN_ONE"> F  </i>
   <i type="int" name="IALL_IN_ONE">    -1</i>
   <i type="int" name="NBANDS_WAVE">    -1</i>
   <i type="logical" name="LFINITE_TEMPERATURE"> F  </i>
   <i type="logical" name="LADDER"> F  </i>
   <i type="logical" name="LRPAFORCE"> F  </i>
   <i type="logical" name="LFXC"> F  </i>
   <i type="logical" name="LHARTREE"> T  </i>
   <i type="int" name="IBSE">     0</i>
   <v type="int" name="KPOINT">    -1     0     0     0</v>
   <i type="logical" name="LTCTC"> F  </i>
   <i type="logical" name="LTCTE"> F  </i>
   <i type="logical" name="LTETE"> F  </i>
   <i type="logical" name="LTRIPLET"> F  </i>
   <i type="logical" name="LFXCEPS"> F  </i>
   <i type="logical" name="LFXHEG"> F  </i>
   <i type="int" name="NATURALO">     2</i>
   <i type="logical" name="LHOLEGF"> F  </i>
   <i type="logical" name="L2ORDER"> F  </i>
   <i type="logical" name="LDMP1"> F  </i>
   <i type="logical" name="LMP2LT"> F  </i>
   <i type="logical" name="LSMP2LT"> F  </i>
   <i type="logical" name="LGWLF"> F  </i>
   <i name="ENCUTGW">     -1.60000002</i>
   <i name="ENCUTGWSOFT">     -1.60000002</i>
   <i name="ENCUTLF">     -1.00000000</i>
   <i type="logical" name="ESF_SPLINES"> F  </i>
   <i name="ESF_CONV">      0.01000000</i>
   <i type="int" name="ESF_NINTER">    15</i>
   <i type="int" name="LMAXMP2">    -1</i>
   <i name="SCISSOR">      0.00000000</i>
   <i type="int" name="NOMEGA">     0</i>
   <i type="int" name="NOMEGAR">     0</i>
   <i type="int" name="NBANDSGW">    -1</i>
   <i type="int" name="NBANDSO">    -1</i>
   <i type="int" name="NBANDSV">    -1</i>
   <i type="int" name="NELMGW">     1</i>
   <i type="int" name="NELMHF">     1</i>
   <i type="int" name="DIM">     3</i>
   <i type="int" name="IESPILON">     4</i>
   <i type="int" name="ANTIRES">     0</i>
   <i name="OMEGAMAX">    -30.00000000</i>
   <i name="OMEGAMIN">    -30.00000000</i>
   <i name="OMEGATL">   -200.00000000</i>
   <i type="int" name="OMEGAGRID">     0</i>
   <i name="CSHIFT">     -0.10000000</i>
   <i type="logical" name="LSELFENERGY"> F  </i>
   <i type="logical" name="LSPECTRAL"> F  </i>
   <i type="logical" name="LSPECTRALGW"> F  </i>
   <i type="logical" name="LSINGLES"> F  </i>
   <i type="logical" name="LFERMIGW"> F  </i>
   <i type="logical" name="ODDONLYGW"> F  </i>
   <i type="logical" name="EVENONLYGW"> F  </i>
   <i type="int" name="NKREDLFX">     1</i>
   <i type="int" name="NKREDLFY">     1</i>
   <i type="int" name="NKREDLFZ">     1</i>
   <i type="int" name="MAXMEM">  2800</i>
   <i type="int" name="TELESCOPE">     0</i>
   <i type="int" name="NTAUPAR">    -1</i>
   <i type="int" name="NOMEGAPAR">    -1</i>
   <i name="DAMP_NEWTON">      0.80000001</i>
   <i name="LAMBDA">      1.00000000</i>
  </separator>
  <separator name="External order field" >
   <i name="OFIELD_KAPPA">      0.00000000</i>
   <v name="OFIELD_K">      0.00000000      0.00000000      0.00000000</v>
   <i name="OFIELD_Q6_NEAR">      0.00000000</i>
   <i name="OFIELD_Q6_FAR">      0.00000000</i>
   <i name="OFIELD_A">      0.00000000</i>
  </separator>
  <separator name="optional k-points parameters" >
   <i type="int" name="KPOINTS_OPT_MODE">     1</i>
   <i type="logical" name="LKPOINTS_OPT"> F  </i>
  </separator>
 </parameters>
 <atominfo>
  <atoms>       1 </atoms>
  <types>       1 </types>
  <array name="atoms" >
   <dimension dim="1">ion</dimension>
   <field type="string">element</field>
   <field type="int">atomtype</field>
   <set>
    <rc><c>B </c><c>   1</c></rc>
   </set>
  </array>
  <array name="atomtypes" >
   <dimension dim="1">type</dimension>
   <field type="int">atomspertype</field>
   <field type="string">element</field>
   <field>mass</field>
   <field>valence</field>
   <field type="string">pseudopotential</field>
   <set>
    <rc><c>   1</c><c>B </c><c>     10.81100000</c><c>      3.00000000</c><c>  PAW_PBE B 06Sep2000                   </c></rc>
   </set>
  </array>
 </atominfo>
 <structure name="initialpos" >
  <crystal>
   <varray name="basis" >
    <v>      15.02250000       0.00000000       0.00000000 </v>
    <v>       0.00000000      12.51875000       0.00000000 </v>
    <v>       0.00000000       0.00000000      18.02700000 </v>
   </varray>
   <i name="volume">   3390.21029264 </i>
   <varray name="rec_basis" >
    <v>       0.06656682       0.00000000       0.00000000 </v>
    <v>       0.00000000       0.07988018       0.00000000 </v>
    <v>       0.00000000       0.00000000       0.05547235 </v>
   </varray>
  </crystal>
  <varray name="positions" >
   <v>       0.52123000       0.54500000       0.63796000 </v>
  </varray>
 </structure>
 <calculation>
  <scstep>
   <time name="dav">   65.88   66.93</time>
   <time name="total">   66.40   67.46</time>
   <energy>
    <i name="alphaZ">      0.02029228 </i>
    <i name="ewald">    -11.81129969 </i>
    <i name="hartreedc">    -42.60113961 </i>
    <i name="XCdc">      4.75549672 </i>
    <i name="pawpsdc">     43.49986551 </i>
    <i name="pawaedc">    -42.64454556 </i>
    <i name="eentropy">     -0.01196246 </i>
    <i name="bandstr">    -14.38178414 </i>
    <i name="atom">     71.16960075 </i>
    <i name="e_fr_energy">      7.99452380 </i>
    <i name="e_wo_entrp">      8.00648626 </i>
    <i name="e_0_energy">      8.00050503 </i>
   </energy>
  </scstep>
  <scstep>
   <time name="dav">  107.92  109.31</time>
   <time name="total">  107.93  109.32</time>
   <energy>
    <i name="e_fr_energy">      0.10435961 </i>
    <i name="e_wo_entrp">      0.13314800 </i>
    <i name="e_0_energy">      0.11875380 </i>
   </energy>
  </scstep>
  <scstep>
   <time name="dav">   67.19   68.03</time>
   <time name="total">   67.19   68.03</time>
   <energy>
    <i name="e_fr_energy">     -0.05485107 </i>
    <i name="e_wo_entrp">     -0.00202413 </i>
    <i name="e_0_energy">     -0.02843760 </i>
   </energy>
  </scstep>
  <scstep>
   <time name="dav">   72.35   73.20</time>
   <time name="total">   72.35   73.20</time>
   <energy>
    <i name="e_fr_energy">     -0.05821308 </i>
    <i name="e_wo_entrp">     -0.00521178 </i>
    <i name="e_0_energy">     -0.03171243 </i>
   </energy>
  </scstep>
  <scstep>
   <time name="dav">   92.60   93.85</time>
   <time name="total">   96.54   97.83</time>
   <energy>
    <i name="e_fr_energy">     -0.05825220 </i>
    <i name="e_wo_entrp">     -0.00525086 </i>
    <i name="e_0_energy">     -0.03175153 </i>
   </energy>
  </scstep>
  <scstep>
   <time name="dav">   80.01   81.22</time>
   <time name="total">   80.52   81.74</time>
   <energy>
    <i name="alphaZ">      0.02029228 </i>
    <i name="ewald">    -11.81129969 </i>
    <i name="hartreedc">    -42.60135745 </i>
    <i name="XCdc">      4.75548399 </i>
    <i name="pawpsdc">     43.56777638 </i>
    <i name="pawaedc">    -42.71248937 </i>
    <i name="eentropy">     -0.05300134 </i>
    <i name="bandstr">    -22.39325869 </i>
    <i name="atom">     71.16960075 </i>
    <i name="e_fr_energy">     -0.05825314 </i>
    <i name="e_wo_entrp">     -0.00525180 </i>
    <i name="e_0_energy">     -0.03175247 </i>
   </energy>
  </scstep>
  <structure>
   <crystal>
    <varray name="basis" >
     <v>      15.02250000       0.00000000       0.00000000 </v>
     <v>       0.00000000      12.51875000       0.00000000 </v>
     <v>       0.00000000       0.00000000      18.02700000 </v>
    </varray>
    <i name="volume">   3390.21029264 </i>
    <varray name="rec_basis" >
     <v>       0.06656682       0.00000000       0.00000000 </v>
     <v>       0.00000000       0.07988018       0.00000000 </v>
     <v>       0.00000000       0.00000000       0.05547235 </v>
    </varray>
   </crystal>
   <varray name="positions" >
    <v>       0.52123000       0.54500000       0.63796000 </v>
   </varray>
  </structure>
  <varray name="forces" >
   <v>       0.00000000      -0.00000000      -0.00000000 </v>
  </varray>
  <varray name="stress" >
   <v>      -0.00046746       0.00000000       0.00000000 </v>
   <v>      -0.00000000      -0.00047419       0.00000000 </v>
   <v>       0.00000000       0.00000000      -0.00046567 </v>
  </varray>
  <energy>
   <i name="e_fr_energy">     -0.05825314 </i>
   <i name="e_wo_entrp">     -0.00525180 </i>
   <i name="e_0_energy">     -0.03175247 </i>
  </energy>
  <time name="totalsc">  554.01  561.19</time>
  <eigenvalues>
   <array>
    <dimension dim="1">band</dimension>
    <dimension dim="2">kpoint</dimension>
    <dimension dim="3">spin</dimension>
    <field>eigene</field>
    <field>occ</field>
    <set>
     <set comment="spin 1">
      <set comment="kpoint 1">
       <r>   -9.4101    1.0000 </r>
       <r>   -3.5732    0.1667 </r>
       <r>   -3.5731    0.1667 </r>
       <r>   -3.5730    0.1659 </r>
       <r>   -0.2616    0.0000 </r>
       <r>    0.2931    0.0000 </r>
       <r>    0.3087    0.0000 </r>
       <r>    0.4378    0.0000 </r>
       <r>    0.5718    0.0000 </r>
       <r>    0.6844    0.0000 </r>
       <r>    0.8262    0.0000 </r>
       <r>    0.9080    0.0000 </r>
       <r>    0.9409    0.0000 </r>
       <r>    1.0328    0.0000 </r>
       <r>    1.0753    0.0000 </r>
       <r>    1.1706    0.0000 </r>
       <r>    1.2046    0.0000 </r>
       <r>    1.2859    0.0000 </r>
       <r>    1.3306    0.0000 </r>
       <r>    1.3482    0.0000 </r>
       <r>    1.4239    0.0000 </r>
       <r>    1.4940    0.0000 </r>
       <r>    1.5717    0.0000 </r>
       <r>    1.7025    0.0000 </r>
      </set>
      <set comment="kpoint 2">
       <r>   -9.4101    1.0000 </r>
       <r>   -3.5732    0.1667 </r>
       <r>   -3.5732    0.1667 </r>
       <r>   -3.5730    0.1659 </r>
       <r>   -0.2518    0.0000 </r>
       <r>    0.2679    0.0000 </r>
       <r>    0.3199    0.0000 </r>
       <r>    0.3724    0.0000 </r>
       <r>    0.6871    0.0000 </r>
       <r>    0.7058    0.0000 </r>
       <r>    0.7985    0.0000 </r>
       <r>    0.8279    0.0000 </r>
       <r>    0.8386    0.0000 </r>
       <r>    1.1485    0.0000 </r>
       <r>    1.1613    0.0000 </r>
       <r>    1.1944    0.0000 </r>
       <r>    1.2156    0.0000 </r>
       <r>    1.2532    0.0000 </r>
       <r>    1.3279    0.0000 </r>
       <r>    1.3472    0.0000 </r>
       <r>    1.3838    0.0000 </r>
       <r>    1.5720    0.0000 </r>
       <r>    1.6330    0.0000 </r>
       <r>    1.6827    0.0000 </r>
      </set>
      <set comment="kpoint 3">
       <r>   -9.4101    1.0000 </r>
       <r>   -3.5732    0.1667 </r>
       <r>   -3.5732    0.1667 </r>
       <r>   -3.5730    0.1659 </r>
       <r>   -0.2337    0.0000 </r>
       <r>    0.1984    0.0000 </r>
       <r>    0.3414    0.0000 </r>
       <r>    0.3742    0.0000 </r>
       <r>    0.7019    0.0000 </r>
       <r>    0.7093    0.0000 </r>
       <r>    0.7133    0.0000 </r>
       <r>    0.8515    0.0000 </r>
       <r>    0.8698    0.0000 </r>
       <r>    1.0864    0.0000 </r>
       <r>    1.1902    0.0000 </r>
       <r>    1.2303    0.0000 </r>
       <r>    1.2690    0.0000 </r>
       <r>    1.2917    0.0000 </r>
       <r>    1.3833    0.0000 </r>
       <r>    1.3945    0.0000 </r>
       <r>    1.4017    0.0000 </r>
       <r>    1.5912    0.0000 </r>
       <r>    1.5920    0.0000 </r>
       <r>    1.6449    0.0000 </r>
      </set>
      <set comment="kpoint 4">
       <r>   -9.4101    1.0000 </r>
       <r>   -3.5732    0.1668 </r>
       <r>   -3.5732    0.1667 </r>
       <r>   -3.5730    0.1659 </r>
       <r>   -0.2116    0.0000 </r>
       <r>    0.1309    0.0000 </r>
       <r>    0.3705    0.0000 </r>
       <r>    0.4053    0.0000 </r>
       <r>    0.6226    0.0000 </r>
       <r>    0.6248    0.0000 </r>
       <r>    0.7369    0.0000 </r>
       <r>    0.8845    0.0000 </r>
       <r>    0.9982    0.0000 </r>
       <r>    1.0373    0.0000 </r>
       <r>    1.1635    0.0000 </r>
       <r>    1.2162    0.0000 </r>
       <r>    1.3029    0.0000 </r>
       <r>    1.3587    0.0000 </r>
       <r>    1.4318    0.0000 </r>
       <r>    1.4809    0.0000 </r>
       <r>    1.5008    0.0000 </r>
       <r>    1.5407    0.0000 </r>
       <r>    1.5541    0.0000 </r>
       <r>    1.6005    0.0000 </r>
      </set>
      <set comment="kpoint 5">
       <r>   -9.4101    1.0000 </r>
       <r>   -3.5732    0.1668 </r>
       <r>   -3.5732    0.1667 </r>
       <r>   -3.5730    0.1659 </r>
       <r>   -0.1947    0.0000 </r>
       <r>    0.0899    0.0000 </r>
       <r>    0.3968    0.0000 </r>
       <r>    0.4433    0.0000 </r>
       <r>    0.5594    0.0000 </r>
       <r>    0.5709    0.0000 </r>
       <r>    0.7571    0.0000 </r>
       <r>    0.9094    0.0000 </r>
       <r>    0.9679    0.0000 </r>
       <r>    1.0979    0.0000 </r>
       <r>    1.2084    0.0000 </r>
       <r>    1.2360    0.0000 </r>
       <r>    1.3375    0.0000 </r>
       <r>    1.3990    0.0000 </r>
       <r>    1.3995    0.0000 </r>
       <r>    1.4438    0.0000 </r>
       <r>    1.4492    0.0000 </r>
       <r>    1.5109    0.0000 </r>
       <r>    1.5764    0.0000 </r>
       <r>    1.5787    0.0000 </r>
      </set>
      <set comment="kpoint 6">
       <r>   -9.4101    1.0000 </r>
       <r>   -3.5732    0.1667 </r>
       <r>   -3.5731    0.1666 </r>
       <r>   -3.5731    0.1660 </r>
       <r>   -0.2525    0.0000 </r>
       <r>    0.3012    0.0000 </r>
       <r>    0.3176    0.0000 </r>
       <r>    0.4467    0.0000 </r>
       <r>    0.5601    0.0000 </r>
       <r>    0.5903    0.0000 </r>
       <r>    0.9155    0.0000 </r>
       <r>    0.9436    0.0000 </r>
       <r>    0.9607    0.0000 </r>
       <r>    1.0219    0.0000 </r>
       <r>    1.0812    0.0000 </r>
       <r>    1.0842    0.0000 </r>
       <r>    1.0919    0.0000 </r>
       <r>    1.1858    0.0000 </r>
       <r>    1.3302    0.0000 </r>
       <r>    1.4516    0.0000 </r>
       <r>    1.4885    0.0000 </r>
       <r>    1.5798    0.0000 </r>
       <r>    1.6333    0.0000 </r>
       <r>    1.6743    0.0000 </r>
      </set>
      <set comment="kpoint 7">
       <r>   -9.4101    1.0000 </r>
       <r>   -3.5732    0.1667 </r>
       <r>   -3.5731    0.1667 </r>
       <r>   -3.5731    0.1660 </r>
       <r>   -0.2427    0.0000 </r>
       <r>    0.2763    0.0000 </r>
       <r>    0.3288    0.0000 </r>
       <r>    0.3813    0.0000 </r>
       <r>    0.5769    0.0000 </r>
       <r>    0.7099    0.0000 </r>
       <r>    0.8072    0.0000 </r>
       <r>    0.8376    0.0000 </r>
       <r>    0.9646    0.0000 </r>
       <r>    1.0557    0.0000 </r>
       <r>    1.0586    0.0000 </r>
       <r>    1.1322    0.0000 </r>
       <r>    1.1895    0.0000 </r>
       <r>    1.2303    0.0000 </r>
       <r>    1.4165    0.0000 </r>
       <r>    1.4617    0.0000 </r>
       <r>    1.4658    0.0000 </r>
       <r>    1.5538    0.0000 </r>
       <r>    1.5699    0.0000 </r>
       <r>    1.6001    0.0000 </r>
      </set>
      <set comment="kpoint 8">
       <r>   -9.4101    1.0000 </r>
       <r>   -3.5732    0.1667 </r>
       <r>   -3.5732    0.1667 </r>
       <r>   -3.5731    0.1660 </r>
       <r>   -0.2246    0.0000 </r>
       <r>    0.2074    0.0000 </r>
       <r>    0.3503    0.0000 </r>
       <r>    0.3828    0.0000 </r>
       <r>    0.5974    0.0000 </r>
       <r>    0.7110    0.0000 </r>
       <r>    0.7188    0.0000 </r>
       <r>    0.8714    0.0000 </r>
       <r>    0.9619    0.0000 </r>
       <r>    1.0000    0.0000 </r>
       <r>    1.0817    0.0000 </r>
       <r>    1.1484    0.0000 </r>
       <r>    1.3213    0.0000 </r>
       <r>    1.3462    0.0000 </r>
       <r>    1.3923    0.0000 </r>
       <r>    1.4644    0.0000 </r>
       <r>    1.4929    0.0000 </r>
       <r>    1.5048    0.0000 </r>
       <r>    1.5271    0.0000 </r>
       <r>    1.6274    0.0000 </r>
      </set>
      <set comment="kpoint 9">
       <r>   -9.4101    1.0000 </r>
       <r>   -3.5732    0.1668 </r>
       <r>   -3.5732    0.1667 </r>
       <r>   -3.5731    0.1660 </r>
       <r>   -0.2026    0.0000 </r>
       <r>    0.1402    0.0000 </r>
       <r>    0.3792    0.0000 </r>
       <r>    0.4137    0.0000 </r>
       <r>    0.6231    0.0000 </r>
       <r>    0.6319    0.0000 </r>
       <r>    0.6341    0.0000 </r>
       <r>    0.8913    0.0000 </r>
       <r>    1.0154    0.0000 </r>
       <r>    1.0362    0.0000 </r>
       <r>    1.1091    0.0000 </r>
       <r>    1.1838    0.0000 </r>
       <r>    1.2882    0.0000 </r>
       <r>    1.3649    0.0000 </r>
       <r>    1.3946    0.0000 </r>
       <r>    1.4803    0.0000 </r>
       <r>    1.5408    0.0000 </r>
       <r>    1.5470    0.0000 </r>
       <r>    1.5658    0.0000 </r>
       <r>    1.6359    0.0000 </r>
      </set>
      <set comment="kpoint 10">
       <r>   -9.4101    1.0000 </r>
       <r>   -3.5732    0.1668 </r>
       <r>   -3.5732    0.1667 </r>
       <r>   -3.5731    0.1660 </r>
       <r>   -0.1857    0.0000 </r>
       <r>    0.0993    0.0000 </r>
       <r>    0.4055    0.0000 </r>
       <r>    0.4516    0.0000 </r>
       <r>    0.5681    0.0000 </r>
       <r>    0.5805    0.0000 </r>
       <r>    0.6461    0.0000 </r>
       <r>    0.8476    0.0000 </r>
       <r>    1.0351    0.0000 </r>
       <r>    1.1323    0.0000 </r>
       <r>    1.1875    0.0000 </r>
       <r>    1.2264    0.0000 </r>
       <r>    1.2554    0.0000 </r>
       <r>    1.3277    0.0000 </r>
       <r>    1.3314    0.0000 </r>
       <r>    1.4156    0.0000 </r>
       <r>    1.5205    0.0000 </r>
       <r>    1.6371    0.0000 </r>
       <r>    1.6436    0.0000 </r>
       <r>    1.7012    0.0000 </r>
      </set>
      <set comment="kpoint 11">
       <r>   -9.4101    1.0000 </r>
       <r>   -3.5731    0.1667 </r>
       <r>   -3.5731    0.1666 </r>
       <r>   -3.5731    0.1663 </r>
       <r>   -0.2346    0.0000 </r>
       <r>    0.3140    0.0000 </r>
       <r>    0.3354    0.0000 </r>
       <r>    0.4597    0.0000 </r>
       <r>    0.4663    0.0000 </r>
       <r>    0.6028    0.0000 </r>
       <r>    0.9153    0.0000 </r>
       <r>    0.9516    0.0000 </r>
       <r>    0.9581    0.0000 </r>
       <r>    0.9713    0.0000 </r>
       <r>    1.0693    0.0000 </r>
       <r>    1.0764    0.0000 </r>
       <r>    1.1000    0.0000 </r>
       <r>    1.1311    0.0000 </r>
       <r>    1.2260    0.0000 </r>
       <r>    1.5420    0.0000 </r>
       <r>    1.5704    0.0000 </r>
       <r>    1.6039    0.0000 </r>
       <r>    1.6389    0.0000 </r>
       <r>    1.6555    0.0000 </r>
      </set>
      <set comment="kpoint 12">
       <r>   -9.4101    1.0000 </r>
       <r>   -3.5731    0.1667 </r>
       <r>   -3.5731    0.1667 </r>
       <r>   -3.5731    0.1663 </r>
       <r>   -0.2249    0.0000 </r>
       <r>    0.2914    0.0000 </r>
       <r>    0.3465    0.0000 </r>
       <r>    0.3978    0.0000 </r>
       <r>    0.4722    0.0000 </r>
       <r>    0.7269    0.0000 </r>
       <r>    0.8236    0.0000 </r>
       <r>    0.8540    0.0000 </r>
       <r>    0.9365    0.0000 </r>
       <r>    0.9553    0.0000 </r>
       <r>    1.0151    0.0000 </r>
       <r>    1.1240    0.0000 </r>
       <r>    1.2048    0.0000 </r>
       <r>    1.2489    0.0000 </r>
       <r>    1.3388    0.0000 </r>
       <r>    1.4475    0.0000 </r>
       <r>    1.4754    0.0000 </r>
       <r>    1.6055    0.0000 </r>
       <r>    1.6089    0.0000 </r>
       <r>    1.6690    0.0000 </r>
      </set>
      <set comment="kpoint 13">
       <r>   -9.4101    1.0000 </r>
       <r>   -3.5732    0.1667 </r>
       <r>   -3.5732    0.1667 </r>
       <r>   -3.5731    0.1663 </r>
       <r>   -0.2069    0.0000 </r>
       <r>    0.2250    0.0000 </r>
       <r>    0.3679    0.0000 </r>
       <r>    0.3968    0.0000 </r>
       <r>    0.4928    0.0000 </r>
       <r>    0.7290    0.0000 </r>
       <r>    0.7334    0.0000 </r>
       <r>    0.8548    0.0000 </r>
       <r>    0.8993    0.0000 </r>
       <r>    0.9753    0.0000 </r>
       <r>    1.0232    0.0000 </r>
       <r>    1.1446    0.0000 </r>
       <r>    1.3150    0.0000 </r>
       <r>    1.3421    0.0000 </r>
       <r>    1.3881    0.0000 </r>
       <r>    1.4032    0.0000 </r>
       <r>    1.4965    0.0000 </r>
       <r>    1.5503    0.0000 </r>
       <r>    1.6253    0.0000 </r>
       <r>    1.6853    0.0000 </r>
      </set>
      <set comment="kpoint 14">
       <r>   -9.4101    1.0000 </r>
       <r>   -3.5732    0.1667 </r>
       <r>   -3.5731    0.1667 </r>
       <r>   -3.5731    0.1663 </r>
       <r>   -0.1850    0.0000 </r>
       <r>    0.1585    0.0000 </r>
       <r>    0.3966    0.0000 </r>
       <r>    0.4266    0.0000 </r>
       <r>    0.5201    0.0000 </r>
       <r>    0.6492    0.0000 </r>
       <r>    0.6504    0.0000 </r>
       <r>    0.7849    0.0000 </r>
       <r>    1.0029    0.0000 </r>
       <r>    1.0475    0.0000 </r>
       <r>    1.0604    0.0000 </r>
       <r>    1.1697    0.0000 </r>
       <r>    1.2634    0.0000 </r>
       <r>    1.2695    0.0000 </r>
       <r>    1.4437    0.0000 </r>
       <r>    1.5115    0.0000 </r>
       <r>    1.5748    0.0000 </r>
       <r>    1.5986    0.0000 </r>
       <r>    1.6539    0.0000 </r>
       <r>    1.6767    0.0000 </r>
      </set>
      <set comment="kpoint 15">
       <r>   -9.4101    1.0000 </r>
       <r>   -3.5732    0.1668 </r>
       <r>   -3.5731    0.1667 </r>
       <r>   -3.5731    0.1663 </r>
       <r>   -0.1682    0.0000 </r>
       <r>    0.1180    0.0000 </r>
       <r>    0.4225    0.0000 </r>
       <r>    0.4627    0.0000 </r>
       <r>    0.5446    0.0000 </r>
       <r>    0.5846    0.0000 </r>
       <r>    0.5995    0.0000 </r>
       <r>    0.7377    0.0000 </r>
       <r>    1.0273    0.0000 </r>
       <r>    1.0903    0.0000 </r>
       <r>    1.1856    0.0000 </r>
       <r>    1.1916    0.0000 </r>
       <r>    1.2158    0.0000 </r>
       <r>    1.2457    0.0000 </r>
       <r>    1.3831    0.0000 </r>
       <r>    1.4550    0.0000 </r>
       <r>    1.6301    0.0000 </r>
       <r>    1.6881    0.0000 </r>
       <r>    1.7349    0.0000 </r>
       <r>    1.7598    0.0000 </r>
      </set>
      <set comment="kpoint 16">
       <r>   -9.4101    1.0000 </r>
       <r>   -3.5731    0.1667 </r>
       <r>   -3.5731    0.1667 </r>
       <r>   -3.5731    0.1666 </r>
       <r>   -0.2088    0.0000 </r>
       <r>    0.3060    0.0000 </r>
       <r>    0.3617    0.0000 </r>
       <r>    0.3982    0.0000 </r>
       <r>    0.4904    0.0000 </r>
       <r>    0.6299    0.0000 </r>
       <r>    0.8359    0.0000 </r>
       <r>    0.8552    0.0000 </r>
       <r>    0.9555    0.0000 </r>
       <r>    0.9676    0.0000 </r>
       <r>    1.0175    0.0000 </r>
       <r>    1.0995    0.0000 </r>
       <r>    1.1049    0.0000 </r>
       <r>    1.1474    0.0000 </r>
       <r>    1.2717    0.0000 </r>
       <r>    1.4572    0.0000 </r>
       <r>    1.4790    0.0000 </r>
       <r>    1.5793    0.0000 </r>
       <r>    1.6167    0.0000 </r>
       <r>    1.6896    0.0000 </r>
      </set>
      <set comment="kpoint 17">
       <r>   -9.4101    1.0000 </r>
       <r>   -3.5731    0.1667 </r>
       <r>   -3.5731    0.1667 </r>
       <r>   -3.5731    0.1666 </r>
       <r>   -0.1991    0.0000 </r>
       <r>    0.2992    0.0000 </r>
       <r>    0.3728    0.0000 </r>
       <r>    0.3832    0.0000 </r>
       <r>    0.4340    0.0000 </r>
       <r>    0.7496    0.0000 </r>
       <r>    0.8274    0.0000 </r>
       <r>    0.8306    0.0000 </r>
       <r>    0.8765    0.0000 </r>
       <r>    0.8898    0.0000 </r>
       <r>    0.9183    0.0000 </r>
       <r>    1.2182    0.0000 </r>
       <r>    1.2268    0.0000 </r>
       <r>    1.2756    0.0000 </r>
       <r>    1.2928    0.0000 </r>
       <r>    1.3518    0.0000 </r>
       <r>    1.3828    0.0000 </r>
       <r>    1.6887    0.0000 </r>
       <r>    1.6943    0.0000 </r>
       <r>    1.7404    0.0000 </r>
      </set>
      <set comment="kpoint 18">
       <r>   -9.4101    1.0000 </r>
       <r>   -3.5731    0.1667 </r>
       <r>   -3.5731    0.1667 </r>
       <r>   -3.5731    0.1667 </r>
       <r>   -0.1813    0.0000 </r>
       <r>    0.2489    0.0000 </r>
       <r>    0.3730    0.0000 </r>
       <r>    0.3940    0.0000 </r>
       <r>    0.4481    0.0000 </r>
       <r>    0.7253    0.0000 </r>
       <r>    0.7546    0.0000 </r>
       <r>    0.7935    0.0000 </r>
       <r>    0.8781    0.0000 </r>
       <r>    0.9199    0.0000 </r>
       <r>    0.9233    0.0000 </r>
       <r>    1.2373    0.0000 </r>
       <r>    1.2422    0.0000 </r>
       <r>    1.2873    0.0000 </r>
       <r>    1.3903    0.0000 </r>
       <r>    1.4146    0.0000 </r>
       <r>    1.4401    0.0000 </r>
       <r>    1.6703    0.0000 </r>
       <r>    1.7353    0.0000 </r>
       <r>    1.7358    0.0000 </r>
      </set>
      <set comment="kpoint 19">
       <r>   -9.4101    1.0000 </r>
       <r>   -3.5732    0.1667 </r>
       <r>   -3.5731    0.1667 </r>
       <r>   -3.5731    0.1667 </r>
       <r>   -0.1596    0.0000 </r>
       <r>    0.1855    0.0000 </r>
       <r>    0.3953    0.0000 </r>
       <r>    0.4223    0.0000 </r>
       <r>    0.4805    0.0000 </r>
       <r>    0.6483    0.0000 </r>
       <r>    0.6779    0.0000 </r>
       <r>    0.7118    0.0000 </r>
       <r>    0.9050    0.0000 </r>
       <r>    0.9544    0.0000 </r>
       <r>    1.0771    0.0000 </r>
       <r>    1.1620    0.0000 </r>
       <r>    1.1662    0.0000 </r>
       <r>    1.3162    0.0000 </r>
       <r>    1.5360    0.0000 </r>
       <r>    1.5391    0.0000 </r>
       <r>    1.5777    0.0000 </r>
       <r>    1.6441    0.0000 </r>
       <r>    1.6635    0.0000 </r>
       <r>    1.7625    0.0000 </r>
      </set>
      <set comment="kpoint 20">
       <r>   -9.4101    1.0000 </r>
       <r>   -3.5732    0.1667 </r>
       <r>   -3.5731    0.1667 </r>
       <r>   -3.5731    0.1667 </r>
       <r>   -0.1431    0.0000 </r>
       <r>    0.1458    0.0000 </r>
       <r>    0.4198    0.0000 </r>
       <r>    0.4476    0.0000 </r>
       <r>    0.5171    0.0000 </r>
       <r>    0.5914    0.0000 </r>
       <r>    0.6278    0.0000 </r>
       <r>    0.6555    0.0000 </r>
       <r>    0.9302    0.0000 </r>
       <r>    0.9945    0.0000 </r>
       <r>    1.0932    0.0000 </r>
       <r>    1.1116    0.0000 </r>
       <r>    1.2526    0.0000 </r>
       <r>    1.3377    0.0000 </r>
       <r>    1.4410    0.0000 </r>
       <r>    1.5751    0.0000 </r>
       <r>    1.6821    0.0000 </r>
       <r>    1.7168    0.0000 </r>
       <r>    1.7671    0.0000 </r>
       <r>    1.7959    0.0000 </r>
      </set>
      <set comment="kpoint 21">
       <r>   -9.4101    1.0000 </r>
       <r>   -3.5732    0.1670 </r>
       <r>   -3.5731    0.1666 </r>
       <r>   -3.5731    0.1666 </r>
       <r>   -0.1768    0.0000 </r>
       <r>    0.2421    0.0000 </r>
       <r>    0.3958    0.0000 </r>
       <r>    0.4122    0.0000 </r>
       <r>    0.5238    0.0000 </r>
       <r>    0.6656    0.0000 </r>
       <r>    0.7491    0.0000 </r>
       <r>    0.7596    0.0000 </r>
       <r>    0.8794    0.0000 </r>
       <r>    0.9998    0.0000 </r>
       <r>    1.0202    0.0000 </r>
       <r>    1.0467    0.0000 </r>
       <r>    1.1328    0.0000 </r>
       <r>    1.1771    0.0000 </r>
       <r>    1.3683    0.0000 </r>
       <r>    1.3710    0.0000 </r>
       <r>    1.4323    0.0000 </r>
       <r>    1.4931    0.0000 </r>
       <r>    1.5356    0.0000 </r>
       <r>    1.7262    0.0000 </r>
      </set>
      <set comment="kpoint 22">
       <r>   -9.4101    1.0000 </r>
       <r>   -3.5732    0.1670 </r>
       <r>   -3.5731    0.1666 </r>
       <r>   -3.5731    0.1666 </r>
       <r>   -0.1672    0.0000 </r>
       <r>    0.2509    0.0000 </r>
       <r>    0.3829    0.0000 </r>
       <r>    0.4067    0.0000 </r>
       <r>    0.4673    0.0000 </r>
       <r>    0.7257    0.0000 </r>
       <r>    0.7592    0.0000 </r>
       <r>    0.7928    0.0000 </r>
       <r>    0.8216    0.0000 </r>
       <r>    0.8939    0.0000 </r>
       <r>    0.9316    0.0000 </r>
       <r>    1.1447    0.0000 </r>
       <r>    1.2288    0.0000 </r>
       <r>    1.2702    0.0000 </r>
       <r>    1.2923    0.0000 </r>
       <r>    1.3175    0.0000 </r>
       <r>    1.4463    0.0000 </r>
       <r>    1.6292    0.0000 </r>
       <r>    1.6628    0.0000 </r>
       <r>    1.7336    0.0000 </r>
      </set>
      <set comment="kpoint 23">
       <r>   -9.4101    1.0000 </r>
       <r>   -3.5732    0.1670 </r>
       <r>   -3.5731    0.1666 </r>
       <r>   -3.5731    0.1666 </r>
       <r>   -0.1497    0.0000 </r>
       <r>    0.2574    0.0000 </r>
       <r>    0.3203    0.0000 </r>
       <r>    0.4275    0.0000 </r>
       <r>    0.4779    0.0000 </r>
       <r>    0.6496    0.0000 </r>
       <r>    0.7687    0.0000 </r>
       <r>    0.8109    0.0000 </r>
       <r>    0.8141    0.0000 </r>
       <r>    0.8267    0.0000 </r>
       <r>    0.9564    0.0000 </r>
       <r>    1.1488    0.0000 </r>
       <r>    1.1539    0.0000 </r>
       <r>    1.3058    0.0000 </r>
       <r>    1.4200    0.0000 </r>
       <r>    1.4462    0.0000 </r>
       <r>    1.4922    0.0000 </r>
       <r>    1.7278    0.0000 </r>
       <r>    1.7668    0.0000 </r>
       <r>    1.8138    0.0000 </r>
      </set>
      <set comment="kpoint 24">
       <r>   -9.4101    1.0000 </r>
       <r>   -3.5732    0.1670 </r>
       <r>   -3.5731    0.1667 </r>
       <r>   -3.5731    0.1666 </r>
       <r>   -0.1285    0.0000 </r>
       <r>    0.2190    0.0000 </r>
       <r>    0.3182    0.0000 </r>
       <r>    0.4552    0.0000 </r>
       <r>    0.5105    0.0000 </r>
       <r>    0.5753    0.0000 </r>
       <r>    0.7130    0.0000 </r>
       <r>    0.7301    0.0000 </r>
       <r>    0.8184    0.0000 </r>
       <r>    0.8594    0.0000 </r>
       <r>    1.0604    0.0000 </r>
       <r>    1.0693    0.0000 </r>
       <r>    1.1243    0.0000 </r>
       <r>    1.4345    0.0000 </r>
       <r>    1.5024    0.0000 </r>
       <r>    1.5718    0.0000 </r>
       <r>    1.6317    0.0000 </r>
       <r>    1.6647    0.0000 </r>
       <r>    1.7963    0.0000 </r>
       <r>    1.8273    0.0000 </r>
      </set>
      <set comment="kpoint 25">
       <r>   -9.4101    1.0000 </r>
       <r>   -3.5732    0.1670 </r>
       <r>   -3.5732    0.1667 </r>
       <r>   -3.5731    0.1666 </r>
       <r>   -0.1125    0.0000 </r>
       <r>    0.1823    0.0000 </r>
       <r>    0.3390    0.0000 </r>
       <r>    0.4796    0.0000 </r>
       <r>    0.5241    0.0000 </r>
       <r>    0.5509    0.0000 </r>
       <r>    0.6650    0.0000 </r>
       <r>    0.6655    0.0000 </r>
       <r>    0.8438    0.0000 </r>
       <r>    0.9000    0.0000 </r>
       <r>    0.9998    0.0000 </r>
       <r>    1.0170    0.0000 </r>
       <r>    1.2880    0.0000 </r>
       <r>    1.4506    0.0000 </r>
       <r>    1.5072    0.0000 </r>
       <r>    1.6387    0.0000 </r>
       <r>    1.7164    0.0000 </r>
       <r>    1.7329    0.0000 </r>
       <r>    1.8088    0.0000 </r>
       <r>    1.8284    0.0000 </r>
      </set>
      <set comment="kpoint 26">
       <r>   -9.4101    1.0000 </r>
       <r>   -3.5732    0.1673 </r>
       <r>   -3.5731    0.1666 </r>
       <r>   -3.5731    0.1666 </r>
       <r>   -0.1429    0.0000 </r>
       <r>    0.1753    0.0000 </r>
       <r>    0.4352    0.0000 </r>
       <r>    0.4543    0.0000 </r>
       <r>    0.5620    0.0000 </r>
       <r>    0.6735    0.0000 </r>
       <r>    0.6737    0.0000 </r>
       <r>    0.7080    0.0000 </r>
       <r>    0.8068    0.0000 </r>
       <r>    0.9430    0.0000 </r>
       <r>    1.0377    0.0000 </r>
       <r>    1.0902    0.0000 </r>
       <r>    1.1719    0.0000 </r>
       <r>    1.2235    0.0000 </r>
       <r>    1.2922    0.0000 </r>
       <r>    1.2962    0.0000 </r>
       <r>    1.4175    0.0000 </r>
       <r>    1.4259    0.0000 </r>
       <r>    1.6030    0.0000 </r>
       <r>    1.7711    0.0000 </r>
      </set>
      <set comment="kpoint 27">
       <r>   -9.4101    1.0000 </r>
       <r>   -3.5732    0.1673 </r>
       <r>   -3.5731    0.1666 </r>
       <r>   -3.5731    0.1666 </r>
       <r>   -0.1336    0.0000 </r>
       <r>    0.1863    0.0000 </r>
       <r>    0.4202    0.0000 </r>
       <r>    0.4458    0.0000 </r>
       <r>    0.5102    0.0000 </r>
       <r>    0.6489    0.0000 </r>
       <r>    0.6850    0.0000 </r>
       <r>    0.7353    0.0000 </r>
       <r>    0.8337    0.0000 </r>
       <r>    0.9328    0.0000 </r>
       <r>    0.9784    0.0000 </r>
       <r>    1.0704    0.0000 </r>
       <r>    1.1671    0.0000 </r>
       <r>    1.1870    0.0000 </r>
       <r>    1.3141    0.0000 </r>
       <r>    1.3645    0.0000 </r>
       <r>    1.5494    0.0000 </r>
       <r>    1.5560    0.0000 </r>
       <r>    1.6271    0.0000 </r>
       <r>    1.7765    0.0000 </r>
      </set>
      <set comment="kpoint 28">
       <r>   -9.4101    1.0000 </r>
       <r>   -3.5732    0.1673 </r>
       <r>   -3.5731    0.1666 </r>
       <r>   -3.5731    0.1666 </r>
       <r>   -0.1166    0.0000 </r>
       <r>    0.2070    0.0000 </r>
       <r>    0.3435    0.0000 </r>
       <r>    0.4661    0.0000 </r>
       <r>    0.5216    0.0000 </r>
       <r>    0.5731    0.0000 </r>
       <r>    0.7068    0.0000 </r>
       <r>    0.7417    0.0000 </r>
       <r>    0.8392    0.0000 </r>
       <r>    0.8569    0.0000 </r>
       <r>    0.9954    0.0000 </r>
       <r>    1.0701    0.0000 </r>
       <r>    1.0748    0.0000 </r>
       <r>    1.2334    0.0000 </r>
       <r>    1.4564    0.0000 </r>
       <r>    1.5133    0.0000 </r>
       <r>    1.6110    0.0000 </r>
       <r>    1.7043    0.0000 </r>
       <r>    1.7313    0.0000 </r>
       <r>    1.7763    0.0000 </r>
      </set>
      <set comment="kpoint 29">
       <r>   -9.4101    1.0000 </r>
       <r>   -3.5732    0.1673 </r>
       <r>   -3.5731    0.1667 </r>
       <r>   -3.5731    0.1666 </r>
       <r>   -0.0962    0.0000 </r>
       <r>    0.2311    0.0000 </r>
       <r>    0.2804    0.0000 </r>
       <r>    0.4927    0.0000 </r>
       <r>    0.4958    0.0000 </r>
       <r>    0.5571    0.0000 </r>
       <r>    0.7321    0.0000 </r>
       <r>    0.7683    0.0000 </r>
       <r>    0.7725    0.0000 </r>
       <r>    0.7755    0.0000 </r>
       <r>    0.9817    0.0000 </r>
       <r>    0.9882    0.0000 </r>
       <r>    1.1589    0.0000 </r>
       <r>    1.3908    0.0000 </r>
       <r>    1.6076    0.0000 </r>
       <r>    1.6094    0.0000 </r>
       <r>    1.6780    0.0000 </r>
       <r>    1.7046    0.0000 </r>
       <r>    1.8440    0.0000 </r>
       <r>    1.8774    0.0000 </r>
      </set>
      <set comment="kpoint 30">
       <r>   -9.4101    1.0000 </r>
       <r>   -3.5732    0.1673 </r>
       <r>   -3.5731    0.1667 </r>
       <r>   -3.5731    0.1666 </r>
       <r>   -0.0810    0.0000 </r>
       <r>    0.2254    0.0000 </r>
       <r>    0.2721    0.0000 </r>
       <r>    0.4462    0.0000 </r>
       <r>    0.5156    0.0000 </r>
       <r>    0.5957    0.0000 </r>
       <r>    0.7082    0.0000 </r>
       <r>    0.7095    0.0000 </r>
       <r>    0.7718    0.0000 </r>
       <r>    0.8150    0.0000 </r>
       <r>    0.9159    0.0000 </r>
       <r>    0.9337    0.0000 </r>
       <r>    1.3258    0.0000 </r>
       <r>    1.4966    0.0000 </r>
       <r>    1.5758    0.0000 </r>
       <r>    1.6344    0.0000 </r>
       <r>    1.7463    0.0000 </r>
       <r>    1.7488    0.0000 </r>
       <r>    1.8692    0.0000 </r>
       <r>    1.8743    0.0000 </r>
      </set>
      <set comment="kpoint 31">
       <r>   -9.4101    1.0000 </r>
       <r>   -3.5733    0.1675 </r>
       <r>   -3.5731    0.1666 </r>
       <r>   -3.5731    0.1665 </r>
       <r>   -0.1178    0.0000 </r>
       <r>    0.1327    0.0000 </r>
       <r>    0.4701    0.0000 </r>
       <r>    0.5019    0.0000 </r>
       <r>    0.5942    0.0000 </r>
       <r>    0.6062    0.0000 </r>
       <r>    0.6203    0.0000 </r>
       <r>    0.7443    0.0000 </r>
       <r>    0.7587    0.0000 </r>
       <r>    0.8854    0.0000 </r>
       <r>    1.0700    0.0000 </r>
       <r>    1.1420    0.0000 </r>
       <r>    1.2084    0.0000 </r>
       <r>    1.2244    0.0000 </r>
       <r>    1.2382    0.0000 </r>
       <r>    1.2785    0.0000 </r>
       <r>    1.3572    0.0000 </r>
       <r>    1.3652    0.0000 </r>
       <r>    1.7080    0.0000 </r>
       <r>    1.8483    0.0000 </r>
      </set>
      <set comment="kpoint 32">
       <r>   -9.4101    1.0000 </r>
       <r>   -3.5733    0.1675 </r>
       <r>   -3.5731    0.1666 </r>
       <r>   -3.5731    0.1666 </r>
       <r>   -0.1088    0.0000 </r>
       <r>    0.1443    0.0000 </r>
       <r>    0.4599    0.0000 </r>
       <r>    0.4803    0.0000 </r>
       <r>    0.5534    0.0000 </r>
       <r>    0.5881    0.0000 </r>
       <r>    0.6325    0.0000 </r>
       <r>    0.6751    0.0000 </r>
       <r>    0.8674    0.0000 </r>
       <r>    0.9689    0.0000 </r>
       <r>    1.0171    0.0000 </r>
       <r>    1.0330    0.0000 </r>
       <r>    1.1139    0.0000 </r>
       <r>    1.1139    0.0000 </r>
       <r>    1.3449    0.0000 </r>
       <r>    1.4172    0.0000 </r>
       <r>    1.4967    0.0000 </r>
       <r>    1.5050    0.0000 </r>
       <r>    1.7159    0.0000 </r>
       <r>    1.8486    0.0000 </r>
      </set>
      <set comment="kpoint 33">
       <r>   -9.4101    1.0000 </r>
       <r>   -3.5733    0.1675 </r>
       <r>   -3.5731    0.1666 </r>
       <r>   -3.5731    0.1666 </r>
       <r>   -0.0924    0.0000 </r>
       <r>    0.1669    0.0000 </r>
       <r>    0.3801    0.0000 </r>
       <r>    0.4996    0.0000 </r>
       <r>    0.5135    0.0000 </r>
       <r>    0.5713    0.0000 </r>
       <r>    0.6561    0.0000 </r>
       <r>    0.6746    0.0000 </r>
       <r>    0.8768    0.0000 </r>
       <r>    0.9028    0.0000 </r>
       <r>    0.9963    0.0000 </r>
       <r>    1.0127    0.0000 </r>
       <r>    1.0471    0.0000 </r>
       <r>    1.1776    0.0000 </r>
       <r>    1.4873    0.0000 </r>
       <r>    1.5663    0.0000 </r>
       <r>    1.6450    0.0000 </r>
       <r>    1.6568    0.0000 </r>
       <r>    1.7336    0.0000 </r>
       <r>    1.8232    0.0000 </r>
      </set>
      <set comment="kpoint 34">
       <r>   -9.4101    1.0000 </r>
       <r>   -3.5733    0.1675 </r>
       <r>   -3.5731    0.1666 </r>
       <r>   -3.5731    0.1666 </r>
       <r>   -0.0730    0.0000 </r>
       <r>    0.1981    0.0000 </r>
       <r>    0.3125    0.0000 </r>
       <r>    0.4373    0.0000 </r>
       <r>    0.5244    0.0000 </r>
       <r>    0.6052    0.0000 </r>
       <r>    0.6890    0.0000 </r>
       <r>    0.7062    0.0000 </r>
       <r>    0.8027    0.0000 </r>
       <r>    0.8229    0.0000 </r>
       <r>    0.9135    0.0000 </r>
       <r>    0.9278    0.0000 </r>
       <r>    1.1931    0.0000 </r>
       <r>    1.3409    0.0000 </r>
       <r>    1.6363    0.0000 </r>
       <r>    1.6919    0.0000 </r>
       <r>    1.7048    0.0000 </r>
       <r>    1.7668    0.0000 </r>
       <r>    1.8115    0.0000 </r>
       <r>    1.8214    0.0000 </r>
      </set>
      <set comment="kpoint 35">
       <r>   -9.4101    1.0000 </r>
       <r>   -3.5733    0.1674 </r>
       <r>   -3.5731    0.1667 </r>
       <r>   -3.5731    0.1666 </r>
       <r>   -0.0587    0.0000 </r>
       <r>    0.2285    0.0000 </r>
       <r>    0.2723    0.0000 </r>
       <r>    0.3840    0.0000 </r>
       <r>    0.5452    0.0000 </r>
       <r>    0.6445    0.0000 </r>
       <r>    0.7221    0.0000 </r>
       <r>    0.7463    0.0000 </r>
       <r>    0.7564    0.0000 </r>
       <r>    0.7581    0.0000 </r>
       <r>    0.8465    0.0000 </r>
       <r>    0.8694    0.0000 </r>
       <r>    1.3571    0.0000 </r>
       <r>    1.5093    0.0000 </r>
       <r>    1.5482    0.0000 </r>
       <r>    1.7120    0.0000 </r>
       <r>    1.7268    0.0000 </r>
       <r>    1.7721    0.0000 </r>
       <r>    1.9144    0.0000 </r>
       <r>    1.9212    0.0000 </r>
      </set>
      <set comment="kpoint 36">
       <r>   -9.4101    1.0000 </r>
       <r>   -3.5732    0.1667 </r>
       <r>   -3.5731    0.1667 </r>
       <r>   -3.5730    0.1659 </r>
       <r>   -0.2585    0.0000 </r>
       <r>    0.2166    0.0000 </r>
       <r>    0.3866    0.0000 </r>
       <r>    0.4510    0.0000 </r>
       <r>    0.5786    0.0000 </r>
       <r>    0.6878    0.0000 </r>
       <r>    0.8290    0.0000 </r>
       <r>    0.8346    0.0000 </r>
       <r>    0.9620    0.0000 </r>
       <r>    1.0262    0.0000 </r>
       <r>    1.1008    0.0000 </r>
       <r>    1.1598    0.0000 </r>
       <r>    1.2500    0.0000 </r>
       <r>    1.2662    0.0000 </r>
       <r>    1.3081    0.0000 </r>
       <r>    1.4102    0.0000 </r>
       <r>    1.4344    0.0000 </r>
       <r>    1.4928    0.0000 </r>
       <r>    1.5147    0.0000 </r>
       <r>    1.6215    0.0000 </r>
      </set>
      <set comment="kpoint 37">
       <r>   -9.4101    1.0000 </r>
       <r>   -3.5732    0.1667 </r>
       <r>   -3.5731    0.1667 </r>
       <r>   -3.5730    0.1659 </r>
       <r>   -0.2488    0.0000 </r>
       <r>    0.2219    0.0000 </r>
       <r>    0.3179    0.0000 </r>
       <r>    0.4369    0.0000 </r>
       <r>    0.6899    0.0000 </r>
       <r>    0.7036    0.0000 </r>
       <r>    0.7307    0.0000 </r>
       <r>    0.8413    0.0000 </r>
       <r>    0.9164    0.0000 </r>
       <r>    1.0895    0.0000 </r>
       <r>    1.1171    0.0000 </r>
       <r>    1.1889    0.0000 </r>
       <r>    1.2442    0.0000 </r>
       <r>    1.2946    0.0000 </r>
       <r>    1.3315    0.0000 </r>
       <r>    1.3437    0.0000 </r>
       <r>    1.4574    0.0000 </r>
       <r>    1.4955    0.0000 </r>
       <r>    1.5822    0.0000 </r>
       <r>    1.6271    0.0000 </r>
      </set>
      <set comment="kpoint 38">
       <r>   -9.4101    1.0000 </r>
       <r>   -3.5732    0.1667 </r>
       <r>   -3.5732    0.1667 </r>
       <r>   -3.5730    0.1659 </r>
       <r>   -0.2308    0.0000 </r>
       <r>    0.1963    0.0000 </r>
       <r>    0.2777    0.0000 </r>
       <r>    0.4567    0.0000 </r>
       <r>    0.6179    0.0000 </r>
       <r>    0.7155    0.0000 </r>
       <r>    0.8009    0.0000 </r>
       <r>    0.8591    0.0000 </r>
       <r>    0.8764    0.0000 </r>
       <r>    1.0867    0.0000 </r>
       <r>    1.1414    0.0000 </r>
       <r>    1.2298    0.0000 </r>
       <r>    1.2405    0.0000 </r>
       <r>    1.2994    0.0000 </r>
       <r>    1.3422    0.0000 </r>
       <r>    1.4506    0.0000 </r>
       <r>    1.4880    0.0000 </r>
       <r>    1.5104    0.0000 </r>
       <r>    1.5206    0.0000 </r>
       <r>    1.6360    0.0000 </r>
      </set>
      <set comment="kpoint 39">
       <r>   -9.4101    1.0000 </r>
       <r>   -3.5732    0.1668 </r>
       <r>   -3.5732    0.1667 </r>
       <r>   -3.5730    0.1659 </r>
       <r>   -0.2089    0.0000 </r>
       <r>    0.1349    0.0000 </r>
       <r>    0.3000    0.0000 </r>
       <r>    0.4855    0.0000 </r>
       <r>    0.5370    0.0000 </r>
       <r>    0.7259    0.0000 </r>
       <r>    0.7401    0.0000 </r>
       <r>    0.8882    0.0000 </r>
       <r>    1.0023    0.0000 </r>
       <r>    1.0414    0.0000 </r>
       <r>    1.1645    0.0000 </r>
       <r>    1.1709    0.0000 </r>
       <r>    1.2982    0.0000 </r>
       <r>    1.3604    0.0000 </r>
       <r>    1.4015    0.0000 </r>
       <r>    1.4595    0.0000 </r>
       <r>    1.4945    0.0000 </r>
       <r>    1.5320    0.0000 </r>
       <r>    1.5652    0.0000 </r>
       <r>    1.6028    0.0000 </r>
      </set>
      <set comment="kpoint 40">
       <r>   -9.4101    1.0000 </r>
       <r>   -3.5732    0.1668 </r>
       <r>   -3.5732    0.1667 </r>
       <r>   -3.5730    0.1659 </r>
       <r>   -0.1921    0.0000 </r>
       <r>    0.0948    0.0000 </r>
       <r>    0.3303    0.0000 </r>
       <r>    0.4706    0.0000 </r>
       <r>    0.5257    0.0000 </r>
       <r>    0.6690    0.0000 </r>
       <r>    0.7600    0.0000 </r>
       <r>    0.9128    0.0000 </r>
       <r>    0.9727    0.0000 </r>
       <r>    1.1025    0.0000 </r>
       <r>    1.1904    0.0000 </r>
       <r>    1.2153    0.0000 </r>
       <r>    1.3234    0.0000 </r>
       <r>    1.3631    0.0000 </r>
       <r>    1.3991    0.0000 </r>
       <r>    1.4221    0.0000 </r>
       <r>    1.4757    0.0000 </r>
       <r>    1.5358    0.0000 </r>
       <r>    1.5613    0.0000 </r>
       <r>    1.6060    0.0000 </r>
      </set>
      <set comment="kpoint 41">
       <r>   -9.4101    1.0000 </r>
       <r>   -3.5732    0.1667 </r>
       <r>   -3.5731    0.1666 </r>
       <r>   -3.5731    0.1660 </r>
       <r>   -0.2495    0.0000 </r>
       <r>    0.2255    0.0000 </r>
       <r>    0.3941    0.0000 </r>
       <r>    0.4598    0.0000 </r>
       <r>    0.5661    0.0000 </r>
       <r>    0.5954    0.0000 </r>
       <r>    0.8418    0.0000 </r>
       <r>    0.9471    0.0000 </r>
       <r>    0.9704    0.0000 </r>
       <r>    0.9973    0.0000 </r>
       <r>    1.0382    0.0000 </r>
       <r>    1.1590    0.0000 </r>
       <r>    1.1644    0.0000 </r>
       <r>    1.2054    0.0000 </r>
       <r>    1.3304    0.0000 </r>
       <r>    1.3914    0.0000 </r>
       <r>    1.4878    0.0000 </r>
       <r>    1.5650    0.0000 </r>
       <r>    1.5837    0.0000 </r>
       <r>    1.6233    0.0000 </r>
      </set>
      <set comment="kpoint 42">
       <r>   -9.4101    1.0000 </r>
       <r>   -3.5732    0.1667 </r>
       <r>   -3.5731    0.1667 </r>
       <r>   -3.5731    0.1660 </r>
       <r>   -0.2397    0.0000 </r>
       <r>    0.2308    0.0000 </r>
       <r>    0.3267    0.0000 </r>
       <r>    0.4449    0.0000 </r>
       <r>    0.5813    0.0000 </r>
       <r>    0.7069    0.0000 </r>
       <r>    0.7400    0.0000 </r>
       <r>    0.9232    0.0000 </r>
       <r>    0.9614    0.0000 </r>
       <r>    1.0018    0.0000 </r>
       <r>    1.0703    0.0000 </r>
       <r>    1.1219    0.0000 </r>
       <r>    1.1950    0.0000 </r>
       <r>    1.3046    0.0000 </r>
       <r>    1.3983    0.0000 </r>
       <r>    1.4084    0.0000 </r>
       <r>    1.4914    0.0000 </r>
       <r>    1.5091    0.0000 </r>
       <r>    1.5287    0.0000 </r>
       <r>    1.6020    0.0000 </r>
      </set>
      <set comment="kpoint 43">
       <r>   -9.4101    1.0000 </r>
       <r>   -3.5732    0.1667 </r>
       <r>   -3.5732    0.1667 </r>
       <r>   -3.5731    0.1660 </r>
       <r>   -0.2218    0.0000 </r>
       <r>    0.2054    0.0000 </r>
       <r>    0.2868    0.0000 </r>
       <r>    0.4644    0.0000 </r>
       <r>    0.6012    0.0000 </r>
       <r>    0.6274    0.0000 </r>
       <r>    0.8089    0.0000 </r>
       <r>    0.8818    0.0000 </r>
       <r>    0.9614    0.0000 </r>
       <r>    1.0038    0.0000 </r>
       <r>    1.0295    0.0000 </r>
       <r>    1.2137    0.0000 </r>
       <r>    1.2605    0.0000 </r>
       <r>    1.3435    0.0000 </r>
       <r>    1.4075    0.0000 </r>
       <r>    1.4123    0.0000 </r>
       <r>    1.4768    0.0000 </r>
       <r>    1.5300    0.0000 </r>
       <r>    1.5744    0.0000 </r>
       <r>    1.5954    0.0000 </r>
      </set>
      <set comment="kpoint 44">
       <r>   -9.4101    1.0000 </r>
       <r>   -3.5732    0.1668 </r>
       <r>   -3.5732    0.1667 </r>
       <r>   -3.5731    0.1660 </r>
       <r>   -0.1999    0.0000 </r>
       <r>    0.1441    0.0000 </r>
       <r>    0.3090    0.0000 </r>
       <r>    0.4933    0.0000 </r>
       <r>    0.5459    0.0000 </r>
       <r>    0.6278    0.0000 </r>
       <r>    0.7342    0.0000 </r>
       <r>    0.8961    0.0000 </r>
       <r>    1.0160    0.0000 </r>
       <r>    1.0398    0.0000 </r>
       <r>    1.0584    0.0000 </r>
       <r>    1.2384    0.0000 </r>
       <r>    1.2805    0.0000 </r>
       <r>    1.3159    0.0000 </r>
       <r>    1.4116    0.0000 </r>
       <r>    1.4696    0.0000 </r>
       <r>    1.4869    0.0000 </r>
       <r>    1.5501    0.0000 </r>
       <r>    1.5976    0.0000 </r>
       <r>    1.6471    0.0000 </r>
      </set>
      <set comment="kpoint 45">
       <r>   -9.4101    1.0000 </r>
       <r>   -3.5732    0.1668 </r>
       <r>   -3.5732    0.1667 </r>
       <r>   -3.5731    0.1660 </r>
       <r>   -0.1832    0.0000 </r>
       <r>    0.1042    0.0000 </r>
       <r>    0.3392    0.0000 </r>
       <r>    0.4798    0.0000 </r>
       <r>    0.5331    0.0000 </r>
       <r>    0.6498    0.0000 </r>
       <r>    0.6775    0.0000 </r>
       <r>    0.8531    0.0000 </r>
       <r>    1.0355    0.0000 </r>
       <r>    1.0860    0.0000 </r>
       <r>    1.1962    0.0000 </r>
       <r>    1.2196    0.0000 </r>
       <r>    1.2587    0.0000 </r>
       <r>    1.3067    0.0000 </r>
       <r>    1.4104    0.0000 </r>
       <r>    1.4262    0.0000 </r>
       <r>    1.4813    0.0000 </r>
       <r>    1.5779    0.0000 </r>
       <r>    1.5961    0.0000 </r>
       <r>    1.6545    0.0000 </r>
      </set>
      <set comment="kpoint 46">
       <r>   -9.4101    1.0000 </r>
       <r>   -3.5732    0.1667 </r>
       <r>   -3.5731    0.1666 </r>
       <r>   -3.5731    0.1663 </r>
       <r>   -0.2316    0.0000 </r>
       <r>    0.2428    0.0000 </r>
       <r>    0.4007    0.0000 </r>
       <r>    0.4697    0.0000 </r>
       <r>    0.4810    0.0000 </r>
       <r>    0.6091    0.0000 </r>
       <r>    0.8472    0.0000 </r>
       <r>    0.8783    0.0000 </r>
       <r>    0.9911    0.0000 </r>
       <r>    1.0219    0.0000 </r>
       <r>    1.0614    0.0000 </r>
       <r>    1.0921    0.0000 </r>
       <r>    1.1238    0.0000 </r>
       <r>    1.1970    0.0000 </r>
       <r>    1.2318    0.0000 </r>
       <r>    1.4724    0.0000 </r>
       <r>    1.5009    0.0000 </r>
       <r>    1.5469    0.0000 </r>
       <r>    1.6172    0.0000 </r>
       <r>    1.6597    0.0000 </r>
      </set>
      <set comment="kpoint 47">
       <r>   -9.4101    1.0000 </r>
       <r>   -3.5732    0.1667 </r>
       <r>   -3.5731    0.1667 </r>
       <r>   -3.5731    0.1663 </r>
       <r>   -0.2219    0.0000 </r>
       <r>    0.2480    0.0000 </r>
       <r>    0.3436    0.0000 </r>
       <r>    0.4477    0.0000 </r>
[...]
       <r>    1.0299    0.0000 </r>
       <r>    1.0676    0.0000 </r>
       <r>    1.1330    0.0000 </r>
       <r>    1.1553    0.0000 </r>
       <r>    1.2781    0.0000 </r>
       <r>    1.5621    0.0000 </r>
       <r>    1.6785    0.0000 </r>
       <r>    1.7112    0.0000 </r>
       <r>    1.7577    0.0000 </r>
      </set>
      <set comment="kpoint 172">
       <r>   -9.4101    1.0000 </r>
       <r>   -3.5733    0.1675 </r>
       <r>   -3.5731    0.1666 </r>
       <r>   -3.5731    0.1666 </r>
       <r>   -0.0855    0.0000 </r>
       <r>    0.1966    0.0000 </r>
       <r>    0.2644    0.0000 </r>
       <r>    0.3626    0.0000 </r>
       <r>    0.5226    0.0000 </r>
       <r>    0.6840    0.0000 </r>
       <r>    0.7295    0.0000 </r>
       <r>    0.8282    0.0000 </r>
       <r>    0.9126    0.0000 </r>
       <r>    0.9828    0.0000 </r>
       <r>    1.0523    0.0000 </r>
       <r>    1.1053    0.0000 </r>
       <r>    1.1279    0.0000 </r>
       <r>    1.1856    0.0000 </r>
       <r>    1.2283    0.0000 </r>
       <r>    1.3008    0.0000 </r>
       <r>    1.4685    0.0000 </r>
       <r>    1.5975    0.0000 </r>
       <r>    1.6246    0.0000 </r>
       <r>    1.7436    0.0000 </r>
      </set>
      <set comment="kpoint 173">
       <r>   -9.4101    1.0000 </r>
       <r>   -3.5733    0.1674 </r>
       <r>   -3.5731    0.1666 </r>
       <r>   -3.5731    0.1666 </r>
       <r>   -0.0701    0.0000 </r>
       <r>    0.2177    0.0000 </r>
       <r>    0.2882    0.0000 </r>
       <r>    0.3880    0.0000 </r>
       <r>    0.4334    0.0000 </r>
       <r>    0.5878    0.0000 </r>
       <r>    0.6311    0.0000 </r>
       <r>    0.7251    0.0000 </r>
       <r>    1.0090    0.0000 </r>
       <r>    1.0562    0.0000 </r>
       <r>    1.1328    0.0000 </r>
       <r>    1.1538    0.0000 </r>
       <r>    1.2187    0.0000 </r>
       <r>    1.2924    0.0000 </r>
       <r>    1.3061    0.0000 </r>
       <r>    1.3814    0.0000 </r>
       <r>    1.4126    0.0000 </r>
       <r>    1.4999    0.0000 </r>
       <r>    1.5388    0.0000 </r>
       <r>    1.6496    0.0000 </r>
      </set>
      <set comment="kpoint 174">
       <r>   -9.4101    1.0000 </r>
       <r>   -3.5733    0.1674 </r>
       <r>   -3.5731    0.1666 </r>
       <r>   -3.5731    0.1666 </r>
       <r>   -0.0521    0.0000 </r>
       <r>    0.2458    0.0000 </r>
       <r>    0.3216    0.0000 </r>
       <r>    0.3651    0.0000 </r>
       <r>    0.4251    0.0000 </r>
       <r>    0.5097    0.0000 </r>
       <r>    0.5470    0.0000 </r>
       <r>    0.6355    0.0000 </r>
       <r>    1.0400    0.0000 </r>
       <r>    1.1697    0.0000 </r>
       <r>    1.1781    0.0000 </r>
       <r>    1.2130    0.0000 </r>
       <r>    1.2936    0.0000 </r>
       <r>    1.3139    0.0000 </r>
       <r>    1.3926    0.0000 </r>
       <r>    1.4185    0.0000 </r>
       <r>    1.4475    0.0000 </r>
       <r>    1.5004    0.0000 </r>
       <r>    1.5633    0.0000 </r>
       <r>    1.5800    0.0000 </r>
      </set>
      <set comment="kpoint 175">
       <r>   -9.4101    1.0000 </r>
       <r>   -3.5733    0.1674 </r>
       <r>   -3.5731    0.1667 </r>
       <r>   -3.5731    0.1666 </r>
       <r>   -0.0392    0.0000 </r>
       <r>    0.2711    0.0000 </r>
       <r>    0.3246    0.0000 </r>
       <r>    0.3579    0.0000 </r>
       <r>    0.4540    0.0000 </r>
       <r>    0.4735    0.0000 </r>
       <r>    0.4883    0.0000 </r>
       <r>    0.5650    0.0000 </r>
       <r>    1.0674    0.0000 </r>
       <r>    1.2033    0.0000 </r>
       <r>    1.2107    0.0000 </r>
       <r>    1.2267    0.0000 </r>
       <r>    1.3373    0.0000 </r>
       <r>    1.3584    0.0000 </r>
       <r>    1.3710    0.0000 </r>
       <r>    1.4375    0.0000 </r>
       <r>    1.4909    0.0000 </r>
       <r>    1.5732    0.0000 </r>
       <r>    1.6015    0.0000 </r>
       <r>    1.6617    0.0000 </r>
      </set>
     </set>
    </set>
   </array>
  </eigenvalues>
  <separator name="orbital magnetization" >
   <v name="MAGDIPOLOUT">      0.00000000      0.00000000      0.00000000</v>
  </separator>
  <dos>
   <i name="efermi">     -3.60735069 </i>
   <total>
    <array>
     <dimension dim="1">gridpoints</dimension>
     <dimension dim="2">spin</dimension>
     <field>energy</field>
     <field>total</field>
     <field>integrated</field>
     <set>
      <set comment="spin 1">
       <r>    -9.9766     0.0000     0.0000 </r>
       <r>    -9.9351     0.0000     0.0000 </r>
       <r>    -9.8935     0.0000     0.0000 </r>
       <r>    -9.8520     0.0000     0.0000 </r>
       <r>    -9.8104     0.0000     0.0000 </r>
       <r>    -9.7689     0.0000     0.0000 </r>
       <r>    -9.7273     0.0000     0.0000 </r>
       <r>    -9.6858     0.0000     0.0000 </r>
       <r>    -9.6442     0.0000     0.0000 </r>
       <r>    -9.6027     0.0000     0.0000 </r>
       <r>    -9.5611     0.0005     0.0000 </r>
       <r>    -9.5196     0.0464     0.0019 </r>
       <r>    -9.4780     1.2644     0.0545 </r>
       <r>    -9.4365     9.6293     0.4546 </r>
       <r>    -9.3949    21.0911     1.3308 </r>
       <r>    -9.3534    13.4808     1.8909 </r>
       <r>    -9.3119     2.4930     1.9945 </r>
       <r>    -9.2703     0.1299     1.9999 </r>
       <r>    -9.2288     0.0019     2.0000 </r>
       <r>    -9.1872     0.0000     2.0000 </r>
       <r>    -9.1457     0.0000     2.0000 </r>
       <r>    -9.1041     0.0000     2.0000 </r>
       <r>    -9.0626     0.0000     2.0000 </r>
       <r>    -9.0210     0.0000     2.0000 </r>
       <r>    -8.9795     0.0000     2.0000 </r>
       <r>    -8.9379     0.0000     2.0000 </r>
       <r>    -8.8964     0.0000     2.0000 </r>
       <r>    -8.8548     0.0000     2.0000 </r>
       <r>    -8.8133     0.0000     2.0000 </r>
       <r>    -8.7717     0.0000     2.0000 </r>
       <r>    -8.7302     0.0000     2.0000 </r>
       <r>    -8.6886     0.0000     2.0000 </r>
       <r>    -8.6471     0.0000     2.0000 </r>
       <r>    -8.6055     0.0000     2.0000 </r>
       <r>    -8.5640     0.0000     2.0000 </r>
       <r>    -8.5224     0.0000     2.0000 </r>
       <r>    -8.4809     0.0000     2.0000 </r>
       <r>    -8.4393     0.0000     2.0000 </r>
       <r>    -8.3978     0.0000     2.0000 </r>
       <r>    -8.3563     0.0000     2.0000 </r>
       <r>    -8.3147     0.0000     2.0000 </r>
       <r>    -8.2732     0.0000     2.0000 </r>
       <r>    -8.2316     0.0000     2.0000 </r>
       <r>    -8.1901     0.0000     2.0000 </r>
       <r>    -8.1485     0.0000     2.0000 </r>
       <r>    -8.1070     0.0000     2.0000 </r>
       <r>    -8.0654     0.0000     2.0000 </r>
       <r>    -8.0239     0.0000     2.0000 </r>
       <r>    -7.9823     0.0000     2.0000 </r>
       <r>    -7.9408     0.0000     2.0000 </r>
       <r>    -7.8992     0.0000     2.0000 </r>
       <r>    -7.8577     0.0000     2.0000 </r>
       <r>    -7.8161     0.0000     2.0000 </r>
       <r>    -7.7746     0.0000     2.0000 </r>
       <r>    -7.7330     0.0000     2.0000 </r>
       <r>    -7.6915     0.0000     2.0000 </r>
       <r>    -7.6499     0.0000     2.0000 </r>
       <r>    -7.6084     0.0000     2.0000 </r>
       <r>    -7.5668     0.0000     2.0000 </r>
       <r>    -7.5253     0.0000     2.0000 </r>
       <r>    -7.4837     0.0000     2.0000 </r>
       <r>    -7.4422     0.0000     2.0000 </r>
       <r>    -7.4007     0.0000     2.0000 </r>
       <r>    -7.3591     0.0000     2.0000 </r>
       <r>    -7.3176     0.0000     2.0000 </r>
       <r>    -7.2760     0.0000     2.0000 </r>
       <r>    -7.2345     0.0000     2.0000 </r>
       <r>    -7.1929     0.0000     2.0000 </r>
       <r>    -7.1514     0.0000     2.0000 </r>
       <r>    -7.1098     0.0000     2.0000 </r>
       <r>    -7.0683     0.0000     2.0000 </r>
       <r>    -7.0267     0.0000     2.0000 </r>
       <r>    -6.9852     0.0000     2.0000 </r>
       <r>    -6.9436     0.0000     2.0000 </r>
       <r>    -6.9021     0.0000     2.0000 </r>
       <r>    -6.8605     0.0000     2.0000 </r>
       <r>    -6.8190     0.0000     2.0000 </r>
       <r>    -6.7774     0.0000     2.0000 </r>
       <r>    -6.7359     0.0000     2.0000 </r>
       <r>    -6.6943     0.0000     2.0000 </r>
       <r>    -6.6528     0.0000     2.0000 </r>
       <r>    -6.6112     0.0000     2.0000 </r>
       <r>    -6.5697     0.0000     2.0000 </r>
       <r>    -6.5281     0.0000     2.0000 </r>
       <r>    -6.4866     0.0000     2.0000 </r>
       <r>    -6.4451     0.0000     2.0000 </r>
       <r>    -6.4035     0.0000     2.0000 </r>
       <r>    -6.3620     0.0000     2.0000 </r>
       <r>    -6.3204     0.0000     2.0000 </r>
       <r>    -6.2789     0.0000     2.0000 </r>
       <r>    -6.2373     0.0000     2.0000 </r>
       <r>    -6.1958     0.0000     2.0000 </r>
       <r>    -6.1542     0.0000     2.0000 </r>
       <r>    -6.1127     0.0000     2.0000 </r>
       <r>    -6.0711     0.0000     2.0000 </r>
       <r>    -6.0296     0.0000     2.0000 </r>
       <r>    -5.9880     0.0000     2.0000 </r>
       <r>    -5.9465     0.0000     2.0000 </r>
       <r>    -5.9049     0.0000     2.0000 </r>
       <r>    -5.8634     0.0000     2.0000 </r>
       <r>    -5.8218     0.0000     2.0000 </r>
       <r>    -5.7803     0.0000     2.0000 </r>
       <r>    -5.7387     0.0000     2.0000 </r>
       <r>    -5.6972     0.0000     2.0000 </r>
       <r>    -5.6556     0.0000     2.0000 </r>
       <r>    -5.6141     0.0000     2.0000 </r>
       <r>    -5.5725     0.0000     2.0000 </r>
       <r>    -5.5310     0.0000     2.0000 </r>
       <r>    -5.4895     0.0000     2.0000 </r>
       <r>    -5.4479     0.0000     2.0000 </r>
       <r>    -5.4064     0.0000     2.0000 </r>
       <r>    -5.3648     0.0000     2.0000 </r>
       <r>    -5.3233     0.0000     2.0000 </r>
       <r>    -5.2817     0.0000     2.0000 </r>
       <r>    -5.2402     0.0000     2.0000 </r>
       <r>    -5.1986     0.0000     2.0000 </r>
       <r>    -5.1571     0.0000     2.0000 </r>
       <r>    -5.1155     0.0000     2.0000 </r>
       <r>    -5.0740     0.0000     2.0000 </r>
       <r>    -5.0324     0.0000     2.0000 </r>
       <r>    -4.9909     0.0000     2.0000 </r>
       <r>    -4.9493     0.0000     2.0000 </r>
       <r>    -4.9078     0.0000     2.0000 </r>
       <r>    -4.8662     0.0000     2.0000 </r>
       <r>    -4.8247     0.0000     2.0000 </r>
       <r>    -4.7831     0.0000     2.0000 </r>
       <r>    -4.7416     0.0000     2.0000 </r>
       <r>    -4.7000     0.0000     2.0000 </r>
       <r>    -4.6585     0.0000     2.0000 </r>
       <r>    -4.6169     0.0000     2.0000 </r>
       <r>    -4.5754     0.0000     2.0000 </r>
       <r>    -4.5338     0.0000     2.0000 </r>
       <r>    -4.4923     0.0000     2.0000 </r>
       <r>    -4.4508     0.0000     2.0000 </r>
       <r>    -4.4092     0.0000     2.0000 </r>
       <r>    -4.3677     0.0000     2.0000 </r>
       <r>    -4.3261     0.0000     2.0000 </r>
       <r>    -4.2846     0.0000     2.0000 </r>
       <r>    -4.2430     0.0000     2.0000 </r>
       <r>    -4.2015     0.0000     2.0000 </r>
       <r>    -4.1599     0.0000     2.0000 </r>
       <r>    -4.1184     0.0000     2.0000 </r>
       <r>    -4.0768     0.0000     2.0000 </r>
       <r>    -4.0353     0.0000     2.0000 </r>
       <r>    -3.9937     0.0000     2.0000 </r>
       <r>    -3.9522     0.0000     2.0000 </r>
       <r>    -3.9106     0.0000     2.0000 </r>
       <r>    -3.8691     0.0000     2.0000 </r>
       <r>    -3.8275     0.0000     2.0000 </r>
       <r>    -3.7860     0.0000     2.0000 </r>
       <r>    -3.7444     0.0001     2.0000 </r>
       <r>    -3.7029     0.0174     2.0007 </r>
       <r>    -3.6613     0.8930     2.0378 </r>
       <r>    -3.6198    12.5932     2.5610 </r>
       <r>    -3.5782    50.4172     4.6558 </r>
       <r>    -3.5367    58.6404     7.0922 </r>
       <r>    -3.4952    19.8732     7.9178 </r>
       <r>    -3.4536     1.9252     7.9978 </r>
       <r>    -3.4121     0.0517     8.0000 </r>
       <r>    -3.3705     0.0004     8.0000 </r>
       <r>    -3.3290     0.0000     8.0000 </r>
       <r>    -3.2874     0.0000     8.0000 </r>
       <r>    -3.2459     0.0000     8.0000 </r>
       <r>    -3.2043     0.0000     8.0000 </r>
       <r>    -3.1628     0.0000     8.0000 </r>
       <r>    -3.1212     0.0000     8.0000 </r>
       <r>    -3.0797     0.0000     8.0000 </r>
       <r>    -3.0381     0.0000     8.0000 </r>
       <r>    -2.9966     0.0000     8.0000 </r>
       <r>    -2.9550     0.0000     8.0000 </r>
       <r>    -2.9135     0.0000     8.0000 </r>
       <r>    -2.8719     0.0000     8.0000 </r>
       <r>    -2.8304     0.0000     8.0000 </r>
       <r>    -2.7888     0.0000     8.0000 </r>
       <r>    -2.7473     0.0000     8.0000 </r>
       <r>    -2.7057     0.0000     8.0000 </r>
       <r>    -2.6642     0.0000     8.0000 </r>
       <r>    -2.6226     0.0000     8.0000 </r>
       <r>    -2.5811     0.0000     8.0000 </r>
       <r>    -2.5396     0.0000     8.0000 </r>
       <r>    -2.4980     0.0000     8.0000 </r>
       <r>    -2.4565     0.0000     8.0000 </r>
       <r>    -2.4149     0.0000     8.0000 </r>
       <r>    -2.3734     0.0000     8.0000 </r>
       <r>    -2.3318     0.0000     8.0000 </r>
       <r>    -2.2903     0.0000     8.0000 </r>
       <r>    -2.2487     0.0000     8.0000 </r>
       <r>    -2.2072     0.0000     8.0000 </r>
       <r>    -2.1656     0.0000     8.0000 </r>
       <r>    -2.1241     0.0000     8.0000 </r>
       <r>    -2.0825     0.0000     8.0000 </r>
       <r>    -2.0410     0.0000     8.0000 </r>
       <r>    -1.9994     0.0000     8.0000 </r>
       <r>    -1.9579     0.0000     8.0000 </r>
       <r>    -1.9163     0.0000     8.0000 </r>
       <r>    -1.8748     0.0000     8.0000 </r>
       <r>    -1.8332     0.0000     8.0000 </r>
       <r>    -1.7917     0.0000     8.0000 </r>
       <r>    -1.7501     0.0000     8.0000 </r>
       <r>    -1.7086     0.0000     8.0000 </r>
       <r>    -1.6670     0.0000     8.0000 </r>
       <r>    -1.6255     0.0000     8.0000 </r>
       <r>    -1.5840     0.0000     8.0000 </r>
       <r>    -1.5424     0.0000     8.0000 </r>
       <r>    -1.5009     0.0000     8.0000 </r>
       <r>    -1.4593     0.0000     8.0000 </r>
       <r>    -1.4178     0.0000     8.0000 </r>
       <r>    -1.3762     0.0000     8.0000 </r>
       <r>    -1.3347     0.0000     8.0000 </r>
       <r>    -1.2931     0.0000     8.0000 </r>
       <r>    -1.2516     0.0000     8.0000 </r>
       <r>    -1.2100     0.0000     8.0000 </r>
       <r>    -1.1685     0.0000     8.0000 </r>
       <r>    -1.1269     0.0000     8.0000 </r>
       <r>    -1.0854     0.0000     8.0000 </r>
       <r>    -1.0438     0.0000     8.0000 </r>
       <r>    -1.0023     0.0000     8.0000 </r>
       <r>    -0.9607     0.0000     8.0000 </r>
       <r>    -0.9192     0.0000     8.0000 </r>
       <r>    -0.8776     0.0000     8.0000 </r>
       <r>    -0.8361     0.0000     8.0000 </r>
       <r>    -0.7945     0.0000     8.0000 </r>
       <r>    -0.7530     0.0000     8.0000 </r>
       <r>    -0.7114     0.0000     8.0000 </r>
       <r>    -0.6699     0.0000     8.0000 </r>
       <r>    -0.6284     0.0000     8.0000 </r>
       <r>    -0.5868     0.0000     8.0000 </r>
       <r>    -0.5453     0.0000     8.0000 </r>
       <r>    -0.5037     0.0000     8.0000 </r>
       <r>    -0.4622     0.0000     8.0000 </r>
       <r>    -0.4206     0.0000     8.0000 </r>
       <r>    -0.3791     0.0004     8.0000 </r>
       <r>    -0.3375     0.0235     8.0010 </r>
       <r>    -0.2960     0.4094     8.0180 </r>
       <r>    -0.2544     2.6060     8.1263 </r>
       <r>    -0.2129     7.1831     8.4247 </r>
       <r>    -0.1713    10.5934     8.8649 </r>
       <r>    -0.1298    10.6027     9.3054 </r>
       <r>    -0.0882     8.8042     9.6712 </r>
       <r>    -0.0467     5.5539     9.9019 </r>
       <r>    -0.0051     2.0349     9.9865 </r>
       <r>     0.0364     0.6447    10.0133 </r>
       <r>     0.0780     1.8138    10.0886 </r>
       <r>     0.1195     5.2682    10.3075 </r>
       <r>     0.1611     9.9039    10.7190 </r>
       <r>     0.2026    13.7372    11.2897 </r>
       <r>     0.2442    15.5914    11.9375 </r>
       <r>     0.2857    15.8348    12.5954 </r>
       <r>     0.3272    15.9415    13.2578 </r>
       <r>     0.3688    16.2314    13.9321 </r>
       <r>     0.4103    16.5156    14.6183 </r>
       <r>     0.4519    17.5013    15.3455 </r>
       <r>     0.4934    18.5062    16.1144 </r>
       <r>     0.5350    18.5401    16.8847 </r>
       <r>     0.5765    18.9613    17.6725 </r>
       <r>     0.6181    19.8917    18.4989 </r>
       <r>     0.6596    20.3913    19.3461 </r>
       <r>     0.7012    20.9915    20.2183 </r>
       <r>     0.7427    22.3832    21.1483 </r>
       <r>     0.7843    22.5369    22.0846 </r>
       <r>     0.8258    21.9091    22.9949 </r>
       <r>     0.8674    23.2747    23.9619 </r>
       <r>     0.9089    24.5801    24.9832 </r>
       <r>     0.9505    24.3191    25.9936 </r>
       <r>     0.9920    24.8573    27.0263 </r>
       <r>     1.0336    25.9496    28.1045 </r>
       <r>     1.0751    26.0879    29.1884 </r>
       <r>     1.1167    26.1337    30.2742 </r>
       <r>     1.1582    26.8518    31.3898 </r>
       <r>     1.1998    27.7732    32.5437 </r>
       <r>     1.2413    27.4393    33.6838 </r>
       <r>     1.2828    27.5397    34.8280 </r>
       <r>     1.3244    28.6209    36.0171 </r>
       <r>     1.3659    28.7228    37.2105 </r>
       <r>     1.4075    28.4020    38.3905 </r>
       <r>     1.4490    29.3712    39.6109 </r>
       <r>     1.4906    30.9641    40.8973 </r>
       <r>     1.5321    30.1660    42.1507 </r>
       <r>     1.5737    29.6492    43.3825 </r>
       <r>     1.6152    30.1751    44.6362 </r>
       <r>     1.6568    27.8843    45.7948 </r>
       <r>     1.6983    21.4327    46.6853 </r>
       <r>     1.7399    14.2223    47.2762 </r>
       <r>     1.7814     8.4356    47.6267 </r>
       <r>     1.8230     4.8527    47.8283 </r>
       <r>     1.8645     2.6007    47.9363 </r>
       <r>     1.9061     1.1023    47.9821 </r>
       <r>     1.9476     0.3494    47.9966 </r>
       <r>     1.9892     0.0735    47.9997 </r>
       <r>     2.0307     0.0071    48.0000 </r>
       <r>     2.0723     0.0002    48.0000 </r>
       <r>     2.1138     0.0000    48.0000 </r>
       <r>     2.1554     0.0000    48.0000 </r>
       <r>     2.1969     0.0000    48.0000 </r>
       <r>     2.2384     0.0000    48.0000 </r>
       <r>     2.2800     0.0000    48.0000 </r>
       <r>     2.3215     0.0000    48.0000 </r>
       <r>     2.3631     0.0000    48.0000 </r>
       <r>     2.4046     0.0000    48.0000 </r>
       <r>     2.4462     0.0000    48.0000 </r>
       <r>     2.4877     0.0000    48.0000 </r>
      </set>
     </set>
    </array>
   </total>
  </dos>
 </calculation>
 <structure name="finalpos" >
  <crystal>
   <varray name="basis" >
    <v>      15.02250000       0.00000000       0.00000000 </v>
    <v>       0.00000000      12.51875000       0.00000000 </v>
    <v>       0.00000000       0.00000000      18.02700000 </v>
   </varray>
   <i name="volume">   3390.21029264 </i>
   <varray name="rec_basis" >
    <v>       0.06656682       0.00000000       0.00000000 </v>
    <v>       0.00000000       0.07988018       0.00000000 </v>
    <v>       0.00000000       0.00000000       0.05547235 </v>
   </varray>
  </crystal>
  <varray name="positions" >
   <v>       0.52123000       0.54500000       0.63796000 </v>
  </varray>
 </structure>
</modeling>
