Convergence                             
           1
    15.022500    0.000000    0.000000
     0.000000   12.518750    0.000000
     0.000000    0.000000   18.027000
   B 
     1
Direct configuration=     1
   0.52123000  0.54500000  0.63796000
