   14   14    1    1
  0.1021960E+02  0.5697000E-09  0.4047900E-09  0.6204200E-09  0.5000000E-15
  1.000000000000000E-004
  CAR 
 Kpoints                                 
     42   1260     48
 
  0.0000000E+00  0.0000000E+00  0.0000000E+00  0.1146657E-03
      1        -12.733231   1.000000
      2        -11.576221   1.000000
      3         -8.662110   1.000000
      4         -8.424867   1.000000
      5         -6.077454   1.000000
      6         -5.059450   1.000000
      7         -4.638342   1.000000
      8         -4.349587   1.000000
      9         -3.973577   1.000000
     10         -3.598687   1.000000
     11         -2.421999   1.000000
     12         -2.242578   1.000000
     13         -2.183353   1.000000
     14         -1.052901   1.000000
     15         -0.037404   1.000000
     16         -0.003513   1.000000
     17          0.149371   1.000000
     18          0.172933   1.000000
     19          0.564626   1.000000
     20          2.079581   0.000000
     21          2.125790   0.000000
     22          2.214610   0.000000
     23          5.411417   0.000000
     24          5.801577   0.000000
     25          5.817204   0.000000
     26          5.910531   0.000000
     27          6.785690   0.000000
     28          7.672629   0.000000
     29          7.701086   0.000000
     30          8.634080   0.000000
     31          8.752550   0.000000
     32          8.852924   0.000000
     33          9.040651   0.000000
     34         10.029337   0.000000
     35         11.144213   0.000000
     36         11.399296   0.000000
     37         11.769205   0.000000
     38         11.801902   0.000000
     39         11.898964   0.000000
     40         12.354403   0.000000
     41         12.804489   0.000000
     42         13.394564   0.000000
     43         13.573491   0.000000
     44         15.554363   0.000000
     45         15.567377   0.000000
     46         15.941738   0.000000
     47         16.358286   0.000000
     48         16.598645   0.000000
 
  0.5263158E-01  0.0000000E+00  0.0000000E+00  0.2293315E-03
      1        -12.727133   1.000000
      2        -11.586861   1.000000
      3         -8.659295   1.000000
      4         -8.423054   1.000000
      5         -6.064610   1.000000
      6         -5.141424   1.000000
      7         -4.670176   1.000000
      8         -4.252830   1.000000
      9         -3.965040   1.000000
     10         -3.539516   1.000000
     11         -2.419379   1.000000
     12         -2.244291   1.000000
     13         -2.203323   1.000000
     14         -1.099050   1.000000
     15         -0.031301   1.000000
     16          0.006671   1.000000
     17          0.154169   1.000000
     18          0.156518   1.000000
     19          0.550563   1.000000
     20          2.066592   0.000000
     21          2.114325   0.000000
     22          2.198135   0.000000
     23          5.425290   0.000000
     24          5.793620   0.000000
     25          5.797077   0.000000
     26          5.991811   0.000000
     27          6.772425   0.000000
     28          7.497022   0.000000
     29          7.846666   0.000000
     30          8.654367   0.000000
     31          8.808241   0.000000
     32          8.889795   0.000000
     33          9.043562   0.000000
     34         10.047653   0.000000
     35         11.154519   0.000000
     36         11.339478   0.000000
     37         11.664553   0.000000
     38         11.766324   0.000000
     39         11.931754   0.000000
     40         12.366571   0.000000
     41         12.874139   0.000000
     42         13.503432   0.000000
     43         13.516148   0.000000
     44         15.362732   0.000000
     45         15.602039   0.000000
     46         16.079913   0.000000
     47         16.344947   0.000000
     48         16.374173   0.000000
 
  0.1052632E+00  0.0000000E+00  0.0000000E+00  0.2293315E-03
      1        -12.708885   1.000000
      2        -11.618132   1.000000
      3         -8.650648   1.000000
      4         -8.417933   1.000000
      5         -6.031236   1.000000
      6         -5.313738   1.000000
      7         -4.739051   1.000000
      8         -4.036538   1.000000
      9         -3.939459   1.000000
     10         -3.384742   1.000000
     11         -2.411418   1.000000
     12         -2.261174   1.000000
     13         -2.249371   1.000000
     14         -1.231684   1.000000
     15         -0.013213   1.000000
     16          0.035669   1.000000
     17          0.098763   1.000000
     18          0.175910   1.000000
     19          0.509053   1.000000
     20          2.028953   0.000010
     21          2.080983   0.000000
     22          2.148607   0.000000
     23          5.464143   0.000000
     24          5.771798   0.000000
     25          5.814342   0.000000
     26          6.156109   0.000000
     27          6.734808   0.000000
     28          7.299759   0.000000
     29          7.968973   0.000000
     30          8.712254   0.000000
     31          8.957460   0.000000
     32          8.995084   0.000000
     33          9.050670   0.000000
     34         10.103902   0.000000
     35         11.168631   0.000000
     36         11.185853   0.000000
     37         11.410046   0.000000
     38         11.703485   0.000000
     39         12.026896   0.000000
     40         12.402679   0.000000
     41         13.024288   0.000000
     42         13.356981   0.000000
     43         13.771235   0.000000
     44         15.058935   0.000000
     45         15.695529   0.000000
     46         16.063397   0.000000
     47         16.246002   0.000000
     48         16.420283   0.000000
 
  0.1578947E+00  0.0000000E+00  0.0000000E+00  0.2293315E-03
      1        -12.678704   1.000000
      2        -11.668213   1.000000
      3         -8.635856   1.000000
      4         -8.410473   1.000000
      5         -5.992808   1.000000
      6         -5.502488   1.000000
      7         -4.795006   1.000000
      8         -3.897060   1.000000
      9         -3.776145   1.000000
     10         -3.172694   1.000000
     11         -2.397803   1.000000
     12         -2.351423   1.000000
     13         -2.257681   1.000000
     14         -1.436214   1.000000
     15          0.009152   1.000000
     16          0.016130   1.000000
     17          0.079309   1.000000
     18          0.196233   1.000000
     19          0.448762   1.000000
     20          1.970296   0.004500
     21          2.028564   0.000010
     22          2.066105   0.000000
     23          5.520435   0.000000
     24          5.741648   0.000000
     25          5.897033   0.000000
     26          6.369600   0.000000
     27          6.678650   0.000000
     28          7.113720   0.000000
     29          8.065916   0.000000
     30          8.797399   0.000000
     31          9.030993   0.000000
     32          9.162261   0.000000
     33          9.180131   0.000000
     34         10.204024   0.000000
     35         10.908628   0.000000
     36         11.092579   0.000000
     37         11.238001   0.000000
     38         11.678177   0.000000
     39         12.167567   0.000000
     40         12.469035   0.000000
     41         13.123026   0.000000
     42         13.133699   0.000000
     43         14.114358   0.000000
     44         14.819605   0.000000
     45         15.757736   0.000000
     46         15.826788   0.000000
     47         16.320846   0.000000
     48         16.492519   0.000000
 
  0.2105263E+00  0.0000000E+00  0.0000000E+00  0.2293315E-03
      1        -12.636947   1.000000
      2        -11.734362   1.000000
      3         -8.614725   1.000000
      4         -8.402273   1.000000
      5         -5.971558   1.000000
      6         -5.680847   1.000000
      7         -4.795091   1.000000
      8         -3.838219   1.000000
      9         -3.501995   1.000000
     10         -2.930309   1.000000
     11         -2.466818   1.000000
     12         -2.378038   1.000000
     13         -2.268840   1.000000
     14         -1.693317   1.000000
     15         -0.110706   1.000000
     16          0.055414   1.000000
     17          0.132006   1.000000
     18          0.172528   1.000000
     19          0.413996   1.000000
     20          1.896629   0.298598
     21          1.952089   0.017994
     22          1.961376   0.009144
     23          5.584220   0.000000
     24          5.710785   0.000000
     25          6.046269   0.000000
     26          6.612240   0.000000
     27          6.622034   0.000000
     28          6.949879   0.000000
     29          8.149122   0.000000
     30          8.887127   0.000000
     31          8.995815   0.000000
     32          9.392021   0.000000
     33          9.407412   0.000000
     34         10.360718   0.000000
     35         10.583757   0.000000
     36         10.773502   0.000000
     37         11.305157   0.000000
     38         11.722771   0.000000
     39         12.303060   0.000000
     40         12.600981   0.000000
     41         12.839760   0.000000
     42         13.079583   0.000000
     43         14.487463   0.000000
     44         14.746997   0.000000
     45         15.441644   0.000000
     46         15.978063   0.000000
     47         16.216280   0.000000
     48         16.490501   0.000000
 
  0.2631579E+00  0.0000000E+00  0.0000000E+00  0.2293315E-03
      1        -12.584150   1.000000
      2        -11.813266   1.000000
      3         -8.587624   1.000000
      4         -8.395436   1.000000
      5         -5.983184   1.000000
      6         -5.837745   1.000000
      7         -4.714641   1.000000
      8         -3.763472   1.000000
      9         -3.233742   1.000000
     10         -2.675765   1.000000
     11         -2.599839   1.000000
     12         -2.353227   1.000000
     13         -2.281530   1.000000
     14         -1.978563   1.000000
     15         -0.255089   1.000000
     16          0.058313   1.000000
     17          0.102590   1.000000
     18          0.187523   1.000000
     19          0.454206   1.000000
     20          1.810376   0.972009
     21          1.815951   0.960240
     22          1.884967   0.421295
     23          5.645320   0.000000
     24          5.686562   0.000000
     25          6.257915   0.000000
     26          6.545092   0.000000
     27          6.811543   0.000000
     28          6.906158   0.000000
     29          8.223661   0.000000
     30          8.929848   0.000000
     31          8.935355   0.000000
     32          9.633286   0.000000
     33          9.668015   0.000000
     34         10.213191   0.000000
     35         10.517268   0.000000
     36         10.589151   0.000000
     37         11.369822   0.000000
     38         11.841193   0.000000
     39         12.390266   0.000000
     40         12.525877   0.000000
     41         12.823860   0.000000
     42         12.841655   0.000000
     43         14.832067   0.000000
     44         14.868344   0.000000
     45         15.128947   0.000000
     46         15.966865   0.000000
     47         16.095042   0.000000
     48         16.136572   0.000000
 
  0.3157895E+00  0.0000000E+00  0.0000000E+00  0.2293315E-03
      1        -12.521008   1.000000
      2        -11.901370   1.000000
      3         -8.555647   1.000000
      4         -8.392402   1.000000
      5         -6.023927   1.000000
      6         -5.966919   1.000000
      7         -4.554321   1.000000
      8         -3.673559   1.000000
      9         -3.002799   1.000000
     10         -2.743623   1.000000
     11         -2.434506   1.000000
     12         -2.372073   1.000000
     13         -2.284714   1.000000
     14         -2.207463   1.000000
     15         -0.415162   1.000000
     16         -0.112341   1.000000
     17          0.154618   1.000000
     18          0.239387   1.000000
     19          0.542033   1.000000
     20          1.647400   1.000000
     21          1.737608   0.999964
     22          1.805743   0.979435
     23          5.674066   0.000000
     24          5.694669   0.000000
     25          6.487139   0.000000
     26          6.524979   0.000000
     27          6.697675   0.000000
     28          7.216204   0.000000
     29          8.291286   0.000000
     30          8.841733   0.000000
     31          8.870019   0.000000
     32          9.818927   0.000000
     33          9.883956   0.000000
     34          9.936577   0.000000
     35         10.397793   0.000000
     36         10.897278   0.000000
     37         11.403891   0.000000
     38         12.022063   0.000000
     39         12.194703   0.000000
     40         12.455847   0.000000
     41         12.502705   0.000000
     42         13.082379   0.000000
     43         14.840454   0.000000
     44         14.954401   0.000000
     45         15.243493   0.000000
     46         15.602211   0.000000
     47         15.658975   0.000000
     48         16.288728   0.000000
 
  0.3684211E+00  0.0000000E+00  0.0000000E+00  0.2293315E-03
      1        -12.448431   1.000000
      2        -11.995151   1.000000
      3         -8.520722   1.000000
      4         -8.395501   1.000000
      5         -6.076704   1.000000
      6         -6.064283   1.000000
      7         -4.330566   1.000000
      8         -3.569427   1.000000
      9         -2.920214   1.000000
     10         -2.892276   1.000000
     11         -2.525702   1.000000
     12         -2.349143   1.000000
     13         -2.177329   1.000000
     14         -2.154365   1.000000
     15         -0.575106   1.000000
     16         -0.308148   1.000000
     17          0.207279   1.000000
     18          0.280865   1.000000
     19          0.657001   1.000000
     20          1.471376   1.000000
     21          1.671628   1.000000
     22          1.730954   0.999984
     23          5.675030   0.000000
     24          5.725391   0.000000
     25          6.447679   0.000000
     26          6.605623   0.000000
     27          6.838867   0.000000
     28          7.547583   0.000000
     29          8.354407   0.000000
     30          8.652991   0.000000
     31          8.744324   0.000000
     32          9.419208   0.000000
     33         10.143025   0.000000
     34         10.192137   0.000000
     35         10.450953   0.000000
     36         11.275685   0.000000
     37         11.386588   0.000000
     38         11.856472   0.000000
     39         12.129828   0.000000
     40         12.253307   0.000000
     41         12.509905   0.000000
     42         13.288610   0.000000
     43         14.617916   0.000000
     44         15.013108   0.000000
     45         15.136463   0.000000
     46         15.333974   0.000000
     47         15.601926   0.000000
     48         16.412341   0.000000
 
  0.4210526E+00  0.0000000E+00  0.0000000E+00  0.2293315E-03
      1        -12.367582   1.000000
      2        -12.091370   1.000000
      3         -8.485474   1.000000
      4         -8.406468   1.000000
      5         -6.127553   1.000000
      6         -6.124224   1.000000
      7         -4.061356   1.000000
      8         -3.452326   1.000000
      9         -3.133916   1.000000
     10         -3.040998   1.000000
     11         -2.503767   1.000000
     12         -2.367717   1.000000
     13         -2.058319   1.000000
     14         -1.975149   1.000000
     15         -0.703456   1.000000
     16         -0.505369   1.000000
     17          0.254962   1.000000
     18          0.305606   1.000000
     19          0.792827   1.000000
     20          1.290897   1.000000
     21          1.627405   1.000000
     22          1.668515   1.000000
     23          5.687676   0.000000
     24          5.734725   0.000000
     25          6.433000   0.000000
     26          6.532953   0.000000
     27          7.189713   0.000000
     28          7.896614   0.000000
     29          8.327503   0.000000
     30          8.417231   0.000000
     31          8.648670   0.000000
     32          9.023723   0.000000
     33         10.395324   0.000000
     34         10.416549   0.000000
     35         10.634819   0.000000
     36         11.331635   0.000000
     37         11.520236   0.000000
     38         11.682650   0.000000
     39         11.783463   0.000000
     40         12.509604   0.000000
     41         12.513798   0.000000
     42         13.311382   0.000000
     43         14.540044   0.000000
     44         14.815819   0.000000
     45         14.972057   0.000000
     46         15.027320   0.000000
     47         15.931076   0.000000
     48         16.467663   0.000000
 
  0.4736842E+00  0.0000000E+00  0.0000000E+00  0.2293315E-03
      1        -12.279893   1.000000
      2        -12.187119   1.000000
      3         -8.452906   1.000000
      4         -8.425876   1.000000
      5         -6.156566   1.000000
      6         -6.153707   1.000000
      7         -3.761551   1.000000
      8         -3.445020   1.000000
      9         -3.323818   1.000000
     10         -3.185882   1.000000
     11         -2.444077   1.000000
     12         -2.399853   1.000000
     13         -1.935043   1.000000
     14         -1.890594   1.000000
     15         -0.746807   1.000000
     16         -0.669452   1.000000
     17          0.291037   1.000000
     18          0.309177   1.000000
     19          0.946205   1.000000
     20          1.113756   1.000000
     21          1.611694   1.000000
     22          1.626495   1.000000
     23          5.707175   0.000000
     24          5.725946   0.000000
     25          6.444315   0.000000
     26          6.478743   0.000000
     27          7.565958   0.000000
     28          7.952635   0.000000
     29          8.260421   0.000000
     30          8.484863   0.000000
     31          8.561473   0.000000
     32          8.636753   0.000000
     33         10.573842   0.000000
     34         10.576660   0.000000
     35         10.894125   0.000000
     36         11.195446   0.000000
     37         11.316901   0.000000
     38         11.469759   0.000000
     39         12.092910   0.000000
     40         12.381741   0.000000
     41         12.802602   0.000000
     42         13.101517   0.000000
     43         14.621433   0.000000
     44         14.737140   0.000000
     45         14.779530   0.000000
     46         14.851624   0.000000
     47         16.210727   0.000000
     48         16.403664   0.000000
 
  0.0000000E+00  0.3703704E-01  0.0000000E+00  0.2293315E-03
      1        -12.729919   1.000000
      2        -11.573242   1.000000
      3         -8.659511   1.000000
      4         -8.421661   1.000000
      5         -6.073787   1.000000
      6         -5.054318   1.000000
      7         -4.635300   1.000000
      8         -4.359088   1.000000
      9         -4.049530   1.000000
     10         -3.595248   1.000000
     11         -2.601025   1.000000
     12         -2.324048   1.000000
     13         -1.809908   1.000000
     14         -1.052287   1.000000
     15         -0.077689   1.000000
     16         -0.051037   1.000000
     17          0.151812   1.000000
     18          0.195524   1.000000
     19          0.580731   1.000000
     20          2.027043   0.000012
     21          2.088519   0.000000
     22          2.235360   0.000000
     23          5.447305   0.000000
     24          5.759445   0.000000
     25          5.860786   0.000000
     26          5.877498   0.000000
     27          6.828418   0.000000
     28          7.728189   0.000000
     29          7.729192   0.000000
     30          8.508972   0.000000
     31          8.752309   0.000000
     32          8.920750   0.000000
     33          9.048860   0.000000
     34         10.115173   0.000000
     35         11.177873   0.000000
     36         11.387648   0.000000
     37         11.758004   0.000000
     38         11.817260   0.000000
     39         11.913101   0.000000
     40         12.394300   0.000000
     41         12.806030   0.000000
     42         13.348781   0.000000
     43         13.526143   0.000000
     44         15.538470   0.000000
     45         15.549140   0.000000
     46         15.953190   0.000000
     47         16.331791   0.000000
     48         16.483502   0.000000
 
  0.5263158E-01  0.3703704E-01  0.0000000E+00  0.4586630E-03
      1        -12.723816   1.000000
      2        -11.583879   1.000000
      3         -8.656688   1.000000
      4         -8.419850   1.000000
      5         -6.060909   1.000000
      6         -5.136700   1.000000
      7         -4.667159   1.000000
      8         -4.266697   1.000000
      9         -4.036348   1.000000
     10         -3.536135   1.000000
     11         -2.610537   1.000000
     12         -2.321293   1.000000
     13         -1.822549   1.000000
     14         -1.098404   1.000000
     15         -0.071749   1.000000
     16         -0.042291   1.000000
     17          0.159164   1.000000
     18          0.178666   1.000000
     19          0.566643   1.000000
     20          2.014408   0.000057
     21          2.077080   0.000000
     22          2.218474   0.000000
     23          5.461452   0.000000
     24          5.746907   0.000000
     25          5.839275   0.000000
     26          5.964503   0.000000
     27          6.815205   0.000000
     28          7.540656   0.000000
     29          7.886619   0.000000
     30          8.530319   0.000000
     31          8.808708   0.000000
     32          8.957078   0.000000
     33          9.053053   0.000000
     34         10.129736   0.000000
     35         11.187806   0.000000
     36         11.327915   0.000000
     37         11.654345   0.000000
     38         11.780355   0.000000
     39         11.945985   0.000000
     40         12.406317   0.000000
     41         12.875914   0.000000
     42         13.458326   0.000000
     43         13.469115   0.000000
     44         15.368163   0.000000
     45         15.571811   0.000000
     46         16.067646   0.000000
     47         16.316265   0.000000
     48         16.356224   0.000000
 
  0.1052632E+00  0.3703704E-01  0.0000000E+00  0.4586630E-03
      1        -12.705573   1.000000
      2        -11.615139   1.000000
      3         -8.648032   1.000000
      4         -8.414750   1.000000
      5         -6.027430   1.000000
      6         -5.309396   1.000000
      7         -4.736140   1.000000
      8         -4.093337   1.000000
      9         -3.967876   1.000000
     10         -3.381593   1.000000
     11         -2.639351   1.000000
     12         -2.312964   1.000000
     13         -1.857827   1.000000
     14         -1.231013   1.000000
     15         -0.054455   1.000000
     16         -0.021624   1.000000
     17          0.132784   1.000000
     18          0.179464   1.000000
     19          0.524967   1.000000
     20          1.977567   0.002418
     21          2.043778   0.000001
     22          2.167861   0.000000
     23          5.500993   0.000000
     24          5.754060   0.000000
     25          5.828883   0.000000
     26          6.126580   0.000000
     27          6.777691   0.000000
     28          7.345211   0.000000
     29          8.007441   0.000000
     30          8.590887   0.000000
     31          8.959471   0.000000
     32          9.057745   0.000000
     33          9.067581   0.000000
     34         10.174366   0.000000
     35         11.157230   0.000000
     36         11.218055   0.000000
     37         11.398387   0.000000
     38         11.720665   0.000000
     39         12.041334   0.000000
     40         12.441954   0.000000
     41         13.026920   0.000000
     42         13.310683   0.000000
     43         13.724696   0.000000
     44         15.073472   0.000000
     45         15.660515   0.000000
     46         16.056131   0.000000
     47         16.185185   0.000000
     48         16.431259   0.000000
 
  0.1578947E+00  0.3703704E-01  0.0000000E+00  0.4586630E-03
      1        -12.675401   1.000000
      2        -11.665207   1.000000
      3         -8.633228   1.000000
      4         -8.407327   1.000000
      5         -5.988833   1.000000
      6         -5.498276   1.000000
      7         -4.792289   1.000000
      8         -4.007244   1.000000
      9         -3.751634   1.000000
     10         -3.170376   1.000000
     11         -2.687782   1.000000
     12         -2.298874   1.000000
     13         -1.908965   1.000000
     14         -1.435441   1.000000
     15         -0.027634   1.000000
     16         -0.026364   1.000000
     17          0.093083   1.000000
     18          0.203340   1.000000
     19          0.463529   1.000000
     20          1.919666   0.119000
     21          1.991422   0.000665
     22          2.084142   0.000000
     23          5.558187   0.000000
     24          5.756097   0.000000
     25          5.880174   0.000000
     26          6.337139   0.000000
     27          6.721693   0.000000
     28          7.162937   0.000000
     29          8.102792   0.000000
     30          8.679045   0.000000
     31          9.058970   0.000000
     32          9.165670   0.000000
     33          9.237874   0.000000
     34         10.254210   0.000000
     35         10.897756   0.000000
     36         11.080637   0.000000
     37         11.268357   0.000000
     38         11.702068   0.000000
     39         12.182707   0.000000
     40         12.506980   0.000000
     41         13.077961   0.000000
     42         13.137692   0.000000
     43         14.058483   0.000000
     44         14.847025   0.000000
     45         15.735906   0.000000
     46         15.813853   0.000000
     47         16.219803   0.000000
     48         16.527213   0.000000
 
  0.2105263E+00  0.3703704E-01  0.0000000E+00  0.4586630E-03
      1        -12.633656   1.000000
      2        -11.731335   1.000000
      3         -8.612082   1.000000
      4         -8.399168   1.000000
      5         -5.967364   1.000000
      6         -5.676643   1.000000
      7         -4.792619   1.000000
      8         -3.943604   1.000000
      9         -3.482721   1.000000
     10         -2.933857   1.000000
     11         -2.751472   1.000000
     12         -2.278826   1.000000
     13         -1.967829   1.000000
     14         -1.692363   1.000000
     15         -0.117502   1.000000
     16          0.003062   1.000000
     17          0.118532   1.000000
     18          0.193924   1.000000
     19          0.422942   1.000000
     20          1.845683   0.819255
     21          1.924337   0.094738
     22          1.969886   0.004655
     23          5.622774   0.000000
     24          5.732901   0.000000
     25          6.022424   0.000000
     26          6.582092   0.000000
     27          6.655508   0.000000
     28          7.008028   0.000000
     29          8.184722   0.000000
     30          8.770486   0.000000
     31          9.036132   0.000000
     32          9.396321   0.000000
     33          9.462852   0.000000
     34         10.372548   0.000000
     35         10.580725   0.000000
     36         10.768481   0.000000
     37         11.332593   0.000000
     38         11.754881   0.000000
     39         12.322122   0.000000
     40         12.632457   0.000000
     41         12.798543   0.000000
     42         13.084574   0.000000
     43         14.401480   0.000000
     44         14.807583   0.000000
     45         15.453310   0.000000
     46         15.924370   0.000000
     47         16.144335   0.000000
     48         16.501390   0.000000
 
  0.2631579E+00  0.3703704E-01  0.0000000E+00  0.4586630E-03
      1        -12.580877   1.000000
      2        -11.810226   1.000000
      3         -8.584967   1.000000
      4         -8.392400   1.000000
      5         -5.978827   1.000000
      6         -5.833518   1.000000
      7         -4.712404   1.000000
      8         -3.870018   1.000000
      9         -3.213146   1.000000
     10         -2.862520   1.000000
     11         -2.655844   1.000000
     12         -2.255111   1.000000
     13         -2.027659   1.000000
     14         -1.976763   1.000000
     15         -0.254867   1.000000
     16          0.001668   1.000000
     17          0.133598   1.000000
     18          0.168264   1.000000
     19          0.457799   1.000000
     20          1.759382   0.999601
     21          1.833216   0.897093
     22          1.848033   0.801244
     23          5.684250   0.000000
     24          5.711384   0.000000
     25          6.232168   0.000000
     26          6.588703   0.000000
     27          6.790252   0.000000
     28          6.947213   0.000000
     29          8.258124   0.000000
     30          8.819664   0.000000
     31          8.987243   0.000000
     32          9.638122   0.000000
     33          9.716025   0.000000
     34         10.187447   0.000000
     35         10.461329   0.000000
     36         10.653230   0.000000
     37         11.392503   0.000000
     38         11.880983   0.000000
     39         12.413368   0.000000
     40         12.483843   0.000000
     41         12.847191   0.000000
     42         12.855253   0.000000
     43         14.695956   0.000000
     44         14.982371   0.000000
     45         15.150265   0.000000
     46         15.937653   0.000000
     47         15.949654   0.000000
     48         16.250784   0.000000
 
  0.3157895E+00  0.3703704E-01  0.0000000E+00  0.4586630E-03
      1        -12.517751   1.000000
      2        -11.898298   1.000000
      3         -8.552972   1.000000
      4         -8.389428   1.000000
      5         -6.019472   1.000000
      6         -5.962635   1.000000
      7         -4.552236   1.000000
      8         -3.783785   1.000000