       N       E                     dE             d eps       ncg     rms          rms(c)
DAV:   1     0.831202198305E+02    0.83120E+02   -0.20390E+04120960   0.885E+02
DAV:   2    -0.915931612986E+02   -0.17471E+03   -0.16356E+03165840   0.170E+02
DAV:   3    -0.976018124937E+02   -0.60087E+01   -0.59718E+01178752   0.280E+01
DAV:   4    -0.976373245965E+02   -0.35512E-01   -0.35510E-01142632   0.250E+00
DAV:   5    -0.976377172982E+02   -0.39270E-03   -0.39269E-03178800   0.250E-01    0.123E+01
DAV:   6    -0.922238123482E+02    0.54139E+01   -0.39471E+00175080   0.658E+00    0.680E+00
DAV:   7    -0.905728602865E+02    0.16510E+01   -0.32087E+00180576   0.585E+00    0.172E+00
DAV:   8    -0.905839276939E+02   -0.11067E-01   -0.22948E-01132984   0.165E+00    0.752E-01
DAV:   9    -0.905985943944E+02   -0.14667E-01   -0.17553E-02170712   0.458E-01    0.206E-01
DAV:  10    -0.906029673562E+02   -0.43730E-02   -0.26200E-03133656   0.181E-01    0.664E-02
DAV:  11    -0.906041466510E+02   -0.11793E-02   -0.68837E-04159456   0.920E-02    0.337E-02
DAV:  12    -0.906042468615E+02   -0.10021E-03   -0.69421E-05150456   0.328E-02    0.655E-03
