<?xml version="1.0" encoding="ISO-8859-1"?>
<modeling>
 <generator>
  <i name="program" type="string">vasp </i>
  <i name="version" type="string">6.4.3  </i>
  <i name="subversion" type="string">19Mar24 (build May 31 2024 16:31:43) complex                          parallel </i>
  <i name="platform" type="string">LinuxIFC </i>
  <i name="date" type="string">2024 10 31 </i>
  <i name="time" type="string">01:08:10 </i>
 </generator>
 <incar>
  <i type="string" name="SYSTEM">Kpoints</i>
  <i type="int" name="ISTART">     0</i>
  <i type="string" name="PREC">Accurate</i>
  <i type="string" name="ALGO">Normal</i>
  <i type="int" name="ISPIN">     1</i>
  <i type="int" name="ICHARG">     2</i>
  <i type="int" name="NELM">   100</i>
  <i type="int" name="IBRION">    -1</i>
  <i name="EDIFF">      0.00000100</i>
  <i name="EDIFFG">     -0.00100000</i>
  <i type="int" name="NSW">     0</i>
  <i type="int" name="ISIF">     2</i>
  <i name="ENCUT">    620.00000000</i>
  <i name="POTIM">      0.50000000</i>
  <i type="int" name="ISMEAR">     0</i>
  <i name="SIGMA">      0.05000000</i>
  <i type="logical" name="LWAVE"> F  </i>
  <i type="logical" name="LCHARG"> F  </i>
  <i type="string" name="GGA">PE</i>
 </incar>
 <primitive_cell>
  <structure name="primitive_cell" >
   <crystal>
    <varray name="basis" >
     <v>       5.69700000       0.00000000       0.00000000 </v>
     <v>       0.00000000       4.04790000       0.00000000 </v>
     <v>       0.00000000       0.00000000       6.20420000 </v>
    </varray>
    <i name="volume">    143.07435078 </i>
    <varray name="rec_basis" >
     <v>       0.17553098       0.00000000       0.00000000 </v>
     <v>       0.00000000       0.24704168       0.00000000 </v>
     <v>       0.00000000       0.00000000       0.16118114 </v>
    </varray>
   </crystal>
   <varray name="positions" >
    <v>       0.52123000       0.50000000       0.63796000 </v>
    <v>       0.47877000       0.50000000       0.36204000 </v>
    <v>       0.97877000       0.50000000       0.63796000 </v>
    <v>       0.02123000       0.50000000       0.36204000 </v>
    <v>       0.60090000       0.50000000       0.89991000 </v>
    <v>       0.39910000       0.50000000       0.10009000 </v>
    <v>       0.89910000       0.50000000       0.89991000 </v>
    <v>       0.10090000       0.50000000       0.10009000 </v>
    <v>       0.75000000       0.79171000       0.72973000 </v>
    <v>       0.25000000       0.20829000       0.27027000 </v>
    <v>       0.75000000       0.20829000       0.72973000 </v>
    <v>       0.25000000       0.79171000       0.27027000 </v>
    <v>       0.25000000       0.50000000       0.52367000 </v>
    <v>       0.75000000       0.50000000       0.47633000 </v>
   </varray>
  </structure>
  <varray name="primitive_index" >
   <v type="int" >        1 </v>
   <v type="int" >        2 </v>
   <v type="int" >        3 </v>
   <v type="int" >        4 </v>
   <v type="int" >        5 </v>
   <v type="int" >        6 </v>
   <v type="int" >        7 </v>
   <v type="int" >        8 </v>
   <v type="int" >        9 </v>
   <v type="int" >       10 </v>
   <v type="int" >       11 </v>
   <v type="int" >       12 </v>
   <v type="int" >       13 </v>
   <v type="int" >       14 </v>
  </varray>
 </primitive_cell>
 <kpoints>
  <generation param="Monkhorst-Pack">
   <v type="int" name="divisions">      19       27       17 </v>
   <v name="usershift">      0.00000000       0.00000000       0.00000000 </v>
   <v name="genvec1">      0.05263158       0.00000000       0.00000000 </v>
   <v name="genvec2">      0.00000000       0.03703704       0.00000000 </v>
   <v name="genvec3">      0.00000000       0.00000000       0.05882353 </v>
   <v name="shift">      0.00000000       0.00000000       0.00000000 </v>
  </generation>
  <varray name="kpointlist" >
   <v>       0.00000000       0.00000000       0.00000000 </v>
   <v>       0.05263158       0.00000000       0.00000000 </v>
   <v>       0.10526316       0.00000000       0.00000000 </v>
   <v>       0.15789474       0.00000000       0.00000000 </v>
   <v>       0.21052632       0.00000000       0.00000000 </v>
   <v>       0.26315789       0.00000000       0.00000000 </v>
   <v>       0.31578947       0.00000000       0.00000000 </v>
   <v>       0.36842105       0.00000000       0.00000000 </v>
   <v>       0.42105263       0.00000000       0.00000000 </v>
   <v>       0.47368421       0.00000000       0.00000000 </v>
   <v>       0.00000000       0.03703704       0.00000000 </v>
   <v>       0.05263158       0.03703704       0.00000000 </v>
   <v>       0.10526316       0.03703704       0.00000000 </v>
   <v>       0.15789474       0.03703704       0.00000000 </v>
   <v>       0.21052632       0.03703704       0.00000000 </v>
   <v>       0.26315789       0.03703704       0.00000000 </v>
   <v>       0.31578947       0.03703704       0.00000000 </v>
   <v>       0.36842105       0.03703704       0.00000000 </v>
   <v>       0.42105263       0.03703704       0.00000000 </v>
   <v>       0.47368421       0.03703704       0.00000000 </v>
   <v>       0.00000000       0.07407407       0.00000000 </v>
   <v>       0.05263158       0.07407407       0.00000000 </v>
   <v>       0.10526316       0.07407407       0.00000000 </v>
   <v>       0.15789474       0.07407407       0.00000000 </v>
   <v>       0.21052632       0.07407407       0.00000000 </v>
   <v>       0.26315789       0.07407407       0.00000000 </v>
   <v>       0.31578947       0.07407407       0.00000000 </v>
   <v>       0.36842105       0.07407407       0.00000000 </v>
   <v>       0.42105263       0.07407407       0.00000000 </v>
   <v>       0.47368421       0.07407407       0.00000000 </v>
   <v>       0.00000000       0.11111111       0.00000000 </v>
   <v>       0.05263158       0.11111111       0.00000000 </v>
   <v>       0.10526316       0.11111111       0.00000000 </v>
   <v>       0.15789474       0.11111111       0.00000000 </v>
   <v>       0.21052632       0.11111111       0.00000000 </v>
   <v>       0.26315789       0.11111111       0.00000000 </v>
   <v>       0.31578947       0.11111111       0.00000000 </v>
   <v>       0.36842105       0.11111111       0.00000000 </v>
   <v>       0.42105263       0.11111111       0.00000000 </v>
   <v>       0.47368421       0.11111111       0.00000000 </v>
   <v>       0.00000000       0.14814815       0.00000000 </v>
   <v>       0.05263158       0.14814815       0.00000000 </v>
   <v>       0.10526316       0.14814815       0.00000000 </v>
   <v>       0.15789474       0.14814815       0.00000000 </v>
   <v>       0.21052632       0.14814815       0.00000000 </v>
   <v>       0.26315789       0.14814815       0.00000000 </v>
   <v>       0.31578947       0.14814815       0.00000000 </v>
   <v>       0.36842105       0.14814815       0.00000000 </v>
   <v>       0.42105263       0.14814815       0.00000000 </v>
   <v>       0.47368421       0.14814815       0.00000000 </v>
   <v>       0.00000000       0.18518519       0.00000000 </v>
   <v>       0.05263158       0.18518519       0.00000000 </v>
   <v>       0.10526316       0.18518519       0.00000000 </v>
   <v>       0.15789474       0.18518519       0.00000000 </v>
   <v>       0.21052632       0.18518519       0.00000000 </v>
   <v>       0.26315789       0.18518519       0.00000000 </v>
   <v>       0.31578947       0.18518519       0.00000000 </v>
   <v>       0.36842105       0.18518519       0.00000000 </v>
   <v>       0.42105263       0.18518519       0.00000000 </v>
   <v>       0.47368421       0.18518519       0.00000000 </v>
   <v>       0.00000000       0.22222222       0.00000000 </v>
   <v>       0.05263158       0.22222222       0.00000000 </v>
   <v>       0.10526316       0.22222222       0.00000000 </v>
   <v>       0.15789474       0.22222222       0.00000000 </v>
   <v>       0.21052632       0.22222222       0.00000000 </v>
   <v>       0.26315789       0.22222222       0.00000000 </v>
   <v>       0.31578947       0.22222222       0.00000000 </v>
   <v>       0.36842105       0.22222222       0.00000000 </v>
   <v>       0.42105263       0.22222222       0.00000000 </v>
   <v>       0.47368421       0.22222222       0.00000000 </v>
   <v>       0.00000000       0.25925926       0.00000000 </v>
   <v>       0.05263158       0.25925926       0.00000000 </v>
   <v>       0.10526316       0.25925926       0.00000000 </v>
   <v>       0.15789474       0.25925926       0.00000000 </v>
   <v>       0.21052632       0.25925926       0.00000000 </v>
   <v>       0.26315789       0.25925926       0.00000000 </v>
   <v>       0.31578947       0.25925926       0.00000000 </v>
   <v>       0.36842105       0.25925926       0.00000000 </v>
   <v>       0.42105263       0.25925926       0.00000000 </v>
   <v>       0.47368421       0.25925926       0.00000000 </v>
   <v>       0.00000000       0.29629630       0.00000000 </v>
   <v>       0.05263158       0.29629630       0.00000000 </v>
   <v>       0.10526316       0.29629630       0.00000000 </v>
   <v>       0.15789474       0.29629630       0.00000000 </v>
   <v>       0.21052632       0.29629630       0.00000000 </v>
   <v>       0.26315789       0.29629630       0.00000000 </v>
   <v>       0.31578947       0.29629630       0.00000000 </v>
   <v>       0.36842105       0.29629630       0.00000000 </v>
   <v>       0.42105263       0.29629630       0.00000000 </v>
   <v>       0.47368421       0.29629630       0.00000000 </v>
   <v>       0.00000000       0.33333333       0.00000000 </v>
   <v>       0.05263158       0.33333333       0.00000000 </v>
   <v>       0.10526316       0.33333333       0.00000000 </v>
   <v>       0.15789474       0.33333333       0.00000000 </v>
   <v>       0.21052632       0.33333333       0.00000000 </v>
   <v>       0.26315789       0.33333333       0.00000000 </v>
   <v>       0.31578947       0.33333333       0.00000000 </v>
   <v>       0.36842105       0.33333333       0.00000000 </v>
   <v>       0.42105263       0.33333333       0.00000000 </v>
   <v>       0.47368421       0.33333333       0.00000000 </v>
   <v>       0.00000000       0.37037037       0.00000000 </v>
   <v>       0.05263158       0.37037037       0.00000000 </v>
   <v>       0.10526316       0.37037037       0.00000000 </v>
   <v>       0.15789474       0.37037037       0.00000000 </v>
   <v>       0.21052632       0.37037037       0.00000000 </v>
   <v>       0.26315789       0.37037037       0.00000000 </v>
   <v>       0.31578947       0.37037037       0.00000000 </v>
   <v>       0.36842105       0.37037037       0.00000000 </v>
   <v>       0.42105263       0.37037037       0.00000000 </v>
   <v>       0.47368421       0.37037037       0.00000000 </v>
   <v>       0.00000000       0.40740741       0.00000000 </v>
   <v>       0.05263158       0.40740741       0.00000000 </v>
   <v>       0.10526316       0.40740741       0.00000000 </v>
   <v>       0.15789474       0.40740741       0.00000000 </v>
   <v>       0.21052632       0.40740741       0.00000000 </v>
   <v>       0.26315789       0.40740741       0.00000000 </v>
   <v>       0.31578947       0.40740741       0.00000000 </v>
   <v>       0.36842105       0.40740741       0.00000000 </v>
   <v>       0.42105263       0.40740741       0.00000000 </v>
   <v>       0.47368421       0.40740741       0.00000000 </v>
   <v>       0.00000000       0.44444444       0.00000000 </v>
   <v>       0.05263158       0.44444444       0.00000000 </v>
   <v>       0.10526316       0.44444444       0.00000000 </v>
   <v>       0.15789474       0.44444444       0.00000000 </v>
   <v>       0.21052632       0.44444444       0.00000000 </v>
   <v>       0.26315789       0.44444444       0.00000000 </v>
   <v>       0.31578947       0.44444444       0.00000000 </v>
   <v>       0.36842105       0.44444444       0.00000000 </v>
   <v>       0.42105263       0.44444444       0.00000000 </v>
   <v>       0.47368421       0.44444444       0.00000000 </v>
   <v>       0.00000000       0.48148148       0.00000000 </v>
   <v>       0.05263158       0.48148148       0.00000000 </v>
   <v>       0.10526316       0.48148148       0.00000000 </v>
   <v>       0.15789474       0.48148148       0.00000000 </v>
   <v>       0.21052632       0.48148148       0.00000000 </v>
   <v>       0.26315789       0.48148148       0.00000000 </v>
   <v>       0.31578947       0.48148148       0.00000000 </v>
   <v>       0.36842105       0.48148148       0.00000000 </v>
   <v>       0.42105263       0.48148148       0.00000000 </v>
   <v>       0.47368421       0.48148148       0.00000000 </v>
   <v>       0.00000000       0.00000000       0.05882353 </v>
   <v>       0.05263158       0.00000000       0.05882353 </v>
   <v>       0.10526316       0.00000000       0.05882353 </v>
   <v>       0.15789474       0.00000000       0.05882353 </v>
   <v>       0.21052632       0.00000000       0.05882353 </v>
   <v>       0.26315789       0.00000000       0.05882353 </v>
   <v>       0.31578947       0.00000000       0.05882353 </v>
   <v>       0.36842105       0.00000000       0.05882353 </v>
   <v>       0.42105263       0.00000000       0.05882353 </v>
   <v>       0.47368421       0.00000000       0.05882353 </v>
   <v>       0.00000000       0.03703704       0.05882353 </v>
   <v>       0.05263158       0.03703704       0.05882353 </v>
   <v>       0.10526316       0.03703704       0.05882353 </v>
   <v>       0.15789474       0.03703704       0.05882353 </v>
   <v>       0.21052632       0.03703704       0.05882353 </v>
   <v>       0.26315789       0.03703704       0.05882353 </v>
   <v>       0.31578947       0.03703704       0.05882353 </v>
   <v>       0.36842105       0.03703704       0.05882353 </v>
   <v>       0.42105263       0.03703704       0.05882353 </v>
   <v>       0.47368421       0.03703704       0.05882353 </v>
   <v>       0.00000000       0.07407407       0.05882353 </v>
   <v>       0.05263158       0.07407407       0.05882353 </v>
   <v>       0.10526316       0.07407407       0.05882353 </v>
   <v>       0.15789474       0.07407407       0.05882353 </v>
   <v>       0.21052632       0.07407407       0.05882353 </v>
   <v>       0.26315789       0.07407407       0.05882353 </v>
   <v>       0.31578947       0.07407407       0.05882353 </v>
   <v>       0.36842105       0.07407407       0.05882353 </v>
   <v>       0.42105263       0.07407407       0.05882353 </v>
   <v>       0.47368421       0.07407407       0.05882353 </v>
   <v>       0.00000000       0.11111111       0.05882353 </v>
   <v>       0.05263158       0.11111111       0.05882353 </v>
   <v>       0.10526316       0.11111111       0.05882353 </v>
   <v>       0.15789474       0.11111111       0.05882353 </v>
   <v>       0.21052632       0.11111111       0.05882353 </v>
   <v>       0.26315789       0.11111111       0.05882353 </v>
   <v>       0.31578947       0.11111111       0.05882353 </v>
   <v>       0.36842105       0.11111111       0.05882353 </v>
   <v>       0.42105263       0.11111111       0.05882353 </v>
   <v>       0.47368421       0.11111111       0.05882353 </v>
   <v>       0.00000000       0.14814815       0.05882353 </v>
   <v>       0.05263158       0.14814815       0.05882353 </v>
   <v>       0.10526316       0.14814815       0.05882353 </v>
   <v>       0.15789474       0.14814815       0.05882353 </v>
   <v>       0.21052632       0.14814815       0.05882353 </v>
   <v>       0.26315789       0.14814815       0.05882353 </v>
   <v>       0.31578947       0.14814815       0.05882353 </v>
   <v>       0.36842105       0.14814815       0.05882353 </v>
   <v>       0.42105263       0.14814815       0.05882353 </v>
   <v>       0.47368421       0.14814815       0.05882353 </v>
   <v>       0.00000000       0.18518519       0.05882353 </v>
   <v>       0.05263158       0.18518519       0.05882353 </v>
   <v>       0.10526316       0.18518519       0.05882353 </v>
   <v>       0.15789474       0.18518519       0.05882353 </v>
   <v>       0.21052632       0.18518519       0.05882353 </v>
   <v>       0.26315789       0.18518519       0.05882353 </v>
   <v>       0.31578947       0.18518519       0.05882353 </v>
   <v>       0.36842105       0.18518519       0.05882353 </v>
   <v>       0.42105263       0.18518519       0.05882353 </v>
   <v>       0.47368421       0.18518519       0.05882353 </v>
   <v>       0.00000000       0.22222222       0.05882353 </v>
   <v>       0.05263158       0.22222222       0.05882353 </v>
   <v>       0.10526316       0.22222222       0.05882353 </v>
   <v>       0.15789474       0.22222222       0.05882353 </v>
   <v>       0.21052632       0.22222222       0.05882353 </v>
   <v>       0.26315789       0.22222222       0.05882353 </v>
   <v>       0.31578947       0.22222222       0.05882353 </v>
   <v>       0.36842105       0.22222222       0.05882353 </v>
   <v>       0.42105263       0.22222222       0.05882353 </v>
   <v>       0.47368421       0.22222222       0.05882353 </v>
   <v>       0.00000000       0.25925926       0.05882353 </v>
   <v>       0.05263158       0.25925926       0.05882353 </v>
   <v>       0.10526316       0.25925926       0.05882353 </v>
   <v>       0.15789474       0.25925926       0.05882353 </v>
   <v>       0.21052632       0.25925926       0.05882353 </v>
   <v>       0.26315789       0.25925926       0.05882353 </v>
   <v>       0.31578947       0.25925926       0.05882353 </v>
   <v>       0.36842105       0.25925926       0.05882353 </v>
   <v>       0.42105263       0.25925926       0.05882353 </v>
   <v>       0.47368421       0.25925926       0.05882353 </v>
   <v>       0.00000000       0.29629630       0.05882353 </v>
   <v>       0.05263158       0.29629630       0.05882353 </v>
   <v>       0.10526316       0.29629630       0.05882353 </v>
   <v>       0.15789474       0.29629630       0.05882353 </v>
   <v>       0.21052632       0.29629630       0.05882353 </v>
   <v>       0.26315789       0.29629630       0.05882353 </v>
   <v>       0.31578947       0.29629630       0.05882353 </v>
   <v>       0.36842105       0.29629630       0.05882353 </v>
   <v>       0.42105263       0.29629630       0.05882353 </v>
   <v>       0.47368421       0.29629630       0.05882353 </v>
   <v>       0.00000000       0.33333333       0.05882353 </v>
   <v>       0.05263158       0.33333333       0.05882353 </v>
   <v>       0.10526316       0.33333333       0.05882353 </v>
   <v>       0.15789474       0.33333333       0.05882353 </v>
   <v>       0.21052632       0.33333333       0.05882353 </v>
   <v>       0.26315789       0.33333333       0.05882353 </v>
   <v>       0.31578947       0.33333333       0.05882353 </v>
   <v>       0.36842105       0.33333333       0.05882353 </v>
   <v>       0.42105263       0.33333333       0.05882353 </v>
   <v>       0.47368421       0.33333333       0.05882353 </v>
   <v>       0.00000000       0.37037037       0.05882353 </v>
   <v>       0.05263158       0.37037037       0.05882353 </v>
   <v>       0.10526316       0.37037037       0.05882353 </v>
   <v>       0.15789474       0.37037037       0.05882353 </v>
   <v>       0.21052632       0.37037037       0.05882353 </v>
   <v>       0.26315789       0.37037037       0.05882353 </v>
   <v>       0.31578947       0.37037037       0.05882353 </v>
   <v>       0.36842105       0.37037037       0.05882353 </v>
   <v>       0.42105263       0.37037037       0.05882353 </v>
   <v>       0.47368421       0.37037037       0.05882353 </v>
   <v>       0.00000000       0.40740741       0.05882353 </v>
   <v>       0.05263158       0.40740741       0.05882353 </v>
   <v>       0.10526316       0.40740741       0.05882353 </v>
   <v>       0.15789474       0.40740741       0.05882353 </v>
   <v>       0.21052632       0.40740741       0.05882353 </v>
   <v>       0.26315789       0.40740741       0.05882353 </v>
   <v>       0.31578947       0.40740741       0.05882353 </v>
   <v>       0.36842105       0.40740741       0.05882353 </v>
   <v>       0.42105263       0.40740741       0.05882353 </v>
   <v>       0.47368421       0.40740741       0.05882353 </v>
   <v>       0.00000000       0.44444444       0.05882353 </v>
   <v>       0.05263158       0.44444444       0.05882353 </v>
   <v>       0.10526316       0.44444444       0.05882353 </v>
   <v>       0.15789474       0.44444444       0.05882353 </v>
   <v>       0.21052632       0.44444444       0.05882353 </v>
   <v>       0.26315789       0.44444444       0.05882353 </v>
   <v>       0.31578947       0.44444444       0.05882353 </v>
   <v>       0.36842105       0.44444444       0.05882353 </v>
   <v>       0.42105263       0.44444444       0.05882353 </v>
   <v>       0.47368421       0.44444444       0.05882353 </v>
   <v>       0.00000000       0.48148148       0.05882353 </v>
   <v>       0.05263158       0.48148148       0.05882353 </v>
   <v>       0.10526316       0.48148148       0.05882353 </v>
   <v>       0.15789474       0.48148148       0.05882353 </v>
   <v>       0.21052632       0.48148148       0.05882353 </v>
   <v>       0.26315789       0.48148148       0.05882353 </v>
   <v>       0.31578947       0.48148148       0.05882353 </v>
   <v>       0.36842105       0.48148148       0.05882353 </v>
   <v>       0.42105263       0.48148148       0.05882353 </v>
   <v>       0.47368421       0.48148148       0.05882353 </v>
   <v>       0.00000000       0.00000000       0.11764706 </v>
   <v>       0.05263158       0.00000000       0.11764706 </v>
   <v>       0.10526316       0.00000000       0.11764706 </v>
   <v>       0.15789474       0.00000000       0.11764706 </v>
   <v>       0.21052632       0.00000000       0.11764706 </v>
   <v>       0.26315789       0.00000000       0.11764706 </v>
   <v>       0.31578947       0.00000000       0.11764706 </v>
   <v>       0.36842105       0.00000000       0.11764706 </v>
   <v>       0.42105263       0.00000000       0.11764706 </v>
   <v>       0.47368421       0.00000000       0.11764706 </v>
   <v>       0.00000000       0.03703704       0.11764706 </v>
   <v>       0.05263158       0.03703704       0.11764706 </v>
   <v>       0.10526316       0.03703704       0.11764706 </v>
   <v>       0.15789474       0.03703704       0.11764706 </v>
   <v>       0.21052632       0.03703704       0.11764706 </v>
   <v>       0.26315789       0.03703704       0.11764706 </v>
   <v>       0.31578947       0.03703704       0.11764706 </v>
   <v>       0.36842105       0.03703704       0.11764706 </v>
   <v>       0.42105263       0.03703704       0.11764706 </v>
   <v>       0.47368421       0.03703704       0.11764706 </v>
   <v>       0.00000000       0.07407407       0.11764706 </v>
   <v>       0.05263158       0.07407407       0.11764706 </v>
   <v>       0.10526316       0.07407407       0.11764706 </v>
   <v>       0.15789474       0.07407407       0.11764706 </v>
   <v>       0.21052632       0.07407407       0.11764706 </v>
   <v>       0.26315789       0.07407407       0.11764706 </v>
   <v>       0.31578947       0.07407407       0.11764706 </v>
   <v>       0.36842105       0.07407407       0.11764706 </v>
   <v>       0.42105263       0.07407407       0.11764706 </v>
   <v>       0.47368421       0.07407407       0.11764706 </v>
   <v>       0.00000000       0.11111111       0.11764706 </v>
   <v>       0.05263158       0.11111111       0.11764706 </v>
   <v>       0.10526316       0.11111111       0.11764706 </v>
   <v>       0.15789474       0.11111111       0.11764706 </v>
   <v>       0.21052632       0.11111111       0.11764706 </v>
   <v>       0.26315789       0.11111111       0.11764706 </v>
   <v>       0.31578947       0.11111111       0.11764706 </v>
   <v>       0.36842105       0.11111111       0.11764706 </v>
   <v>       0.42105263       0.11111111       0.11764706 </v>
   <v>       0.47368421       0.11111111       0.11764706 </v>
   <v>       0.00000000       0.14814815       0.11764706 </v>
   <v>       0.05263158       0.14814815       0.11764706 </v>
   <v>       0.10526316       0.14814815       0.11764706 </v>
   <v>       0.15789474       0.14814815       0.11764706 </v>
   <v>       0.21052632       0.14814815       0.11764706 </v>
   <v>       0.26315789       0.14814815       0.11764706 </v>
   <v>       0.31578947       0.14814815       0.11764706 </v>
   <v>       0.36842105       0.14814815       0.11764706 </v>
   <v>       0.42105263       0.14814815       0.11764706 </v>
   <v>       0.47368421       0.14814815       0.11764706 </v>
   <v>       0.00000000       0.18518519       0.11764706 </v>
   <v>       0.05263158       0.18518519       0.11764706 </v>
   <v>       0.10526316       0.18518519       0.11764706 </v>
   <v>       0.15789474       0.18518519       0.11764706 </v>
   <v>       0.21052632       0.18518519       0.11764706 </v>
   <v>       0.26315789       0.18518519       0.11764706 </v>
   <v>       0.31578947       0.18518519       0.11764706 </v>
   <v>       0.36842105       0.18518519       0.11764706 </v>
   <v>       0.42105263       0.18518519       0.11764706 </v>
   <v>       0.47368421       0.18518519       0.11764706 </v>
   <v>       0.00000000       0.22222222       0.11764706 </v>
   <v>       0.05263158       0.22222222       0.11764706 </v>
   <v>       0.10526316       0.22222222       0.11764706 </v>
   <v>       0.15789474       0.22222222       0.11764706 </v>
   <v>       0.21052632       0.22222222       0.11764706 </v>
   <v>       0.26315789       0.22222222       0.11764706 </v>
   <v>       0.31578947       0.22222222       0.11764706 </v>
   <v>       0.36842105       0.22222222       0.11764706 </v>
   <v>       0.42105263       0.22222222       0.11764706 </v>
   <v>       0.47368421       0.22222222       0.11764706 </v>
   <v>       0.00000000       0.25925926       0.11764706 </v>
   <v>       0.05263158       0.25925926       0.11764706 </v>
   <v>       0.10526316       0.25925926       0.11764706 </v>
   <v>       0.15789474       0.25925926       0.11764706 </v>
   <v>       0.21052632       0.25925926       0.11764706 </v>
   <v>       0.26315789       0.25925926       0.11764706 </v>
   <v>       0.31578947       0.25925926       0.11764706 </v>
   <v>       0.36842105       0.25925926       0.11764706 </v>
   <v>       0.42105263       0.25925926       0.11764706 </v>
   <v>       0.47368421       0.25925926       0.11764706 </v>
   <v>       0.00000000       0.29629630       0.11764706 </v>
   <v>       0.05263158       0.29629630       0.11764706 </v>
   <v>       0.10526316       0.29629630       0.11764706 </v>
   <v>       0.15789474       0.29629630       0.11764706 </v>
   <v>       0.21052632       0.29629630       0.11764706 </v>
   <v>       0.26315789       0.29629630       0.11764706 </v>
   <v>       0.31578947       0.29629630       0.11764706 </v>
   <v>       0.36842105       0.29629630       0.11764706 </v>
   <v>       0.42105263       0.29629630       0.11764706 </v>
   <v>       0.47368421       0.29629630       0.11764706 </v>
   <v>       0.00000000       0.33333333       0.11764706 </v>
   <v>       0.05263158       0.33333333       0.11764706 </v>
   <v>       0.10526316       0.33333333       0.11764706 </v>
   <v>       0.15789474       0.33333333       0.11764706 </v>
   <v>       0.21052632       0.33333333       0.11764706 </v>
   <v>       0.26315789       0.33333333       0.11764706 </v>
   <v>       0.31578947       0.33333333       0.11764706 </v>
   <v>       0.36842105       0.33333333       0.11764706 </v>
   <v>       0.42105263       0.33333333       0.11764706 </v>
   <v>       0.47368421       0.33333333       0.11764706 </v>
   <v>       0.00000000       0.37037037       0.11764706 </v>
   <v>       0.05263158       0.37037037       0.11764706 </v>
   <v>       0.10526316       0.37037037       0.11764706 </v>
   <v>       0.15789474       0.37037037       0.11764706 </v>
   <v>       0.21052632       0.37037037       0.11764706 </v>
   <v>       0.26315789       0.37037037       0.11764706 </v>
   <v>       0.31578947       0.37037037       0.11764706 </v>
   <v>       0.36842105       0.37037037       0.11764706 </v>
   <v>       0.42105263       0.37037037       0.11764706 </v>
   <v>       0.47368421       0.37037037       0.11764706 </v>
   <v>       0.00000000       0.40740741       0.11764706 </v>
   <v>       0.05263158       0.40740741       0.11764706 </v>
   <v>       0.10526316       0.40740741       0.11764706 </v>
   <v>       0.15789474       0.40740741       0.11764706 </v>
   <v>       0.21052632       0.40740741       0.11764706 </v>
   <v>       0.26315789       0.40740741       0.11764706 </v>
   <v>       0.31578947       0.40740741       0.11764706 </v>
   <v>       0.36842105       0.40740741       0.11764706 </v>
   <v>       0.42105263       0.40740741       0.11764706 </v>
   <v>       0.47368421       0.40740741       0.11764706 </v>
   <v>       0.00000000       0.44444444       0.11764706 </v>
   <v>       0.05263158       0.44444444       0.11764706 </v>
   <v>       0.10526316       0.44444444       0.11764706 </v>
   <v>       0.15789474       0.44444444       0.11764706 </v>
   <v>       0.21052632       0.44444444       0.11764706 </v>
   <v>       0.26315789       0.44444444       0.11764706 </v>
   <v>       0.31578947       0.44444444       0.11764706 </v>
   <v>       0.36842105       0.44444444       0.11764706 </v>
   <v>       0.42105263       0.44444444       0.11764706 </v>
   <v>       0.47368421       0.44444444       0.11764706 </v>
   <v>       0.00000000       0.48148148       0.11764706 </v>
   <v>       0.05263158       0.48148148       0.11764706 </v>
   <v>       0.10526316       0.48148148       0.11764706 </v>
   <v>       0.15789474       0.48148148       0.11764706 </v>
   <v>       0.21052632       0.48148148       0.11764706 </v>
   <v>       0.26315789       0.48148148       0.11764706 </v>
   <v>       0.31578947       0.48148148       0.11764706 </v>
   <v>       0.36842105       0.48148148       0.11764706 </v>
   <v>       0.42105263       0.48148148       0.11764706 </v>
   <v>       0.47368421       0.48148148       0.11764706 </v>
   <v>       0.00000000       0.00000000       0.17647059 </v>
   <v>       0.05263158       0.00000000       0.17647059 </v>
   <v>       0.10526316       0.00000000       0.17647059 </v>
   <v>       0.15789474       0.00000000       0.17647059 </v>
   <v>       0.21052632       0.00000000       0.17647059 </v>
   <v>       0.26315789       0.00000000       0.17647059 </v>
   <v>       0.31578947       0.00000000       0.17647059 </v>
   <v>       0.36842105       0.00000000       0.17647059 </v>
   <v>       0.42105263       0.00000000       0.17647059 </v>
   <v>       0.47368421       0.00000000       0.17647059 </v>
   <v>       0.00000000       0.03703704       0.17647059 </v>
   <v>       0.05263158       0.03703704       0.17647059 </v>
   <v>       0.10526316       0.03703704       0.17647059 </v>
   <v>       0.15789474       0.03703704       0.17647059 </v>
   <v>       0.21052632       0.03703704       0.17647059 </v>
   <v>       0.26315789       0.03703704       0.17647059 </v>
   <v>       0.31578947       0.03703704       0.17647059 </v>
   <v>       0.36842105       0.03703704       0.17647059 </v>
   <v>       0.42105263       0.03703704       0.17647059 </v>
   <v>       0.47368421       0.03703704       0.17647059 </v>
   <v>       0.00000000       0.07407407       0.17647059 </v>
   <v>       0.05263158       0.07407407       0.17647059 </v>
   <v>       0.10526316       0.07407407       0.17647059 </v>
   <v>       0.15789474       0.07407407       0.17647059 </v>
   <v>       0.21052632       0.07407407       0.17647059 </v>
   <v>       0.26315789       0.07407407       0.17647059 </v>
   <v>       0.31578947       0.07407407       0.17647059 </v>
   <v>       0.36842105       0.07407407       0.17647059 </v>
   <v>       0.42105263       0.07407407       0.17647059 </v>
   <v>       0.47368421       0.07407407       0.17647059 </v>
   <v>       0.00000000       0.11111111       0.17647059 </v>
   <v>       0.05263158       0.11111111       0.17647059 </v>
   <v>       0.10526316       0.11111111       0.17647059 </v>
   <v>       0.15789474       0.11111111       0.17647059 </v>
   <v>       0.21052632       0.11111111       0.17647059 </v>
   <v>       0.26315789       0.11111111       0.17647059 </v>
   <v>       0.31578947       0.11111111       0.17647059 </v>
   <v>       0.36842105       0.11111111       0.17647059 </v>
   <v>       0.42105263       0.11111111       0.17647059 </v>
   <v>       0.47368421       0.11111111       0.17647059 </v>
   <v>       0.00000000       0.14814815       0.17647059 </v>
   <v>       0.05263158       0.14814815       0.17647059 </v>
   <v>       0.10526316       0.14814815       0.17647059 </v>
   <v>       0.15789474       0.14814815       0.17647059 </v>
   <v>       0.21052632       0.14814815       0.17647059 </v>
   <v>       0.26315789       0.14814815       0.17647059 </v>
   <v>       0.31578947       0.14814815       0.17647059 </v>
   <v>       0.36842105       0.14814815       0.17647059 </v>
   <v>       0.42105263       0.14814815       0.17647059 </v>
   <v>       0.47368421       0.14814815       0.17647059 </v>
   <v>       0.00000000       0.18518519       0.17647059 </v>
   <v>       0.05263158       0.18518519       0.17647059 </v>
   <v>       0.10526316       0.18518519       0.17647059 </v>
   <v>       0.15789474       0.18518519       0.17647059 </v>
   <v>       0.21052632       0.18518519       0.17647059 </v>
   <v>       0.26315789       0.18518519       0.17647059 </v>
   <v>       0.31578947       0.18518519       0.17647059 </v>
   <v>       0.36842105       0.18518519       0.17647059 </v>
   <v>       0.42105263       0.18518519       0.17647059 </v>
   <v>       0.47368421       0.18518519       0.17647059 </v>
   <v>       0.00000000       0.22222222       0.17647059 </v>
   <v>       0.05263158       0.22222222       0.17647059 </v>
   <v>       0.10526316       0.22222222       0.17647059 </v>
   <v>       0.15789474       0.22222222       0.17647059 </v>
   <v>       0.21052632       0.22222222       0.17647059 </v>
   <v>       0.26315789       0.22222222       0.17647059 </v>
   <v>       0.31578947       0.22222222       0.17647059 </v>
   <v>       0.36842105       0.22222222       0.17647059 </v>
   <v>       0.42105263       0.22222222       0.17647059 </v>
   <v>       0.47368421       0.22222222       0.17647059 </v>
   <v>       0.00000000       0.25925926       0.17647059 </v>
   <v>       0.05263158       0.25925926       0.17647059 </v>
   <v>       0.10526316       0.25925926       0.17647059 </v>
   <v>       0.15789474       0.25925926       0.17647059 </v>
   <v>       0.21052632       0.25925926       0.17647059 </v>
   <v>       0.26315789       0.25925926       0.17647059 </v>
   <v>       0.31578947       0.25925926       0.17647059 </v>
   <v>       0.36842105       0.25925926       0.17647059 </v>
   <v>       0.42105263       0.25925926       0.17647059 </v>
   <v>       0.47368421       0.25925926       0.17647059 </v>
   <v>       0.00000000       0.29629630       0.17647059 </v>
   <v>       0.05263158       0.29629630       0.17647059 </v>
   <v>       0.10526316       0.29629630       0.17647059 </v>
   <v>       0.15789474       0.29629630       0.17647059 </v>
   <v>       0.21052632       0.29629630       0.17647059 </v>
   <v>       0.26315789       0.29629630       0.17647059 </v>
   <v>       0.31578947       0.29629630       0.17647059 </v>
   <v>       0.36842105       0.29629630       0.17647059 </v>
   <v>       0.42105263       0.29629630       0.17647059 </v>
   <v>       0.47368421       0.29629630       0.17647059 </v>
   <v>       0.00000000       0.33333333       0.17647059 </v>
   <v>       0.05263158       0.33333333       0.17647059 </v>
   <v>       0.10526316       0.33333333       0.17647059 </v>
   <v>       0.15789474       0.33333333       0.17647059 </v>
   <v>       0.21052632       0.33333333       0.17647059 </v>
   <v>       0.26315789       0.33333333       0.17647059 </v>
   <v>       0.31578947       0.33333333       0.17647059 </v>
   <v>       0.36842105       0.33333333       0.17647059 </v>
   <v>       0.42105263       0.33333333       0.17647059 </v>
   <v>       0.47368421       0.33333333       0.17647059 </v>
   <v>       0.00000000       0.37037037       0.17647059 </v>
   <v>       0.05263158       0.37037037       0.17647059 </v>
   <v>       0.10526316       0.37037037       0.17647059 </v>
   <v>       0.15789474       0.37037037       0.17647059 </v>
   <v>       0.21052632       0.37037037       0.17647059 </v>
   <v>       0.26315789       0.37037037       0.17647059 </v>
   <v>       0.31578947       0.37037037       0.17647059 </v>
   <v>       0.36842105       0.37037037       0.17647059 </v>
   <v>       0.42105263       0.37037037       0.17647059 </v>
   <v>       0.47368421       0.37037037       0.17647059 </v>
   <v>       0.00000000       0.40740741       0.17647059 </v>
   <v>       0.05263158       0.40740741       0.17647059 </v>
   <v>       0.10526316       0.40740741       0.17647059 </v>
   <v>       0.15789474       0.40740741       0.17647059 </v>
   <v>       0.21052632       0.40740741       0.17647059 </v>
   <v>       0.26315789       0.40740741       0.17647059 </v>
   <v>       0.31578947       0.40740741       0.17647059 </v>
   <v>       0.36842105       0.40740741       0.17647059 </v>
   <v>       0.42105263       0.40740741       0.17647059 </v>
   <v>       0.47368421       0.40740741       0.17647059 </v>
   <v>       0.00000000       0.44444444       0.17647059 </v>
   <v>       0.05263158       0.44444444       0.17647059 </v>
   <v>       0.10526316       0.44444444       0.17647059 </v>
   <v>       0.15789474       0.44444444       0.17647059 </v>
   <v>       0.21052632       0.44444444       0.17647059 </v>
   <v>       0.26315789       0.44444444       0.17647059 </v>
   <v>       0.31578947       0.44444444       0.17647059 </v>
   <v>       0.36842105       0.44444444       0.17647059 </v>
   <v>       0.42105263       0.44444444       0.17647059 </v>
   <v>       0.47368421       0.44444444       0.17647059 </v>
   <v>       0.00000000       0.48148148       0.17647059 </v>
   <v>       0.05263158       0.48148148       0.17647059 </v>
   <v>       0.10526316       0.48148148       0.17647059 </v>
   <v>       0.15789474       0.48148148       0.17647059 </v>
   <v>       0.21052632       0.48148148       0.17647059 </v>
   <v>       0.26315789       0.48148148       0.17647059 </v>
   <v>       0.31578947       0.48148148       0.17647059 </v>
   <v>       0.36842105       0.48148148       0.17647059 </v>
   <v>       0.42105263       0.48148148       0.17647059 </v>
   <v>       0.47368421       0.48148148       0.17647059 </v>
   <v>       0.00000000       0.00000000       0.23529412 </v>
   <v>       0.05263158       0.00000000       0.23529412 </v>
   <v>       0.10526316       0.00000000       0.23529412 </v>
   <v>       0.15789474       0.00000000       0.23529412 </v>
   <v>       0.21052632       0.00000000       0.23529412 </v>
   <v>       0.26315789       0.00000000       0.23529412 </v>
   <v>       0.31578947       0.00000000       0.23529412 </v>
   <v>       0.36842105       0.00000000       0.23529412 </v>
   <v>       0.42105263       0.00000000       0.23529412 </v>
   <v>       0.47368421       0.00000000       0.23529412 </v>
   <v>       0.00000000       0.03703704       0.23529412 </v>
   <v>       0.05263158       0.03703704       0.23529412 </v>
   <v>       0.10526316       0.03703704       0.23529412 </v>
   <v>       0.15789474       0.03703704       0.23529412 </v>
   <v>       0.21052632       0.03703704       0.23529412 </v>
   <v>       0.26315789       0.03703704       0.23529412 </v>
   <v>       0.31578947       0.03703704       0.23529412 </v>
   <v>       0.36842105       0.03703704       0.23529412 </v>
   <v>       0.42105263       0.03703704       0.23529412 </v>
   <v>       0.47368421       0.03703704       0.23529412 </v>
   <v>       0.00000000       0.07407407       0.23529412 </v>
   <v>       0.05263158       0.07407407       0.23529412 </v>
   <v>       0.10526316       0.07407407       0.23529412 </v>
   <v>       0.15789474       0.07407407       0.23529412 </v>
   <v>       0.21052632       0.07407407       0.23529412 </v>
   <v>       0.26315789       0.07407407       0.23529412 </v>
   <v>       0.31578947       0.07407407       0.23529412 </v>
   <v>       0.36842105       0.07407407       0.23529412 </v>
   <v>       0.42105263       0.07407407       0.23529412 </v>
   <v>       0.47368421       0.07407407       0.23529412 </v>
   <v>       0.00000000       0.11111111       0.23529412 </v>
   <v>       0.05263158       0.11111111       0.23529412 </v>
   <v>       0.10526316       0.11111111       0.23529412 </v>
   <v>       0.15789474       0.11111111       0.23529412 </v>
   <v>       0.21052632       0.11111111       0.23529412 </v>
   <v>       0.26315789       0.11111111       0.23529412 </v>
   <v>       0.31578947       0.11111111       0.23529412 </v>
   <v>       0.36842105       0.11111111       0.23529412 </v>
   <v>       0.42105263       0.11111111       0.23529412 </v>
   <v>       0.47368421       0.11111111       0.23529412 </v>
   <v>       0.00000000       0.14814815       0.23529412 </v>
   <v>       0.05263158       0.14814815       0.23529412 </v>
   <v>       0.10526316       0.14814815       0.23529412 </v>
   <v>       0.15789474       0.14814815       0.23529412 </v>
   <v>       0.21052632       0.14814815       0.23529412 </v>
   <v>       0.26315789       0.14814815       0.23529412 </v>
   <v>       0.31578947       0.14814815       0.23529412 </v>
   <v>       0.36842105       0.14814815       0.23529412 </v>
   <v>       0.42105263       0.14814815       0.23529412 </v>
   <v>       0.47368421       0.14814815       0.23529412 </v>
   <v>       0.00000000       0.18518519       0.23529412 </v>
   <v>       0.05263158       0.18518519       0.23529412 </v>
   <v>       0.10526316       0.18518519       0.23529412 </v>
   <v>       0.15789474       0.18518519       0.23529412 </v>
   <v>       0.21052632       0.18518519       0.23529412 </v>
   <v>       0.26315789       0.18518519       0.23529412 </v>
   <v>       0.31578947       0.18518519       0.23529412 </v>
   <v>       0.36842105       0.18518519       0.23529412 </v>
   <v>       0.42105263       0.18518519       0.23529412 </v>
   <v>       0.47368421       0.18518519       0.23529412 </v>
   <v>       0.00000000       0.22222222       0.23529412 </v>
   <v>       0.05263158       0.22222222       0.23529412 </v>
   <v>       0.10526316       0.22222222       0.23529412 </v>
   <v>       0.15789474       0.22222222       0.23529412 </v>
   <v>       0.21052632       0.22222222       0.23529412 </v>
   <v>       0.26315789       0.22222222       0.23529412 </v>
   <v>       0.31578947       0.22222222       0.23529412 </v>
   <v>       0.36842105       0.22222222       0.23529412 </v>
   <v>       0.42105263       0.22222222       0.23529412 </v>
   <v>       0.47368421       0.22222222       0.23529412 </v>
   <v>       0.00000000       0.25925926       0.23529412 </v>
   <v>       0.05263158       0.25925926       0.23529412 </v>
   <v>       0.10526316       0.25925926       0.23529412 </v>
   <v>       0.15789474       0.25925926       0.23529412 </v>
   <v>       0.21052632       0.25925926       0.23529412 </v>
   <v>       0.26315789       0.25925926       0.23529412 </v>
   <v>       0.31578947       0.25925926       0.23529412 </v>
   <v>       0.36842105       0.25925926       0.23529412 </v>
   <v>       0.42105263       0.25925926       0.23529412 </v>
   <v>       0.47368421       0.25925926       0.23529412 </v>
   <v>       0.00000000       0.29629630       0.23529412 </v>
   <v>       0.05263158       0.29629630       0.23529412 </v>
   <v>       0.10526316       0.29629630       0.23529412 </v>
   <v>       0.15789474       0.29629630       0.23529412 </v>
   <v>       0.21052632       0.29629630       0.23529412 </v>
   <v>       0.26315789       0.29629630       0.23529412 </v>
   <v>       0.31578947       0.29629630       0.23529412 </v>
   <v>       0.36842105       0.29629630       0.23529412 </v>
   <v>       0.42105263       0.29629630       0.23529412 </v>
   <v>       0.47368421       0.29629630       0.23529412 </v>
   <v>       0.00000000       0.33333333       0.23529412 </v>
   <v>       0.05263158       0.33333333       0.23529412 </v>
   <v>       0.10526316       0.33333333       0.23529412 </v>
   <v>       0.15789474       0.33333333       0.23529412 </v>
   <v>       0.21052632       0.33333333       0.23529412 </v>
   <v>       0.26315789       0.33333333       0.23529412 </v>
   <v>       0.31578947       0.33333333       0.23529412 </v>
   <v>       0.36842105       0.33333333       0.23529412 </v>
   <v>       0.42105263       0.33333333       0.23529412 </v>
   <v>       0.47368421       0.33333333       0.23529412 </v>
   <v>       0.00000000       0.37037037       0.23529412 </v>
   <v>       0.05263158       0.37037037       0.23529412 </v>
   <v>       0.10526316       0.37037037       0.23529412 </v>
   <v>       0.15789474       0.37037037       0.23529412 </v>
   <v>       0.21052632       0.37037037       0.23529412 </v>
   <v>       0.26315789       0.37037037       0.23529412 </v>
   <v>       0.31578947       0.37037037       0.23529412 </v>
   <v>       0.36842105       0.37037037       0.23529412 </v>
   <v>       0.42105263       0.37037037       0.23529412 </v>
   <v>       0.47368421       0.37037037       0.23529412 </v>
   <v>       0.00000000       0.40740741       0.23529412 </v>
   <v>       0.05263158       0.40740741       0.23529412 </v>
   <v>       0.10526316       0.40740741       0.23529412 </v>
   <v>       0.15789474       0.40740741       0.23529412 </v>
   <v>       0.21052632       0.40740741       0.23529412 </v>
   <v>       0.26315789       0.40740741       0.23529412 </v>
   <v>       0.31578947       0.40740741       0.23529412 </v>
   <v>       0.36842105       0.40740741       0.23529412 </v>
   <v>       0.42105263       0.40740741       0.23529412 </v>
   <v>       0.47368421       0.40740741       0.23529412 </v>
   <v>       0.00000000       0.44444444       0.23529412 </v>
   <v>       0.05263158       0.44444444       0.23529412 </v>
   <v>       0.10526316       0.44444444       0.23529412 </v>
   <v>       0.15789474       0.44444444       0.23529412 </v>
   <v>       0.21052632       0.44444444       0.23529412 </v>
   <v>       0.26315789       0.44444444       0.23529412 </v>
   <v>       0.31578947       0.44444444       0.23529412 </v>
   <v>       0.36842105       0.44444444       0.23529412 </v>
   <v>       0.42105263       0.44444444       0.23529412 </v>
   <v>       0.47368421       0.44444444       0.23529412 </v>
   <v>       0.00000000       0.48148148       0.23529412 </v>
   <v>       0.05263158       0.48148148       0.23529412 </v>
   <v>       0.10526316       0.48148148       0.23529412 </v>
   <v>       0.15789474       0.48148148       0.23529412 </v>
   <v>       0.21052632       0.48148148       0.23529412 </v>
   <v>       0.26315789       0.48148148       0.23529412 </v>
   <v>       0.31578947       0.48148148       0.23529412 </v>
   <v>       0.36842105       0.48148148       0.23529412 </v>
   <v>       0.42105263       0.48148148       0.23529412 </v>
   <v>       0.47368421       0.48148148       0.23529412 </v>
   <v>       0.00000000       0.00000000       0.29411765 </v>
   <v>       0.05263158       0.00000000       0.29411765 </v>
   <v>       0.10526316       0.00000000       0.29411765 </v>
   <v>       0.15789474       0.00000000       0.29411765 </v>
   <v>       0.21052632       0.00000000       0.29411765 </v>
   <v>       0.26315789       0.00000000       0.29411765 </v>
   <v>       0.31578947       0.00000000       0.29411765 </v>
   <v>       0.36842105       0.00000000       0.29411765 </v>
   <v>       0.42105263       0.00000000       0.29411765 </v>
   <v>       0.47368421       0.00000000       0.29411765 </v>
   <v>       0.00000000       0.03703704       0.29411765 </v>
   <v>       0.05263158       0.03703704       0.29411765 </v>
   <v>       0.10526316       0.03703704       0.29411765 </v>
   <v>       0.15789474       0.03703704       0.29411765 </v>
   <v>       0.21052632       0.03703704       0.29411765 </v>
   <v>       0.26315789       0.03703704       0.29411765 </v>
   <v>       0.31578947       0.03703704       0.29411765 </v>
   <v>       0.36842105       0.03703704       0.29411765 </v>
   <v>       0.42105263       0.03703704       0.29411765 </v>
   <v>       0.47368421       0.03703704       0.29411765 </v>
   <v>       0.00000000       0.07407407       0.29411765 </v>
   <v>       0.05263158       0.07407407       0.29411765 </v>
   <v>       0.10526316       0.07407407       0.29411765 </v>
   <v>       0.15789474       0.07407407       0.29411765 </v>
   <v>       0.21052632       0.07407407       0.29411765 </v>
   <v>       0.26315789       0.07407407       0.29411765 </v>
   <v>       0.31578947       0.07407407       0.29411765 </v>
   <v>       0.36842105       0.07407407       0.29411765 </v>
   <v>       0.42105263       0.07407407       0.29411765 </v>
   <v>       0.47368421       0.07407407       0.29411765 </v>
   <v>       0.00000000       0.11111111       0.29411765 </v>
   <v>       0.05263158       0.11111111       0.29411765 </v>
   <v>       0.10526316       0.11111111       0.29411765 </v>
   <v>       0.15789474       0.11111111       0.29411765 </v>
   <v>       0.21052632       0.11111111       0.29411765 </v>
   <v>       0.26315789       0.11111111       0.29411765 </v>
   <v>       0.31578947       0.11111111       0.29411765 </v>
   <v>       0.36842105       0.11111111       0.29411765 </v>
   <v>       0.42105263       0.11111111       0.29411765 </v>
   <v>       0.47368421       0.11111111       0.29411765 </v>
   <v>       0.00000000       0.14814815       0.29411765 </v>
   <v>       0.05263158       0.14814815       0.29411765 </v>
   <v>       0.10526316       0.14814815       0.29411765 </v>
   <v>       0.15789474       0.14814815       0.29411765 </v>
   <v>       0.21052632       0.14814815       0.29411765 </v>
   <v>       0.26315789       0.14814815       0.29411765 </v>
   <v>       0.31578947       0.14814815       0.29411765 </v>
   <v>       0.36842105       0.14814815       0.29411765 </v>
   <v>       0.42105263       0.14814815       0.29411765 </v>
   <v>       0.47368421       0.14814815       0.29411765 </v>
   <v>       0.00000000       0.18518519       0.29411765 </v>
   <v>       0.05263158       0.18518519       0.29411765 </v>
   <v>       0.10526316       0.18518519       0.29411765 </v>
   <v>       0.15789474       0.18518519       0.29411765 </v>
   <v>       0.21052632       0.18518519       0.29411765 </v>
   <v>       0.26315789       0.18518519       0.29411765 </v>
   <v>       0.31578947       0.18518519       0.29411765 </v>
   <v>       0.36842105       0.18518519       0.29411765 </v>
   <v>       0.42105263       0.18518519       0.29411765 </v>
   <v>       0.47368421       0.18518519       0.29411765 </v>
   <v>       0.00000000       0.22222222       0.29411765 </v>
   <v>       0.05263158       0.22222222       0.29411765 </v>
   <v>       0.10526316       0.22222222       0.29411765 </v>
   <v>       0.15789474       0.22222222       0.29411765 </v>
   <v>       0.21052632       0.22222222       0.29411765 </v>
   <v>       0.26315789       0.22222222       0.29411765 </v>
   <v>       0.31578947       0.22222222       0.29411765 </v>
   <v>       0.36842105       0.22222222       0.29411765 </v>
   <v>       0.42105263       0.22222222       0.29411765 </v>
   <v>       0.47368421       0.22222222       0.29411765 </v>
   <v>       0.00000000       0.25925926       0.29411765 </v>
   <v>       0.05263158       0.25925926       0.29411765 </v>
   <v>       0.10526316       0.25925926       0.29411765 </v>
   <v>       0.15789474       0.25925926       0.29411765 </v>
   <v>       0.21052632       0.25925926       0.29411765 </v>
   <v>       0.26315789       0.25925926       0.29411765 </v>
   <v>       0.31578947       0.25925926       0.29411765 </v>
   <v>       0.36842105       0.25925926       0.29411765 </v>
   <v>       0.42105263       0.25925926       0.29411765 </v>
   <v>       0.47368421       0.25925926       0.29411765 </v>
   <v>       0.00000000       0.29629630       0.29411765 </v>
   <v>       0.05263158       0.29629630       0.29411765 </v>
   <v>       0.10526316       0.29629630       0.29411765 </v>
   <v>       0.15789474       0.29629630       0.29411765 </v>
   <v>       0.21052632       0.29629630       0.29411765 </v>
   <v>       0.26315789       0.29629630       0.29411765 </v>
   <v>       0.31578947       0.29629630       0.29411765 </v>
   <v>       0.36842105       0.29629630       0.29411765 </v>
   <v>       0.42105263       0.29629630       0.29411765 </v>
   <v>       0.47368421       0.29629630       0.29411765 </v>
   <v>       0.00000000       0.33333333       0.29411765 </v>
   <v>       0.05263158       0.33333333       0.29411765 </v>
   <v>       0.10526316       0.33333333       0.29411765 </v>
   <v>       0.15789474       0.33333333       0.29411765 </v>
   <v>       0.21052632       0.33333333       0.29411765 </v>
   <v>       0.26315789       0.33333333       0.29411765 </v>
   <v>       0.31578947       0.33333333       0.29411765 </v>
   <v>       0.36842105       0.33333333       0.29411765 </v>
   <v>       0.42105263       0.33333333       0.29411765 </v>
   <v>       0.47368421       0.33333333       0.29411765 </v>
   <v>       0.00000000       0.37037037       0.29411765 </v>
   <v>       0.05263158       0.37037037       0.29411765 </v>
   <v>       0.10526316       0.37037037       0.29411765 </v>
   <v>       0.15789474       0.37037037       0.29411765 </v>
   <v>       0.21052632       0.37037037       0.29411765 </v>
   <v>       0.26315789       0.37037037       0.29411765 </v>
   <v>       0.31578947       0.37037037       0.29411765 </v>
   <v>       0.36842105       0.37037037       0.29411765 </v>
   <v>       0.42105263       0.37037037       0.29411765 </v>
   <v>       0.47368421       0.37037037       0.29411765 </v>
   <v>       0.00000000       0.40740741       0.29411765 </v>
   <v>       0.05263158       0.40740741       0.29411765 </v>
   <v>       0.10526316       0.40740741       0.29411765 </v>
   <v>       0.15789474       0.40740741       0.29411765 </v>
   <v>       0.21052632       0.40740741       0.29411765 </v>
   <v>       0.26315789       0.40740741       0.29411765 </v>
   <v>       0.31578947       0.40740741       0.29411765 </v>
   <v>       0.36842105       0.40740741       0.29411765 </v>
   <v>       0.42105263       0.40740741       0.29411765 </v>
   <v>       0.47368421       0.40740741       0.29411765 </v>
   <v>       0.00000000       0.44444444       0.29411765 </v>
   <v>       0.05263158       0.44444444       0.29411765 </v>
   <v>       0.10526316       0.44444444       0.29411765 </v>
   <v>       0.15789474       0.44444444       0.29411765 </v>
   <v>       0.21052632       0.44444444       0.29411765 </v>
   <v>       0.26315789       0.44444444       0.29411765 </v>
   <v>       0.31578947       0.44444444       0.29411765 </v>
   <v>       0.36842105       0.44444444       0.29411765 </v>
   <v>       0.42105263       0.44444444       0.29411765 </v>
   <v>       0.47368421       0.44444444       0.29411765 </v>
   <v>       0.00000000       0.48148148       0.29411765 </v>
   <v>       0.05263158       0.48148148       0.29411765 </v>
   <v>       0.10526316       0.48148148       0.29411765 </v>
   <v>       0.15789474       0.48148148       0.29411765 </v>
   <v>       0.21052632       0.48148148       0.29411765 </v>
   <v>       0.26315789       0.48148148       0.29411765 </v>
   <v>       0.31578947       0.48148148       0.29411765 </v>
   <v>       0.36842105       0.48148148       0.29411765 </v>
   <v>       0.42105263       0.48148148       0.29411765 </v>
   <v>       0.47368421       0.48148148       0.29411765 </v>
   <v>       0.00000000       0.00000000       0.35294118 </v>
   <v>       0.05263158       0.00000000       0.35294118 </v>
   <v>       0.10526316       0.00000000       0.35294118 </v>
   <v>       0.15789474       0.00000000       0.35294118 </v>
   <v>       0.21052632       0.00000000       0.35294118 </v>
   <v>       0.26315789       0.00000000       0.35294118 </v>
   <v>       0.31578947       0.00000000       0.35294118 </v>
   <v>       0.36842105       0.00000000       0.35294118 </v>
   <v>       0.42105263       0.00000000       0.35294118 </v>
   <v>       0.47368421       0.00000000       0.35294118 </v>
   <v>       0.00000000       0.03703704       0.35294118 </v>
   <v>       0.05263158       0.03703704       0.35294118 </v>
   <v>       0.10526316       0.03703704       0.35294118 </v>
   <v>       0.15789474       0.03703704       0.35294118 </v>
   <v>       0.21052632       0.03703704       0.35294118 </v>
   <v>       0.26315789       0.03703704       0.35294118 </v>
   <v>       0.31578947       0.03703704       0.35294118 </v>
   <v>       0.36842105       0.03703704       0.35294118 </v>
   <v>       0.42105263       0.03703704       0.35294118 </v>
   <v>       0.47368421       0.03703704       0.35294118 </v>
   <v>       0.00000000       0.07407407       0.35294118 </v>
   <v>       0.05263158       0.07407407       0.35294118 </v>
   <v>       0.10526316       0.07407407       0.35294118 </v>
   <v>       0.15789474       0.07407407       0.35294118 </v>
   <v>       0.21052632       0.07407407       0.35294118 </v>
   <v>       0.26315789       0.07407407       0.35294118 </v>
   <v>       0.31578947       0.07407407       0.35294118 </v>
   <v>       0.36842105       0.07407407       0.35294118 </v>
   <v>       0.42105263       0.07407407       0.35294118 </v>
   <v>       0.47368421       0.07407407       0.35294118 </v>
   <v>       0.00000000       0.11111111       0.35294118 </v>
   <v>       0.05263158       0.11111111       0.35294118 </v>
   <v>       0.10526316       0.11111111       0.35294118 </v>
   <v>       0.15789474       0.11111111       0.35294118 </v>
   <v>       0.21052632       0.11111111       0.35294118 </v>
   <v>       0.26315789       0.11111111       0.35294118 </v>
   <v>       0.31578947       0.11111111       0.35294118 </v>
   <v>       0.36842105       0.11111111       0.35294118 </v>
   <v>       0.42105263       0.11111111       0.35294118 </v>
   <v>       0.47368421       0.11111111       0.35294118 </v>
   <v>       0.00000000       0.14814815       0.35294118 </v>
   <v>       0.05263158       0.14814815       0.35294118 </v>
   <v>       0.10526316       0.14814815       0.35294118 </v>
   <v>       0.15789474       0.14814815       0.35294118 </v>
   <v>       0.21052632       0.14814815       0.35294118 </v>
   <v>       0.26315789       0.14814815       0.35294118 </v>
   <v>       0.31578947       0.14814815       0.35294118 </v>
   <v>       0.36842105       0.14814815       0.35294118 </v>
   <v>       0.42105263       0.14814815       0.35294118 </v>
   <v>       0.47368421       0.14814815       0.35294118 </v>
   <v>       0.00000000       0.18518519       0.35294118 </v>
   <v>       0.05263158       0.18518519       0.35294118 </v>
   <v>       0.10526316       0.18518519       0.35294118 </v>
   <v>       0.15789474       0.18518519       0.35294118 </v>
   <v>       0.21052632       0.18518519       0.35294118 </v>
   <v>       0.26315789       0.18518519       0.35294118 </v>
   <v>       0.31578947       0.18518519       0.35294118 </v>
   <v>       0.36842105       0.18518519       0.35294118 </v>
   <v>       0.42105263       0.18518519       0.35294118 </v>
   <v>       0.47368421       0.18518519       0.35294118 </v>
   <v>       0.00000000       0.22222222       0.35294118 </v>
   <v>       0.05263158       0.22222222       0.35294118 </v>
   <v>       0.10526316       0.22222222       0.35294118 </v>
   <v>       0.15789474       0.22222222       0.35294118 </v>
   <v>       0.21052632       0.22222222       0.35294118 </v>
   <v>       0.26315789       0.22222222       0.35294118 </v>
   <v>       0.31578947       0.22222222       0.35294118 </v>
   <v>       0.36842105       0.22222222       0.35294118 </v>
   <v>       0.42105263       0.22222222       0.35294118 </v>
   <v>       0.47368421       0.22222222       0.35294118 </v>
   <v>       0.00000000       0.25925926       0.35294118 </v>
   <v>       0.05263158       0.25925926       0.35294118 </v>
   <v>       0.10526316       0.25925926       0.35294118 </v>
   <v>       0.15789474       0.25925926       0.35294118 </v>
   <v>       0.21052632       0.25925926       0.35294118 </v>
   <v>       0.26315789       0.25925926       0.35294118 </v>
   <v>       0.31578947       0.25925926       0.35294118 </v>
   <v>       0.36842105       0.25925926       0.35294118 </v>
   <v>       0.42105263       0.25925926       0.35294118 </v>
   <v>       0.47368421       0.25925926       0.35294118 </v>
   <v>       0.00000000       0.29629630       0.35294118 </v>
   <v>       0.05263158       0.29629630       0.35294118 </v>
   <v>       0.10526316       0.29629630       0.35294118 </v>
   <v>       0.15789474       0.29629630       0.35294118 </v>
   <v>       0.21052632       0.29629630       0.35294118 </v>
   <v>       0.26315789       0.29629630       0.35294118 </v>
   <v>       0.31578947       0.29629630       0.35294118 </v>
   <v>       0.36842105       0.29629630       0.35294118 </v>
   <v>       0.42105263       0.29629630       0.35294118 </v>
   <v>       0.47368421       0.29629630       0.35294118 </v>
   <v>       0.00000000       0.33333333       0.35294118 </v>
   <v>       0.05263158       0.33333333       0.35294118 </v>
   <v>       0.10526316       0.33333333       0.35294118 </v>
   <v>       0.15789474       0.33333333       0.35294118 </v>
   <v>       0.21052632       0.33333333       0.35294118 </v>
   <v>       0.26315789       0.33333333       0.35294118 </v>
   <v>       0.31578947       0.33333333       0.35294118 </v>
   <v>       0.36842105       0.33333333       0.35294118 </v>
   <v>       0.42105263       0.33333333       0.35294118 </v>
   <v>       0.47368421       0.33333333       0.35294118 </v>
   <v>       0.00000000       0.37037037       0.35294118 </v>
   <v>       0.05263158       0.37037037       0.35294118 </v>
   <v>       0.10526316       0.37037037       0.35294118 </v>
   <v>       0.15789474       0.37037037       0.35294118 </v>
   <v>       0.21052632       0.37037037       0.35294118 </v>
   <v>       0.26315789       0.37037037       0.35294118 </v>
   <v>       0.31578947       0.37037037       0.35294118 </v>
   <v>       0.36842105       0.37037037       0.35294118 </v>
   <v>       0.42105263       0.37037037       0.35294118 </v>
   <v>       0.47368421       0.37037037       0.35294118 </v>
   <v>       0.00000000       0.40740741       0.35294118 </v>
   <v>       0.05263158       0.40740741       0.35294118 </v>
   <v>       0.10526316       0.40740741       0.35294118 </v>
   <v>       0.15789474       0.40740741       0.35294118 </v>
   <v>       0.21052632       0.40740741       0.35294118 </v>
   <v>       0.26315789       0.40740741       0.35294118 </v>
   <v>       0.31578947       0.40740741       0.35294118 </v>
   <v>       0.36842105       0.40740741       0.35294118 </v>
   <v>       0.42105263       0.40740741       0.35294118 </v>
   <v>       0.47368421       0.40740741       0.35294118 </v>
   <v>       0.00000000       0.44444444       0.35294118 </v>
   <v>       0.05263158       0.44444444       0.35294118 </v>
   <v>       0.10526316       0.44444444       0.35294118 </v>
   <v>       0.15789474       0.44444444       0.35294118 </v>
   <v>       0.21052632       0.44444444       0.35294118 </v>
   <v>       0.26315789       0.44444444       0.35294118 </v>
   <v>       0.31578947       0.44444444       0.35294118 </v>
   <v>       0.36842105       0.44444444       0.35294118 </v>
   <v>       0.42105263       0.44444444       0.35294118 </v>
   <v>       0.47368421       0.44444444       0.35294118 </v>
   <v>       0.00000000       0.48148148       0.35294118 </v>
   <v>       0.05263158       0.48148148       0.35294118 </v>
   <v>       0.10526316       0.48148148       0.35294118 </v>
   <v>       0.15789474       0.48148148       0.35294118 </v>
   <v>       0.21052632       0.48148148       0.35294118 </v>
   <v>       0.26315789       0.48148148       0.35294118 </v>
   <v>       0.31578947       0.48148148       0.35294118 </v>
   <v>       0.36842105       0.48148148       0.35294118 </v>
   <v>       0.42105263       0.48148148       0.35294118 </v>
   <v>       0.47368421       0.48148148       0.35294118 </v>
   <v>       0.00000000       0.00000000       0.41176471 </v>
   <v>       0.05263158       0.00000000       0.41176471 </v>
   <v>       0.10526316       0.00000000       0.41176471 </v>
   <v>       0.15789474       0.00000000       0.41176471 </v>
   <v>       0.21052632       0.00000000       0.41176471 </v>
   <v>       0.26315789       0.00000000       0.41176471 </v>
   <v>       0.31578947       0.00000000       0.41176471 </v>
   <v>       0.36842105       0.00000000       0.41176471 </v>
   <v>       0.42105263       0.00000000       0.41176471 </v>
   <v>       0.47368421       0.00000000       0.41176471 </v>
   <v>       0.00000000       0.03703704       0.41176471 </v>
   <v>       0.05263158       0.03703704       0.41176471 </v>
   <v>       0.10526316       0.03703704       0.41176471 </v>
   <v>       0.15789474       0.03703704       0.41176471 </v>
   <v>       0.21052632       0.03703704       0.41176471 </v>
   <v>       0.26315789       0.03703704       0.41176471 </v>
   <v>       0.31578947       0.03703704       0.41176471 </v>
   <v>       0.36842105       0.03703704       0.41176471 </v>
   <v>       0.42105263       0.03703704       0.41176471 </v>
   <v>       0.47368421       0.03703704       0.41176471 </v>
   <v>       0.00000000       0.07407407       0.41176471 </v>
   <v>       0.05263158       0.07407407       0.41176471 </v>
   <v>       0.10526316       0.07407407       0.41176471 </v>
   <v>       0.15789474       0.07407407       0.41176471 </v>
   <v>       0.21052632       0.07407407       0.41176471 </v>
   <v>       0.26315789       0.07407407       0.41176471 </v>
   <v>       0.31578947       0.07407407       0.41176471 </v>
   <v>       0.36842105       0.07407407       0.41176471 </v>
   <v>       0.42105263       0.07407407       0.41176471 </v>
   <v>       0.47368421       0.07407407       0.41176471 </v>
   <v>       0.00000000       0.11111111       0.41176471 </v>
   <v>       0.05263158       0.11111111       0.41176471 </v>
   <v>       0.10526316       0.11111111       0.41176471 </v>
   <v>       0.15789474       0.11111111       0.41176471 </v>
   <v>       0.21052632       0.11111111       0.41176471 </v>
   <v>       0.26315789       0.11111111       0.41176471 </v>
   <v>       0.31578947       0.11111111       0.41176471 </v>
   <v>       0.36842105       0.11111111       0.41176471 </v>
   <v>       0.42105263       0.11111111       0.41176471 </v>
   <v>       0.47368421       0.11111111       0.41176471 </v>
   <v>       0.00000000       0.14814815       0.41176471 </v>
   <v>       0.05263158       0.14814815       0.41176471 </v>
   <v>       0.10526316       0.14814815       0.41176471 </v>
   <v>       0.15789474       0.14814815       0.41176471 </v>
   <v>       0.21052632       0.14814815       0.41176471 </v>
   <v>       0.26315789       0.14814815       0.41176471 </v>
   <v>       0.31578947       0.14814815       0.41176471 </v>
   <v>       0.36842105       0.14814815       0.41176471 </v>
   <v>       0.42105263       0.14814815       0.41176471 </v>
   <v>       0.47368421       0.14814815       0.41176471 </v>
   <v>       0.00000000       0.18518519       0.41176471 </v>
   <v>       0.05263158       0.18518519       0.41176471 </v>
   <v>       0.10526316       0.18518519       0.41176471 </v>
   <v>       0.15789474       0.18518519       0.41176471 </v>
   <v>       0.21052632       0.18518519       0.41176471 </v>
   <v>       0.26315789       0.18518519       0.41176471 </v>
   <v>       0.31578947       0.18518519       0.41176471 </v>
   <v>       0.36842105       0.18518519       0.41176471 </v>
   <v>       0.42105263       0.18518519       0.41176471 </v>
   <v>       0.47368421       0.18518519       0.41176471 </v>
   <v>       0.00000000       0.22222222       0.41176471 </v>
   <v>       0.05263158       0.22222222       0.41176471 </v>
   <v>       0.10526316       0.22222222       0.41176471 </v>
   <v>       0.15789474       0.22222222       0.41176471 </v>
   <v>       0.21052632       0.22222222       0.41176471 </v>
   <v>       0.26315789       0.22222222       0.41176471 </v>
   <v>       0.31578947       0.22222222       0.41176471 </v>
   <v>       0.36842105       0.22222222       0.41176471 </v>
   <v>       0.42105263       0.22222222       0.41176471 </v>
   <v>       0.47368421       0.22222222       0.41176471 </v>
   <v>       0.00000000       0.25925926       0.41176471 </v>
   <v>       0.05263158       0.25925926       0.41176471 </v>
   <v>       0.10526316       0.25925926       0.41176471 </v>
   <v>       0.15789474       0.25925926       0.41176471 </v>
   <v>       0.21052632       0.25925926       0.41176471 </v>
   <v>       0.26315789       0.25925926       0.41176471 </v>
   <v>       0.31578947       0.25925926       0.41176471 </v>
   <v>       0.36842105       0.25925926       0.41176471 </v>
   <v>       0.42105263       0.25925926       0.41176471 </v>
   <v>       0.47368421       0.25925926       0.41176471 </v>
   <v>       0.00000000       0.29629630       0.41176471 </v>
   <v>       0.05263158       0.29629630       0.41176471 </v>
   <v>       0.10526316       0.29629630       0.41176471 </v>
   <v>       0.15789474       0.29629630       0.41176471 </v>
   <v>       0.21052632       0.29629630       0.41176471 </v>
   <v>       0.26315789       0.29629630       0.41176471 </v>
   <v>       0.31578947       0.29629630       0.41176471 </v>
   <v>       0.36842105       0.29629630       0.41176471 </v>
   <v>       0.42105263       0.29629630       0.41176471 </v>
   <v>       0.47368421       0.29629630       0.41176471 </v>
   <v>       0.00000000       0.33333333       0.41176471 </v>
   <v>       0.05263158       0.33333333       0.41176471 </v>
   <v>       0.10526316       0.33333333       0.41176471 </v>
   <v>       0.15789474       0.33333333       0.41176471 </v>
   <v>       0.21052632       0.33333333       0.41176471 </v>
   <v>       0.26315789       0.33333333       0.41176471 </v>
   <v>       0.31578947       0.33333333       0.41176471 </v>
   <v>       0.36842105       0.33333333       0.41176471 </v>
   <v>       0.42105263       0.33333333       0.41176471 </v>
   <v>       0.47368421       0.33333333       0.41176471 </v>
   <v>       0.00000000       0.37037037       0.41176471 </v>
   <v>       0.05263158       0.37037037       0.41176471 </v>
   <v>       0.10526316       0.37037037       0.41176471 </v>
   <v>       0.15789474       0.37037037       0.41176471 </v>
   <v>       0.21052632       0.37037037       0.41176471 </v>
   <v>       0.26315789       0.37037037       0.41176471 </v>
   <v>       0.31578947       0.37037037       0.41176471 </v>
   <v>       0.36842105       0.37037037       0.41176471 </v>
   <v>       0.42105263       0.37037037       0.41176471 </v>
   <v>       0.47368421       0.37037037       0.41176471 </v>
   <v>       0.00000000       0.40740741       0.41176471 </v>
   <v>       0.05263158       0.40740741       0.41176471 </v>
   <v>       0.10526316       0.40740741       0.41176471 </v>
   <v>       0.15789474       0.40740741       0.41176471 </v>
   <v>       0.21052632       0.40740741       0.41176471 </v>
   <v>       0.26315789       0.40740741       0.41176471 </v>
   <v>       0.31578947       0.40740741       0.41176471 </v>
   <v>       0.36842105       0.40740741       0.41176471 </v>
   <v>       0.42105263       0.40740741       0.41176471 </v>
   <v>       0.47368421       0.40740741       0.41176471 </v>
   <v>       0.00000000       0.44444444       0.41176471 </v>
   <v>       0.05263158       0.44444444       0.41176471 </v>
   <v>       0.10526316       0.44444444       0.41176471 </v>
   <v>       0.15789474       0.44444444       0.41176471 </v>
   <v>       0.21052632       0.44444444       0.41176471 </v>
   <v>       0.26315789       0.44444444       0.41176471 </v>
   <v>       0.31578947       0.44444444       0.41176471 </v>
   <v>       0.36842105       0.44444444       0.41176471 </v>
   <v>       0.42105263       0.44444444       0.41176471 </v>
   <v>       0.47368421       0.44444444       0.41176471 </v>
   <v>       0.00000000       0.48148148       0.41176471 </v>
   <v>       0.05263158       0.48148148       0.41176471 </v>
   <v>       0.10526316       0.48148148       0.41176471 </v>
   <v>       0.15789474       0.48148148       0.41176471 </v>
   <v>       0.21052632       0.48148148       0.41176471 </v>
   <v>       0.26315789       0.48148148       0.41176471 </v>
   <v>       0.31578947       0.48148148       0.41176471 </v>
   <v>       0.36842105       0.48148148       0.41176471 </v>
   <v>       0.42105263       0.48148148       0.41176471 </v>
   <v>       0.47368421       0.48148148       0.41176471 </v>
   <v>       0.00000000       0.00000000       0.47058824 </v>
   <v>       0.05263158       0.00000000       0.47058824 </v>
   <v>       0.10526316       0.00000000       0.47058824 </v>
   <v>       0.15789474       0.00000000       0.47058824 </v>
   <v>       0.21052632       0.00000000       0.47058824 </v>
   <v>       0.26315789       0.00000000       0.47058824 </v>
   <v>       0.31578947       0.00000000       0.47058824 </v>
   <v>       0.36842105       0.00000000       0.47058824 </v>
   <v>       0.42105263       0.00000000       0.47058824 </v>
   <v>       0.47368421       0.00000000       0.47058824 </v>
   <v>       0.00000000       0.03703704       0.47058824 </v>
   <v>       0.05263158       0.03703704       0.47058824 </v>
   <v>       0.10526316       0.03703704       0.47058824 </v>
   <v>       0.15789474       0.03703704       0.47058824 </v>
   <v>       0.21052632       0.03703704       0.47058824 </v>
   <v>       0.26315789       0.03703704       0.47058824 </v>
   <v>       0.31578947       0.03703704       0.47058824 </v>
   <v>       0.36842105       0.03703704       0.47058824 </v>
   <v>       0.42105263       0.03703704       0.47058824 </v>
   <v>       0.47368421       0.03703704       0.47058824 </v>
   <v>       0.00000000       0.07407407       0.47058824 </v>
   <v>       0.05263158       0.07407407       0.47058824 </v>
   <v>       0.10526316       0.07407407       0.47058824 </v>
   <v>       0.15789474       0.07407407       0.47058824 </v>
   <v>       0.21052632       0.07407407       0.47058824 </v>
   <v>       0.26315789       0.07407407       0.47058824 </v>
   <v>       0.31578947       0.07407407       0.47058824 </v>
   <v>       0.36842105       0.07407407       0.47058824 </v>
   <v>       0.42105263       0.07407407       0.47058824 </v>
   <v>       0.47368421       0.07407407       0.47058824 </v>
   <v>       0.00000000       0.11111111       0.47058824 </v>
   <v>       0.05263158       0.11111111       0.47058824 </v>
   <v>       0.10526316       0.11111111       0.47058824 </v>
   <v>       0.15789474       0.11111111       0.47058824 </v>
   <v>       0.21052632       0.11111111       0.47058824 </v>
   <v>       0.26315789       0.11111111       0.47058824 </v>
   <v>       0.31578947       0.11111111       0.47058824 </v>
   <v>       0.36842105       0.11111111       0.47058824 </v>
   <v>       0.42105263       0.11111111       0.47058824 </v>
   <v>       0.47368421       0.11111111       0.47058824 </v>
   <v>       0.00000000       0.14814815       0.47058824 </v>
   <v>       0.05263158       0.14814815       0.47058824 </v>
   <v>       0.10526316       0.14814815       0.47058824 </v>
   <v>       0.15789474       0.14814815       0.47058824 </v>
   <v>       0.21052632       0.14814815       0.47058824 </v>
   <v>       0.26315789       0.14814815       0.47058824 </v>
   <v>       0.31578947       0.14814815       0.47058824 </v>
   <v>       0.36842105       0.14814815       0.47058824 </v>
   <v>       0.42105263       0.14814815       0.47058824 </v>
   <v>       0.47368421       0.14814815       0.47058824 </v>
   <v>       0.00000000       0.18518519       0.47058824 </v>
   <v>       0.05263158       0.18518519       0.47058824 </v>
   <v>       0.10526316       0.18518519       0.47058824 </v>
   <v>       0.15789474       0.18518519       0.47058824 </v>
   <v>       0.21052632       0.18518519       0.47058824 </v>
   <v>       0.26315789       0.18518519       0.47058824 </v>
   <v>       0.31578947       0.18518519       0.47058824 </v>
   <v>       0.36842105       0.18518519       0.47058824 </v>
   <v>       0.42105263       0.18518519       0.47058824 </v>
   <v>       0.47368421       0.18518519       0.47058824 </v>
   <v>       0.00000000       0.22222222       0.47058824 </v>
   <v>       0.05263158       0.22222222       0.47058824 </v>
   <v>       0.10526316       0.22222222       0.47058824 </v>
   <v>       0.15789474       0.22222222       0.47058824 </v>
   <v>       0.21052632       0.22222222       0.47058824 </v>
   <v>       0.26315789       0.22222222       0.47058824 </v>
   <v>       0.31578947       0.22222222       0.47058824 </v>
   <v>       0.36842105       0.22222222       0.47058824 </v>
   <v>       0.42105263       0.22222222       0.47058824 </v>
   <v>       0.47368421       0.22222222       0.47058824 </v>
   <v>       0.00000000       0.25925926       0.47058824 </v>
   <v>       0.05263158       0.25925926       0.47058824 </v>
   <v>       0.10526316       0.25925926       0.47058824 </v>
   <v>       0.15789474       0.25925926       0.47058824 </v>
   <v>       0.21052632       0.25925926       0.47058824 </v>
   <v>       0.26315789       0.25925926       0.47058824 </v>
   <v>       0.31578947       0.25925926       0.47058824 </v>
   <v>       0.36842105       0.25925926       0.47058824 </v>
   <v>       0.42105263       0.25925926       0.47058824 </v>
   <v>       0.47368421       0.25925926       0.47058824 </v>
   <v>       0.00000000       0.29629630       0.47058824 </v>
   <v>       0.05263158       0.29629630       0.47058824 </v>
   <v>       0.10526316       0.29629630       0.47058824 </v>
   <v>       0.15789474       0.29629630       0.47058824 </v>
   <v>       0.21052632       0.29629630       0.47058824 </v>
   <v>       0.26315789       0.29629630       0.47058824 </v>
   <v>       0.31578947       0.29629630       0.47058824 </v>
   <v>       0.36842105       0.29629630       0.47058824 </v>
[...]
       <r>   -2.2128    1.0000 </r>
       <r>   -2.1295    1.0000 </r>
       <r>   -2.1292    1.0000 </r>
       <r>   -1.6890    1.0000 </r>
       <r>   -0.3799    1.0000 </r>
       <r>   -0.0180    1.0000 </r>
       <r>    0.3597    1.0000 </r>
       <r>    0.4438    1.0000 </r>
       <r>    0.5364    1.0000 </r>
       <r>    1.0535    1.0000 </r>
       <r>    1.6411    1.0000 </r>
       <r>    1.7770    0.9978 </r>
       <r>    5.7672    0.0000 </r>
       <r>    6.0831    0.0000 </r>
       <r>    6.7412    0.0000 </r>
       <r>    7.3908    0.0000 </r>
       <r>    7.5922    0.0000 </r>
       <r>    7.6933    0.0000 </r>
       <r>    9.3179    0.0000 </r>
       <r>    9.6185    0.0000 </r>
       <r>    9.7379    0.0000 </r>
       <r>    9.9368    0.0000 </r>
       <r>   10.5006    0.0000 </r>
       <r>   10.9300    0.0000 </r>
       <r>   11.1450    0.0000 </r>
       <r>   11.4611    0.0000 </r>
       <r>   11.5261    0.0000 </r>
       <r>   11.6438    0.0000 </r>
       <r>   13.0236    0.0000 </r>
       <r>   13.2188    0.0000 </r>
       <r>   13.6007    0.0000 </r>
       <r>   14.1043    0.0000 </r>
       <r>   14.2229    0.0000 </r>
       <r>   14.3797    0.0000 </r>
       <r>   14.4606    0.0000 </r>
       <r>   14.8111    0.0000 </r>
       <r>   15.0230    0.0000 </r>
       <r>   15.1386    0.0000 </r>
      </set>
      <set comment="kpoint 1260">
       <r>  -11.9847    1.0000 </r>
       <r>  -11.9117    1.0000 </r>
       <r>   -8.5271    1.0000 </r>
       <r>   -8.4679    1.0000 </r>
       <r>   -5.9149    1.0000 </r>
       <r>   -5.8602    1.0000 </r>
       <r>   -4.6962    1.0000 </r>
       <r>   -4.5486    1.0000 </r>
       <r>   -4.4026    1.0000 </r>
       <r>   -4.1846    1.0000 </r>
       <r>   -2.2136    1.0000 </r>
       <r>   -2.1852    1.0000 </r>
       <r>   -1.9911    1.0000 </r>
       <r>   -1.8425    1.0000 </r>
       <r>   -0.1223    1.0000 </r>
       <r>    0.0084    1.0000 </r>
       <r>    0.4351    1.0000 </r>
       <r>    0.4649    1.0000 </r>
       <r>    0.5806    1.0000 </r>
       <r>    0.7434    1.0000 </r>
       <r>    1.6634    1.0000 </r>
       <r>    1.7108    1.0000 </r>
       <r>    5.9033    0.0000 </r>
       <r>    6.0013    0.0000 </r>
       <r>    6.9787    0.0000 </r>
       <r>    7.3076    0.0000 </r>
       <r>    7.4540    0.0000 </r>
       <r>    7.5161    0.0000 </r>
       <r>    9.5041    0.0000 </r>
       <r>    9.6406    0.0000 </r>
       <r>    9.8769    0.0000 </r>
       <r>    9.9670    0.0000 </r>
       <r>   10.4936    0.0000 </r>
       <r>   10.6803    0.0000 </r>
       <r>   11.2844    0.0000 </r>
       <r>   11.4498    0.0000 </r>
       <r>   11.4833    0.0000 </r>
       <r>   11.5127    0.0000 </r>
       <r>   13.1277    0.0000 </r>
       <r>   13.1785    0.0000 </r>
       <r>   13.9070    0.0000 </r>
       <r>   14.1689    0.0000 </r>
       <r>   14.2456    0.0000 </r>
       <r>   14.2919    0.0000 </r>
       <r>   14.6836    0.0000 </r>
       <r>   14.7643    0.0000 </r>
       <r>   14.8293    0.0000 </r>
       <r>   14.9492    0.0000 </r>
      </set>
     </set>
    </set>
   </array>
  </eigenvalues>
  <separator name="orbital magnetization" >
   <v name="MAGDIPOLOUT">      0.00000000      0.00000000      0.00000000</v>
  </separator>
  <dos>
   <i name="efermi">      1.87794625 </i>
   <total>
    <array>
     <dimension dim="1">gridpoints</dimension>
     <dimension dim="2">spin</dimension>
     <field>energy</field>
     <field>total</field>
     <field>integrated</field>
     <set>
      <set comment="spin 1">
       <r>   -14.1998     0.0000     0.0000 </r>
       <r>   -14.0923     0.0000     0.0000 </r>
       <r>   -13.9847     0.0000     0.0000 </r>
       <r>   -13.8772     0.0000     0.0000 </r>
       <r>   -13.7696     0.0000     0.0000 </r>
       <r>   -13.6621     0.0000     0.0000 </r>
       <r>   -13.5545     0.0000     0.0000 </r>
       <r>   -13.4470     0.0000     0.0000 </r>
       <r>   -13.3394     0.0000     0.0000 </r>
       <r>   -13.2319     0.0000     0.0000 </r>
       <r>   -13.1243     0.0000     0.0000 </r>
       <r>   -13.0168     0.0000     0.0000 </r>
       <r>   -12.9092     0.0000     0.0000 </r>
       <r>   -12.8017     0.0019     0.0002 </r>
       <r>   -12.6941     0.4068     0.0440 </r>
       <r>   -12.5866     2.2499     0.2859 </r>
       <r>   -12.4790     3.5090     0.6633 </r>
       <r>   -12.3715     4.3409     1.1302 </r>
       <r>   -12.2639     3.5752     1.5147 </r>
       <r>   -12.1564     2.8738     1.8238 </r>
       <r>   -12.0488     2.6347     2.1071 </r>
       <r>   -11.9413     2.5883     2.3855 </r>
       <r>   -11.8337     2.7439     2.6806 </r>
       <r>   -11.7262     3.3240     3.0381 </r>
       <r>   -11.6186     3.6210     3.4275 </r>
       <r>   -11.5111     3.1253     3.7637 </r>
       <r>   -11.4035     1.7278     3.9495 </r>
       <r>   -11.2960     0.4604     3.9990 </r>
       <r>   -11.1884     0.0091     4.0000 </r>
       <r>   -11.0809     0.0000     4.0000 </r>
       <r>   -10.9733     0.0000     4.0000 </r>
       <r>   -10.8658     0.0000     4.0000 </r>
       <r>   -10.7582     0.0000     4.0000 </r>
       <r>   -10.6507     0.0000     4.0000 </r>
       <r>   -10.5431     0.0000     4.0000 </r>
       <r>   -10.4356     0.0000     4.0000 </r>
       <r>   -10.3280     0.0000     4.0000 </r>
       <r>   -10.2205     0.0000     4.0000 </r>
       <r>   -10.1129     0.0000     4.0000 </r>
       <r>   -10.0054     0.0000     4.0000 </r>
       <r>    -9.8978     0.0000     4.0000 </r>
       <r>    -9.7903     0.0000     4.0000 </r>
       <r>    -9.6827     0.0000     4.0000 </r>
       <r>    -9.5752     0.0000     4.0000 </r>
       <r>    -9.4676     0.0000     4.0000 </r>
       <r>    -9.3601     0.0000     4.0000 </r>
       <r>    -9.2525     0.0000     4.0000 </r>
       <r>    -9.1450     0.0000     4.0000 </r>
       <r>    -9.0374     0.0000     4.0000 </r>
       <r>    -8.9299     0.0007     4.0001 </r>
       <r>    -8.8223     0.3058     4.0330 </r>
       <r>    -8.7148     2.1770     4.2671 </r>
       <r>    -8.6072     5.4335     4.8515 </r>
       <r>    -8.4997     7.0083     5.6052 </r>
       <r>    -8.3921     6.2160     6.2737 </r>
       <r>    -8.2846     5.2968     6.8434 </r>
       <r>    -8.1770     4.8665     7.3668 </r>
       <r>    -8.0695     3.7116     7.7660 </r>
       <r>    -7.9619     1.6038     7.9385 </r>
       <r>    -7.8544     0.5334     7.9959 </r>
       <r>    -7.7468     0.0385     8.0000 </r>
       <r>    -7.6393     0.0000     8.0000 </r>
       <r>    -7.5317     0.0000     8.0000 </r>
       <r>    -7.4242     0.0000     8.0000 </r>
       <r>    -7.3166     0.0000     8.0000 </r>
       <r>    -7.2091     0.0000     8.0000 </r>
       <r>    -7.1015     0.0000     8.0000 </r>
       <r>    -6.9940     0.0043     8.0005 </r>
       <r>    -6.8864     0.1139     8.0127 </r>
       <r>    -6.7789     0.2897     8.0439 </r>
       <r>    -6.6713     0.4676     8.0942 </r>
       <r>    -6.5638     0.7279     8.1725 </r>
       <r>    -6.4562     0.9148     8.2708 </r>
       <r>    -6.3487     1.5044     8.4326 </r>
       <r>    -6.2411     2.1301     8.6617 </r>
       <r>    -6.1336     3.0723     8.9922 </r>
       <r>    -6.0260     3.9607     9.4181 </r>
       <r>    -5.9185     3.9692     9.8450 </r>
       <r>    -5.8109     4.0461    10.2802 </r>
       <r>    -5.7034     4.0737    10.7183 </r>
       <r>    -5.5958     4.0812    11.1572 </r>
       <r>    -5.4883     4.0679    11.5947 </r>
       <r>    -5.3807     4.5168    12.0805 </r>
       <r>    -5.2732     4.7678    12.5933 </r>
       <r>    -5.1656     4.3528    13.0614 </r>
       <r>    -5.0581     3.8726    13.4779 </r>
       <r>    -4.9505     3.3349    13.8366 </r>
       <r>    -4.8430     2.3770    14.0923 </r>
       <r>    -4.7354     2.4943    14.3605 </r>
       <r>    -4.6279     2.9845    14.6815 </r>
       <r>    -4.5203     3.7147    15.0810 </r>
       <r>    -4.4128     3.3153    15.4376 </r>
       <r>    -4.3052     3.1859    15.7802 </r>
       <r>    -4.1977     2.9064    16.0928 </r>
       <r>    -4.0901     2.8439    16.3987 </r>
       <r>    -3.9826     3.0346    16.7251 </r>
       <r>    -3.8750     3.0372    17.0517 </r>
       <r>    -3.7675     2.8461    17.3578 </r>
       <r>    -3.6599     3.0594    17.6868 </r>
       <r>    -3.5524     2.7438    17.9819 </r>
       <r>    -3.4448     2.7387    18.2765 </r>
       <r>    -3.3373     2.8869    18.5870 </r>
       <r>    -3.2297     2.6577    18.8728 </r>
       <r>    -3.1222     2.8025    19.1742 </r>
       <r>    -3.0146     2.9538    19.4919 </r>
       <r>    -2.9071     3.0682    19.8219 </r>
       <r>    -2.7995     2.7295    20.1155 </r>
       <r>    -2.6920     2.4460    20.3785 </r>
       <r>    -2.5844     2.6194    20.6602 </r>
       <r>    -2.4769     3.0124    20.9842 </r>
       <r>    -2.3693     3.2416    21.3329 </r>
       <r>    -2.2618     3.8257    21.7443 </r>
       <r>    -2.1542     3.2586    22.0948 </r>
       <r>    -2.0467     3.4676    22.4677 </r>
       <r>    -1.9391     4.2325    22.9229 </r>
       <r>    -1.8316     4.8086    23.4401 </r>
       <r>    -1.7240     5.7102    24.0542 </r>
       <r>    -1.6165     5.9125    24.6901 </r>
       <r>    -1.5089     6.0060    25.3360 </r>
       <r>    -1.4013     6.0293    25.9845 </r>
       <r>    -1.2938     5.7856    26.6067 </r>
       <r>    -1.1862     4.9975    27.1442 </r>
       <r>    -1.0787     5.1910    27.7025 </r>
       <r>    -0.9711     3.8210    28.1135 </r>
       <r>    -0.8636     2.6950    28.4033 </r>
       <r>    -0.7560     2.1581    28.6354 </r>
       <r>    -0.6485     3.7787    29.0418 </r>
       <r>    -0.5409     5.3127    29.6132 </r>
       <r>    -0.4334     5.9015    30.2479 </r>
       <r>    -0.3258     6.4589    30.9426 </r>
       <r>    -0.2183     6.1853    31.6078 </r>
       <r>    -0.1107     6.8894    32.3487 </r>
       <r>    -0.0032     6.9153    33.0925 </r>
       <r>     0.1044     6.2644    33.7662 </r>
       <r>     0.2119     6.8854    34.5068 </r>
       <r>     0.3195     8.6795    35.4402 </r>
       <r>     0.4270     8.5458    36.3593 </r>
       <r>     0.5346     7.9632    37.2158 </r>
       <r>     0.6421     4.1733    37.6646 </r>
       <r>     0.7497     2.8592    37.9721 </r>
       <r>     0.8572     3.2225    38.3187 </r>
       <r>     0.9648     3.3168    38.6755 </r>
       <r>     1.0723     3.3686    39.0377 </r>
       <r>     1.1799     4.0344    39.4716 </r>
       <r>     1.2874     3.4122    39.8386 </r>
       <r>     1.3950     3.7590    40.2429 </r>
       <r>     1.5025     4.1147    40.6854 </r>
       <r>     1.6101     3.8776    41.1025 </r>
       <r>     1.7176     3.4599    41.4746 </r>
       <r>     1.8252     3.4054    41.8408 </r>
       <r>     1.9327     2.9075    42.1535 </r>
       <r>     2.0403     2.4476    42.4168 </r>
       <r>     2.1478     2.5877    42.6951 </r>
       <r>     2.2554     2.4160    42.9549 </r>
       <r>     2.3629     1.8844    43.1576 </r>
       <r>     2.4705     1.1260    43.2787 </r>
       <r>     2.5780     0.9341    43.3792 </r>
       <r>     2.6856     0.8090    43.4662 </r>
       <r>     2.7931     0.6001    43.5307 </r>
       <r>     2.9007     0.4480    43.5789 </r>
       <r>     3.0082     0.5750    43.6407 </r>
       <r>     3.1158     0.5567    43.7006 </r>
       <r>     3.2233     0.4395    43.7479 </r>
       <r>     3.3309     0.3557    43.7861 </r>
       <r>     3.4384     0.3935    43.8284 </r>
       <r>     3.5460     0.4415    43.8759 </r>
       <r>     3.6535     0.2750    43.9055 </r>
       <r>     3.7611     0.2793    43.9355 </r>
       <r>     3.8686     0.3210    43.9701 </r>
       <r>     3.9762     0.2057    43.9922 </r>
       <r>     4.0837     0.0701    43.9997 </r>
       <r>     4.1913     0.0041    44.0002 </r>
       <r>     4.2988     0.0927    44.0101 </r>
       <r>     4.4064     0.2719    44.0394 </r>
       <r>     4.5139     0.3988    44.0823 </r>
       <r>     4.6215     0.5816    44.1448 </r>
       <r>     4.7290     0.7427    44.2247 </r>
       <r>     4.8366     0.8449    44.3156 </r>
       <r>     4.9441     0.8992    44.4123 </r>
       <r>     5.0517     1.0137    44.5213 </r>
       <r>     5.1592     1.1837    44.6486 </r>
       <r>     5.2668     1.4414    44.8036 </r>
       <r>     5.3743     1.8143    44.9988 </r>
       <r>     5.4819     2.2586    45.2417 </r>
       <r>     5.5894     2.6948    45.5315 </r>
       <r>     5.6970     2.9820    45.8522 </r>
       <r>     5.8045     3.4562    46.2239 </r>
       <r>     5.9121     3.7986    46.6325 </r>
       <r>     6.0196     4.2147    47.0858 </r>
       <r>     6.1272     4.6666    47.5876 </r>
       <r>     6.2347     4.4261    48.0637 </r>
       <r>     6.3423     4.1370    48.5086 </r>
       <r>     6.4498     4.2409    48.9647 </r>
       <r>     6.5574     4.3246    49.4298 </r>
       <r>     6.6649     3.8248    49.8412 </r>
       <r>     6.7725     3.5007    50.2177 </r>
       <r>     6.8800     4.2281    50.6724 </r>
       <r>     6.9876     4.4373    51.1497 </r>
       <r>     7.0951     4.9731    51.6845 </r>
       <r>     7.2027     5.0731    52.2301 </r>
       <r>     7.3102     4.9590    52.7635 </r>
       <r>     7.4178     4.4415    53.2411 </r>
       <r>     7.5253     4.4833    53.7233 </r>
       <r>     7.6329     3.9510    54.1483 </r>
       <r>     7.7404     3.2193    54.4945 </r>
       <r>     7.8480     3.1408    54.8323 </r>
       <r>     7.9555     3.2747    55.1845 </r>
       <r>     8.0631     3.3362    55.5433 </r>
       <r>     8.1706     3.6500    55.9359 </r>
       <r>     8.2782     4.1120    56.3781 </r>
       <r>     8.3857     3.9970    56.8080 </r>
       <r>     8.4933     4.0296    57.2414 </r>
       <r>     8.6008     4.1063    57.6830 </r>
       <r>     8.7084     4.4681    58.1635 </r>
       <r>     8.8159     4.9252    58.6933 </r>
       <r>     8.9235     5.2409    59.2569 </r>
       <r>     9.0310     4.9258    59.7867 </r>
       <r>     9.1386     5.1281    60.3382 </r>
       <r>     9.2461     5.2031    60.8978 </r>
       <r>     9.3537     4.7328    61.4068 </r>
       <r>     9.4612     4.8998    61.9338 </r>
       <r>     9.5688     4.3810    62.4050 </r>
       <r>     9.6763     4.9668    62.9392 </r>
       <r>     9.7839     5.1735    63.4956 </r>
       <r>     9.8914     5.0124    64.0347 </r>
       <r>     9.9990     4.8424    64.5555 </r>
       <r>    10.1065     3.7834    64.9624 </r>
       <r>    10.2141     4.2945    65.4242 </r>
       <r>    10.3216     4.4408    65.9019 </r>
       <r>    10.4292     5.4915    66.4925 </r>
       <r>    10.5367     5.4557    67.0792 </r>
       <r>    10.6443     4.7535    67.5905 </r>
       <r>    10.7518     4.1349    68.0352 </r>
       <r>    10.8594     3.8015    68.4440 </r>
       <r>    10.9669     3.6674    68.8385 </r>
       <r>    11.0745     4.9768    69.3737 </r>
       <r>    11.1820     5.8383    70.0016 </r>
       <r>    11.2896     6.3087    70.6801 </r>
       <r>    11.3971     5.4875    71.2703 </r>
       <r>    11.5047     4.6128    71.7664 </r>
       <r>    11.6122     4.7225    72.2743 </r>
       <r>    11.7198     4.7481    72.7850 </r>
       <r>    11.8273     4.7829    73.2994 </r>
       <r>    11.9349     5.6039    73.9021 </r>
       <r>    12.0424     6.1064    74.5588 </r>
       <r>    12.1500     5.8049    75.1832 </r>
       <r>    12.2575     5.5055    75.7753 </r>
       <r>    12.3651     5.1416    76.3283 </r>
       <r>    12.4726     5.7895    76.9509 </r>
       <r>    12.5802     6.0702    77.6038 </r>
       <r>    12.6877     5.7047    78.2173 </r>
       <r>    12.7953     5.9151    78.8535 </r>
       <r>    12.9028     5.9843    79.4971 </r>
       <r>    13.0104     5.8216    80.1232 </r>
       <r>    13.1179     6.3006    80.8008 </r>
       <r>    13.2255     6.0076    81.4470 </r>
       <r>    13.3330     5.9587    82.0878 </r>
       <r>    13.4406     5.4114    82.6698 </r>
       <r>    13.5481     5.3900    83.2495 </r>
       <r>    13.6557     5.3245    83.8222 </r>
       <r>    13.7632     5.7016    84.4354 </r>
       <r>    13.8708     5.7143    85.0499 </r>
       <r>    13.9783     5.4371    85.6347 </r>
       <r>    14.0859     5.2603    86.2004 </r>
       <r>    14.1934     5.1335    86.7526 </r>
       <r>    14.3010     5.0827    87.2992 </r>
       <r>    14.4085     4.5815    87.7919 </r>
       <r>    14.5161     5.1115    88.3417 </r>
       <r>    14.6236     5.4124    88.9238 </r>
       <r>    14.7312     4.9151    89.4524 </r>
       <r>    14.8387     4.1738    89.9013 </r>
       <r>    14.9463     4.8116    90.4188 </r>
       <r>    15.0538     5.8889    91.0521 </r>
       <r>    15.1614     6.0962    91.7078 </r>
       <r>    15.2689     5.6882    92.3196 </r>
       <r>    15.3765     5.8964    92.9537 </r>
       <r>    15.4840     5.8509    93.5830 </r>
       <r>    15.5916     5.9480    94.2227 </r>
       <r>    15.6991     4.6497    94.7228 </r>
       <r>    15.8067     3.2969    95.0774 </r>
       <r>    15.9142     2.4271    95.3384 </r>
       <r>    16.0218     1.8439    95.5367 </r>
       <r>    16.1293     1.3667    95.6837 </r>
       <r>    16.2369     1.0097    95.7923 </r>
       <r>    16.3444     0.9321    95.8925 </r>
       <r>    16.4520     0.6962    95.9674 </r>
       <r>    16.5595     0.2863    95.9982 </r>
       <r>    16.6671     0.0168    96.0000 </r>
       <r>    16.7746     0.0001    96.0000 </r>
       <r>    16.8822     0.0000    96.0000 </r>
       <r>    16.9897     0.0000    96.0000 </r>
       <r>    17.0973     0.0000    96.0000 </r>
       <r>    17.2048     0.0000    96.0000 </r>
       <r>    17.3124     0.0000    96.0000 </r>
       <r>    17.4199     0.0000    96.0000 </r>
       <r>    17.5275     0.0000    96.0000 </r>
       <r>    17.6350     0.0000    96.0000 </r>
       <r>    17.7426     0.0000    96.0000 </r>
       <r>    17.8501     0.0000    96.0000 </r>
       <r>    17.9577     0.0000    96.0000 </r>
       <r>    18.0652     0.0000    96.0000 </r>
      </set>
     </set>
    </array>
   </total>
  </dos>
 </calculation>
 <structure name="finalpos" >
  <crystal>
   <varray name="basis" >
    <v>       5.69700000       0.00000000       0.00000000 </v>
    <v>       0.00000000       4.04790000       0.00000000 </v>
    <v>       0.00000000       0.00000000       6.20420000 </v>
   </varray>
   <i name="volume">    143.07435078 </i>
   <varray name="rec_basis" >
    <v>       0.17553098       0.00000000       0.00000000 </v>
    <v>       0.00000000       0.24704168       0.00000000 </v>
    <v>       0.00000000       0.00000000       0.16118114 </v>
   </varray>
  </crystal>
  <varray name="positions" >
   <v>       0.52123000       0.50000000       0.63796000 </v>
   <v>       0.47877000       0.50000000       0.36204000 </v>
   <v>       0.97877000       0.50000000       0.63796000 </v>
   <v>       0.02123000       0.50000000       0.36204000 </v>
   <v>       0.60090000       0.50000000       0.89991000 </v>
   <v>       0.39910000       0.50000000       0.10009000 </v>
   <v>       0.89910000       0.50000000       0.89991000 </v>
   <v>       0.10090000       0.50000000       0.10009000 </v>
   <v>       0.75000000       0.79171000       0.72973000 </v>
   <v>       0.25000000       0.20829000       0.27027000 </v>
   <v>       0.75000000       0.20829000       0.72973000 </v>
   <v>       0.25000000       0.79171000       0.27027000 </v>
   <v>       0.25000000       0.50000000       0.52367000 </v>
   <v>       0.75000000       0.50000000       0.47633000 </v>
  </varray>
 </structure>
</modeling>
