  14  14   0   0
  0.1031185E+02  0.5714091E-09  0.4060044E-09  0.6222813E-09  0.5000000E-15
  1.000000000000000E-004
  CAR 
 Convergence                             
     17.82184448    -14.16861125  301      1.83201065      1.00000000
    -14.169  0.0000E+00  0.0000E+00
    -14.062  0.0000E+00  0.0000E+00
    -13.955  0.0000E+00  0.0000E+00
    -13.849  0.0000E+00  0.0000E+00
    -13.742  0.0000E+00  0.0000E+00
    -13.635  0.0000E+00  0.0000E+00
    -13.529  0.0000E+00  0.0000E+00
    -13.422  0.0000E+00  0.0000E+00
    -13.316  0.0000E+00  0.0000E+00
    -13.209  0.0000E+00  0.0000E+00
    -13.102  0.0000E+00  0.0000E+00
    -12.996  0.6280E-16  0.6697E-17
    -12.889  0.3433E-07  0.3661E-08
    -12.782  0.3959E-02  0.4221E-03
    -12.676  0.5121E+00  0.5502E-01
    -12.569  0.2401E+01  0.3110E+00
    -12.462  0.3585E+01  0.6933E+00
    -12.356  0.4387E+01  0.1161E+01
    -12.249  0.3539E+01  0.1539E+01
    -12.143  0.2740E+01  0.1831E+01
    -12.036  0.2760E+01  0.2125E+01
    -11.929  0.2492E+01  0.2391E+01
    -11.823  0.2773E+01  0.2687E+01
    -11.716  0.3392E+01  0.3048E+01
    -11.609  0.3540E+01  0.3426E+01
    -11.503  0.3166E+01  0.3763E+01
    -11.396  0.1735E+01  0.3948E+01
    -11.289  0.4728E+00  0.3999E+01
    -11.183  0.1071E-01  0.4000E+01
    -11.076  0.4399E-06  0.4000E+01
    -10.970  0.4614E-14  0.4000E+01
    -10.863  0.0000E+00  0.4000E+01
    -10.756  0.0000E+00  0.4000E+01
    -10.650  0.0000E+00  0.4000E+01
    -10.543  0.0000E+00  0.4000E+01
    -10.436  0.0000E+00  0.4000E+01
    -10.330  0.0000E+00  0.4000E+01
    -10.223  0.0000E+00  0.4000E+01
    -10.116  0.0000E+00  0.4000E+01
    -10.010  0.0000E+00  0.4000E+01
     -9.903  0.0000E+00  0.4000E+01
     -9.797  0.0000E+00  0.4000E+01
     -9.690  0.0000E+00  0.4000E+01
     -9.583  0.0000E+00  0.4000E+01
     -9.477  0.0000E+00  0.4000E+01
     -9.370  0.0000E+00  0.4000E+01
     -9.263  0.0000E+00  0.4000E+01
     -9.157  0.0000E+00  0.4000E+01
     -9.050  0.1318E-08  0.4000E+01
     -8.944  0.7137E-03  0.4000E+01
     -8.837  0.2891E+00  0.4031E+01
     -8.730  0.2138E+01  0.4259E+01
     -8.624  0.5435E+01  0.4838E+01
     -8.517  0.7048E+01  0.5590E+01
     -8.410  0.6264E+01  0.6258E+01
     -8.304  0.5336E+01  0.6827E+01
     -8.197  0.4862E+01  0.7346E+01
     -8.090  0.3851E+01  0.7756E+01
     -7.984  0.1658E+01  0.7933E+01
     -7.877  0.5766E+00  0.7994E+01
     -7.771  0.5265E-01  0.8000E+01
     -7.664  0.2610E-04  0.8000E+01
     -7.557  0.3452E-11  0.8000E+01
     -7.451  0.0000E+00  0.8000E+01
     -7.344  0.0000E+00  0.8000E+01
     -7.237  0.0000E+00  0.8000E+01
     -7.131  0.3499E-09  0.8000E+01
     -7.024  0.3199E-03  0.8000E+01
     -6.917  0.1061E+00  0.8011E+01
     -6.811  0.2619E+00  0.8039E+01
     -6.704  0.4221E+00  0.8084E+01
     -6.598  0.7667E+00  0.8166E+01
     -6.491  0.8394E+00  0.8256E+01
     -6.384  0.1416E+01  0.8407E+01
     -6.278  0.1900E+01  0.8609E+01
     -6.171  0.3044E+01  0.8934E+01
     -6.064  0.3823E+01  0.9341E+01
     -5.958  0.4133E+01  0.9782E+01
     -5.851  0.4065E+01  0.1022E+02
     -5.744  0.3919E+01  0.1063E+02
     -5.638  0.4082E+01  0.1107E+02
     -5.531  0.4210E+01  0.1152E+02
     -5.425  0.4598E+01  0.1201E+02
     -5.318  0.4658E+01  0.1250E+02
     -5.211  0.4510E+01  0.1299E+02
     -5.105  0.3904E+01  0.1340E+02
     -4.998  0.3216E+01  0.1374E+02
     -4.891  0.3003E+01  0.1406E+02
     -4.785  0.2270E+01  0.1431E+02
     -4.678  0.2902E+01  0.1462E+02
     -4.571  0.3374E+01  0.1498E+02
     -4.465  0.3413E+01  0.1534E+02
     -4.358  0.3403E+01  0.1570E+02
     -4.252  0.2979E+01  0.1602E+02
     -4.145  0.2917E+01  0.1633E+02
     -4.038  0.2910E+01  0.1664E+02
     -3.932  0.2919E+01  0.1695E+02
     -3.825  0.3086E+01  0.1728E+02
     -3.718  0.2928E+01  0.1759E+02
     -3.612  0.2717E+01  0.1788E+02
     -3.505  0.3092E+01  0.1821E+02
     -3.398  0.2693E+01  0.1850E+02
     -3.292  0.2787E+01  0.1880E+02
     -3.185  0.2864E+01  0.1910E+02
     -3.079  0.2669E+01  0.1939E+02
     -2.972  0.3136E+01  0.1972E+02
     -2.865  0.3001E+01  0.2004E+02
     -2.759  0.2473E+01  0.2031E+02
     -2.652  0.2606E+01  0.2058E+02
     -2.545  0.2994E+01  0.2090E+02
     -2.439  0.3038E+01  0.2123E+02
     -2.332  0.3163E+01  0.2156E+02
     -2.226  0.4005E+01  0.2199E+02
     -2.119  0.3641E+01  0.2238E+02
     -2.012  0.3099E+01  0.2271E+02
     -1.906  0.4820E+01  0.2322E+02
     -1.799  0.5499E+01  0.2381E+02
     -1.692  0.5690E+01  0.2442E+02
     -1.586  0.6134E+01  0.2507E+02
     -1.479  0.6206E+01  0.2573E+02
     -1.372  0.5674E+01  0.2634E+02
     -1.266  0.4719E+01  0.2684E+02
     -1.159  0.6424E+01  0.2753E+02
     -1.053  0.4473E+01  0.2800E+02
     -0.946  0.2326E+01  0.2825E+02
     -0.839  0.2718E+01  0.2854E+02
     -0.733  0.2902E+01  0.2885E+02
     -0.626  0.4311E+01  0.2931E+02
     -0.519  0.6715E+01  0.3003E+02
     -0.413  0.5732E+01  0.3064E+02
     -0.306  0.6519E+01  0.3133E+02
     -0.199  0.6445E+01  0.3202E+02
     -0.093  0.6713E+01  0.3274E+02
      0.014  0.6926E+01  0.3348E+02
      0.120  0.6162E+01  0.3413E+02
      0.227  0.8876E+01  0.3508E+02
      0.334  0.8259E+01  0.3596E+02
      0.440  0.8654E+01  0.3688E+02
      0.547  0.5626E+01  0.3748E+02
      0.654  0.3139E+01  0.3782E+02
      0.760  0.3135E+01  0.3815E+02
      0.867  0.3598E+01  0.3853E+02
      0.974  0.3599E+01  0.3892E+02
      1.080  0.2849E+01  0.3922E+02
      1.187  0.3329E+01  0.3958E+02
      1.293  0.4416E+01  0.4005E+02
      1.400  0.3898E+01  0.4046E+02
      1.507  0.3669E+01  0.4086E+02
      1.613  0.4599E+01  0.4135E+02
      1.720  0.3532E+01  0.4172E+02
      1.827  0.2476E+01  0.4199E+02
      1.933  0.2697E+01  0.4227E+02
      2.040  0.2120E+01  0.4250E+02
      2.147  0.2632E+01  0.4278E+02
      2.253  0.2666E+01  0.4306E+02
      2.360  0.2038E+01  0.4328E+02
      2.466  0.9921E+00  0.4339E+02
      2.573  0.3872E+00  0.4343E+02
      2.680  0.5778E+00  0.4349E+02
      2.786  0.4232E+00  0.4354E+02
      2.893  0.3086E+00  0.4357E+02
      3.000  0.6944E+00  0.4364E+02
      3.106  0.1039E+01  0.4375E+02
      3.213  0.6183E+00  0.4382E+02
      3.320  0.2421E-01  0.4382E+02
      3.426  0.1033E+00  0.4383E+02
      3.533  0.3863E+00  0.4387E+02
      3.639  0.3557E+00  0.4391E+02
      3.746  0.3511E+00  0.4395E+02
      3.853  0.4291E+00  0.4400E+02
      3.959  0.4133E-01  0.4400E+02
      4.066  0.8423E-05  0.4400E+02
      4.173  0.8011E-02  0.4400E+02
      4.279  0.1458E+00  0.4402E+02
      4.386  0.3427E+00  0.4405E+02
      4.492  0.4279E+00  0.4410E+02
      4.599  0.6072E+00  0.4416E+02
      4.706  0.8350E+00  0.4425E+02
      4.812  0.8483E+00  0.4434E+02
      4.919  0.8869E+00  0.4444E+02
      5.026  0.1200E+01  0.4457E+02
      5.132  0.1226E+01  0.4470E+02
      5.239  0.1527E+01  0.4486E+02
      5.346  0.2058E+01  0.4508E+02
      5.452  0.2534E+01  0.4535E+02
      5.559  0.2801E+01  0.4565E+02
      5.665  0.3207E+01  0.4599E+02
      5.772  0.3353E+01  0.4635E+02
      5.879  0.4101E+01  0.4678E+02
      5.985  0.4863E+01  0.4730E+02
      6.092  0.4180E+01  0.4775E+02
      6.199  0.4565E+01  0.4824E+02
      6.305  0.4434E+01  0.4871E+02
      6.412  0.3909E+01  0.4912E+02
      6.519  0.4557E+01  0.4961E+02
      6.625  0.3326E+01  0.4997E+02
      6.732  0.3911E+01  0.5038E+02
      6.838  0.4586E+01  0.5087E+02
      6.945  0.4646E+01  0.5137E+02
      7.052  0.4341E+01  0.5183E+02
      7.158  0.5541E+01  0.5242E+02
      7.265  0.5093E+01  0.5296E+02
      7.372  0.4525E+01  0.5345E+02
      7.478  0.4276E+01  0.5390E+02
      7.585  0.3635E+01  0.5429E+02
      7.692  0.3087E+01  0.5462E+02
      7.798  0.3051E+01  0.5494E+02
      7.905  0.2975E+01  0.5526E+02
      8.011  0.4130E+01  0.5570E+02
      8.118  0.3979E+01  0.5613E+02
      8.225  0.3813E+01  0.5653E+02
      8.331  0.4053E+01  0.5696E+02
      8.438  0.4290E+01  0.5742E+02
      8.545  0.4539E+01  0.5791E+02
      8.651  0.4393E+01  0.5837E+02
      8.758  0.5440E+01  0.5895E+02
      8.865  0.4647E+01  0.5945E+02
      8.971  0.5245E+01  0.6001E+02
      9.078  0.5232E+01  0.6057E+02
      9.184  0.5056E+01  0.6111E+02
      9.291  0.4644E+01  0.6160E+02
      9.398  0.4454E+01  0.6208E+02
      9.504  0.5065E+01  0.6262E+02
      9.611  0.5057E+01  0.6316E+02
      9.718  0.5262E+01  0.6372E+02
      9.824  0.4515E+01  0.6420E+02
      9.931  0.3764E+01  0.6460E+02
     10.038  0.5199E+01  0.6515E+02
     10.144  0.4735E+01  0.6566E+02
     10.251  0.4216E+01  0.6611E+02
     10.357  0.5246E+01  0.6667E+02
     10.464  0.5850E+01  0.6729E+02
     10.571  0.4110E+01  0.6773E+02
     10.677  0.3953E+01  0.6815E+02
     10.784  0.3332E+01  0.6851E+02
     10.891  0.4740E+01  0.6901E+02
     10.997  0.5309E+01  0.6958E+02
     11.104  0.6420E+01  0.7026E+02
     11.210  0.6003E+01  0.7090E+02
     11.317  0.5084E+01  0.7145E+02
     11.424  0.4570E+01  0.7193E+02
     11.530  0.4479E+01  0.7241E+02
     11.637  0.5046E+01  0.7295E+02
     11.744  0.4862E+01  0.7347E+02
     11.850  0.5920E+01  0.7410E+02
     11.957  0.6103E+01  0.7475E+02
     12.064  0.6109E+01  0.7540E+02
     12.170  0.5463E+01  0.7598E+02
     12.277  0.5030E+01  0.7652E+02
     12.383  0.5736E+01  0.7713E+02
     12.490  0.5959E+01  0.7777E+02
     12.597  0.5848E+01  0.7839E+02
     12.703  0.6025E+01  0.7903E+02
     12.810  0.5923E+01  0.7966E+02
     12.917  0.5659E+01  0.8027E+02
     13.023  0.6342E+01  0.8094E+02
     13.130  0.6390E+01  0.8163E+02
     13.237  0.5548E+01  0.8222E+02
     13.343  0.6114E+01  0.8287E+02
     13.450  0.5524E+01  0.8346E+02
     13.556  0.4896E+01  0.8398E+02
     13.663  0.6239E+01  0.8465E+02
     13.770  0.5512E+01  0.8523E+02
     13.876  0.5403E+01  0.8581E+02
     13.983  0.5476E+01  0.8639E+02
     14.090  0.4678E+01  0.8689E+02
     14.196  0.5022E+01  0.8743E+02
     14.303  0.4901E+01  0.8795E+02
     14.410  0.4920E+01  0.8848E+02
     14.516  0.5270E+01  0.8904E+02
     14.623  0.5244E+01  0.8960E+02
     14.729  0.4117E+01  0.9004E+02
     14.836  0.4935E+01  0.9056E+02
     14.943  0.6085E+01  0.9121E+02
     15.049  0.5785E+01  0.9183E+02
     15.156  0.5772E+01  0.9244E+02
     15.263  0.5965E+01  0.9308E+02
     15.369  0.5815E+01  0.9370E+02
     15.476  0.6087E+01  0.9435E+02
     15.583  0.4665E+01  0.9485E+02
     15.689  0.2576E+01  0.9512E+02
     15.796  0.2705E+01  0.9541E+02
     15.902  0.1825E+01  0.9560E+02
     16.009  0.1117E+01  0.9572E+02
     16.116  0.9067E+00  0.9582E+02
     16.222  0.6936E+00  0.9589E+02
     16.329  0.8186E+00  0.9598E+02
     16.436  0.1800E+00  0.9600E+02
     16.542  0.1745E-02  0.9600E+02
     16.649  0.2384E-07  0.9600E+02
     16.755  0.5288E-16  0.9600E+02
     16.862  0.0000E+00  0.9600E+02
     16.969  0.0000E+00  0.9600E+02
     17.075  0.0000E+00  0.9600E+02
     17.182  0.0000E+00  0.9600E+02
     17.289  0.0000E+00  0.9600E+02
     17.395  0.0000E+00  0.9600E+02
     17.502  0.0000E+00  0.9600E+02
     17.609  0.0000E+00  0.9600E+02
     17.715  0.0000E+00  0.9600E+02
     17.822  0.0000E+00  0.9600E+02
