   14   14    1    1
  0.1031185E+02  0.5714091E-09  0.4060044E-09  0.6222813E-09  0.5000000E-15
  1.000000000000000E-004
  CAR 
 Convergence                             
     42    175     48
 
  0.5000000E-01  0.3571429E-01  0.0000000E+00  0.3174603E-02
      1        -12.714500   1.000000
      2        -11.573612   1.000000
      3         -8.670745   1.000000
      4         -8.435282   1.000000
      5         -6.088718   1.000000
      6         -5.156012   1.000000
      7         -4.694418   1.000000
      8         -4.290778   1.000000
      9         -4.056575   1.000000
     10         -3.570953   1.000000
     11         -2.633125   1.000000
     12         -2.365009   1.000000
     13         -1.876304   1.000000
     14         -1.134563   1.000000
     15         -0.105120   1.000000
     16         -0.074458   1.000000
     17          0.109332   1.000000
     18          0.127870   1.000000
     19          0.518752   1.000000
     20          1.970041   0.000047
     21          2.031790   0.000000
     22          2.160022   0.000000
     23          5.387905   0.000000
     24          5.677747   0.000000
     25          5.762283   0.000000
     26          5.888558   0.000000
     27          6.734450   0.000000
     28          7.468673   0.000000
     29          7.792964   0.000000
     30          8.431923   0.000000
     31          8.681155   0.000000
     32          8.841726   0.000000
     33          8.914360   0.000000
     34         10.036089   0.000000
     35         11.102879   0.000000
     36         11.218576   0.000000
     37         11.543631   0.000000
     38         11.670437   0.000000
     39         11.842139   0.000000
     40         12.311384   0.000000
     41         12.744665   0.000000
     42         13.325220   0.000000
     43         13.352756   0.000000
     44         15.224078   0.000000
     45         15.424869   0.000000
     46         15.906326   0.000000
     47         16.195685   0.000000
     48         16.213165   0.000000
 
  0.1500000E+00  0.3571429E-01  0.0000000E+00  0.3174603E-02
      1        -12.670853   1.000000
      2        -11.647485   1.000000
      3         -8.649416   1.000000
      4         -8.423781   1.000000
      5         -6.021069   1.000000
      6         -5.492952   1.000000
      7         -4.814232   1.000000
      8         -4.031142   1.000000
      9         -3.814879   1.000000
     10         -3.236560   1.000000
     11         -2.702571   1.000000
     12         -2.345500   1.000000
     13         -1.952806   1.000000
     14         -1.440520   1.000000
     15         -0.065401   1.000000
     16         -0.063301   1.000000
     17          0.052539   1.000000
     18          0.150678   1.000000
     19          0.423424   1.000000
     20          1.884275   0.069671
     21          1.954310   0.000271
     22          2.039897   0.000000
     23          5.477857   0.000000
     24          5.680416   0.000000
     25          5.796698   0.000000
     26          6.230452   0.000000
     27          6.650064   0.000000
     28          7.109607   0.000000
     29          7.995986   0.000000
     30          8.568485   0.000000
     31          8.927350   0.000000
     32          9.013533   0.000000
     33          9.097188   0.000000
     34         10.137156   0.000000
     35         10.829779   0.000000
     36         11.014924   0.000000
     37         11.174447   0.000000
     38         11.589522   0.000000
     39         12.058591   0.000000
     40         12.397203   0.000000
     41         12.992920   0.000000
     42         13.002853   0.000000
     43         13.877985   0.000000
     44         14.717583   0.000000
     45         15.610922   0.000000
     46         15.698891   0.000000
     47         16.078429   0.000000
     48         16.367733   0.000000
 
  0.2500000E+00  0.3571429E-01  0.0000000E+00  0.3174603E-02
      1        -12.585423   1.000000
      2        -11.780527   1.000000
      3         -8.605615   1.000000
      4         -8.408997   1.000000
      5         -5.999058   1.000000
      6         -5.817564   1.000000
      7         -4.767369   1.000000
      8         -3.905905   1.000000
      9         -3.305238   1.000000
     10         -2.868777   1.000000
     11         -2.748170   1.000000
     12         -2.306257   1.000000
     13         -2.060780   1.000000
     14         -1.943320   1.000000
     15         -0.269881   1.000000
     16         -0.026878   1.000000
     17          0.099047   1.000000
     18          0.119662   1.000000
     19          0.393426   1.000000
     20          1.736422   0.996571
     21          1.813042   0.704197
     22          1.822369   0.607460
     23          5.599556   0.000000
     24          5.636658   0.000000
     25          6.105184   0.000000
     26          6.525749   0.000000
     27          6.685561   0.000000
     28          6.856103   0.000000
     29          8.142683   0.000000
     30          8.717865   0.000000
     31          8.881144   0.000000
     32          9.458480   0.000000
     33          9.543325   0.000000
     34         10.173960   0.000000
     35         10.371753   0.000000
     36         10.509359   0.000000
     37         11.289462   0.000000
     38         11.734705   0.000000
     39         12.292652   0.000000
     40         12.438395   0.000000
     41         12.690410   0.000000
     42         12.788004   0.000000
     43         14.500029   0.000000
     44         14.774914   0.000000
     45         15.104272   0.000000
     46         15.839078   0.000000
     47         15.862854   0.000000
     48         16.137238   0.000000
 
  0.3500000E+00  0.3571429E-01  0.0000000E+00  0.3174603E-02
      1        -12.462164   1.000000
      2        -11.949861   1.000000
      3         -8.543838   1.000000
      4         -8.405538   1.000000
      5         -6.077790   1.000000
      6         -6.049946   1.000000
      7         -4.441424   1.000000
      8         -3.738830   1.000000
      9         -3.060741   1.000000
     10         -2.923613   1.000000
     11         -2.475521   1.000000
     12         -2.289252   1.000000
     13         -2.190267   1.000000
     14         -2.158847   1.000000
     15         -0.569001   1.000000
     16         -0.293884   1.000000
     17          0.134831   1.000000
     18          0.209330   1.000000
     19          0.565603   1.000000
     20          1.477809   1.000000
     21          1.616038   1.000000
     22          1.675179   0.999995
     23          5.622820   0.000000
     24          5.684022   0.000000
     25          6.426492   0.000000
     26          6.600157   0.000000
     27          6.625332   0.000000
     28          7.329057   0.000000
     29          8.264222   0.000000
     30          8.593747   0.000000
     31          8.700175   0.000000
     32          9.434284   0.000000
     33          9.940325   0.000000
     34         10.014992   0.000000
     35         10.283716   0.000000
     36         11.017508   0.000000
     37         11.304786   0.000000
     38         11.820407   0.000000
     39         12.087129   0.000000
     40         12.156502   0.000000
     41         12.417099   0.000000
     42         13.149482   0.000000
     43         14.598479   0.000000
     44         14.847753   0.000000
     45         15.112422   0.000000
     46         15.242085   0.000000
     47         15.433252   0.000000
     48         16.235472   0.000000
 
  0.4500000E+00  0.3571429E-01  0.0000000E+00  0.3174603E-02
      1        -12.307698   1.000000
      2        -12.132096   1.000000
      3         -8.478096   1.000000
      4         -8.427670   1.000000
      5         -6.164013   1.000000
      6         -6.161015   1.000000
      7         -3.928300   1.000000
      8         -3.531865   1.000000
      9         -3.331103   1.000000
     10         -3.296752   1.000000
     11         -2.390154   1.000000
     12         -2.266353   1.000000
     13         -2.004447   1.000000
     14         -1.946145   1.000000
     15         -0.789683   1.000000
     16         -0.652936   1.000000
     17          0.217224   1.000000
     18          0.250222   1.000000
     19          0.825029   1.000000
     20          1.140756   1.000000
     21          1.535805   1.000000
     22          1.562505   1.000000
     23          5.652823   0.000000
     24          5.692806   0.000000
     25          6.407084   0.000000
     26          6.471765   0.000000
     27          7.289101   0.000000
     28          7.984470   0.000000
     29          8.009775   0.000000
     30          8.379233   0.000000
     31          8.514526   0.000000
     32          8.694526   0.000000
     33         10.397865   0.000000
     34         10.408828   0.000000
     35         10.643851   0.000000
     36         11.099763   0.000000
     37         11.283310   0.000000
     38         11.469486   0.000000
     39         11.800131   0.000000
     40         12.364627   0.000000
     41         12.611378   0.000000
     42         13.141630   0.000000
     43         14.477899   0.000000
     44         14.600875   0.000000
     45         14.747349   0.000000
     46         14.808346   0.000000
     47         15.950808   0.000000
     48         16.297337   0.000000
 
  0.5000000E-01  0.1071429E+00  0.0000000E+00  0.3174603E-02
      1        -12.690679   1.000000
      2        -11.552075   1.000000
      3         -8.652244   1.000000
      4         -8.412434   1.000000
      5         -6.062333   1.000000
      6         -5.122437   1.000000
      7         -4.672666   1.000000
      8         -4.590305   1.000000
      9         -4.199597   1.000000
     10         -3.548494   1.000000
     11         -3.323728   1.000000
     12         -1.834083   1.000000
     13         -1.130044   1.000000
     14         -1.080070   1.000000
     15         -0.337139   1.000000
     16         -0.309192   1.000000
     17          0.122855   1.000000
     18          0.198060   1.000000
     19          0.596399   1.000000
     20          1.704547   0.999844
     21          1.783110   0.916687
     22          2.211830   0.000000
     23          5.509881   0.000000
     24          5.634803   0.000000
     25          5.673433   0.000000
     26          5.926496   0.000000
     27          7.017046   0.000000
     28          7.753139   0.000000
     29          7.981721   0.000000
     30          8.099899   0.000000
     31          8.686712   0.000000
     32          8.968879   0.000000
     33          9.033067   0.000000
     34         10.481613   0.000000
     35         11.152354   0.000000
     36         11.312815   0.000000
     37         11.478608   0.000000
     38         11.772355   0.000000
     39         11.953334   0.000000
     40         12.587434   0.000000
     41         12.747017   0.000000
     42         13.067344   0.000000
     43         13.069117   0.000000
     44         15.183786   0.000000
     45         15.227592   0.000000
     46         15.709804   0.000000
     47         15.718236   0.000000
     48         16.071899   0.000000
 
  0.1500000E+00  0.1071429E+00  0.0000000E+00  0.3174603E-02
      1        -12.647125   1.000000
      2        -11.625817   1.000000
      3         -8.630759   1.000000
      4         -8.401298   1.000000
      5         -5.992926   1.000000
      6         -5.462996   1.000000
      7         -4.794478   1.000000
      8         -4.510715   1.000000
      9         -3.777384   1.000000
     10         -3.403126   1.000000
     11         -3.199197   1.000000
     12         -1.812691   1.000000
     13         -1.435151   1.000000
     14         -1.195935   1.000000
     15         -0.298924   1.000000
     16         -0.233772   1.000000
     17          0.089627   1.000000
     18          0.172293   1.000000
     19          0.493459   1.000000
     20          1.624589   1.000000
     21          1.707081   0.999795
     22          2.082021   0.000000
     23          5.586270   0.000000
     24          5.734743   0.000000
     25          5.855467   0.000000
     26          6.039122   0.000000
     27          6.934623   0.000000
     28          7.429318   0.000000
     29          8.127583   0.000000
     30          8.264106   0.000000
     31          8.997861   0.000000
     32          9.044944   0.000000
     33          9.304492   0.000000
     34         10.398225   0.000000
     35         10.763168   0.000000
     36         10.968640   0.000000
     37         11.366378   0.000000
     38         11.762215   0.000000
     39         12.171755   0.000000
     40         12.632699   0.000000
     41         12.749713   0.000000
     42         13.026580   0.000000
     43         13.599384   0.000000
     44         14.801536   0.000000
     45         15.253994   0.000000
     46         15.617871   0.000000
     47         15.647193   0.000000
     48         16.251747   0.000000
 
  0.2500000E+00  0.1071429E+00  0.0000000E+00  0.3174603E-02
      1        -12.561874   1.000000
      2        -11.758607   1.000000
      3         -8.586732   1.000000
      4         -8.387200   1.000000
      5         -5.968176   1.000000
      6         -5.787415   1.000000
      7         -4.750948   1.000000
      8         -4.403766   1.000000
      9         -3.523583   1.000000
     10         -3.253876   1.000000
     11         -2.735464   1.000000
     12         -1.938671   1.000000
     13         -1.768974   1.000000
     14         -1.355862   1.000000
     15         -0.271610   1.000000
     16         -0.254114   1.000000
     17          0.013676   1.000000
     18          0.159362   1.000000
     19          0.417593   1.000000
     20          1.490481   1.000000
     21          1.577797   1.000000
     22          1.835557   0.460046
     23          5.777815   0.000000
     24          5.863341   0.000000
     25          5.942635   0.000000
     26          6.484043   0.000000
     27          6.815518   0.000000
     28          7.203205   0.000000
     29          8.334736   0.000000
     30          8.393987   0.000000
     31          8.977219   0.000000
     32          9.497529   0.000000
     33          9.766652   0.000000
     34         10.020040   0.000000
     35         10.242423   0.000000
     36         10.703686   0.000000
     37         11.426782   0.000000
     38         11.998011   0.000000
     39         12.186309   0.000000
     40         12.453357   0.000000
     41         12.827638   0.000000
     42         12.917043   0.000000
     43         14.173962   0.000000
     44         14.937828   0.000000
     45         15.026800   0.000000
     46         15.502955   0.000000
     47         15.573559   0.000000
     48         16.272462   0.000000
 
  0.3500000E+00  0.1071429E+00  0.0000000E+00  0.3174603E-02
      1        -12.438871   1.000000
      2        -11.927615   1.000000
      3         -8.524703   1.000000
      4         -8.384620   1.000000
      5         -6.045713   1.000000
      6         -6.019001   1.000000
      7         -4.427134   1.000000
      8         -4.258413   1.000000
      9         -3.692799   1.000000
     10         -2.877222   1.000000
     11         -2.395065   1.000000
     12         -2.254481   1.000000
     13         -1.705628   1.000000
     14         -1.516614   1.000000
     15         -0.531683   1.000000
     16         -0.352842   1.000000
     17          0.043943   1.000000
     18          0.075968   1.000000
     19          0.576092   1.000000
     20          1.351288   1.000000
     21          1.433461   1.000000
     22          1.514028   1.000000
     23          5.794899   0.000000
     24          5.935859   0.000000
     25          6.446231   0.000000
     26          6.728151   0.000000
     27          6.802322   0.000000
     28          7.291320   0.000000
     29          8.327781   0.000000
     30          8.499745   0.000000
     31          8.828149   0.000000
     32          9.272305   0.000000
     33          9.961781   0.000000
     34          9.983004   0.000000
     35         10.335244   0.000000
     36         11.093049   0.000000
     37         11.256252   0.000000
     38         11.725037   0.000000
     39         12.157481   0.000000
     40         12.440314   0.000000
     41         12.614822   0.000000
     42         13.348639   0.000000
     43         14.634036   0.000000
     44         14.644776   0.000000
     45         15.013012   0.000000
     46         15.175118   0.000000
     47         15.506076   0.000000
     48         16.250352   0.000000
 
  0.4500000E+00  0.1071429E+00  0.0000000E+00  0.3174603E-02
      1        -12.284729   1.000000
      2        -12.109479   1.000000
      3         -8.458605   1.000000
      4         -8.407589   1.000000
      5         -6.132298   1.000000
      6         -6.128865   1.000000
      7         -4.081517   1.000000
      8         -3.920604   1.000000
      9         -3.880574   1.000000
     10         -3.318529   1.000000
     11         -2.138845   1.000000
     12         -1.948603   1.000000
     13         -1.637572   1.000000
     14         -1.630040   1.000000
     15         -0.752185   1.000000
     16         -0.648595   1.000000
     17          0.079042   1.000000
     18          0.109905   1.000000
     19          0.834302   1.000000
     20          1.147291   1.000000
     21          1.298500   1.000000
     22          1.322134   1.000000
     23          5.847762   0.000000
     24          5.915999   0.000000
     25          6.719298   0.000000
     26          6.770316   0.000000
     27          7.108793   0.000000
     28          7.814684   0.000000
     29          7.855405   0.000000
     30          8.531435   0.000000
     31          8.590093   0.000000
     32          8.700632   0.000000
     33         10.208774   0.000000
     34         10.458866   0.000000
     35         10.699012   0.000000
     36         10.792428   0.000000
     37         11.430764   0.000000
     38         11.527636   0.000000
     39         11.876559   0.000000
     40         12.529600   0.000000
     41         12.915866   0.000000
     42         13.369560   0.000000
     43         14.420392   0.000000
     44         14.606438   0.000000
     45         14.707512   0.000000
     46         14.925524   0.000000
     47         15.977704   0.000000
     48         16.272820   0.000000
 
  0.5000000E-01  0.1785714E+00  0.0000000E+00  0.3174603E-02
      1        -12.646665   1.000000
      2        -11.512354   1.000000
      3         -8.618371   1.000000
      4         -8.370270   1.000000
      5         -6.013559   1.000000
      6         -5.146302   1.000000
      7         -5.032971   1.000000
      8         -4.631456   1.000000
      9         -4.182575   1.000000
     10         -3.943597   1.000000
     11         -3.495770   1.000000
     12         -1.242770   1.000000
     13         -1.120915   1.000000
     14         -0.677317   1.000000
     15         -0.575819   1.000000
     16         -0.224780   1.000000
     17          0.143818   1.000000
     18          0.249754   1.000000
     19          0.673947   1.000000
     20          1.325340   1.000000
     21          1.387426   1.000000
     22          2.249217   0.000000
     23          5.225583   0.000000
     24          5.387720   0.000000
     25          6.044314   0.000000
     26          6.111455   0.000000
     27          7.445949   0.000000
     28          7.535018   0.000000
     29          8.231034   0.000000
     30          8.619696   0.000000
     31          8.779477   0.000000
     32          9.108515   0.000000
     33          9.256895   0.000000
     34         10.775509   0.000000
     35         11.208572   0.000000
     36         11.457741   0.000000
     37         11.606935   0.000000
     38         11.970758   0.000000
     39         12.168859   0.000000
     40         12.632283   0.000000
     41         12.643595   0.000000
     42         12.873635   0.000000
     43         13.119756   0.000000
     44         14.519769   0.000000
     45         15.016762   0.000000
     46         15.188799   0.000000
     47         15.304728   0.000000
     48         15.808859   0.000000
 
  0.1500000E+00  0.1785714E+00  0.0000000E+00  0.3174603E-02
      1        -12.603289   1.000000
      2        -11.585846   1.000000
      3         -8.596573   1.000000
      4         -8.359826   1.000000
      5         -5.940789   1.000000
      6         -5.414218   1.000000
      7         -5.051272   1.000000
      8         -4.757289   1.000000
      9         -4.008687   1.000000
     10         -3.736126   1.000000
     11         -3.159917   1.000000
     12         -1.426810   1.000000
     13         -1.217180   1.000000
     14         -0.786248   1.000000
     15         -0.538119   1.000000
     16         -0.142585   1.000000
     17          0.121236   1.000000
     18          0.197225   1.000000
     19          0.561248   1.000000
     20          1.246768   1.000000
     21          1.318068   1.000000
     22          2.114476   0.000000
     23          5.306231   0.000000
     24          5.729853   0.000000
     25          6.057642   0.000000
     26          6.160457   0.000000
     27          7.365908   0.000000
     28          7.691503   0.000000
     29          7.963557   0.000000
     30          8.713628   0.000000
     31          9.124414   0.000000
     32          9.178790   0.000000
     33          9.539016   0.000000
     34         10.411447   0.000000
     35         10.669814   0.000000
     36         11.163619   0.000000
     37         11.624552   0.000000
     38         12.085837   0.000000
     39         12.317135   0.000000
     40         12.395185   0.000000
     41         13.037499   0.000000
     42         13.164353   0.000000
     43         13.309657   0.000000
     44         14.534558   0.000000
     45         14.682638   0.000000
     46         15.117400   0.000000
     47         15.369187   0.000000
     48         15.846873   0.000000
 
  0.2500000E+00  0.1785714E+00  0.0000000E+00  0.3174603E-02
      1        -12.518368   1.000000
      2        -11.718165   1.000000
      3         -8.552108   1.000000
      4         -8.347037   1.000000
      5         -5.910713   1.000000
      6         -5.732912   1.000000
      7         -4.959984   1.000000
      8         -4.720302   1.000000
      9         -4.130415   1.000000
     10         -3.205004   1.000000
     11         -2.691909   1.000000
     12         -1.922479   1.000000
     13         -1.177125   1.000000
     14         -0.925977   1.000000
     15         -0.486066   1.000000
     16         -0.139770   1.000000
     17         -0.028694   1.000000
     18          0.207881   1.000000
     19          0.446946   1.000000
     20          1.116181   1.000000
     21          1.200389   1.000000
     22          1.859752   0.216335
     23          5.625600   0.000000
     24          6.012775   0.000000
     25          6.201660   0.000000
     26          6.291537   0.000000
     27          7.265172   0.000000
     28          7.776555   0.000000
     29          7.925862   0.000000
     30          8.842980   0.000000
     31          9.126027   0.000000
     32          9.607300   0.000000
     33          9.750464   0.000000
     34         10.021598   0.000000
     35         10.146975   0.000000
     36         10.943561   0.000000
     37         11.482986   0.000000
     38         11.993345   0.000000
     39         12.393701   0.000000
     40         12.696696   0.000000
     41         12.916026   0.000000
     42         13.332014   0.000000
     43         13.830834   0.000000
     44         14.448425   0.000000
     45         14.731112   0.000000
     46         15.145630   0.000000
     47         15.383970   0.000000
     48         16.057884   0.000000
 
  0.3500000E+00  0.1785714E+00  0.0000000E+00  0.3174603E-02
      1        -12.395853   1.000000
      2        -11.886568   1.000000
      3         -8.489604   1.000000
      4         -8.346142   1.000000
      5         -5.985929   1.000000
      6         -5.961910   1.000000
      7         -4.825558   1.000000
      8         -4.400777   1.000000
      9         -4.292620   1.000000
     10         -2.839768   1.000000
     11         -2.355126   1.000000
     12         -2.213505   1.000000
     13         -1.121265   1.000000
     14         -1.063593   1.000000
     15         -0.495116   1.000000
     16         -0.423235   1.000000
     17          0.014539   1.000000
     18          0.015122   1.000000
     19          0.593416   1.000000
     20          0.987284   1.000000
     21          1.068469   1.000000
     22          1.526899   1.000000
     23          6.025451   0.000000
     24          6.156336   0.000000
     25          6.321795   0.000000
     26          6.723707   0.000000
     27          7.211991   0.000000
     28          7.699389   0.000000
     29          7.985075   0.000000
     30          8.942319   0.000000
     31          9.005369   0.000000
     32          9.071273   0.000000
     33          9.774644   0.000000
     34         10.072341   0.000000
     35         10.596612   0.000000
     36         10.967134   0.000000
     37         11.191365   0.000000
     38         11.838591   0.000000
     39         12.219072   0.000000
     40         12.874927   0.000000
     41         12.925877   0.000000
     42         13.670913   0.000000
     43         14.239516   0.000000
     44         14.261301   0.000000
     45         14.891885   0.000000
     46         14.987964   0.000000
     47         15.467934   0.000000
     48         16.237868   0.000000
 
  0.4500000E+00  0.1785714E+00  0.0000000E+00  0.3174603E-02
      1        -12.242312   1.000000
      2        -12.067738   1.000000
      3         -8.422831   1.000000
      4         -8.370687   1.000000
      5         -6.073426   1.000000
      6         -6.069034   1.000000
      7         -4.659732   1.000000
      8         -4.476402   1.000000
      9         -3.890445   1.000000
     10         -3.296295   1.000000
     11         -2.072575   1.000000
     12         -1.908991   1.000000
     13         -1.138150   1.000000
     14         -1.080198   1.000000
     15         -0.675097   1.000000
     16         -0.672240   1.000000
     17         -0.034030   1.000000
     18          0.009432   1.000000
     19          0.849854   1.000000
     20          0.924810   1.000000
     21          0.964739   1.000000
     22          1.175443   1.000000
     23          6.117720   0.000000
     24          6.237921   0.000000
     25          6.803815   0.000000
     26          7.135468   0.000000
     27          7.191957   0.000000
     28          7.543540   0.000000
     29          7.845003   0.000000
     30          8.350626   0.000000
     31          8.997126   0.000000
     32          9.028091   0.000000
     33          9.900140   0.000000
     34         10.373380   0.000000
     35         10.594564   0.000000
     36         10.874166   0.000000
     37         11.609981   0.000000
     38         11.617443   0.000000
     39         11.993676   0.000000
     40         12.779915   0.000000
     41         13.300540   0.000000
     42         13.643070   0.000000
     43         14.094621   0.000000
     44         14.248283   0.000000
     45         14.865453   0.000000
     46         15.003055   0.000000
     47         15.847084   0.000000
     48         16.148168   0.000000
 
  0.5000000E-01  0.2500000E+00  0.0000000E+00  0.3174603E-02
      1        -12.589650   1.000000
      2        -11.461030   1.000000
      3         -8.575102   1.000000
      4         -8.315726   1.000000
      5         -5.950284   1.000000
      6         -5.625480   1.000000
      7         -4.963878   1.000000
      8         -4.576057   1.000000
      9         -4.461947   1.000000
     10         -4.143596   1.000000
     11         -3.434511   1.000000
     12         -1.247040   1.000000
     13         -1.106628   1.000000
     14         -1.027647   1.000000
     15         -0.238645   1.000000
     16          0.171668   1.000000
     17          0.292235   1.000000
     18          0.543833   1.000000
     19          0.736927   1.000000
     20          0.942731   1.000000
     21          0.956488   1.000000
     22          2.282814   0.000000
     23          4.886755   0.000000
     24          5.097509   0.000000
     25          6.269782   0.000000
     26          6.499772   0.000000
     27          7.180367   0.000000
     28          7.867947   0.000000
     29          8.587031   0.000000
     30          8.966038   0.000000
     31          9.335577   0.000000
     32          9.480415   0.000000
     33          9.537786   0.000000
     34         10.636823   0.000000
     35         11.153967   0.000000
     36         11.857903   0.000000
     37         11.918476   0.000000
     38         12.174455   0.000000
     39         12.312884   0.000000
     40         12.342498   0.000000
     41         12.450653   0.000000
     42         12.857968   0.000000
     43         13.640733   0.000000
     44         13.763725   0.000000
     45         14.274763   0.000000
     46         14.975775   0.000000
     47         15.279362   0.000000
     48         15.694550   0.000000
 
  0.1500000E+00  0.2500000E+00  0.0000000E+00  0.3174603E-02
      1        -12.546499   1.000000
      2        -11.534190   1.000000
      3         -8.552887   1.000000
      4         -8.306225   1.000000
      5         -5.872952   1.000000
      6         -5.590674   1.000000
      7         -5.298146   1.000000
      8         -4.708117   1.000000