<?xml version="1.0" encoding="ISO-8859-1"?>
<modeling>
 <generator>
  <i name="program" type="string">vasp </i>
  <i name="version" type="string">6.4.3  </i>
  <i name="subversion" type="string">19Mar24 (build May 31 2024 16:31:43) complex                          parallel </i>
  <i name="platform" type="string">LinuxIFC </i>
  <i name="date" type="string">2024 11 11 </i>
  <i name="time" type="string">15:59:59 </i>
 </generator>
 <incar>
  <i type="string" name="SYSTEM">Convergence</i>
  <i type="int" name="ISTART">     0</i>
  <i type="string" name="PREC">Accurate</i>
  <i type="string" name="ALGO">Normal</i>
  <i type="int" name="ISPIN">     1</i>
  <i type="int" name="ICHARG">     2</i>
  <i type="int" name="NELM">   100</i>
  <i type="int" name="IBRION">    -1</i>
  <i name="EDIFF">      0.00000100</i>
  <i name="EDIFFG">     -0.00100000</i>
  <i type="int" name="NSW">     0</i>
  <i type="int" name="ISIF">     2</i>
  <i name="ENCUT">    600.00000000</i>
  <i name="POTIM">      0.50000000</i>
  <i type="int" name="ISMEAR">     0</i>
  <i name="SIGMA">      0.05000000</i>
  <i type="logical" name="LWAVE"> F  </i>
  <i type="logical" name="LCHARG"> F  </i>
  <i type="string" name="GGA">PE</i>
 </incar>
 <primitive_cell>
  <structure name="primitive_cell" >
   <crystal>
    <varray name="basis" >
     <v>       5.71409100       0.00000000       0.00000000 </v>
     <v>       0.00000000       4.06004370       0.00000000 </v>
     <v>       0.00000000       0.00000000       6.22281260 </v>
    </varray>
    <i name="volume">    144.36588681 </i>
    <varray name="rec_basis" >
     <v>       0.17500596       0.00000000       0.00000000 </v>
     <v>       0.00000000       0.24630277       0.00000000 </v>
     <v>       0.00000000       0.00000000       0.16069904 </v>
    </varray>
   </crystal>
   <varray name="positions" >
    <v>       0.52123000       0.50000000       0.63796000 </v>
    <v>       0.47877000       0.50000000       0.36204000 </v>
    <v>       0.97877000       0.50000000       0.63796000 </v>
    <v>       0.02123000       0.50000000       0.36204000 </v>
    <v>       0.60090000       0.50000000       0.89991000 </v>
    <v>       0.39910000       0.50000000       0.10009000 </v>
    <v>       0.89910000       0.50000000       0.89991000 </v>
    <v>       0.10090000       0.50000000       0.10009000 </v>
    <v>       0.75000000       0.79171000       0.72973000 </v>
    <v>       0.25000000       0.20829000       0.27027000 </v>
    <v>       0.75000000       0.20829000       0.72973000 </v>
    <v>       0.25000000       0.79171000       0.27027000 </v>
    <v>       0.25000000       0.50000000       0.52367000 </v>
    <v>       0.75000000       0.50000000       0.47633000 </v>
   </varray>
  </structure>
  <varray name="primitive_index" >
   <v type="int" >        1 </v>
   <v type="int" >        2 </v>
   <v type="int" >        3 </v>
   <v type="int" >        4 </v>
   <v type="int" >        5 </v>
   <v type="int" >        6 </v>
   <v type="int" >        7 </v>
   <v type="int" >        8 </v>
   <v type="int" >        9 </v>
   <v type="int" >       10 </v>
   <v type="int" >       11 </v>
   <v type="int" >       12 </v>
   <v type="int" >       13 </v>
   <v type="int" >       14 </v>
  </varray>
 </primitive_cell>
 <kpoints>
  <generation param="Monkhorst-Pack">
   <v type="int" name="divisions">      10       14        9 </v>
   <v name="usershift">      0.00000000       0.00000000       0.00000000 </v>
   <v name="genvec1">      0.10000000       0.00000000       0.00000000 </v>
   <v name="genvec2">      0.00000000       0.07142857       0.00000000 </v>
   <v name="genvec3">      0.00000000       0.00000000       0.11111111 </v>
   <v name="shift">      0.50000000       0.50000000       0.00000000 </v>
  </generation>
  <varray name="kpointlist" >
   <v>       0.05000000       0.03571429       0.00000000 </v>
   <v>       0.15000000       0.03571429       0.00000000 </v>
   <v>       0.25000000       0.03571429       0.00000000 </v>
   <v>       0.35000000       0.03571429       0.00000000 </v>
   <v>       0.45000000       0.03571429       0.00000000 </v>
   <v>       0.05000000       0.10714286       0.00000000 </v>
   <v>       0.15000000       0.10714286       0.00000000 </v>
   <v>       0.25000000       0.10714286       0.00000000 </v>
   <v>       0.35000000       0.10714286       0.00000000 </v>
   <v>       0.45000000       0.10714286       0.00000000 </v>
   <v>       0.05000000       0.17857143       0.00000000 </v>
   <v>       0.15000000       0.17857143       0.00000000 </v>
   <v>       0.25000000       0.17857143       0.00000000 </v>
   <v>       0.35000000       0.17857143       0.00000000 </v>
   <v>       0.45000000       0.17857143       0.00000000 </v>
   <v>       0.05000000       0.25000000       0.00000000 </v>
   <v>       0.15000000       0.25000000       0.00000000 </v>
   <v>       0.25000000       0.25000000       0.00000000 </v>
   <v>       0.35000000       0.25000000       0.00000000 </v>
   <v>       0.45000000       0.25000000       0.00000000 </v>
   <v>       0.05000000       0.32142857       0.00000000 </v>
   <v>       0.15000000       0.32142857       0.00000000 </v>
   <v>       0.25000000       0.32142857       0.00000000 </v>
   <v>       0.35000000       0.32142857       0.00000000 </v>
   <v>       0.45000000       0.32142857       0.00000000 </v>
   <v>       0.05000000       0.39285714       0.00000000 </v>
   <v>       0.15000000       0.39285714       0.00000000 </v>
   <v>       0.25000000       0.39285714       0.00000000 </v>
   <v>       0.35000000       0.39285714       0.00000000 </v>
   <v>       0.45000000       0.39285714       0.00000000 </v>
   <v>       0.05000000       0.46428571       0.00000000 </v>
   <v>       0.15000000       0.46428571       0.00000000 </v>
   <v>       0.25000000       0.46428571       0.00000000 </v>
   <v>       0.35000000       0.46428571       0.00000000 </v>
   <v>       0.45000000       0.46428571       0.00000000 </v>
   <v>       0.05000000       0.03571429       0.11111111 </v>
   <v>       0.15000000       0.03571429       0.11111111 </v>
   <v>       0.25000000       0.03571429       0.11111111 </v>
   <v>       0.35000000       0.03571429       0.11111111 </v>
   <v>       0.45000000       0.03571429       0.11111111 </v>
   <v>       0.05000000       0.10714286       0.11111111 </v>
   <v>       0.15000000       0.10714286       0.11111111 </v>
   <v>       0.25000000       0.10714286       0.11111111 </v>
   <v>       0.35000000       0.10714286       0.11111111 </v>
   <v>       0.45000000       0.10714286       0.11111111 </v>
   <v>       0.05000000       0.17857143       0.11111111 </v>
   <v>       0.15000000       0.17857143       0.11111111 </v>
   <v>       0.25000000       0.17857143       0.11111111 </v>
   <v>       0.35000000       0.17857143       0.11111111 </v>
   <v>       0.45000000       0.17857143       0.11111111 </v>
   <v>       0.05000000       0.25000000       0.11111111 </v>
   <v>       0.15000000       0.25000000       0.11111111 </v>
   <v>       0.25000000       0.25000000       0.11111111 </v>
   <v>       0.35000000       0.25000000       0.11111111 </v>
   <v>       0.45000000       0.25000000       0.11111111 </v>
   <v>       0.05000000       0.32142857       0.11111111 </v>
   <v>       0.15000000       0.32142857       0.11111111 </v>
   <v>       0.25000000       0.32142857       0.11111111 </v>
   <v>       0.35000000       0.32142857       0.11111111 </v>
   <v>       0.45000000       0.32142857       0.11111111 </v>
   <v>       0.05000000       0.39285714       0.11111111 </v>
   <v>       0.15000000       0.39285714       0.11111111 </v>
   <v>       0.25000000       0.39285714       0.11111111 </v>
   <v>       0.35000000       0.39285714       0.11111111 </v>
   <v>       0.45000000       0.39285714       0.11111111 </v>
   <v>       0.05000000       0.46428571       0.11111111 </v>
   <v>       0.15000000       0.46428571       0.11111111 </v>
   <v>       0.25000000       0.46428571       0.11111111 </v>
   <v>       0.35000000       0.46428571       0.11111111 </v>
   <v>       0.45000000       0.46428571       0.11111111 </v>
   <v>       0.05000000       0.03571429       0.22222222 </v>
   <v>       0.15000000       0.03571429       0.22222222 </v>
   <v>       0.25000000       0.03571429       0.22222222 </v>
   <v>       0.35000000       0.03571429       0.22222222 </v>
   <v>       0.45000000       0.03571429       0.22222222 </v>
   <v>       0.05000000       0.10714286       0.22222222 </v>
   <v>       0.15000000       0.10714286       0.22222222 </v>
   <v>       0.25000000       0.10714286       0.22222222 </v>
   <v>       0.35000000       0.10714286       0.22222222 </v>
   <v>       0.45000000       0.10714286       0.22222222 </v>
   <v>       0.05000000       0.17857143       0.22222222 </v>
   <v>       0.15000000       0.17857143       0.22222222 </v>
   <v>       0.25000000       0.17857143       0.22222222 </v>
   <v>       0.35000000       0.17857143       0.22222222 </v>
   <v>       0.45000000       0.17857143       0.22222222 </v>
   <v>       0.05000000       0.25000000       0.22222222 </v>
   <v>       0.15000000       0.25000000       0.22222222 </v>
   <v>       0.25000000       0.25000000       0.22222222 </v>
   <v>       0.35000000       0.25000000       0.22222222 </v>
   <v>       0.45000000       0.25000000       0.22222222 </v>
   <v>       0.05000000       0.32142857       0.22222222 </v>
   <v>       0.15000000       0.32142857       0.22222222 </v>
   <v>       0.25000000       0.32142857       0.22222222 </v>
   <v>       0.35000000       0.32142857       0.22222222 </v>
   <v>       0.45000000       0.32142857       0.22222222 </v>
   <v>       0.05000000       0.39285714       0.22222222 </v>
   <v>       0.15000000       0.39285714       0.22222222 </v>
   <v>       0.25000000       0.39285714       0.22222222 </v>
   <v>       0.35000000       0.39285714       0.22222222 </v>
   <v>       0.45000000       0.39285714       0.22222222 </v>
   <v>       0.05000000       0.46428571       0.22222222 </v>
   <v>       0.15000000       0.46428571       0.22222222 </v>
   <v>       0.25000000       0.46428571       0.22222222 </v>
   <v>       0.35000000       0.46428571       0.22222222 </v>
   <v>       0.45000000       0.46428571       0.22222222 </v>
   <v>       0.05000000       0.03571429       0.33333333 </v>
   <v>       0.15000000       0.03571429       0.33333333 </v>
   <v>       0.25000000       0.03571429       0.33333333 </v>
   <v>       0.35000000       0.03571429       0.33333333 </v>
   <v>       0.45000000       0.03571429       0.33333333 </v>
   <v>       0.05000000       0.10714286       0.33333333 </v>
   <v>       0.15000000       0.10714286       0.33333333 </v>
   <v>       0.25000000       0.10714286       0.33333333 </v>
   <v>       0.35000000       0.10714286       0.33333333 </v>
   <v>       0.45000000       0.10714286       0.33333333 </v>
   <v>       0.05000000       0.17857143       0.33333333 </v>
   <v>       0.15000000       0.17857143       0.33333333 </v>
   <v>       0.25000000       0.17857143       0.33333333 </v>
   <v>       0.35000000       0.17857143       0.33333333 </v>
   <v>       0.45000000       0.17857143       0.33333333 </v>
   <v>       0.05000000       0.25000000       0.33333333 </v>
   <v>       0.15000000       0.25000000       0.33333333 </v>
   <v>       0.25000000       0.25000000       0.33333333 </v>
   <v>       0.35000000       0.25000000       0.33333333 </v>
   <v>       0.45000000       0.25000000       0.33333333 </v>
   <v>       0.05000000       0.32142857       0.33333333 </v>
   <v>       0.15000000       0.32142857       0.33333333 </v>
   <v>       0.25000000       0.32142857       0.33333333 </v>
   <v>       0.35000000       0.32142857       0.33333333 </v>
   <v>       0.45000000       0.32142857       0.33333333 </v>
   <v>       0.05000000       0.39285714       0.33333333 </v>
   <v>       0.15000000       0.39285714       0.33333333 </v>
   <v>       0.25000000       0.39285714       0.33333333 </v>
   <v>       0.35000000       0.39285714       0.33333333 </v>
   <v>       0.45000000       0.39285714       0.33333333 </v>
   <v>       0.05000000       0.46428571       0.33333333 </v>
   <v>       0.15000000       0.46428571       0.33333333 </v>
   <v>       0.25000000       0.46428571       0.33333333 </v>
   <v>       0.35000000       0.46428571       0.33333333 </v>
   <v>       0.45000000       0.46428571       0.33333333 </v>
   <v>       0.05000000       0.03571429       0.44444444 </v>
   <v>       0.15000000       0.03571429       0.44444444 </v>
   <v>       0.25000000       0.03571429       0.44444444 </v>
   <v>       0.35000000       0.03571429       0.44444444 </v>
   <v>       0.45000000       0.03571429       0.44444444 </v>
   <v>       0.05000000       0.10714286       0.44444444 </v>
   <v>       0.15000000       0.10714286       0.44444444 </v>
   <v>       0.25000000       0.10714286       0.44444444 </v>
   <v>       0.35000000       0.10714286       0.44444444 </v>
   <v>       0.45000000       0.10714286       0.44444444 </v>
   <v>       0.05000000       0.17857143       0.44444444 </v>
   <v>       0.15000000       0.17857143       0.44444444 </v>
   <v>       0.25000000       0.17857143       0.44444444 </v>
   <v>       0.35000000       0.17857143       0.44444444 </v>
   <v>       0.45000000       0.17857143       0.44444444 </v>
   <v>       0.05000000       0.25000000       0.44444444 </v>
   <v>       0.15000000       0.25000000       0.44444444 </v>
   <v>       0.25000000       0.25000000       0.44444444 </v>
   <v>       0.35000000       0.25000000       0.44444444 </v>
   <v>       0.45000000       0.25000000       0.44444444 </v>
   <v>       0.05000000       0.32142857       0.44444444 </v>
   <v>       0.15000000       0.32142857       0.44444444 </v>
   <v>       0.25000000       0.32142857       0.44444444 </v>
   <v>       0.35000000       0.32142857       0.44444444 </v>
   <v>       0.45000000       0.32142857       0.44444444 </v>
   <v>       0.05000000       0.39285714       0.44444444 </v>
   <v>       0.15000000       0.39285714       0.44444444 </v>
   <v>       0.25000000       0.39285714       0.44444444 </v>
   <v>       0.35000000       0.39285714       0.44444444 </v>
   <v>       0.45000000       0.39285714       0.44444444 </v>
   <v>       0.05000000       0.46428571       0.44444444 </v>
   <v>       0.15000000       0.46428571       0.44444444 </v>
   <v>       0.25000000       0.46428571       0.44444444 </v>
   <v>       0.35000000       0.46428571       0.44444444 </v>
   <v>       0.45000000       0.46428571       0.44444444 </v>
  </varray>
  <varray name="weights" >
   <v>       0.00317460 </v>
   <v>       0.00317460 </v>
   <v>       0.00317460 </v>
   <v>       0.00317460 </v>
   <v>       0.00317460 </v>
   <v>       0.00317460 </v>
   <v>       0.00317460 </v>
   <v>       0.00317460 </v>
   <v>       0.00317460 </v>
   <v>       0.00317460 </v>
   <v>       0.00317460 </v>
   <v>       0.00317460 </v>
   <v>       0.00317460 </v>
   <v>       0.00317460 </v>
   <v>       0.00317460 </v>
   <v>       0.00317460 </v>
   <v>       0.00317460 </v>
   <v>       0.00317460 </v>
   <v>       0.00317460 </v>
   <v>       0.00317460 </v>
   <v>       0.00317460 </v>
   <v>       0.00317460 </v>
   <v>       0.00317460 </v>
   <v>       0.00317460 </v>
   <v>       0.00317460 </v>
   <v>       0.00317460 </v>
   <v>       0.00317460 </v>
   <v>       0.00317460 </v>
   <v>       0.00317460 </v>
   <v>       0.00317460 </v>
   <v>       0.00317460 </v>
   <v>       0.00317460 </v>
   <v>       0.00317460 </v>
   <v>       0.00317460 </v>
   <v>       0.00317460 </v>
   <v>       0.00634921 </v>
   <v>       0.00634921 </v>
   <v>       0.00634921 </v>
   <v>       0.00634921 </v>
   <v>       0.00634921 </v>
   <v>       0.00634921 </v>
   <v>       0.00634921 </v>
   <v>       0.00634921 </v>
   <v>       0.00634921 </v>
   <v>       0.00634921 </v>
   <v>       0.00634921 </v>
   <v>       0.00634921 </v>
   <v>       0.00634921 </v>
   <v>       0.00634921 </v>
   <v>       0.00634921 </v>
   <v>       0.00634921 </v>
   <v>       0.00634921 </v>
   <v>       0.00634921 </v>
   <v>       0.00634921 </v>
   <v>       0.00634921 </v>
   <v>       0.00634921 </v>
   <v>       0.00634921 </v>
   <v>       0.00634921 </v>
   <v>       0.00634921 </v>
   <v>       0.00634921 </v>
   <v>       0.00634921 </v>
   <v>       0.00634921 </v>
   <v>       0.00634921 </v>
   <v>       0.00634921 </v>
   <v>       0.00634921 </v>
   <v>       0.00634921 </v>
   <v>       0.00634921 </v>
   <v>       0.00634921 </v>
   <v>       0.00634921 </v>
   <v>       0.00634921 </v>
   <v>       0.00634921 </v>
   <v>       0.00634921 </v>
   <v>       0.00634921 </v>
   <v>       0.00634921 </v>
   <v>       0.00634921 </v>
   <v>       0.00634921 </v>
   <v>       0.00634921 </v>
   <v>       0.00634921 </v>
   <v>       0.00634921 </v>
   <v>       0.00634921 </v>
   <v>       0.00634921 </v>
   <v>       0.00634921 </v>
   <v>       0.00634921 </v>
   <v>       0.00634921 </v>
   <v>       0.00634921 </v>
   <v>       0.00634921 </v>
   <v>       0.00634921 </v>
   <v>       0.00634921 </v>
   <v>       0.00634921 </v>
   <v>       0.00634921 </v>
   <v>       0.00634921 </v>
   <v>       0.00634921 </v>
   <v>       0.00634921 </v>
   <v>       0.00634921 </v>
   <v>       0.00634921 </v>
   <v>       0.00634921 </v>
   <v>       0.00634921 </v>
   <v>       0.00634921 </v>
   <v>       0.00634921 </v>
   <v>       0.00634921 </v>
   <v>       0.00634921 </v>
   <v>       0.00634921 </v>
   <v>       0.00634921 </v>
   <v>       0.00634921 </v>
   <v>       0.00634921 </v>
   <v>       0.00634921 </v>
   <v>       0.00634921 </v>
   <v>       0.00634921 </v>
   <v>       0.00634921 </v>
   <v>       0.00634921 </v>
   <v>       0.00634921 </v>
   <v>       0.00634921 </v>
   <v>       0.00634921 </v>
   <v>       0.00634921 </v>
   <v>       0.00634921 </v>
   <v>       0.00634921 </v>
   <v>       0.00634921 </v>
   <v>       0.00634921 </v>
   <v>       0.00634921 </v>
   <v>       0.00634921 </v>
   <v>       0.00634921 </v>
   <v>       0.00634921 </v>
   <v>       0.00634921 </v>
   <v>       0.00634921 </v>
   <v>       0.00634921 </v>
   <v>       0.00634921 </v>
   <v>       0.00634921 </v>
   <v>       0.00634921 </v>
   <v>       0.00634921 </v>
   <v>       0.00634921 </v>
   <v>       0.00634921 </v>
   <v>       0.00634921 </v>
   <v>       0.00634921 </v>
   <v>       0.00634921 </v>
   <v>       0.00634921 </v>
   <v>       0.00634921 </v>
   <v>       0.00634921 </v>
   <v>       0.00634921 </v>
   <v>       0.00634921 </v>
   <v>       0.00634921 </v>
   <v>       0.00634921 </v>
   <v>       0.00634921 </v>
   <v>       0.00634921 </v>
   <v>       0.00634921 </v>
   <v>       0.00634921 </v>
   <v>       0.00634921 </v>
   <v>       0.00634921 </v>
   <v>       0.00634921 </v>
   <v>       0.00634921 </v>
   <v>       0.00634921 </v>
   <v>       0.00634921 </v>
   <v>       0.00634921 </v>
   <v>       0.00634921 </v>
   <v>       0.00634921 </v>
   <v>       0.00634921 </v>
   <v>       0.00634921 </v>
   <v>       0.00634921 </v>
   <v>       0.00634921 </v>
   <v>       0.00634921 </v>
   <v>       0.00634921 </v>
   <v>       0.00634921 </v>
   <v>       0.00634921 </v>
   <v>       0.00634921 </v>
   <v>       0.00634921 </v>
   <v>       0.00634921 </v>
   <v>       0.00634921 </v>
   <v>       0.00634921 </v>
   <v>       0.00634921 </v>
   <v>       0.00634921 </v>
   <v>       0.00634921 </v>
   <v>       0.00634921 </v>
   <v>       0.00634921 </v>
   <v>       0.00634921 </v>
   <v>       0.00634921 </v>
   <v>       0.00634921 </v>
  </varray>
 </kpoints>
 <parameters>
  <separator name="general" >
   <i type="string" name="SYSTEM">Convergence</i>
   <i type="logical" name="LCOMPAT"> F  </i>
  </separator>
  <separator name="electronic" >
   <i type="string" name="PREC">accura</i>
   <i name="ENMAX">    600.00000000</i>
   <i name="ENAUG">    535.51400000</i>
   <i name="EDIFF">      0.00000100</i>
   <i type="int" name="IALGO">    38</i>
   <i type="int" name="IWAVPR">    10</i>
   <i type="int" name="NBANDS">    48</i>
   <i type="int" name="NBANDSLOW">    -1</i>
   <i type="int" name="NBANDSHIGH">    -1</i>
   <i name="NELECT">     42.00000000</i>
   <i type="int" name="TURBO">     0</i>
   <i type="int" name="IRESTART">     0</i>
   <i type="int" name="NREBOOT">     0</i>
   <i type="int" name="NMIN">     0</i>
   <i name="EREF">      0.00000000</i>
   <separator name="electronic smearing" >
    <i type="int" name="ISMEAR">     0</i>
    <i name="SIGMA">      0.05000000</i>
    <i name="KSPACING">      0.50000000</i>
    <i type="logical" name="KGAMMA"> T  </i>
    <i type="logical" name="KBLOWUP"> T  </i>
   </separator>
   <separator name="electronic projectors" >
    <i type="logical" name="LREAL"> F  </i>
    <v name="ROPT">      0.00000000</v>
    <i type="int" name="LMAXPAW">  -100</i>
    <i type="int" name="LMAXMIX">     2</i>
    <i type="logical" name="NLSPLINE"> F  </i>
   </separator>
   <separator name="electronic startup" >
    <i type="int" name="ISTART">     0</i>
    <i type="int" name="ICHARG">     2</i>
    <i type="int" name="INIWAV">     1</i>
   </separator>
   <separator name="electronic spin" >
    <i type="int" name="ISPIN">     1</i>
    <i type="logical" name="LNONCOLLINEAR"> F  </i>
    <v name="MAGMOM">      1.00000000      1.00000000      1.00000000      1.00000000      1.00000000      1.00000000      1.00000000      1.00000000      1.00000000      1.00000000      1.00000000      1.00000000      1.00000000      1.00000000</v>
    <i name="NUPDOWN">     -1.00000000</i>
    <i type="logical" name="LSORBIT"> F  </i>
    <v name="SAXIS">      0.00000000      0.00000000      1.00000000</v>
    <i type="logical" name="LSPIRAL"> F  </i>
    <v name="QSPIRAL">      0.00000000      0.00000000      0.00000000</v>
    <i type="logical" name="LZEROZ"> F  </i>
   </separator>
   <separator name="electronic exchange-correlation" >
    <i type="logical" name="LASPH"> F  </i>
   </separator>
   <separator name="electronic convergence" >
    <i type="int" name="NELM">   100</i>
    <i type="int" name="NELMDL">    -5</i>
    <i type="int" name="NELMIN">     2</i>
    <i name="ENINI">    600.00000000</i>
    <separator name="electronic convergence detail" >
     <i type="logical" name="LDIAG"> T  </i>
     <i type="logical" name="LSUBROT"> F  </i>
     <i name="WEIMIN">      0.00000000</i>
     <i name="EBREAK">      0.00000001</i>
     <i name="DEPER">      0.30000000</i>
     <i type="int" name="NRMM">     4</i>
     <i name="TIME">      0.40000000</i>
    </separator>
   </separator>
   <separator name="electronic mixer" >
    <i name="AMIX">      0.40000000</i>
    <i name="BMIX">      1.00000000</i>
    <i name="AMIN">      0.10000000</i>
    <i name="AMIX_MAG">      1.60000000</i>
    <i name="BMIX_MAG">      1.00000000</i>
    <separator name="electronic mixer details" >
     <i type="int" name="IMIX">     4</i>
     <i type="logical" name="MIXFIRST"> F  </i>
     <i type="int" name="MAXMIX">   -45</i>
     <i name="WC">    100.00000000</i>
     <i type="int" name="INIMIX">     1</i>
     <i type="int" name="MIXPRE">     1</i>
     <i type="int" name="MREMOVE">     5</i>
    </separator>
   </separator>
   <separator name="electronic dipolcorrection" >
    <i type="logical" name="LDIPOL"> F  </i>
    <i type="logical" name="LMONO"> F  </i>
    <i type="int" name="IDIPOL">     0</i>
    <i name="EPSILON">      1.00000000</i>
    <v name="DIPOL">   -100.00000000   -100.00000000   -100.00000000</v>
    <i name="EFIELD">      0.00000000</i>
    <i type="logical" name="LVACPOTAV"> F  </i>
   </separator>
  </separator>
  <separator name="grids" >
   <i type="int" name="NGX">    48</i>
   <i type="int" name="NGY">    32</i>
   <i type="int" name="NGZ">    50</i>
   <i type="int" name="NGXF">    96</i>
   <i type="int" name="NGYF">    64</i>
   <i type="int" name="NGZF">   100</i>
   <i type="logical" name="ADDGRID"> F  </i>
  </separator>
  <separator name="ionic" >
   <i type="int" name="NSW">     0</i>
   <i type="int" name="IBRION">    -1</i>
   <i type="int" name="MDALGO">     0</i>
   <i type="int" name="ISIF">     2</i>
   <i name="PSTRESS">      0.00000000</i>
   <i name="EDIFFG">     -0.00100000</i>
   <i type="int" name="NFREE">     0</i>
   <i name="POTIM">      0.50000000</i>
   <i name="SMASS">     -3.00000000</i>
   <i name="SCALEE">      1.00000000</i>
  </separator>
  <separator name="ionic md" >
   <i name="TEBEG">      0.00010000</i>
   <i name="TEEND">      0.00010000</i>
   <i type="int" name="NBLOCK">     1</i>
   <i type="int" name="KBLOCK">     1</i>
   <i type="int" name="NPACO">   256</i>
   <i name="APACO">     10.00000000</i>
  </separator>
  <separator name="symmetry" >
   <i type="int" name="ISYM">     2</i>
   <i name="SYMPREC">      0.00001000</i>
  </separator>
  <separator name="dos" >
   <i type="int" name="LORBIT">     0</i>
   <v name="RWIGS">     -1.00000000</v>
   <i type="int" name="NEDOS">   301</i>
   <i name="EMIN">     10.00000000</i>
   <i name="EMAX">    -10.00000000</i>
   <i name="EFERMI">      0.00000000</i>
  </separator>
  <separator name="writing" >
   <i type="int" name="NWRITE">     2</i>
   <i type="logical" name="LWAVE"> F  </i>
   <i type="logical" name="LDOWNSAMPLE"> F  </i>
   <i type="logical" name="LCHARG"> F  </i>
   <i type="logical" name="LPARD"> F  </i>
   <i type="logical" name="LVTOT"> F  </i>
   <i type="logical" name="LVHAR"> F  </i>
   <i type="logical" name="LELF"> F  </i>
   <i type="logical" name="LOPTICS"> F  </i>
   <v name="STM">      0.00000000      0.00000000      0.00000000      0.00000000      0.00000000      0.00000000      0.00000000</v>
  </separator>
  <separator name="performance" >
   <i type="int" name="NPAR">    24</i>
   <i type="int" name="NSIM">     4</i>
   <i type="int" name="NBLK">    -1</i>
   <i type="logical" name="LPLANE"> T  </i>
   <i type="logical" name="LSCALAPACK"> T  </i>
   <i type="logical" name="LSCAAWARE"> F  </i>
   <i type="logical" name="LSCALU"> F  </i>
   <i type="logical" name="LASYNC"> F  </i>
   <i type="logical" name="LORBITALREAL"> F  </i>
  </separator>
  <separator name="miscellaneous" >
   <i type="int" name="IDIOT">     3</i>
   <i type="int" name="PHON_NSTRUCT">    -1</i>
   <i type="logical" name="LMUSIC"> F  </i>
   <v name="POMASS">     10.81100000</v>
   <v name="DARWINR">      0.00000000</v>
   <v name="DARWINV">      1.00000000</v>
   <i type="logical" name="LCORR"> T  </i>
  </separator>
  <i type="logical" name="GGA_COMPAT"> T  </i>
  <i type="logical" name="LBERRY"> F  </i>
  <i type="int" name="ICORELEVEL">     0</i>
  <i type="logical" name="LDAU"> F  </i>
  <i type="int" name="I_CONSTRAINED_M">     0</i>
  <separator name="electronic exchange-correlation" >
   <i type="string" name="GGA    ">PE</i>
   <i type="string" name="XC_C">1</i>
   <i type="int" name="VOSKOWN">     0</i>
   <i type="logical" name="LHFCALC"> F  </i>
   <i type="string" name="PRECFOCK"></i>
   <i type="logical" name="LSYMGRAD"> F  </i>
   <i type="logical" name="LHFONE"> F  </i>
   <i type="logical" name="LRHFCALC"> F  </i>
   <i type="logical" name="LTHOMAS"> F  </i>
   <i type="logical" name="LMODELHF"> F  </i>
   <i type="logical" name="LFOCKACE"> F  </i>
   <i name="ENCUT4O">     -1.00000000</i>
   <i type="int" name="EXXOEP">     0</i>
   <i type="int" name="FOURORBIT">     0</i>
   <i name="AEXX">      0.00000000</i>
   <i name="HFALPHA">      0.00000000</i>
   <i name="MCALPHA">      0.00000000</i>
   <i name="ALDAX">      1.00000000</i>
   <i name="AGGAX">      1.00000000</i>
   <i name="AMGGAX">      1.00000000</i>
   <i name="ALDAC">      1.00000000</i>
   <i name="AGGAC">      1.00000000</i>
   <i name="AMGGAC">      1.00000000</i>
   <i type="int" name="NKREDX">     1</i>
   <i type="int" name="NKREDY">     1</i>
   <i type="int" name="NKREDZ">     1</i>
   <i type="logical" name="SHIFTRED"> F  </i>
   <i type="logical" name="ODDONLY"> F  </i>
   <i type="logical" name="EVENONLY"> F  </i>
   <i type="int" name="LMAXFOCK">     0</i>
   <i type="int" name="NMAXFOCKAE">     0</i>
   <i type="logical" name="LFOCKAEDFT"> F  </i>
   <i name="HFSCREEN">      0.00000000</i>
   <i name="HFSCREENC">      0.00000000</i>
   <i type="int" name="NBANDSGWLOW">     0</i>
  </separator>
  <separator name="vdW DFT" >
   <i type="logical" name="LUSE_VDW"> F  </i>
   <i type="int" name="IVDW_NL">    -1</i>
   <i type="logical" name="LSPIN_VDW"> F  </i>
   <i name="ZAB_VDW">     -0.84910000</i>
   <i name="GAMMA_VDW">      1.39626340</i>
   <i name="ALPHA_VDW">      0.00000000</i>
   <i name="PARAM1">      0.12340000</i>
   <i name="PARAM2">      1.00000000</i>
   <i name="BPARAM">      6.30000000</i>
   <i name="CPARAM">      0.00930000</i>
  </separator>
  <separator name="model GW" >
   <i type="int" name="MODEL_GW">     0</i>
   <i name="MODEL_EPS0">      6.18710943</i>
   <i name="MODEL_ALPHA">      1.00000000</i>
  </separator>
  <separator name="linear response parameters" >
   <i type="logical" name="LEPSILON"> F  </i>
   <i type="logical" name="LRPA"> F  </i>
   <i type="logical" name="LNABLA"> F  </i>
   <i type="logical" name="LVEL"> F  </i>
   <i name="CSHIFT">      0.10000000</i>
   <i name="OMEGAMAX">     -1.00000000</i>
   <i name="DEG_THRESHOLD">      0.00200000</i>
   <i name="RTIME">     -0.10000000</i>
   <i name="WPLASMAI">      0.00000000</i>
   <v name="DFIELD">      0.00000000      0.00000000      0.00000000</v>
   <v name="WPLASMA">      0.00000000      0.00000000      0.00000000      0.00000000      0.00000000      0.00000000      0.00000000      0.00000000      0.00000000</v>
  </separator>
  <separator name="orbital magnetization" >
   <i type="logical" name="NUCIND"> F  </i>
   <v name="MAGPOS">      0.00000000      0.00000000      0.00000000</v>
   <i type="logical" name="LNICSALL"> T  </i>
   <i type="logical" name="ORBITALMAG"> F  </i>
   <i type="logical" name="LMAGBLOCH"> F  </i>
   <i type="logical" name="LCHIMAG"> F  </i>
   <i type="logical" name="LGAUGE"> T  </i>
   <i type="int" name="MAGATOM">     0</i>
   <v name="MAGDIPOL">      0.00000000      0.00000000      0.00000000</v>
   <v name="AVECCONST">      0.00000000      0.00000000      0.00000000</v>
  </separator>
  <separator name="response functions" >
   <i type="logical" name="LALL_IN_ONE"> F  </i>
   <i type="int" name="IALL_IN_ONE">    -1</i>
   <i type="int" name="NBANDS_WAVE">    -1</i>
   <i type="logical" name="LFINITE_TEMPERATURE"> F  </i>
   <i type="logical" name="LADDER"> F  </i>
   <i type="logical" name="LRPAFORCE"> F  </i>
   <i type="logical" name="LFXC"> F  </i>
   <i type="logical" name="LHARTREE"> T  </i>
   <i type="int" name="IBSE">     0</i>
   <v type="int" name="KPOINT">    -1     0     0     0</v>
   <i type="logical" name="LTCTC"> F  </i>
   <i type="logical" name="LTCTE"> F  </i>
   <i type="logical" name="LTETE"> F  </i>
   <i type="logical" name="LTRIPLET"> F  </i>
   <i type="logical" name="LFXCEPS"> F  </i>
   <i type="logical" name="LFXHEG"> F  </i>
   <i type="int" name="NATURALO">     2</i>
   <i type="logical" name="LHOLEGF"> F  </i>
   <i type="logical" name="L2ORDER"> F  </i>
   <i type="logical" name="LDMP1"> F  </i>
   <i type="logical" name="LMP2LT"> F  </i>
   <i type="logical" name="LSMP2LT"> F  </i>
   <i type="logical" name="LGWLF"> F  </i>
   <i name="ENCUTGW">     -1.60000002</i>
   <i name="ENCUTGWSOFT">     -1.60000002</i>
   <i name="ENCUTLF">     -1.00000000</i>
   <i type="logical" name="ESF_SPLINES"> F  </i>
   <i name="ESF_CONV">      0.01000000</i>
   <i type="int" name="ESF_NINTER">    15</i>
   <i type="int" name="LMAXMP2">    -1</i>
   <i name="SCISSOR">      0.00000000</i>
   <i type="int" name="NOMEGA">     0</i>
   <i type="int" name="NOMEGAR">     0</i>
   <i type="int" name="NBANDSGW">    -1</i>
   <i type="int" name="NBANDSO">    -1</i>
   <i type="int" name="NBANDSV">    -1</i>
   <i type="int" name="NELMGW">     1</i>
   <i type="int" name="NELMHF">     1</i>
   <i type="int" name="DIM">     3</i>
   <i type="int" name="IESPILON">     4</i>
   <i type="int" name="ANTIRES">     0</i>
   <i name="OMEGAMAX">    -30.00000000</i>
   <i name="OMEGAMIN">    -30.00000000</i>
   <i name="OMEGATL">   -200.00000000</i>
   <i type="int" name="OMEGAGRID">     0</i>
   <i name="CSHIFT">     -0.10000000</i>
   <i type="logical" name="LSELFENERGY"> F  </i>
   <i type="logical" name="LSPECTRAL"> F  </i>
   <i type="logical" name="LSPECTRALGW"> F  </i>
   <i type="logical" name="LSINGLES"> F  </i>
   <i type="logical" name="LFERMIGW"> F  </i>
   <i type="logical" name="ODDONLYGW"> F  </i>
   <i type="logical" name="EVENONLYGW"> F  </i>
   <i type="int" name="NKREDLFX">     1</i>
   <i type="int" name="NKREDLFY">     1</i>
   <i type="int" name="NKREDLFZ">     1</i>
   <i type="int" name="MAXMEM">  2800</i>
   <i type="int" name="TELESCOPE">     0</i>
   <i type="int" name="NTAUPAR">    -1</i>
   <i type="int" name="NOMEGAPAR">    -1</i>
   <i name="DAMP_NEWTON">      0.80000001</i>
   <i name="LAMBDA">      1.00000000</i>
  </separator>
  <separator name="External order field" >
   <i name="OFIELD_KAPPA">      0.00000000</i>
   <v name="OFIELD_K">      0.00000000      0.00000000      0.00000000</v>
   <i name="OFIELD_Q6_NEAR">      0.00000000</i>
   <i name="OFIELD_Q6_FAR">      0.00000000</i>
   <i name="OFIELD_A">      0.00000000</i>
  </separator>
  <separator name="optional k-points parameters" >
   <i type="int" name="KPOINTS_OPT_MODE">     1</i>
   <i type="logical" name="LKPOINTS_OPT"> F  </i>
  </separator>
 </parameters>
 <atominfo>
  <atoms>      14 </atoms>
  <types>       1 </types>
  <array name="atoms" >
   <dimension dim="1">ion</dimension>
   <field type="string">element</field>
   <field type="int">atomtype</field>
   <set>
    <rc><c>B </c><c>   1</c></rc>
    <rc><c>B </c><c>   1</c></rc>
    <rc><c>B </c><c>   1</c></rc>
    <rc><c>B </c><c>   1</c></rc>
    <rc><c>B </c><c>   1</c></rc>
    <rc><c>B </c><c>   1</c></rc>
    <rc><c>B </c><c>   1</c></rc>
    <rc><c>B </c><c>   1</c></rc>
    <rc><c>B </c><c>   1</c></rc>
    <rc><c>B </c><c>   1</c></rc>
    <rc><c>B </c><c>   1</c></rc>
    <rc><c>B </c><c>   1</c></rc>
    <rc><c>B </c><c>   1</c></rc>
    <rc><c>B </c><c>   1</c></rc>
   </set>
  </array>
  <array name="atomtypes" >
   <dimension dim="1">type</dimension>
   <field type="int">atomspertype</field>
   <field type="string">element</field>
   <field>mass</field>
   <field>valence</field>
   <field type="string">pseudopotential</field>
   <set>
    <rc><c>  14</c><c>B </c><c>     10.81100000</c><c>      3.00000000</c><c>  PAW_PBE B 06Sep2000                   </c></rc>
   </set>
  </array>
 </atominfo>
 <structure name="initialpos" >
  <crystal>
   <varray name="basis" >
    <v>       5.71409100       0.00000000       0.00000000 </v>
    <v>       0.00000000       4.06004370       0.00000000 </v>
    <v>       0.00000000       0.00000000       6.22281260 </v>
   </varray>
   <i name="volume">    144.36588681 </i>
   <varray name="rec_basis" >
    <v>       0.17500596       0.00000000       0.00000000 </v>
    <v>       0.00000000       0.24630277       0.00000000 </v>
    <v>       0.00000000       0.00000000       0.16069904 </v>
   </varray>
  </crystal>
  <varray name="positions" >
   <v>       0.52123000       0.50000000       0.63796000 </v>
   <v>       0.47877000       0.50000000       0.36204000 </v>
   <v>       0.97877000       0.50000000       0.63796000 </v>
   <v>       0.02123000       0.50000000       0.36204000 </v>
   <v>       0.60090000       0.50000000       0.89991000 </v>
   <v>       0.39910000       0.50000000       0.10009000 </v>
   <v>       0.89910000       0.50000000       0.89991000 </v>
   <v>       0.10090000       0.50000000       0.10009000 </v>
   <v>       0.75000000       0.79171000       0.72973000 </v>
   <v>       0.25000000       0.20829000       0.27027000 </v>
   <v>       0.75000000       0.20829000       0.72973000 </v>
   <v>       0.25000000       0.79171000       0.27027000 </v>
   <v>       0.25000000       0.50000000       0.52367000 </v>
   <v>       0.75000000       0.50000000       0.47633000 </v>
  </varray>
 </structure>
 <calculation>
  <scstep>
   <time name="dav">    5.51    5.55</time>
   <time name="total">    5.52    5.57</time>
   <energy>
    <i name="alphaZ">     93.40045152 </i>
    <i name="ewald">   -793.38642165 </i>
    <i name="hartreedc">   -272.22985434 </i>
    <i name="XCdc">     97.27418882 </i>
    <i name="pawpsdc">    608.99811708 </i>
    <i name="pawaedc">   -597.02363782 </i>
    <i name="eentropy">     -0.00173223 </i>
    <i name="bandstr">    -55.17157877 </i>
    <i name="atom">    996.37441054 </i>
    <i name="e_fr_energy">     78.23394316 </i>
    <i name="e_wo_entrp">     78.23567539 </i>
    <i name="e_0_energy">     78.23480927 </i>
   </energy>
  </scstep>
  <scstep>
   <time name="dav">    7.21    7.32</time>
   <time name="total">    7.21    7.32</time>
   <energy>
    <i name="e_fr_energy">    -91.59892816 </i>
    <i name="e_wo_entrp">    -91.59563042 </i>
    <i name="e_0_energy">    -91.59727929 </i>
   </energy>
  </scstep>
  <scstep>
   <time name="dav">    7.77    7.83</time>
   <time name="total">    7.77    7.84</time>
   <energy>
    <i name="e_fr_energy">    -97.43821928 </i>
    <i name="e_wo_entrp">    -97.43455080 </i>
    <i name="e_0_energy">    -97.43638504 </i>
   </energy>
  </scstep>
  <scstep>
   <time name="dav">    6.47    6.58</time>
   <time name="total">    6.47    6.58</time>
   <energy>
    <i name="e_fr_energy">    -97.47303261 </i>
    <i name="e_wo_entrp">    -97.46936290 </i>
    <i name="e_0_energy">    -97.47119775 </i>
   </energy>
  </scstep>
  <scstep>
   <time name="dav">    7.80    7.88</time>
   <time name="total">    7.90    7.99</time>
   <energy>
    <i name="e_fr_energy">    -97.47342460 </i>
    <i name="e_wo_entrp">    -97.46975484 </i>
    <i name="e_0_energy">    -97.47158972 </i>
   </energy>
  </scstep>
  <scstep>
   <time name="dav">    7.72    7.82</time>
   <time name="total">    7.86    7.97</time>
   <energy>
    <i name="e_fr_energy">    -92.18942375 </i>
    <i name="e_wo_entrp">    -92.18595525 </i>
    <i name="e_0_energy">    -92.18768950 </i>
   </energy>
  </scstep>
  <scstep>
   <time name="dav">    8.02    8.38</time>
   <time name="total">    8.14    8.50</time>
   <energy>
    <i name="e_fr_energy">    -90.57274353 </i>
    <i name="e_wo_entrp">    -90.56958239 </i>
    <i name="e_0_energy">    -90.57116296 </i>
   </energy>
  </scstep>
  <scstep>
   <time name="dav">    5.98    6.09</time>
   <time name="total">    6.08    6.20</time>
   <energy>
    <i name="e_fr_energy">    -90.58533075 </i>
    <i name="e_wo_entrp">    -90.58214348 </i>
    <i name="e_0_energy">    -90.58373712 </i>
   </energy>
  </scstep>
  <scstep>
   <time name="dav">    7.51    7.64</time>
   <time name="total">    7.61    7.75</time>
   <energy>
    <i name="e_fr_energy">    -90.59953660 </i>
    <i name="e_wo_entrp">    -90.59626855 </i>
    <i name="e_0_energy">    -90.59790258 </i>
   </energy>
  </scstep>
  <scstep>
   <time name="dav">    6.13    6.31</time>
   <time name="total">    6.24    6.42</time>
   <energy>
    <i name="e_fr_energy">    -90.60356352 </i>
    <i name="e_wo_entrp">    -90.60033987 </i>
    <i name="e_0_energy">    -90.60195170 </i>
   </energy>
  </scstep>
  <scstep>
   <time name="dav">    6.83    6.93</time>
   <time name="total">    6.94    7.03</time>
   <energy>
    <i name="e_fr_energy">    -90.60463395 </i>
    <i name="e_wo_entrp">    -90.60142042 </i>
    <i name="e_0_energy">    -90.60302719 </i>
   </energy>
  </scstep>
  <scstep>
   <time name="dav">    6.61    6.76</time>
   <time name="total">    6.72    6.87</time>
   <energy>
    <i name="e_fr_energy">    -90.60474676 </i>
    <i name="e_wo_entrp">    -90.60152731 </i>
    <i name="e_0_energy">    -90.60313704 </i>
   </energy>
  </scstep>
  <scstep>
   <time name="dav">    7.30    7.64</time>
   <time name="total">    7.40    7.75</time>
   <energy>
    <i name="e_fr_energy">    -90.60475164 </i>
    <i name="e_wo_entrp">    -90.60153205 </i>
    <i name="e_0_energy">    -90.60314185 </i>
   </energy>
  </scstep>
  <scstep>
   <time name="dav">    6.55    6.61</time>
   <time name="total">    6.57    6.62</time>
   <energy>
    <i name="alphaZ">     93.40045152 </i>
    <i name="ewald">   -793.38642165 </i>
    <i name="hartreedc">   -349.17569823 </i>
    <i name="XCdc">    101.33046449 </i>
    <i name="pawpsdc">   3677.44048108 </i>
    <i name="pawaedc">  -3666.60200142 </i>
    <i name="eentropy">     -0.00321972 </i>
    <i name="bandstr">   -149.98321892 </i>
    <i name="atom">    996.37441054 </i>
    <i name="e_fr_energy">    -90.60475231 </i>
    <i name="e_wo_entrp">    -90.60153259 </i>
    <i name="e_0_energy">    -90.60314245 </i>
   </energy>
  </scstep>
  <structure>
   <crystal>
    <varray name="basis" >
     <v>       5.71409100       0.00000000       0.00000000 </v>
     <v>       0.00000000       4.06004370       0.00000000 </v>
     <v>       0.00000000       0.00000000       6.22281260 </v>
    </varray>
    <i name="volume">    144.36588681 </i>
    <varray name="rec_basis" >
     <v>       0.17500596       0.00000000       0.00000000 </v>
     <v>       0.00000000       0.24630277       0.00000000 </v>
     <v>       0.00000000       0.00000000       0.16069904 </v>
    </varray>
   </crystal>
   <varray name="positions" >
    <v>       0.52123000       0.50000000       0.63796000 </v>
    <v>       0.47877000       0.50000000       0.36204000 </v>
    <v>       0.97877000       0.50000000       0.63796000 </v>
    <v>       0.02123000       0.50000000       0.36204000 </v>
    <v>       0.60090000       0.50000000       0.89991000 </v>
    <v>       0.39910000       0.50000000       0.10009000 </v>
    <v>       0.89910000       0.50000000       0.89991000 </v>
    <v>       0.10090000       0.50000000       0.10009000 </v>
    <v>       0.75000000       0.79171000       0.72973000 </v>
    <v>       0.25000000       0.20829000       0.27027000 </v>
    <v>       0.75000000       0.20829000       0.72973000 </v>
    <v>       0.25000000       0.79171000       0.27027000 </v>
    <v>       0.25000000       0.50000000       0.52367000 </v>
    <v>       0.75000000       0.50000000       0.47633000 </v>
   </varray>
  </structure>
  <varray name="forces" >
   <v>       0.04453643       0.00000000       0.03263382 </v>
   <v>      -0.04453643       0.00000000      -0.03263382 </v>
   <v>      -0.04453643      -0.00000000       0.03263382 </v>
   <v>       0.04453643      -0.00000000      -0.03263382 </v>
   <v>      -0.79571583      -0.00000000       0.22676498 </v>
   <v>       0.79571583       0.00000000      -0.22676498 </v>
   <v>       0.79571583       0.00000000       0.22676498 </v>
   <v>      -0.79571583      -0.00000000      -0.22676498 </v>
   <v>       0.00000000       0.05810022      -0.06849533 </v>
   <v>       0.00000000      -0.05810022       0.06849533 </v>
   <v>       0.00000000      -0.05810022      -0.06849533 </v>
   <v>       0.00000000       0.05810022       0.06849533 </v>
   <v>       0.00000000      -0.00000000       0.01824153 </v>
   <v>       0.00000000       0.00000000      -0.01824153 </v>
  </varray>
  <varray name="stress" >
   <v>      -3.44895512       0.00000000       0.00000000 </v>
   <v>       0.00000000      -8.67759523       0.00000000 </v>
   <v>       0.00000000       0.00000000     -22.44050492 </v>
  </varray>
  <energy>
   <i name="e_fr_energy">    -90.60475231 </i>
   <i name="e_wo_entrp">    -90.60153259 </i>
   <i name="e_0_energy">    -90.60314245 </i>
  </energy>
  <time name="totalsc">  103.25  105.28</time>
  <eigenvalues>
   <array>
    <dimension dim="1">band</dimension>
    <dimension dim="2">kpoint</dimension>
    <dimension dim="3">spin</dimension>
    <field>eigene</field>
    <field>occ</field>
    <set>
     <set comment="spin 1">
      <set comment="kpoint 1">
       <r>  -12.7145    1.0000 </r>
       <r>  -11.5736    1.0000 </r>
       <r>   -8.6707    1.0000 </r>
       <r>   -8.4353    1.0000 </r>
       <r>   -6.0887    1.0000 </r>
       <r>   -5.1560    1.0000 </r>
       <r>   -4.6944    1.0000 </r>
       <r>   -4.2908    1.0000 </r>
       <r>   -4.0566    1.0000 </r>
       <r>   -3.5710    1.0000 </r>
       <r>   -2.6331    1.0000 </r>
       <r>   -2.3650    1.0000 </r>
       <r>   -1.8763    1.0000 </r>
       <r>   -1.1346    1.0000 </r>
       <r>   -0.1051    1.0000 </r>
       <r>   -0.0745    1.0000 </r>
       <r>    0.1093    1.0000 </r>
       <r>    0.1279    1.0000 </r>
       <r>    0.5188    1.0000 </r>
       <r>    1.9700    0.0000 </r>
       <r>    2.0318    0.0000 </r>
       <r>    2.1600    0.0000 </r>
       <r>    5.3879    0.0000 </r>
       <r>    5.6777    0.0000 </r>
       <r>    5.7623    0.0000 </r>
       <r>    5.8886    0.0000 </r>
       <r>    6.7344    0.0000 </r>
       <r>    7.4687    0.0000 </r>
       <r>    7.7930    0.0000 </r>
       <r>    8.4319    0.0000 </r>
       <r>    8.6812    0.0000 </r>
       <r>    8.8417    0.0000 </r>
       <r>    8.9144    0.0000 </r>
       <r>   10.0361    0.0000 </r>
       <r>   11.1029    0.0000 </r>
       <r>   11.2186    0.0000 </r>
       <r>   11.5436    0.0000 </r>
       <r>   11.6704    0.0000 </r>
       <r>   11.8421    0.0000 </r>
       <r>   12.3114    0.0000 </r>
       <r>   12.7447    0.0000 </r>
       <r>   13.3252    0.0000 </r>
       <r>   13.3528    0.0000 </r>
       <r>   15.2241    0.0000 </r>
       <r>   15.4249    0.0000 </r>
       <r>   15.9063    0.0000 </r>
       <r>   16.1957    0.0000 </r>
       <r>   16.2132    0.0000 </r>
      </set>
      <set comment="kpoint 2">
       <r>  -12.6709    1.0000 </r>
       <r>  -11.6475    1.0000 </r>
       <r>   -8.6494    1.0000 </r>
       <r>   -8.4238    1.0000 </r>
       <r>   -6.0211    1.0000 </r>
       <r>   -5.4930    1.0000 </r>
       <r>   -4.8142    1.0000 </r>
       <r>   -4.0311    1.0000 </r>
       <r>   -3.8149    1.0000 </r>
       <r>   -3.2366    1.0000 </r>
       <r>   -2.7026    1.0000 </r>
       <r>   -2.3455    1.0000 </r>
       <r>   -1.9528    1.0000 </r>
       <r>   -1.4405    1.0000 </r>
       <r>   -0.0654    1.0000 </r>
       <r>   -0.0633    1.0000 </r>
       <r>    0.0525    1.0000 </r>
       <r>    0.1507    1.0000 </r>
       <r>    0.4234    1.0000 </r>
       <r>    1.8843    0.0697 </r>
       <r>    1.9543    0.0003 </r>
       <r>    2.0399    0.0000 </r>
       <r>    5.4779    0.0000 </r>
       <r>    5.6804    0.0000 </r>
       <r>    5.7967    0.0000 </r>
       <r>    6.2305    0.0000 </r>
       <r>    6.6501    0.0000 </r>
       <r>    7.1096    0.0000 </r>
       <r>    7.9960    0.0000 </r>
       <r>    8.5685    0.0000 </r>
       <r>    8.9273    0.0000 </r>
       <r>    9.0135    0.0000 </r>
       <r>    9.0972    0.0000 </r>
       <r>   10.1372    0.0000 </r>
       <r>   10.8298    0.0000 </r>
       <r>   11.0149    0.0000 </r>
       <r>   11.1744    0.0000 </r>
       <r>   11.5895    0.0000 </r>
       <r>   12.0586    0.0000 </r>
       <r>   12.3972    0.0000 </r>
       <r>   12.9929    0.0000 </r>
       <r>   13.0029    0.0000 </r>
       <r>   13.8780    0.0000 </r>
       <r>   14.7176    0.0000 </r>
       <r>   15.6109    0.0000 </r>
       <r>   15.6989    0.0000 </r>
       <r>   16.0784    0.0000 </r>
       <r>   16.3677    0.0000 </r>
      </set>
      <set comment="kpoint 3">
       <r>  -12.5854    1.0000 </r>
       <r>  -11.7805    1.0000 </r>
       <r>   -8.6056    1.0000 </r>
       <r>   -8.4090    1.0000 </r>
       <r>   -5.9991    1.0000 </r>
       <r>   -5.8176    1.0000 </r>
       <r>   -4.7674    1.0000 </r>
       <r>   -3.9059    1.0000 </r>
       <r>   -3.3052    1.0000 </r>
       <r>   -2.8688    1.0000 </r>
       <r>   -2.7482    1.0000 </r>
       <r>   -2.3063    1.0000 </r>
       <r>   -2.0608    1.0000 </r>
       <r>   -1.9433    1.0000 </r>
       <r>   -0.2699    1.0000 </r>
       <r>   -0.0269    1.0000 </r>
       <r>    0.0990    1.0000 </r>
       <r>    0.1197    1.0000 </r>
       <r>    0.3934    1.0000 </r>
       <r>    1.7364    0.9966 </r>
       <r>    1.8130    0.7042 </r>
       <r>    1.8224    0.6075 </r>
       <r>    5.5996    0.0000 </r>
       <r>    5.6367    0.0000 </r>
       <r>    6.1052    0.0000 </r>
       <r>    6.5257    0.0000 </r>
       <r>    6.6856    0.0000 </r>
       <r>    6.8561    0.0000 </r>
       <r>    8.1427    0.0000 </r>
       <r>    8.7179    0.0000 </r>
       <r>    8.8811    0.0000 </r>
       <r>    9.4585    0.0000 </r>
       <r>    9.5433    0.0000 </r>
       <r>   10.1740    0.0000 </r>
       <r>   10.3718    0.0000 </r>
       <r>   10.5094    0.0000 </r>
       <r>   11.2895    0.0000 </r>
       <r>   11.7347    0.0000 </r>
       <r>   12.2927    0.0000 </r>
       <r>   12.4384    0.0000 </r>
       <r>   12.6904    0.0000 </r>
       <r>   12.7880    0.0000 </r>
       <r>   14.5000    0.0000 </r>
       <r>   14.7749    0.0000 </r>
       <r>   15.1043    0.0000 </r>
       <r>   15.8391    0.0000 </r>
       <r>   15.8629    0.0000 </r>
       <r>   16.1372    0.0000 </r>
      </set>
      <set comment="kpoint 4">
       <r>  -12.4622    1.0000 </r>
       <r>  -11.9499    1.0000 </r>
       <r>   -8.5438    1.0000 </r>
       <r>   -8.4055    1.0000 </r>
       <r>   -6.0778    1.0000 </r>
       <r>   -6.0499    1.0000 </r>
       <r>   -4.4414    1.0000 </r>
       <r>   -3.7388    1.0000 </r>
       <r>   -3.0607    1.0000 </r>
       <r>   -2.9236    1.0000 </r>
       <r>   -2.4755    1.0000 </r>
       <r>   -2.2893    1.0000 </r>
       <r>   -2.1903    1.0000 </r>
       <r>   -2.1588    1.0000 </r>
       <r>   -0.5690    1.0000 </r>
       <r>   -0.2939    1.0000 </r>
       <r>    0.1348    1.0000 </r>
       <r>    0.2093    1.0000 </r>
       <r>    0.5656    1.0000 </r>
       <r>    1.4778    1.0000 </r>
       <r>    1.6160    1.0000 </r>
       <r>    1.6752    1.0000 </r>
       <r>    5.6228    0.0000 </r>
       <r>    5.6840    0.0000 </r>
       <r>    6.4265    0.0000 </r>
       <r>    6.6002    0.0000 </r>
       <r>    6.6253    0.0000 </r>
       <r>    7.3291    0.0000 </r>
       <r>    8.2642    0.0000 </r>
       <r>    8.5937    0.0000 </r>
       <r>    8.7002    0.0000 </r>
       <r>    9.4343    0.0000 </r>
       <r>    9.9403    0.0000 </r>
       <r>   10.0150    0.0000 </r>
       <r>   10.2837    0.0000 </r>
       <r>   11.0175    0.0000 </r>
       <r>   11.3048    0.0000 </r>
       <r>   11.8204    0.0000 </r>
       <r>   12.0871    0.0000 </r>
       <r>   12.1565    0.0000 </r>
       <r>   12.4171    0.0000 </r>
       <r>   13.1495    0.0000 </r>
       <r>   14.5985    0.0000 </r>
       <r>   14.8478    0.0000 </r>
       <r>   15.1124    0.0000 </r>
       <r>   15.2421    0.0000 </r>
       <r>   15.4333    0.0000 </r>
       <r>   16.2355    0.0000 </r>
      </set>
      <set comment="kpoint 5">
       <r>  -12.3077    1.0000 </r>
       <r>  -12.1321    1.0000 </r>
       <r>   -8.4781    1.0000 </r>
       <r>   -8.4277    1.0000 </r>
       <r>   -6.1640    1.0000 </r>
       <r>   -6.1610    1.0000 </r>
       <r>   -3.9283    1.0000 </r>
       <r>   -3.5319    1.0000 </r>
       <r>   -3.3311    1.0000 </r>
       <r>   -3.2968    1.0000 </r>
       <r>   -2.3902    1.0000 </r>
       <r>   -2.2664    1.0000 </r>
       <r>   -2.0044    1.0000 </r>
       <r>   -1.9461    1.0000 </r>
       <r>   -0.7897    1.0000 </r>
       <r>   -0.6529    1.0000 </r>
       <r>    0.2172    1.0000 </r>
       <r>    0.2502    1.0000 </r>
       <r>    0.8250    1.0000 </r>
       <r>    1.1408    1.0000 </r>
       <r>    1.5358    1.0000 </r>
       <r>    1.5625    1.0000 </r>
       <r>    5.6528    0.0000 </r>
       <r>    5.6928    0.0000 </r>
       <r>    6.4071    0.0000 </r>
       <r>    6.4718    0.0000 </r>
       <r>    7.2891    0.0000 </r>
       <r>    7.9845    0.0000 </r>
       <r>    8.0098    0.0000 </r>
       <r>    8.3792    0.0000 </r>
       <r>    8.5145    0.0000 </r>
       <r>    8.6945    0.0000 </r>
       <r>   10.3979    0.0000 </r>
       <r>   10.4088    0.0000 </r>
       <r>   10.6439    0.0000 </r>
       <r>   11.0998    0.0000 </r>
       <r>   11.2833    0.0000 </r>
       <r>   11.4695    0.0000 </r>
       <r>   11.8001    0.0000 </r>
       <r>   12.3646    0.0000 </r>
       <r>   12.6114    0.0000 </r>
       <r>   13.1416    0.0000 </r>
       <r>   14.4779    0.0000 </r>
       <r>   14.6009    0.0000 </r>
       <r>   14.7473    0.0000 </r>
       <r>   14.8083    0.0000 </r>
       <r>   15.9508    0.0000 </r>
       <r>   16.2973    0.0000 </r>
      </set>
      <set comment="kpoint 6">
       <r>  -12.6907    1.0000 </r>
       <r>  -11.5521    1.0000 </r>
       <r>   -8.6522    1.0000 </r>
       <r>   -8.4124    1.0000 </r>
       <r>   -6.0623    1.0000 </r>
       <r>   -5.1224    1.0000 </r>
       <r>   -4.6727    1.0000 </r>
       <r>   -4.5903    1.0000 </r>
       <r>   -4.1996    1.0000 </r>
       <r>   -3.5485    1.0000 </r>
       <r>   -3.3237    1.0000 </r>
       <r>   -1.8341    1.0000 </r>
       <r>   -1.1300    1.0000 </r>
       <r>   -1.0801    1.0000 </r>
       <r>   -0.3371    1.0000 </r>
       <r>   -0.3092    1.0000 </r>
       <r>    0.1229    1.0000 </r>
       <r>    0.1981    1.0000 </r>
       <r>    0.5964    1.0000 </r>
       <r>    1.7045    0.9998 </r>
       <r>    1.7831    0.9167 </r>
       <r>    2.2118    0.0000 </r>
       <r>    5.5099    0.0000 </r>
       <r>    5.6348    0.0000 </r>
       <r>    5.6734    0.0000 </r>
       <r>    5.9265    0.0000 </r>
       <r>    7.0170    0.0000 </r>
       <r>    7.7531    0.0000 </r>
       <r>    7.9817    0.0000 </r>
       <r>    8.0999    0.0000 </r>
       <r>    8.6867    0.0000 </r>
       <r>    8.9689    0.0000 </r>
       <r>    9.0331    0.0000 </r>
       <r>   10.4816    0.0000 </r>
       <r>   11.1524    0.0000 </r>
       <r>   11.3128    0.0000 </r>
       <r>   11.4786    0.0000 </r>
       <r>   11.7724    0.0000 </r>
       <r>   11.9533    0.0000 </r>
       <r>   12.5874    0.0000 </r>
       <r>   12.7470    0.0000 </r>
       <r>   13.0673    0.0000 </r>
       <r>   13.0691    0.0000 </r>
       <r>   15.1838    0.0000 </r>
       <r>   15.2276    0.0000 </r>
       <r>   15.7098    0.0000 </r>
       <r>   15.7182    0.0000 </r>
       <r>   16.0719    0.0000 </r>
      </set>
      <set comment="kpoint 7">
       <r>  -12.6471    1.0000 </r>
       <r>  -11.6258    1.0000 </r>
       <r>   -8.6308    1.0000 </r>
       <r>   -8.4013    1.0000 </r>
       <r>   -5.9929    1.0000 </r>
       <r>   -5.4630    1.0000 </r>
       <r>   -4.7945    1.0000 </r>
       <r>   -4.5107    1.0000 </r>
       <r>   -3.7774    1.0000 </r>
       <r>   -3.4031    1.0000 </r>
       <r>   -3.1992    1.0000 </r>
       <r>   -1.8127    1.0000 </r>
       <r>   -1.4352    1.0000 </r>
       <r>   -1.1959    1.0000 </r>
       <r>   -0.2989    1.0000 </r>
       <r>   -0.2338    1.0000 </r>
       <r>    0.0896    1.0000 </r>
       <r>    0.1723    1.0000 </r>
       <r>    0.4935    1.0000 </r>
       <r>    1.6246    1.0000 </r>
       <r>    1.7071    0.9998 </r>
       <r>    2.0820    0.0000 </r>
       <r>    5.5863    0.0000 </r>
       <r>    5.7347    0.0000 </r>
       <r>    5.8555    0.0000 </r>
       <r>    6.0391    0.0000 </r>
       <r>    6.9346    0.0000 </r>
       <r>    7.4293    0.0000 </r>
       <r>    8.1276    0.0000 </r>
       <r>    8.2641    0.0000 </r>
       <r>    8.9979    0.0000 </r>
       <r>    9.0449    0.0000 </r>
       <r>    9.3045    0.0000 </r>
       <r>   10.3982    0.0000 </r>
       <r>   10.7632    0.0000 </r>
       <r>   10.9686    0.0000 </r>
       <r>   11.3664    0.0000 </r>
       <r>   11.7622    0.0000 </r>
       <r>   12.1718    0.0000 </r>
       <r>   12.6327    0.0000 </r>
       <r>   12.7497    0.0000 </r>
       <r>   13.0266    0.0000 </r>
       <r>   13.5994    0.0000 </r>
       <r>   14.8015    0.0000 </r>
       <r>   15.2540    0.0000 </r>
       <r>   15.6179    0.0000 </r>
       <r>   15.6472    0.0000 </r>
       <r>   16.2517    0.0000 </r>
      </set>
      <set comment="kpoint 8">
       <r>  -12.5619    1.0000 </r>
       <r>  -11.7586    1.0000 </r>
       <r>   -8.5867    1.0000 </r>
       <r>   -8.3872    1.0000 </r>
       <r>   -5.9682    1.0000 </r>
       <r>   -5.7874    1.0000 </r>
       <r>   -4.7509    1.0000 </r>
       <r>   -4.4038    1.0000 </r>
       <r>   -3.5236    1.0000 </r>
       <r>   -3.2539    1.0000 </r>
       <r>   -2.7355    1.0000 </r>
       <r>   -1.9387    1.0000 </r>
       <r>   -1.7690    1.0000 </r>
       <r>   -1.3559    1.0000 </r>
       <r>   -0.2716    1.0000 </r>
       <r>   -0.2541    1.0000 </r>
       <r>    0.0137    1.0000 </r>
       <r>    0.1594    1.0000 </r>
       <r>    0.4176    1.0000 </r>
       <r>    1.4905    1.0000 </r>
       <r>    1.5778    1.0000 </r>
       <r>    1.8356    0.4600 </r>
       <r>    5.7778    0.0000 </r>
       <r>    5.8633    0.0000 </r>
       <r>    5.9426    0.0000 </r>
       <r>    6.4840    0.0000 </r>
       <r>    6.8155    0.0000 </r>
       <r>    7.2032    0.0000 </r>
       <r>    8.3347    0.0000 </r>
       <r>    8.3940    0.0000 </r>
       <r>    8.9772    0.0000 </r>
       <r>    9.4975    0.0000 </r>
       <r>    9.7667    0.0000 </r>
       <r>   10.0200    0.0000 </r>
       <r>   10.2424    0.0000 </r>
       <r>   10.7037    0.0000 </r>
       <r>   11.4268    0.0000 </r>
       <r>   11.9980    0.0000 </r>
       <r>   12.1863    0.0000 </r>
       <r>   12.4534    0.0000 </r>
       <r>   12.8276    0.0000 </r>
       <r>   12.9170    0.0000 </r>
       <r>   14.1740    0.0000 </r>
       <r>   14.9378    0.0000 </r>
       <r>   15.0268    0.0000 </r>
       <r>   15.5030    0.0000 </r>
       <r>   15.5736    0.0000 </r>
       <r>   16.2725    0.0000 </r>
      </set>
      <set comment="kpoint 9">
       <r>  -12.4389    1.0000 </r>
       <r>  -11.9276    1.0000 </r>
       <r>   -8.5247    1.0000 </r>
       <r>   -8.3846    1.0000 </r>
       <r>   -6.0457    1.0000 </r>
       <r>   -6.0190    1.0000 </r>
       <r>   -4.4271    1.0000 </r>
       <r>   -4.2584    1.0000 </r>
       <r>   -3.6928    1.0000 </r>
       <r>   -2.8772    1.0000 </r>
       <r>   -2.3951    1.0000 </r>
       <r>   -2.2545    1.0000 </r>
       <r>   -1.7056    1.0000 </r>
       <r>   -1.5166    1.0000 </r>
       <r>   -0.5317    1.0000 </r>
       <r>   -0.3528    1.0000 </r>
       <r>    0.0439    1.0000 </r>
       <r>    0.0760    1.0000 </r>
       <r>    0.5761    1.0000 </r>
       <r>    1.3513    1.0000 </r>
       <r>    1.4335    1.0000 </r>
       <r>    1.5140    1.0000 </r>
       <r>    5.7949    0.0000 </r>
       <r>    5.9359    0.0000 </r>
       <r>    6.4462    0.0000 </r>
       <r>    6.7282    0.0000 </r>
       <r>    6.8023    0.0000 </r>
       <r>    7.2913    0.0000 </r>
       <r>    8.3278    0.0000 </r>
       <r>    8.4997    0.0000 </r>
       <r>    8.8281    0.0000 </r>
       <r>    9.2723    0.0000 </r>
       <r>    9.9618    0.0000 </r>
       <r>    9.9830    0.0000 </r>
       <r>   10.3352    0.0000 </r>
       <r>   11.0930    0.0000 </r>
       <r>   11.2563    0.0000 </r>
       <r>   11.7250    0.0000 </r>
       <r>   12.1575    0.0000 </r>
       <r>   12.4403    0.0000 </r>
       <r>   12.6148    0.0000 </r>
       <r>   13.3486    0.0000 </r>
       <r>   14.6340    0.0000 </r>
       <r>   14.6448    0.0000 </r>
       <r>   15.0130    0.0000 </r>
       <r>   15.1751    0.0000 </r>
       <r>   15.5061    0.0000 </r>
       <r>   16.2504    0.0000 </r>
      </set>
      <set comment="kpoint 10">
       <r>  -12.2847    1.0000 </r>
       <r>  -12.1095    1.0000 </r>
       <r>   -8.4586    1.0000 </r>
       <r>   -8.4076    1.0000 </r>
       <r>   -6.1323    1.0000 </r>
       <r>   -6.1289    1.0000 </r>
       <r>   -4.0815    1.0000 </r>
       <r>   -3.9206    1.0000 </r>
       <r>   -3.8806    1.0000 </r>
       <r>   -3.3185    1.0000 </r>
       <r>   -2.1388    1.0000 </r>
       <r>   -1.9486    1.0000 </r>
       <r>   -1.6376    1.0000 </r>
       <r>   -1.6300    1.0000 </r>
       <r>   -0.7522    1.0000 </r>
       <r>   -0.6486    1.0000 </r>
       <r>    0.0790    1.0000 </r>
       <r>    0.1099    1.0000 </r>
       <r>    0.8343    1.0000 </r>
       <r>    1.1473    1.0000 </r>
       <r>    1.2985    1.0000 </r>
       <r>    1.3221    1.0000 </r>
       <r>    5.8478    0.0000 </r>
       <r>    5.9160    0.0000 </r>
       <r>    6.7193    0.0000 </r>
       <r>    6.7703    0.0000 </r>
       <r>    7.1088    0.0000 </r>
       <r>    7.8147    0.0000 </r>
       <r>    7.8554    0.0000 </r>
       <r>    8.5314    0.0000 </r>
       <r>    8.5901    0.0000 </r>
       <r>    8.7006    0.0000 </r>
       <r>   10.2088    0.0000 </r>
       <r>   10.4589    0.0000 </r>
       <r>   10.6990    0.0000 </r>
       <r>   10.7924    0.0000 </r>
       <r>   11.4308    0.0000 </r>
       <r>   11.5276    0.0000 </r>
       <r>   11.8766    0.0000 </r>
       <r>   12.5296    0.0000 </r>
       <r>   12.9159    0.0000 </r>
       <r>   13.3696    0.0000 </r>
       <r>   14.4204    0.0000 </r>
       <r>   14.6064    0.0000 </r>
       <r>   14.7075    0.0000 </r>
       <r>   14.9255    0.0000 </r>
       <r>   15.9777    0.0000 </r>
       <r>   16.2728    0.0000 </r>
      </set>
      <set comment="kpoint 11">
       <r>  -12.6467    1.0000 </r>
       <r>  -11.5124    1.0000 </r>
       <r>   -8.6184    1.0000 </r>
       <r>   -8.3703    1.0000 </r>
       <r>   -6.0136    1.0000 </r>
       <r>   -5.1463    1.0000 </r>
       <r>   -5.0330    1.0000 </r>
       <r>   -4.6315    1.0000 </r>
       <r>   -4.1826    1.0000 </r>
       <r>   -3.9436    1.0000 </r>
       <r>   -3.4958    1.0000 </r>
       <r>   -1.2428    1.0000 </r>
       <r>   -1.1209    1.0000 </r>
       <r>   -0.6773    1.0000 </r>
       <r>   -0.5758    1.0000 </r>
       <r>   -0.2248    1.0000 </r>
       <r>    0.1438    1.0000 </r>
       <r>    0.2498    1.0000 </r>
       <r>    0.6739    1.0000 </r>
       <r>    1.3253    1.0000 </r>
       <r>    1.3874    1.0000 </r>
       <r>    2.2492    0.0000 </r>
       <r>    5.2256    0.0000 </r>
       <r>    5.3877    0.0000 </r>
       <r>    6.0443    0.0000 </r>
       <r>    6.1115    0.0000 </r>
       <r>    7.4459    0.0000 </r>
       <r>    7.5350    0.0000 </r>
       <r>    8.2310    0.0000 </r>
       <r>    8.6197    0.0000 </r>
       <r>    8.7795    0.0000 </r>
       <r>    9.1085    0.0000 </r>
       <r>    9.2569    0.0000 </r>
       <r>   10.7755    0.0000 </r>
       <r>   11.2086    0.0000 </r>
       <r>   11.4577    0.0000 </r>
       <r>   11.6069    0.0000 </r>
       <r>   11.9708    0.0000 </r>
       <r>   12.1689    0.0000 </r>
       <r>   12.6323    0.0000 </r>
       <r>   12.6436    0.0000 </r>
       <r>   12.8736    0.0000 </r>
       <r>   13.1198    0.0000 </r>
       <r>   14.5198    0.0000 </r>
       <r>   15.0168    0.0000 </r>
       <r>   15.1888    0.0000 </r>
       <r>   15.3047    0.0000 </r>
       <r>   15.8089    0.0000 </r>
      </set>
      <set comment="kpoint 12">
       <r>  -12.6033    1.0000 </r>
       <r>  -11.5858    1.0000 </r>
       <r>   -8.5966    1.0000 </r>
       <r>   -8.3598    1.0000 </r>
       <r>   -5.9408    1.0000 </r>
       <r>   -5.4142    1.0000 </r>
       <r>   -5.0513    1.0000 </r>
       <r>   -4.7573    1.0000 </r>
       <r>   -4.0087    1.0000 </r>
       <r>   -3.7361    1.0000 </r>
       <r>   -3.1599    1.0000 </r>
       <r>   -1.4268    1.0000 </r>
       <r>   -1.2172    1.0000 </r>
       <r>   -0.7862    1.0000 </r>
       <r>   -0.5381    1.0000 </r>
       <r>   -0.1426    1.0000 </r>
       <r>    0.1212    1.0000 </r>
       <r>    0.1972    1.0000 </r>
       <r>    0.5612    1.0000 </r>
       <r>    1.2468    1.0000 </r>
       <r>    1.3181    1.0000 </r>
       <r>    2.1145    0.0000 </r>
       <r>    5.3062    0.0000 </r>
       <r>    5.7299    0.0000 </r>
       <r>    6.0576    0.0000 </r>
       <r>    6.1605    0.0000 </r>
       <r>    7.3659    0.0000 </r>
       <r>    7.6915    0.0000 </r>
       <r>    7.9636    0.0000 </r>
       <r>    8.7136    0.0000 </r>
       <r>    9.1244    0.0000 </r>
       <r>    9.1788    0.0000 </r>
       <r>    9.5390    0.0000 </r>
       <r>   10.4114    0.0000 </r>
       <r>   10.6698    0.0000 </r>
       <r>   11.1636    0.0000 </r>
       <r>   11.6246    0.0000 </r>
       <r>   12.0858    0.0000 </r>
       <r>   12.3171    0.0000 </r>
       <r>   12.3952    0.0000 </r>
       <r>   13.0375    0.0000 </r>
       <r>   13.1644    0.0000 </r>
       <r>   13.3097    0.0000 </r>
       <r>   14.5346    0.0000 </r>
       <r>   14.6826    0.0000 </r>
       <r>   15.1174    0.0000 </r>
       <r>   15.3692    0.0000 </r>
       <r>   15.8469    0.0000 </r>
      </set>
      <set comment="kpoint 13">
       <r>  -12.5184    1.0000 </r>
       <r>  -11.7182    1.0000 </r>
       <r>   -8.5521    1.0000 </r>
       <r>   -8.3470    1.0000 </r>
       <r>   -5.9107    1.0000 </r>
       <r>   -5.7329    1.0000 </r>
       <r>   -4.9600    1.0000 </r>
       <r>   -4.7203    1.0000 </r>
       <r>   -4.1304    1.0000 </r>
       <r>   -3.2050    1.0000 </r>
       <r>   -2.6919    1.0000 </r>
       <r>   -1.9225    1.0000 </r>
       <r>   -1.1771    1.0000 </r>
       <r>   -0.9260    1.0000 </r>
       <r>   -0.4861    1.0000 </r>
       <r>   -0.1398    1.0000 </r>
       <r>   -0.0287    1.0000 </r>
       <r>    0.2079    1.0000 </r>
       <r>    0.4469    1.0000 </r>
       <r>    1.1162    1.0000 </r>
       <r>    1.2004    1.0000 </r>
       <r>    1.8598    0.2163 </r>
       <r>    5.6256    0.0000 </r>
       <r>    6.0128    0.0000 </r>
       <r>    6.2017    0.0000 </r>
       <r>    6.2915    0.0000 </r>
       <r>    7.2652    0.0000 </r>
       <r>    7.7766    0.0000 </r>
       <r>    7.9259    0.0000 </r>
       <r>    8.8430    0.0000 </r>
       <r>    9.1260    0.0000 </r>
       <r>    9.6073    0.0000 </r>
       <r>    9.7505    0.0000 </r>
       <r>   10.0216    0.0000 </r>
       <r>   10.1470    0.0000 </r>
       <r>   10.9436    0.0000 </r>
       <r>   11.4830    0.0000 </r>
       <r>   11.9933    0.0000 </r>
       <r>   12.3937    0.0000 </r>
       <r>   12.6967    0.0000 </r>
       <r>   12.9160    0.0000 </r>
       <r>   13.3320    0.0000 </r>
       <r>   13.8308    0.0000 </r>
       <r>   14.4484    0.0000 </r>
       <r>   14.7311    0.0000 </r>
       <r>   15.1456    0.0000 </r>
       <r>   15.3840    0.0000 </r>
       <r>   16.0579    0.0000 </r>
      </set>
      <set comment="kpoint 14">
       <r>  -12.3959    1.0000 </r>
       <r>  -11.8866    1.0000 </r>
       <r>   -8.4896    1.0000 </r>
       <r>   -8.3461    1.0000 </r>
       <r>   -5.9859    1.0000 </r>
       <r>   -5.9619    1.0000 </r>
       <r>   -4.8256    1.0000 </r>
       <r>   -4.4008    1.0000 </r>
       <r>   -4.2926    1.0000 </r>
       <r>   -2.8398    1.0000 </r>
       <r>   -2.3551    1.0000 </r>
       <r>   -2.2135    1.0000 </r>
       <r>   -1.1213    1.0000 </r>
       <r>   -1.0636    1.0000 </r>
       <r>   -0.4951    1.0000 </r>
       <r>   -0.4232    1.0000 </r>
       <r>    0.0145    1.0000 </r>
       <r>    0.0151    1.0000 </r>
       <r>    0.5934    1.0000 </r>
       <r>    0.9873    1.0000 </r>
       <r>    1.0685    1.0000 </r>
       <r>    1.5269    1.0000 </r>
       <r>    6.0255    0.0000 </r>
       <r>    6.1563    0.0000 </r>
       <r>    6.3218    0.0000 </r>
       <r>    6.7237    0.0000 </r>
       <r>    7.2120    0.0000 </r>
       <r>    7.6994    0.0000 </r>
       <r>    7.9851    0.0000 </r>
       <r>    8.9423    0.0000 </r>
       <r>    9.0054    0.0000 </r>
       <r>    9.0713    0.0000 </r>
       <r>    9.7746    0.0000 </r>
       <r>   10.0723    0.0000 </r>
       <r>   10.5966    0.0000 </r>
       <r>   10.9671    0.0000 </r>
       <r>   11.1914    0.0000 </r>
       <r>   11.8386    0.0000 </r>
       <r>   12.2191    0.0000 </r>
       <r>   12.8749    0.0000 </r>
       <r>   12.9259    0.0000 </r>
       <r>   13.6709    0.0000 </r>
       <r>   14.2395    0.0000 </r>
       <r>   14.2613    0.0000 </r>
       <r>   14.8919    0.0000 </r>
       <r>   14.9880    0.0000 </r>
       <r>   15.4679    0.0000 </r>
       <r>   16.2379    0.0000 </r>
      </set>
      <set comment="kpoint 15">
       <r>  -12.2423    1.0000 </r>
       <r>  -12.0677    1.0000 </r>
       <r>   -8.4228    1.0000 </r>
       <r>   -8.3707    1.0000 </r>
       <r>   -6.0734    1.0000 </r>
       <r>   -6.0690    1.0000 </r>
       <r>   -4.6597    1.0000 </r>
       <r>   -4.4764    1.0000 </r>
       <r>   -3.8904    1.0000 </r>
       <r>   -3.2963    1.0000 </r>
       <r>   -2.0726    1.0000 </r>
       <r>   -1.9090    1.0000 </r>
       <r>   -1.1382    1.0000 </r>
       <r>   -1.0802    1.0000 </r>
       <r>   -0.6751    1.0000 </r>
       <r>   -0.6722    1.0000 </r>
       <r>   -0.0340    1.0000 </r>
       <r>    0.0094    1.0000 </r>
       <r>    0.8499    1.0000 </r>
       <r>    0.9248    1.0000 </r>
       <r>    0.9647    1.0000 </r>
       <r>    1.1754    1.0000 </r>
       <r>    6.1177    0.0000 </r>
       <r>    6.2379    0.0000 </r>
       <r>    6.8038    0.0000 </r>
       <r>    7.1355    0.0000 </r>
       <r>    7.1920    0.0000 </r>
       <r>    7.5435    0.0000 </r>
       <r>    7.8450    0.0000 </r>
       <r>    8.3506    0.0000 </r>
       <r>    8.9971    0.0000 </r>
       <r>    9.0281    0.0000 </r>
       <r>    9.9001    0.0000 </r>
       <r>   10.3734    0.0000 </r>
       <r>   10.5946    0.0000 </r>
       <r>   10.8742    0.0000 </r>
       <r>   11.6100    0.0000 </r>
       <r>   11.6174    0.0000 </r>
       <r>   11.9937    0.0000 </r>
       <r>   12.7799    0.0000 </r>
       <r>   13.3005    0.0000 </r>
       <r>   13.6431    0.0000 </r>
       <r>   14.0946    0.0000 </r>
       <r>   14.2483    0.0000 </r>
       <r>   14.8655    0.0000 </r>
       <r>   15.0031    0.0000 </r>
       <r>   15.8471    0.0000 </r>
       <r>   16.1482    0.0000 </r>
      </set>
      <set comment="kpoint 16">
       <r>  -12.5896    1.0000 </r>
       <r>  -11.4610    1.0000 </r>
       <r>   -8.5751    1.0000 </r>
       <r>   -8.3157    1.0000 </r>
       <r>   -5.9503    1.0000 </r>
       <r>   -5.6255    1.0000 </r>
       <r>   -4.9639    1.0000 </r>
       <r>   -4.5761    1.0000 </r>
       <r>   -4.4619    1.0000 </r>
       <r>   -4.1436    1.0000 </r>
       <r>   -3.4345    1.0000 </r>
       <r>   -1.2470    1.0000 </r>
       <r>   -1.1066    1.0000 </r>
       <r>   -1.0276    1.0000 </r>
       <r>   -0.2386    1.0000 </r>
       <r>    0.1717    1.0000 </r>
       <r>    0.2922    1.0000 </r>
       <r>    0.5438    1.0000 </r>
       <r>    0.7369    1.0000 </r>
       <r>    0.9427    1.0000 </r>
       <r>    0.9565    1.0000 </r>
       <r>    2.2828    0.0000 </r>
       <r>    4.8868    0.0000 </r>
       <r>    5.0975    0.0000 </r>
       <r>    6.2698    0.0000 </r>
       <r>    6.4998    0.0000 </r>
       <r>    7.1804    0.0000 </r>
       <r>    7.8679    0.0000 </r>
       <r>    8.5870    0.0000 </r>
       <r>    8.9660    0.0000 </r>
       <r>    9.3356    0.0000 </r>
       <r>    9.4804    0.0000 </r>
       <r>    9.5378    0.0000 </r>
       <r>   10.6368    0.0000 </r>
       <r>   11.1540    0.0000 </r>
       <r>   11.8579    0.0000 </r>
       <r>   11.9185    0.0000 </r>
       <r>   12.1745    0.0000 </r>
       <r>   12.3129    0.0000 </r>
       <r>   12.3425    0.0000 </r>
       <r>   12.4507    0.0000 </r>
       <r>   12.8580    0.0000 </r>
       <r>   13.6407    0.0000 </r>
       <r>   13.7637    0.0000 </r>
       <r>   14.2748    0.0000 </r>
       <r>   14.9758    0.0000 </r>
       <r>   15.2794    0.0000 </r>
       <r>   15.6945    0.0000 </r>
      </set>
      <set comment="kpoint 17">
       <r>  -12.5465    1.0000 </r>
       <r>  -11.5342    1.0000 </r>
       <r>   -8.5529    1.0000 </r>
       <r>   -8.3062    1.0000 </r>
       <r>   -5.8730    1.0000 </r>
       <r>   -5.5907    1.0000 </r>
       <r>   -5.2981    1.0000 </r>
       <r>   -4.7081    1.0000 </r>
       <r>   -4.5263    1.0000 </r>
       <r>   -3.6832    1.0000 </r>
       <r>   -3.0990    1.0000 </r>
       <r>   -1.4200    1.0000 </r>
       <r>   -1.1914    1.0000 </r>
       <r>   -1.0430    1.0000 </r>
       <r>   -0.2395    1.0000 </r>
       <r>    0.1531    1.0000 </r>
       <r>    0.2285    1.0000 </r>
       <r>    0.5241    1.0000 </r>
       <r>    0.6155    1.0000 </r>
       <r>    0.8770    1.0000 </r>
       <r>    0.9147    1.0000 </r>
       <r>    2.1462    0.0000 </r>
       <r>    4.9828    0.0000 </r>
       <r>    5.4257    0.0000 </r>
       <r>    6.2156    0.0000 </r>
       <r>    6.6338    0.0000 </r>
       <r>    7.3150    0.0000 </r>
       <r>    7.8266    0.0000 </r>
       <r>    8.5331    0.0000 </r>
       <r>    9.0705    0.0000 </r>
       <r>    9.3079    0.0000 </r>
       <r>    9.6879    0.0000 </r>
       <r>    9.7747    0.0000 </r>
       <r>   10.2311    0.0000 </r>
       <r>   10.5981    0.0000 </r>
       <r>   11.5913    0.0000 </r>
       <r>   11.7818    0.0000 </r>
       <r>   12.1369    0.0000 </r>
       <r>   12.3587    0.0000 </r>
       <r>   12.5352    0.0000 </r>
       <r>   12.8378    0.0000 </r>
       <r>   13.2637    0.0000 </r>
       <r>   13.6485    0.0000 </r>
       <r>   13.7963    0.0000 </r>
       <r>   14.1198    0.0000 </r>
       <r>   14.9233    0.0000 </r>
       <r>   15.3087    0.0000 </r>
       <r>   15.5846    0.0000 </r>
      </set>
      <set comment="kpoint 18">
       <r>  -12.4620    1.0000 </r>
       <r>  -11.6659    1.0000 </r>
       <r>   -8.5078    1.0000 </r>
       <r>   -8.2952    1.0000 </r>
       <r>   -5.8355    1.0000 </r>
       <r>   -5.6794    1.0000 </r>
       <r>   -5.4414    1.0000 </r>
       <r>   -4.6811    1.0000 </r>
       <r>   -4.6467    1.0000 </r>
       <r>   -3.1468    1.0000 </r>
       <r>   -2.6321    1.0000 </r>
       <r>   -1.9037    1.0000 </r>
       <r>   -1.1312    1.0000 </r>
       <r>   -1.0629    1.0000 </r>
       <r>   -0.2569    1.0000 </r>
       <r>   -0.0998    1.0000 </r>
       <r>    0.2655    1.0000 </r>
       <r>    0.4593    1.0000 </r>
       <r>    0.4740    1.0000 </r>
       <r>    0.7869    1.0000 </r>
       <r>    0.8471    1.0000 </r>
       <r>    1.8879    0.0571 </r>
       <r>    5.3066    0.0000 </r>
       <r>    5.8960    0.0000 </r>
       <r>    6.1879    0.0000 </r>
       <r>    6.7485    0.0000 </r>
       <r>    7.4807    0.0000 </r>
       <r>    7.8512    0.0000 </r>
       <r>    8.4663    0.0000 </r>
       <r>    9.2537    0.0000 </r>
       <r>    9.2855    0.0000 </r>
       <r>    9.4936    0.0000 </r>
       <r>    9.9362    0.0000 </r>
       <r>    9.9915    0.0000 </r>
       <r>   10.4439    0.0000 </r>
       <r>   11.2710    0.0000 </r>
       <r>   11.2891    0.0000 </r>
       <r>   12.1320    0.0000 </r>
       <r>   12.6115    0.0000 </r>
       <r>   12.8459    0.0000 </r>
       <r>   13.0588    0.0000 </r>
       <r>   13.3898    0.0000 </r>
       <r>   13.6210    0.0000 </r>
       <r>   13.8865    0.0000 </r>
       <r>   14.2550    0.0000 </r>
       <r>   15.0153    0.0000 </r>
       <r>   15.2292    0.0000 </r>
       <r>   15.8510    0.0000 </r>
      </set>
      <set comment="kpoint 19">
       <r>  -12.3402    1.0000 </r>
       <r>  -11.8335    1.0000 </r>
       <r>   -8.4446    1.0000 </r>
       <r>   -8.2966    1.0000 </r>
       <r>   -5.9074    1.0000 </r>
       <r>   -5.8898    1.0000 </r>
       <r>   -5.3277    1.0000 </r>
       <r>   -4.8086    1.0000 </r>
       <r>   -4.3656    1.0000 </r>
       <r>   -2.7959    1.0000 </r>
       <r>   -2.3132    1.0000 </r>
       <r>   -2.1580    1.0000 </r>
       <r>   -1.0734    1.0000 </r>
       <r>   -1.0484    1.0000 </r>
       <r>   -0.4218    1.0000 </r>
       <r>   -0.3729    1.0000 </r>
       <r>    0.1050    1.0000 </r>
       <r>    0.3325    1.0000 </r>
       <r>    0.6131    1.0000 </r>
       <r>    0.7289    1.0000 </r>
       <r>    0.7798    1.0000 </r>
       <r>    1.5512    1.0000 </r>
       <r>    5.8300    0.0000 </r>
       <r>    6.2217    0.0000 </r>
       <r>    6.4681    0.0000 </r>
       <r>    6.6992    0.0000 </r>
       <r>    7.4826    0.0000 </r>
       <r>    7.9160    0.0000 </r>
       <r>    8.4239    0.0000 </r>
       <r>    8.8222    0.0000 </r>
       <r>    9.1718    0.0000 </r>
       <r>    9.4737    0.0000 </r>
       <r>    9.7836    0.0000 </r>
       <r>   10.2326    0.0000 </r>
       <r>   10.6868    0.0000 </r>
       <r>   10.9857    0.0000 </r>
       <r>   11.3100    0.0000 </r>
       <r>   12.0538    0.0000 </r>
       <r>   12.2842    0.0000 </r>
       <r>   13.0384    0.0000 </r>
       <r>   13.1652    0.0000 </r>
       <r>   13.5143    0.0000 </r>
       <r>   13.7620    0.0000 </r>
       <r>   14.0195    0.0000 </r>
       <r>   14.6252    0.0000 </r>
       <r>   14.8570    0.0000 </r>
       <r>   15.2895    0.0000 </r>
       <r>   16.1758    0.0000 </r>
      </set>
      <set comment="kpoint 20">
       <r>  -12.1874    1.0000 </r>
       <r>  -12.0137    1.0000 </r>
       <r>   -8.3769    1.0000 </r>
       <r>   -8.3233    1.0000 </r>
       <r>   -5.9969    1.0000 </r>
       <r>   -5.9907    1.0000 </r>
       <r>   -5.1681    1.0000 </r>
       <r>   -4.9888    1.0000 </r>
       <r>   -3.8588    1.0000 </r>
       <r>   -3.2666    1.0000 </r>
       <r>   -2.0164    1.0000 </r>
       <r>   -1.8628    1.0000 </r>
       <r>   -1.0149    1.0000 </r>
       <r>   -0.9547    1.0000 </r>
       <r>   -0.7165    1.0000 </r>
       <r>   -0.6739    1.0000 </r>
       <r>    0.0848    1.0000 </r>
       <r>    0.1863    1.0000 </r>
       <r>    0.7131    1.0000 </r>
       <r>    0.7299    1.0000 </r>
       <r>    0.8752    1.0000 </r>
       <r>    1.1967    1.0000 </r>
       <r>    6.3548    0.0000 </r>
       <r>    6.4848    0.0000 </r>
       <r>    6.5346    0.0000 </r>
       <r>    7.0539    0.0000 </r>
       <r>    7.1281    0.0000 </r>
       <r>    7.6076    0.0000 </r>
       <r>    8.4143    0.0000 </r>
       <r>    8.4777    0.0000 </r>
       <r>    9.3658    0.0000 </r>
       <r>    9.5307    0.0000 </r>
       <r>    9.7267    0.0000 </r>
       <r>   10.0322    0.0000 </r>
       <r>   10.7471    0.0000 </r>
       <r>   11.1291    0.0000 </r>
       <r>   11.7370    0.0000 </r>
       <r>   11.8213    0.0000 </r>
       <r>   12.1124    0.0000 </r>
       <r>   13.0073    0.0000 </r>
       <r>   13.3070    0.0000 </r>
       <r>   13.4842    0.0000 </r>
       <r>   13.7157    0.0000 </r>
       <r>   13.8150    0.0000 </r>
       <r>   14.9699    0.0000 </r>
       <r>   14.9861    0.0000 </r>
       <r>   15.5265    0.0000 </r>
       <r>   15.8264    0.0000 </r>
      </set>
      <set comment="kpoint 21">
       <r>  -12.5300    1.0000 </r>
[...]
       <r>   -2.3634    1.0000 </r>
       <r>   -2.1612    1.0000 </r>
       <r>   -2.0010    1.0000 </r>
       <r>   -1.5365    1.0000 </r>
       <r>   -0.7740    1.0000 </r>
       <r>   -0.2471    1.0000 </r>
       <r>    0.1315    1.0000 </r>
       <r>    0.3496    1.0000 </r>
       <r>    0.4596    1.0000 </r>
       <r>    1.5373    1.0000 </r>
       <r>    1.5624    1.0000 </r>
       <r>    1.8168    0.6667 </r>
       <r>    5.4483    0.0000 </r>
       <r>    6.0747    0.0000 </r>
       <r>    6.5939    0.0000 </r>
       <r>    7.1174    0.0000 </r>
       <r>    7.6747    0.0000 </r>
       <r>    8.1432    0.0000 </r>
       <r>    8.8982    0.0000 </r>
       <r>    9.0473    0.0000 </r>
       <r>    9.6216    0.0000 </r>
       <r>    9.8533    0.0000 </r>
       <r>   10.4762    0.0000 </r>
       <r>   10.9407    0.0000 </r>
       <r>   11.0728    0.0000 </r>
       <r>   11.3349    0.0000 </r>
       <r>   11.4491    0.0000 </r>
       <r>   11.8417    0.0000 </r>
       <r>   12.7151    0.0000 </r>
       <r>   12.9854    0.0000 </r>
       <r>   13.2427    0.0000 </r>
       <r>   13.6137    0.0000 </r>
       <r>   13.7189    0.0000 </r>
       <r>   14.0237    0.0000 </r>
       <r>   14.3302    0.0000 </r>
       <r>   14.8448    0.0000 </r>
       <r>   14.9530    0.0000 </r>
       <r>   15.2515    0.0000 </r>
      </set>
      <set comment="kpoint 175">
       <r>  -12.0129    1.0000 </r>
       <r>  -11.8737    1.0000 </r>
       <r>   -8.5619    1.0000 </r>
       <r>   -8.4496    1.0000 </r>
       <r>   -5.9455    1.0000 </r>
       <r>   -5.8412    1.0000 </r>
       <r>   -4.9214    1.0000 </r>
       <r>   -4.6014    1.0000 </r>
       <r>   -4.4400    1.0000 </r>
       <r>   -4.0059    1.0000 </r>
       <r>   -2.2140    1.0000 </r>
       <r>   -2.1532    1.0000 </r>
       <r>   -2.1056    1.0000 </r>
       <r>   -1.8212    1.0000 </r>
       <r>   -0.2612    1.0000 </r>
       <r>   -0.0523    1.0000 </r>
       <r>    0.3524    1.0000 </r>
       <r>    0.4399    1.0000 </r>
       <r>    0.4991    1.0000 </r>
       <r>    0.8276    1.0000 </r>
       <r>    1.5763    1.0000 </r>
       <r>    1.6757    1.0000 </r>
       <r>    5.7897    0.0000 </r>
       <r>    5.9727    0.0000 </r>
       <r>    6.7976    0.0000 </r>
       <r>    7.3019    0.0000 </r>
       <r>    7.3956    0.0000 </r>
       <r>    7.4703    0.0000 </r>
       <r>    9.3033    0.0000 </r>
       <r>    9.4806    0.0000 </r>
       <r>    9.6869    0.0000 </r>
       <r>    9.8642    0.0000 </r>
       <r>   10.3477    0.0000 </r>
       <r>   10.6894    0.0000 </r>
       <r>   11.1476    0.0000 </r>
       <r>   11.3782    0.0000 </r>
       <r>   11.3928    0.0000 </r>
       <r>   11.5028    0.0000 </r>
       <r>   12.9546    0.0000 </r>
       <r>   13.0569    0.0000 </r>
       <r>   13.5571    0.0000 </r>
       <r>   13.9145    0.0000 </r>
       <r>   14.0435    0.0000 </r>
       <r>   14.1368    0.0000 </r>
       <r>   14.4524    0.0000 </r>
       <r>   14.6134    0.0000 </r>
       <r>   14.7654    0.0000 </r>
       <r>   14.8911    0.0000 </r>
      </set>
     </set>
    </set>
   </array>
  </eigenvalues>
  <separator name="orbital magnetization" >
   <v name="MAGDIPOLOUT">      0.00000000      0.00000000      0.00000000</v>
  </separator>
  <dos>
   <i name="efermi">      1.83201065 </i>
   <total>
    <array>
     <dimension dim="1">gridpoints</dimension>
     <dimension dim="2">spin</dimension>
     <field>energy</field>
     <field>total</field>
     <field>integrated</field>
     <set>
      <set comment="spin 1">
       <r>   -14.1686     0.0000     0.0000 </r>
       <r>   -14.0620     0.0000     0.0000 </r>
       <r>   -13.9553     0.0000     0.0000 </r>
       <r>   -13.8487     0.0000     0.0000 </r>
       <r>   -13.7421     0.0000     0.0000 </r>
       <r>   -13.6354     0.0000     0.0000 </r>
       <r>   -13.5288     0.0000     0.0000 </r>
       <r>   -13.4222     0.0000     0.0000 </r>
       <r>   -13.3155     0.0000     0.0000 </r>
       <r>   -13.2089     0.0000     0.0000 </r>
       <r>   -13.1023     0.0000     0.0000 </r>
       <r>   -12.9956     0.0000     0.0000 </r>
       <r>   -12.8890     0.0000     0.0000 </r>
       <r>   -12.7824     0.0040     0.0004 </r>
       <r>   -12.6757     0.5121     0.0550 </r>
       <r>   -12.5691     2.4006     0.3110 </r>
       <r>   -12.4625     3.5854     0.6933 </r>
       <r>   -12.3558     4.3875     1.1612 </r>
       <r>   -12.2492     3.5393     1.5386 </r>
       <r>   -12.1425     2.7401     1.8308 </r>
       <r>   -12.0359     2.7605     2.1252 </r>
       <r>   -11.9293     2.4915     2.3909 </r>
       <r>   -11.8226     2.7734     2.6866 </r>
       <r>   -11.7160     3.3922     3.0483 </r>
       <r>   -11.6094     3.5395     3.4258 </r>
       <r>   -11.5027     3.1664     3.7634 </r>
       <r>   -11.3961     1.7353     3.9484 </r>
       <r>   -11.2895     0.4728     3.9989 </r>
       <r>   -11.1828     0.0107     4.0000 </r>
       <r>   -11.0762     0.0000     4.0000 </r>
       <r>   -10.9696     0.0000     4.0000 </r>
       <r>   -10.8629     0.0000     4.0000 </r>
       <r>   -10.7563     0.0000     4.0000 </r>
       <r>   -10.6497     0.0000     4.0000 </r>
       <r>   -10.5430     0.0000     4.0000 </r>
       <r>   -10.4364     0.0000     4.0000 </r>
       <r>   -10.3298     0.0000     4.0000 </r>
       <r>   -10.2231     0.0000     4.0000 </r>
       <r>   -10.1165     0.0000     4.0000 </r>
       <r>   -10.0099     0.0000     4.0000 </r>
       <r>    -9.9032     0.0000     4.0000 </r>
       <r>    -9.7966     0.0000     4.0000 </r>
       <r>    -9.6899     0.0000     4.0000 </r>
       <r>    -9.5833     0.0000     4.0000 </r>
       <r>    -9.4767     0.0000     4.0000 </r>
       <r>    -9.3700     0.0000     4.0000 </r>
       <r>    -9.2634     0.0000     4.0000 </r>
       <r>    -9.1568     0.0000     4.0000 </r>
       <r>    -9.0501     0.0000     4.0000 </r>
       <r>    -8.9435     0.0007     4.0001 </r>
       <r>    -8.8369     0.2891     4.0309 </r>
       <r>    -8.7302     2.1381     4.2589 </r>
       <r>    -8.6236     5.4354     4.8385 </r>
       <r>    -8.5170     7.0480     5.5901 </r>
       <r>    -8.4103     6.2643     6.2581 </r>
       <r>    -8.3037     5.3356     6.8270 </r>
       <r>    -8.1971     4.8622     7.3455 </r>
       <r>    -8.0904     3.8506     7.7561 </r>
       <r>    -7.9838     1.6579     7.9329 </r>
       <r>    -7.8772     0.5766     7.9944 </r>
       <r>    -7.7705     0.0526     8.0000 </r>
       <r>    -7.6639     0.0000     8.0000 </r>
       <r>    -7.5573     0.0000     8.0000 </r>
       <r>    -7.4506     0.0000     8.0000 </r>
       <r>    -7.3440     0.0000     8.0000 </r>
       <r>    -7.2373     0.0000     8.0000 </r>
       <r>    -7.1307     0.0000     8.0000 </r>
       <r>    -7.0241     0.0003     8.0000 </r>
       <r>    -6.9174     0.1061     8.0113 </r>
       <r>    -6.8108     0.2619     8.0393 </r>
       <r>    -6.7042     0.4221     8.0843 </r>
       <r>    -6.5975     0.7667     8.1660 </r>
       <r>    -6.4909     0.8394     8.2556 </r>
       <r>    -6.3843     1.4157     8.4065 </r>
       <r>    -6.2776     1.9004     8.6092 </r>
       <r>    -6.1710     3.0440     8.9338 </r>
       <r>    -6.0644     3.8227     9.3414 </r>
       <r>    -5.9577     4.1329     9.7821 </r>
       <r>    -5.8511     4.0645    10.2155 </r>
       <r>    -5.7445     3.9188    10.6334 </r>
       <r>    -5.6378     4.0818    11.0687 </r>
       <r>    -5.5312     4.2101    11.5176 </r>
       <r>    -5.4246     4.5976    12.0079 </r>
       <r>    -5.3179     4.6578    12.5045 </r>
       <r>    -5.2113     4.5097    12.9854 </r>
       <r>    -5.1046     3.9037    13.4017 </r>
       <r>    -4.9980     3.2160    13.7447 </r>
       <r>    -4.8914     3.0028    14.0649 </r>
       <r>    -4.7847     2.2704    14.3070 </r>
       <r>    -4.6781     2.9016    14.6164 </r>
       <r>    -4.5715     3.3736    14.9761 </r>
       <r>    -4.4648     3.4135    15.3401 </r>
       <r>    -4.3582     3.4032    15.7030 </r>
       <r>    -4.2516     2.9794    16.0207 </r>
       <r>    -4.1449     2.9168    16.3318 </r>
       <r>    -4.0383     2.9105    16.6421 </r>
       <r>    -3.9317     2.9191    16.9534 </r>
       <r>    -3.8250     3.0857    17.2824 </r>
       <r>    -3.7184     2.9283    17.5947 </r>
       <r>    -3.6118     2.7167    17.8844 </r>
       <r>    -3.5051     3.0918    18.2141 </r>
       <r>    -3.3985     2.6934    18.5013 </r>
       <r>    -3.2919     2.7866    18.7984 </r>
       <r>    -3.1852     2.8641    19.1039 </r>
       <r>    -3.0786     2.6688    19.3884 </r>
       <r>    -2.9720     3.1364    19.7229 </r>
       <r>    -2.8653     3.0010    20.0429 </r>
       <r>    -2.7587     2.4726    20.3066 </r>
       <r>    -2.6520     2.6060    20.5845 </r>
       <r>    -2.5454     2.9939    20.9037 </r>
       <r>    -2.4388     3.0380    21.2277 </r>
       <r>    -2.3321     3.1625    21.5649 </r>
       <r>    -2.2255     4.0050    21.9920 </r>
       <r>    -2.1189     3.6413    22.3803 </r>
       <r>    -2.0122     3.0991    22.7107 </r>
       <r>    -1.9056     4.8196    23.2247 </r>
       <r>    -1.7990     5.4995    23.8111 </r>
       <r>    -1.6923     5.6903    24.4179 </r>
       <r>    -1.5857     6.1341    25.0720 </r>
       <r>    -1.4791     6.2063    25.7338 </r>
       <r>    -1.3724     5.6736    26.3388 </r>
       <r>    -1.2658     4.7188    26.8420 </r>
       <r>    -1.1592     6.4244    27.5271 </r>
       <r>    -1.0525     4.4731    28.0040 </r>
       <r>    -0.9459     2.3257    28.2520 </r>
       <r>    -0.8393     2.7178    28.5419 </r>
       <r>    -0.7326     2.9016    28.8513 </r>
       <r>    -0.6260     4.3106    29.3109 </r>
       <r>    -0.5194     6.7150    30.0270 </r>
       <r>    -0.4127     5.7323    30.6382 </r>
       <r>    -0.3061     6.5192    31.3334 </r>
       <r>    -0.1994     6.4452    32.0207 </r>
       <r>    -0.0928     6.7131    32.7365 </r>
       <r>     0.0138     6.9255    33.4751 </r>
       <r>     0.1205     6.1619    34.1321 </r>
       <r>     0.2271     8.8759    35.0786 </r>
       <r>     0.3337     8.2587    35.9593 </r>
       <r>     0.4404     8.6537    36.8821 </r>
       <r>     0.5470     5.6264    37.4820 </r>
       <r>     0.6536     3.1389    37.8168 </r>
       <r>     0.7603     3.1350    38.1510 </r>
       <r>     0.8669     3.5983    38.5348 </r>
       <r>     0.9735     3.5989    38.9185 </r>
       <r>     1.0802     2.8490    39.2223 </r>
       <r>     1.1868     3.3292    39.5773 </r>
       <r>     1.2934     4.4158    40.0482 </r>
       <r>     1.4001     3.8978    40.4639 </r>
       <r>     1.5067     3.6689    40.8551 </r>
       <r>     1.6133     4.5990    41.3455 </r>
       <r>     1.7200     3.5317    41.7221 </r>
       <r>     1.8266     2.4758    41.9861 </r>
       <r>     1.9333     2.6975    42.2738 </r>
       <r>     2.0399     2.1200    42.4998 </r>
       <r>     2.1465     2.6315    42.7804 </r>
       <r>     2.2532     2.6665    43.0648 </r>
       <r>     2.3598     2.0384    43.2821 </r>
       <r>     2.4664     0.9921    43.3879 </r>
       <r>     2.5731     0.3872    43.4292 </r>
       <r>     2.6797     0.5778    43.4908 </r>
       <r>     2.7863     0.4232    43.5360 </r>
       <r>     2.8930     0.3086    43.5689 </r>
       <r>     2.9996     0.6944    43.6429 </r>
       <r>     3.1062     1.0392    43.7537 </r>
       <r>     3.2129     0.6183    43.8197 </r>
       <r>     3.3195     0.0242    43.8222 </r>
       <r>     3.4261     0.1033    43.8333 </r>
       <r>     3.5328     0.3863    43.8745 </r>
       <r>     3.6394     0.3557    43.9124 </r>
       <r>     3.7460     0.3511    43.9498 </r>
       <r>     3.8527     0.4291    43.9956 </r>
       <r>     3.9593     0.0413    44.0000 </r>
       <r>     4.0659     0.0000    44.0000 </r>
       <r>     4.1726     0.0080    44.0009 </r>
       <r>     4.2792     0.1458    44.0164 </r>
       <r>     4.3859     0.3427    44.0529 </r>
       <r>     4.4925     0.4279    44.0986 </r>
       <r>     4.5991     0.6072    44.1633 </r>
       <r>     4.7058     0.8350    44.2524 </r>
       <r>     4.8124     0.8483    44.3428 </r>
       <r>     4.9190     0.8869    44.4374 </r>
       <r>     5.0257     1.2000    44.5654 </r>
       <r>     5.1323     1.2259    44.6961 </r>
       <r>     5.2389     1.5268    44.8589 </r>
       <r>     5.3456     2.0583    45.0784 </r>
       <r>     5.4522     2.5340    45.3486 </r>
       <r>     5.5588     2.8010    45.6473 </r>
       <r>     5.6655     3.2066    45.9892 </r>
       <r>     5.7721     3.3527    46.3467 </r>
       <r>     5.8787     4.1007    46.7840 </r>
       <r>     5.9854     4.8625    47.3025 </r>
       <r>     6.0920     4.1800    47.7483 </r>
       <r>     6.1986     4.5646    48.2350 </r>
       <r>     6.3053     4.4340    48.7078 </r>
       <r>     6.4119     3.9089    49.1247 </r>
       <r>     6.5186     4.5574    49.6106 </r>
       <r>     6.6252     3.3261    49.9653 </r>
       <r>     6.7318     3.9108    50.3823 </r>
       <r>     6.8385     4.5856    50.8713 </r>
       <r>     6.9451     4.6456    51.3667 </r>
       <r>     7.0517     4.3405    51.8296 </r>
       <r>     7.1584     5.5412    52.4205 </r>
       <r>     7.2650     5.0930    52.9635 </r>
       <r>     7.3716     4.5255    53.4461 </r>
       <r>     7.4783     4.2760    53.9021 </r>
       <r>     7.5849     3.6351    54.2897 </r>
       <r>     7.6915     3.0873    54.6189 </r>
       <r>     7.7982     3.0507    54.9442 </r>
       <r>     7.9048     2.9749    55.2615 </r>
       <r>     8.0114     4.1298    55.7019 </r>
       <r>     8.1181     3.9792    56.1262 </r>
       <r>     8.2247     3.8132    56.5328 </r>
       <r>     8.3313     4.0530    56.9650 </r>
       <r>     8.4380     4.2896    57.4224 </r>
       <r>     8.5446     4.5387    57.9064 </r>
       <r>     8.6512     4.3927    58.3748 </r>
       <r>     8.7579     5.4404    58.9549 </r>
       <r>     8.8645     4.6475    59.4505 </r>
       <r>     8.9712     5.2451    60.0098 </r>
       <r>     9.0778     5.2322    60.5678 </r>
       <r>     9.1844     5.0562    61.1069 </r>
       <r>     9.2911     4.6438    61.6021 </r>
       <r>     9.3977     4.4541    62.0771 </r>
       <r>     9.5043     5.0649    62.6172 </r>
       <r>     9.6110     5.0575    63.1565 </r>
       <r>     9.7176     5.2624    63.7176 </r>
       <r>     9.8242     4.5152    64.1991 </r>
       <r>     9.9309     3.7644    64.6005 </r>
       <r>    10.0375     5.1989    65.1549 </r>
       <r>    10.1441     4.7349    65.6598 </r>
       <r>    10.2508     4.2157    66.1094 </r>
       <r>    10.3574     5.2463    66.6688 </r>
       <r>    10.4640     5.8497    67.2926 </r>
       <r>    10.5707     4.1105    67.7309 </r>
       <r>    10.6773     3.9534    68.1525 </r>
       <r>    10.7839     3.3316    68.5077 </r>
       <r>    10.8906     4.7396    69.0131 </r>
       <r>    10.9972     5.3088    69.5793 </r>
       <r>    11.1038     6.4201    70.2639 </r>
       <r>    11.2105     6.0030    70.9040 </r>
       <r>    11.3171     5.0843    71.4461 </r>
       <r>    11.4238     4.5702    71.9335 </r>
       <r>    11.5304     4.4794    72.4111 </r>
       <r>    11.6370     5.0461    72.9492 </r>
       <r>    11.7437     4.8616    73.4677 </r>
       <r>    11.8503     5.9204    74.0990 </r>
       <r>    11.9569     6.1029    74.7498 </r>
       <r>    12.0636     6.1094    75.4012 </r>
       <r>    12.1702     5.4626    75.9837 </r>
       <r>    12.2768     5.0295    76.5201 </r>
       <r>    12.3835     5.7360    77.1317 </r>
       <r>    12.4901     5.9586    77.7671 </r>
       <r>    12.5967     5.8478    78.3907 </r>
       <r>    12.7034     6.0253    79.0332 </r>
       <r>    12.8100     5.9232    79.6648 </r>
       <r>    12.9166     5.6591    80.2683 </r>
       <r>    13.0233     6.3417    80.9445 </r>
       <r>    13.1299     6.3904    81.6260 </r>
       <r>    13.2365     5.5481    82.2176 </r>
       <r>    13.3432     6.1140    82.8696 </r>
       <r>    13.4498     5.5236    83.4586 </r>
       <r>    13.5565     4.8958    83.9806 </r>
       <r>    13.6631     6.2387    84.6459 </r>
       <r>    13.7697     5.5115    85.2336 </r>
       <r>    13.8764     5.4034    85.8098 </r>
       <r>    13.9830     5.4760    86.3937 </r>
       <r>    14.0896     4.6780    86.8926 </r>
       <r>    14.1963     5.0219    87.4281 </r>
       <r>    14.3029     4.9010    87.9507 </r>
       <r>    14.4095     4.9197    88.4753 </r>
       <r>    14.5162     5.2697    89.0373 </r>
       <r>    14.6228     5.2437    89.5964 </r>
       <r>    14.7294     4.1174    90.0355 </r>
       <r>    14.8361     4.9353    90.5618 </r>
       <r>    14.9427     6.0855    91.2107 </r>
       <r>    15.0493     5.7851    91.8276 </r>
       <r>    15.1560     5.7722    92.4431 </r>
       <r>    15.2626     5.9654    93.0792 </r>
       <r>    15.3692     5.8150    93.6993 </r>
       <r>    15.4759     6.0870    94.3484 </r>
       <r>    15.5825     4.6652    94.8458 </r>
       <r>    15.6891     2.5757    95.1205 </r>
       <r>    15.7958     2.7051    95.4090 </r>
       <r>    15.9024     1.8247    95.6035 </r>
       <r>    16.0091     1.1173    95.7227 </r>
       <r>    16.1157     0.9067    95.8194 </r>
       <r>    16.2223     0.6936    95.8933 </r>
       <r>    16.3290     0.8186    95.9806 </r>
       <r>    16.4356     0.1800    95.9998 </r>
       <r>    16.5422     0.0017    96.0000 </r>
       <r>    16.6489     0.0000    96.0000 </r>
       <r>    16.7555     0.0000    96.0000 </r>
       <r>    16.8621     0.0000    96.0000 </r>
       <r>    16.9688     0.0000    96.0000 </r>
       <r>    17.0754     0.0000    96.0000 </r>
       <r>    17.1820     0.0000    96.0000 </r>
       <r>    17.2887     0.0000    96.0000 </r>
       <r>    17.3953     0.0000    96.0000 </r>
       <r>    17.5019     0.0000    96.0000 </r>
       <r>    17.6086     0.0000    96.0000 </r>
       <r>    17.7152     0.0000    96.0000 </r>
       <r>    17.8218     0.0000    96.0000 </r>
      </set>
     </set>
    </array>
   </total>
  </dos>
 </calculation>
 <structure name="finalpos" >
  <crystal>
   <varray name="basis" >
    <v>       5.71409100       0.00000000       0.00000000 </v>
    <v>       0.00000000       4.06004370       0.00000000 </v>
    <v>       0.00000000       0.00000000       6.22281260 </v>
   </varray>
   <i name="volume">    144.36588681 </i>
   <varray name="rec_basis" >
    <v>       0.17500596       0.00000000       0.00000000 </v>
    <v>       0.00000000       0.24630277       0.00000000 </v>
    <v>       0.00000000       0.00000000       0.16069904 </v>
   </varray>
  </crystal>
  <varray name="positions" >
   <v>       0.52123000       0.50000000       0.63796000 </v>
   <v>       0.47877000       0.50000000       0.36204000 </v>
   <v>       0.97877000       0.50000000       0.63796000 </v>
   <v>       0.02123000       0.50000000       0.36204000 </v>
   <v>       0.60090000       0.50000000       0.89991000 </v>
   <v>       0.39910000       0.50000000       0.10009000 </v>
   <v>       0.89910000       0.50000000       0.89991000 </v>
   <v>       0.10090000       0.50000000       0.10009000 </v>
   <v>       0.75000000       0.79171000       0.72973000 </v>
   <v>       0.25000000       0.20829000       0.27027000 </v>
   <v>       0.75000000       0.20829000       0.72973000 </v>
   <v>       0.25000000       0.79171000       0.27027000 </v>
   <v>       0.25000000       0.50000000       0.52367000 </v>
   <v>       0.75000000       0.50000000       0.47633000 </v>
  </varray>
 </structure>
</modeling>
