   14   14  400    1
  0.1021960E+02  0.5697000E-09  0.4047900E-09  0.6204200E-09  0.5000000E-15
  1.000000000000000E-004
  CAR 
 Geometry                                
     42    175     30
 
  0.5000000E-01  0.3571429E-01  0.0000000E+00  0.3174603E-02
      1        -12.691531   1.000000
      2        -11.525482   1.000000
      3         -8.655195   1.000000
      4         -8.363075   1.000000
      5         -6.040334   1.000000
      6         -5.162798   1.000000
      7         -4.705638   1.000000
      8         -4.298413   1.000000
      9         -4.000595   1.000000
     10         -3.473663   1.000000
     11         -2.549362   1.000000
     12         -2.306192   1.000000
     13         -1.780448   1.000000
     14         -1.108617   1.000000
     15         -0.080862   1.000000
     16          0.006665   1.000000
     17          0.045813   1.000000
     18          0.099427   1.000000
     19          0.675673   1.000000
     20          2.074729   0.000006
     21          2.087066   0.000001
     22          2.248845   0.000000
     23          5.550111   0.000000
     24          5.686034   0.000000
     25          5.774279   0.000000
     26          5.990770   0.000000
     27          6.753269   0.000000
     28          7.569861   0.000000
     29          7.904197   0.000000
     30          8.527134   0.000000
 
  0.1500000E+00  0.3571429E-01  0.0000000E+00  0.3174603E-02
      1        -12.647261   1.000000
      2        -11.601844   1.000000
      3         -8.628833   1.000000
      4         -8.351539   1.000000
      5         -5.973355   1.000000
      6         -5.502917   1.000000
      7         -4.821803   1.000000
      8         -3.978167   1.000000
      9         -3.815549   1.000000
     10         -3.141044   1.000000
     11         -2.618550   1.000000
     12         -2.286451   1.000000
     13         -1.868145   1.000000
     14         -1.414848   1.000000
     15         -0.139381   1.000000
     16          0.045838   1.000000
     17          0.061510   1.000000
     18          0.147158   1.000000
     19          0.573253   1.000000
     20          1.990246   0.024191
     21          1.995166   0.017294
     22          2.122260   0.000000
     23          5.629414   0.000000
     24          5.698707   0.000000
     25          5.834969   0.000000
     26          6.308548   0.000000
     27          6.674580   0.000000
     28          7.211743   0.000000
     29          8.124065   0.000000
     30          8.666156   0.000000
 
  0.2500000E+00  0.3571429E-01  0.0000000E+00  0.3174603E-02
      1        -12.560551   1.000000
      2        -11.738923   1.000000
      3         -8.576278   1.000000
      4         -8.337468   1.000000
      5         -5.960246   1.000000
      6         -5.828779   1.000000
      7         -4.769457   1.000000
      8         -3.844032   1.000000
      9         -3.310125   1.000000
     10         -2.777878   1.000000
     11         -2.655158   1.000000
     12         -2.246650   1.000000
     13         -1.989720   1.000000
     14         -1.919217   1.000000
     15         -0.356623   1.000000
     16          0.064149   1.000000
     17          0.173704   1.000000
     18          0.183098   1.000000
     19          0.471705   1.000000
     20          1.820867   0.997575
     21          1.859589   0.957425
     22          1.887500   0.824357
     23          5.659973   0.000000
     24          5.731350   0.000000
     25          6.163594   0.000000
     26          6.562137   0.000000
     27          6.764715   0.000000
     28          6.952872   0.000000
     29          8.271228   0.000000
     30          8.823474   0.000000
 
  0.3500000E+00  0.3571429E-01  0.0000000E+00  0.3174603E-02
      1        -12.435330   1.000000
      2        -11.912734   1.000000
      3         -8.503619   1.000000
      4         -8.337018   1.000000
      5         -6.059320   1.000000
      6         -6.055128   1.000000
      7         -4.434462   1.000000
      8         -3.673415   1.000000
      9         -2.979529   1.000000
     10         -2.920059   1.000000
     11         -2.445385   1.000000
     12         -2.180851   1.000000
     13         -2.142046   1.000000
     14         -2.100832   1.000000
     15         -0.639357   1.000000
     16         -0.208750   1.000000
     17          0.255022   1.000000
     18          0.290448   1.000000
     19          0.602122   1.000000
     20          1.535039   1.000000
     21          1.682330   1.000000
     22          1.708674   1.000000
     23          5.656041   0.000000
     24          5.786269   0.000000
     25          6.483610   0.000000
     26          6.692733   0.000000
     27          6.705615   0.000000
     28          7.403506   0.000000
     29          8.383237   0.000000
     30          8.704434   0.000000
 
  0.4500000E+00  0.3571429E-01  0.0000000E+00  0.3174603E-02
      1        -12.278164   1.000000
      2        -12.099095   1.000000
      3         -8.426384   1.000000
      4         -8.365856   1.000000
      5         -6.166986   1.000000
      6         -6.152953   1.000000
      7         -3.915134   1.000000
      8         -3.462787   1.000000
      9         -3.314345   1.000000
     10         -3.221372   1.000000
     11         -2.350024   1.000000
     12         -2.210081   1.000000
     13         -1.960410   1.000000
     14         -1.861485   1.000000
     15         -0.814009   1.000000
     16         -0.599530   1.000000
     17          0.335763   1.000000
     18          0.355336   1.000000
     19          0.860811   1.000000
     20          1.185336   1.000000
     21          1.581189   1.000000
     22          1.596536   1.000000
     23          5.700017   0.000000
     24          5.762551   0.000000
     25          6.487872   0.000000
     26          6.566307   0.000000
     27          7.376242   0.000000
     28          8.059879   0.000000
     29          8.112016   0.000000
     30          8.488496   0.000000
 
  0.5000000E-01  0.1071429E+00  0.0000000E+00  0.3174603E-02
      1        -12.667222   1.000000
      2        -11.503542   1.000000
      3         -8.636197   1.000000
      4         -8.339586   1.000000
      5         -6.013662   1.000000
      6         -5.128804   1.000000
      7         -4.683789   1.000000
      8         -4.546346   1.000000
      9         -4.202068   1.000000
     10         -3.448593   1.000000
     11         -3.245755   1.000000
     12         -1.771544   1.000000
     13         -1.103899   1.000000
     14         -0.981037   1.000000
     15         -0.308645   1.000000
     16         -0.229974   1.000000
     17          0.108477   1.000000
     18          0.113320   1.000000
     19          0.760561   1.000000
     20          1.817610   0.998186
     21          1.823597   0.996924
     22          2.298897   0.000000
     23          5.526840   0.000000
     24          5.768075   0.000000
     25          5.796091   0.000000
     26          5.929605   0.000000
     27          7.034210   0.000000
     28          7.856357   0.000000
     29          8.073881   0.000000
     30          8.221133   0.000000
 
  0.1500000E+00  0.1071429E+00  0.0000000E+00  0.3174603E-02
      1        -12.623045   1.000000
      2        -11.579767   1.000000
      3         -8.609689   1.000000
      4         -8.328447   1.000000
      5         -5.944831   1.000000
      6         -5.472620   1.000000
      7         -4.801929   1.000000
      8         -4.458480   1.000000
      9         -3.784449   1.000000
     10         -3.320712   1.000000
     11         -3.108173   1.000000
     12         -1.749687   1.000000
     13         -1.409154   1.000000
     14         -1.113453   1.000000
     15         -0.237132   1.000000
     16         -0.191727   1.000000
     17          0.033427   1.000000
     18          0.166092   1.000000
     19          0.652320   1.000000
     20          1.727753   1.000000
     21          1.745820   1.000000
     22          2.161937   0.000000
     23          5.630034   0.000000
     24          5.880555   0.000000
     25          5.885599   0.000000
     26          6.098050   0.000000
     27          6.957904   0.000000
     28          7.536217   0.000000
     29          8.221193   0.000000
     30          8.402101   0.000000
 
  0.2500000E+00  0.1071429E+00  0.0000000E+00  0.3174603E-02
      1        -12.536528   1.000000
      2        -11.716593   1.000000
      3         -8.556921   1.000000
      4         -8.315112   1.000000
      5         -5.928907   1.000000
      6         -5.798325   1.000000
      7         -4.752936   1.000000
      8         -4.348530   1.000000
      9         -3.447321   1.000000
     10         -3.260358   1.000000
     11         -2.637549   1.000000
     12         -1.913135   1.000000
     13         -1.705593   1.000000
     14         -1.286489   1.000000
     15         -0.338654   1.000000
     16         -0.150380   1.000000
     17          0.058462   1.000000
     18          0.211710   1.000000
     19          0.516335   1.000000
     20          1.576547   1.000000
     21          1.613361   1.000000
     22          1.903843   0.680772
     23          5.807203   0.000000
     24          5.993355   0.000000
     25          5.996601   0.000000
     26          6.551367   0.000000
     27          6.852747   0.000000
     28          7.307679   0.000000
     29          8.432681   0.000000
     30          8.530197   0.000000
 
  0.3500000E+00  0.1071429E+00  0.0000000E+00  0.3174603E-02
      1        -12.411568   1.000000
      2        -11.890050   1.000000
      3         -8.484012   1.000000
      4         -8.315593   1.000000
      5         -6.028033   1.000000
      6         -6.022638   1.000000
      7         -4.419958   1.000000
      8         -4.200190   1.000000
      9         -3.621395   1.000000
     10         -2.873870   1.000000
     11         -2.378370   1.000000
     12         -2.152202   1.000000
     13         -1.639439   1.000000
     14         -1.453826   1.000000
     15         -0.596498   1.000000
     16         -0.266013   1.000000
     17          0.160564   1.000000
     18          0.161700   1.000000
     19          0.615273   1.000000
     20          1.416582   1.000000
     21          1.465601   1.000000
     22          1.568468   1.000000
     23          5.828648   0.000000
     24          6.033834   0.000000
     25          6.517437   0.000000
     26          6.789622   0.000000
     27          6.891574   0.000000
     28          7.374149   0.000000
     29          8.432961   0.000000
     30          8.625287   0.000000
 
  0.4500000E+00  0.1071429E+00  0.0000000E+00  0.3174603E-02
      1        -12.254732   1.000000
      2        -12.076036   1.000000
      3         -8.406437   1.000000
      4         -8.345309   1.000000
      5         -6.134905   1.000000
      6         -6.120439   1.000000
      7         -4.019661   1.000000
      8         -3.904615   1.000000
      9         -3.816574   1.000000
     10         -3.301981   1.000000
     11         -2.124866   1.000000
     12         -1.886882   1.000000
     13         -1.561355   1.000000
     14         -1.547023   1.000000
     15         -0.777130   1.000000
     16         -0.598102   1.000000
     17          0.199853   1.000000
     18          0.219307   1.000000
     19          0.870253   1.000000
     20          1.192964   1.000000
     21          1.339721   1.000000
     22          1.354266   1.000000
     23          5.893636   0.000000
     24          5.982030   0.000000
     25          6.804550   0.000000
     26          6.866776   0.000000
     27          7.191901   0.000000
     28          7.912209   0.000000
     29          7.929381   0.000000
     30          8.605111   0.000000
 
  0.5000000E-01  0.1785714E+00  0.0000000E+00  0.3174603E-02
      1        -12.622296   1.000000
      2        -11.463071   1.000000
      3         -8.601406   1.000000
      4         -8.296229   1.000000
      5         -5.964356   1.000000
      6         -5.116064   1.000000
      7         -5.023814   1.000000
      8         -4.642400   1.000000
      9         -4.192856   1.000000
     10         -3.867744   1.000000
     11         -3.396760   1.000000
     12         -1.185353   1.000000
     13         -1.093875   1.000000
     14         -0.672164   1.000000
     15         -0.466162   1.000000
     16         -0.116690   1.000000
     17          0.134530   1.000000
     18          0.150237   1.000000
     19          0.845637   1.000000
     20          1.424339   1.000000
     21          1.430860   1.000000
     22          2.334208   0.000000
     23          5.268754   0.000000
     24          5.441764   0.000000
     25          6.121160   0.000000
     26          6.203414   0.000000
     27          7.463299   0.000000
     28          7.624480   0.000000
     29          8.340330   0.000000
     30          8.794613   0.000000
 
  0.1500000E+00  0.1785714E+00  0.0000000E+00  0.3174603E-02
      1        -12.578301   1.000000
      2        -11.539032   1.000000
      3         -8.574593   1.000000
      4         -8.285821   1.000000
      5         -5.891987   1.000000
      6         -5.421893   1.000000
      7         -5.005570   1.000000
      8         -4.764526   1.000000
      9         -3.935009   1.000000
     10         -3.744705   1.000000
     11         -3.063854   1.000000
     12         -1.400462   1.000000
     13         -1.158937   1.000000
     14         -0.769207   1.000000
     15         -0.427788   1.000000
     16         -0.052958   1.000000
     17          0.041950   1.000000
     18          0.189600   1.000000
     19          0.727735   1.000000
     20          1.342463   1.000000
     21          1.354003   1.000000
     22          2.192624   0.000000
     23          5.357863   0.000000
     24          5.783424   0.000000
     25          6.073204   0.000000
     26          6.308712   0.000000
     27          7.390724   0.000000
     28          7.781624   0.000000
     29          8.079705   0.000000
     30          8.878558   0.000000
 
  0.2500000E+00  0.1785714E+00  0.0000000E+00  0.3174603E-02
      1        -12.492124   1.000000
      2        -11.675364   1.000000
      3         -8.521396   1.000000
      4         -8.273879   1.000000
      5         -5.870552   1.000000
      6         -5.743046   1.000000
      7         -4.910898   1.000000
      8         -4.722092   1.000000
      9         -4.060641   1.000000
     10         -3.212355   1.000000
     11         -2.592130   1.000000
     12         -1.897216   1.000000
     13         -1.118788   1.000000
     14         -0.901272   1.000000
     15         -0.374984   1.000000
     16         -0.207332   1.000000
     17          0.066950   1.000000
     18          0.246194   1.000000
     19          0.561122   1.000000
     20          1.194622   1.000000
     21          1.234395   1.000000
     22          1.926834   0.428406
     23          5.685922   0.000000
     24          6.038285   0.000000
     25          6.257686   0.000000
     26          6.414753   0.000000
     27          7.309218   0.000000
     28          7.889733   0.000000
     29          8.018929   0.000000
     30          8.993499   0.000000
 
  0.3500000E+00  0.1785714E+00  0.0000000E+00  0.3174603E-02
      1        -12.367665   1.000000
      2        -11.848185   1.000000
      3         -8.448041   1.000000
      4         -8.276154   1.000000
      5         -5.970247   1.000000
      6         -5.962096   1.000000
      7         -4.773501   1.000000
      8         -4.393212   1.000000
      9         -4.227600   1.000000
     10         -2.835844   1.000000
     11         -2.340129   1.000000
     12         -2.110837   1.000000
     13         -1.061523   1.000000
     14         -1.034549   1.000000
     15         -0.476331   1.000000
     16         -0.393204   1.000000
     17          0.123817   1.000000
     18          0.129604   1.000000
     19          0.634400   1.000000
     20          1.044215   1.000000
     21          1.099920   1.000000
     22          1.581256   1.000000
     23          6.062033   0.000000
     24          6.223590   0.000000
     25          6.408402   0.000000
     26          6.786151   0.000000
     27          7.286160   0.000000
     28          7.807721   0.000000
     29          8.081199   0.000000
     30          9.077129   0.000000
 
  0.4500000E+00  0.1785714E+00  0.0000000E+00  0.3174603E-02
      1        -12.211452   1.000000
      2        -12.033455   1.000000
      3         -8.369807   1.000000
      4         -8.307543   1.000000
      5         -6.075322   1.000000
      6         -6.059893   1.000000
      7         -4.604050   1.000000
      8         -4.416410   1.000000
      9         -3.876306   1.000000
     10         -3.279378   1.000000
     11         -2.058755   1.000000
     12         -1.840951   1.000000
     13         -1.076737   1.000000
     14         -1.005982   1.000000
     15         -0.691718   1.000000
     16         -0.623494   1.000000
     17          0.089798   1.000000
     18          0.134493   1.000000
     19          0.886699   1.000000
     20          0.963552   1.000000
     21          0.994077   1.000000
     22          1.217519   1.000000
     23          6.161566   0.000000
     24          6.296670   0.000000
     25          6.887893   0.000000
     26          7.209146   0.000000
     27          7.287215   0.000000
     28          7.627023   0.000000
     29          7.938311   0.000000
     30          8.427598   0.000000
 
  0.5000000E-01  0.2500000E+00  0.0000000E+00  0.3174603E-02
      1        -12.564068   1.000000
      2        -11.410760   1.000000
      3         -8.556948   1.000000
      4         -8.240085   1.000000
      5         -5.900358   1.000000
      6         -5.585061   1.000000
      7         -4.968804   1.000000
      8         -4.586668   1.000000
      9         -4.391664   1.000000
     10         -4.155098   1.000000
     11         -3.331706   1.000000
     12         -1.182463   1.000000
     13         -1.078462   1.000000
     14         -1.023923   1.000000
     15         -0.140606   1.000000
     16          0.165004   1.000000
     17          0.187050   1.000000
     18          0.675035   1.000000
     19          0.912266   1.000000
     20          0.990771   1.000000
     21          1.026173   1.000000
     22          2.367146   0.000000
     23          4.955141   0.000000
     24          5.113739   0.000000
     25          6.286632   0.000000
     26          6.654268   0.000000
     27          7.273124   0.000000
     28          7.889866   0.000000
     29          8.797854   0.000000
     30          9.077597   0.000000
 
  0.1500000E+00  0.2500000E+00  0.0000000E+00  0.3174603E-02
      1        -12.520304   1.000000
      2        -11.486374   1.000000
      3         -8.529725   1.000000
      4         -8.230677   1.000000
      5         -5.823195   1.000000
      6         -5.554023   1.000000
      7         -5.301446   1.000000
      8         -4.714902   1.000000
      9         -4.458109   1.000000
     10         -3.692183   1.000000
     11         -2.999811   1.000000
     12         -1.391671   1.000000
     13         -1.127782   1.000000
     14         -1.034934   1.000000
     15         -0.140928   1.000000
     16          0.057552   1.000000
     17          0.222227   1.000000
     18          0.658323   1.000000
     19          0.783160   1.000000
     20          0.947890   1.000000
     21          0.952659   1.000000
     22          2.223828   0.000000
     23          5.039199   0.000000
     24          5.460372   0.000000
     25          6.240291   0.000000
     26          6.775353   0.000000
     27          7.408214   0.000000
     28          7.856035   0.000000
     29          8.689241   0.000000
     30          9.226645   0.000000
 
  0.2500000E+00  0.2500000E+00  0.0000000E+00  0.3174603E-02
      1        -12.434591   1.000000
      2        -11.622062   1.000000
      3         -8.475946   1.000000
      4         -8.220634   1.000000
      5         -5.794057   1.000000
      6         -5.684137   1.000000
      7         -5.402404   1.000000
      8         -4.681786   1.000000
      9         -4.583048   1.000000
     10         -3.154550   1.000000
     11         -2.529903   1.000000
     12         -1.877808   1.000000
     13         -1.068285   1.000000
     14         -1.047687   1.000000
     15         -0.179333   1.000000
     16         -0.155651   1.000000
     17          0.293484   1.000000
     18          0.595014   1.000000
     19          0.595405   1.000000
     20          0.842204   1.000000
     21          0.888824   1.000000
     22          1.954667   0.166609
     23          5.365981   0.000000
     24          5.935758   0.000000
     25          6.224120   0.000000
     26          6.856657   0.000000
     27          7.576329   0.000000
     28          7.904701   0.000000
     29          8.597524   0.000000
     30          9.358604   0.000000
 
  0.3500000E+00  0.2500000E+00  0.0000000E+00  0.3174603E-02
      1        -12.310807   1.000000
      2        -11.794028   1.000000
      3         -8.401940   1.000000
      4         -8.225331   1.000000
      5         -5.896827   1.000000
      6         -5.882548   1.000000
      7         -5.281546   1.000000
      8         -4.748977   1.000000
      9         -4.357504   1.000000
     10         -2.791074   1.000000
     11         -2.298713   1.000000
     12         -2.054423   1.000000
     13         -1.048271   1.000000
     14         -0.991479   1.000000
     15         -0.477234   1.000000
     16         -0.264916   1.000000
     17          0.194539   1.000000
     18          0.453554   1.000000
     19          0.653619   1.000000
     20          0.783319   1.000000
     21          0.826778   1.000000
     22          1.605598   1.000000
     23          5.896353   0.000000
     24          6.256435   0.000000
     25          6.521990   0.000000
     26          6.770355   0.000000
     27          7.586626   0.000000
     28          7.982476   0.000000
     29          8.547273   0.000000
     30          8.900652   0.000000
 
  0.4500000E+00  0.2500000E+00  0.0000000E+00  0.3174603E-02
      1        -12.155412   1.000000
      2        -11.978350   1.000000
      3         -8.322803   1.000000
      4         -8.258984   1.000000
      5         -5.997766   1.000000
      6         -5.980536   1.000000
      7         -5.117954   1.000000
      8         -4.934207   1.000000
      9         -3.844132   1.000000
     10         -3.249136   1.000000
     11         -2.001345   1.000000
     12         -1.794335   1.000000
     13         -0.954805   1.000000
     14         -0.907368   1.000000
     15         -0.733218   1.000000
     16         -0.588752   1.000000
     17          0.178258   1.000000
     18          0.290421   1.000000
     19          0.768775   1.000000
     20          0.782062   1.000000
     21          0.910416   1.000000
     22          1.239367   1.000000
     23          6.395924   0.000000
     24          6.564429   0.000000
     25          6.586182   0.000000
     26          7.108197   0.000000
     27          7.223283   0.000000
     28          7.663509   0.000000
     29          8.534521   0.000000
     30          8.585768   0.000000
 
  0.5000000E-01  0.3214286E+00  0.0000000E+00  0.3174603E-02
      1        -12.503122   1.000000
      2        -11.356197   1.000000
      3         -8.511209   1.000000
      4         -8.181292   1.000000
      5         -5.993648   1.000000
      6         -5.833035   1.000000
      7         -4.877385   1.000000
      8         -4.806224   1.000000
      9         -4.523978   1.000000
     10         -4.110078   1.000000
     11         -3.261002   1.000000
     12         -1.466988   1.000000
     13         -1.358461   1.000000
     14         -1.070886   1.000000
     15          0.172168   1.000000
     16          0.220265   1.000000
     17          0.425472   1.000000
     18          0.616765   1.000000
     19          0.631323   1.000000
     20          0.972343   1.000000
     21          1.455723   1.000000
     22          2.398076   0.000000
     23          4.649017   0.000000
     24          4.843503   0.000000
     25          6.405453   0.000000
     26          7.020936   0.000000
     27          7.095247   0.000000
     28          8.206241   0.000000
     29          8.799520   0.000000
     30          9.666213   0.000000
 
  0.1500000E+00  0.3214286E+00  0.0000000E+00  0.3174603E-02
      1        -12.459622   1.000000
      2        -11.431446   1.000000
      3         -8.483532   1.000000
      4         -8.173020   1.000000
      5         -5.947405   1.000000
      6         -5.750546   1.000000
      7         -5.236831   1.000000
      8         -4.874407   1.000000
      9         -4.657529   1.000000
     10         -3.633460   1.000000
     11         -2.928663   1.000000
     12         -1.451493   1.000000
     13         -1.349245   1.000000
     14         -1.336335   1.000000
     15          0.084488   1.000000
     16          0.199761   1.000000
     17          0.288914   1.000000
     18          0.523423   1.000000
     19          0.703680   1.000000
     20          0.898644   1.000000
     21          1.433850   1.000000
     22          2.253964   0.000000
     23          4.744580   0.000000
     24          5.178109   0.000000
     25          6.361840   0.000000
     26          7.143880   0.000000
     27          7.235016   0.000000
     28          8.195982   0.000000
     29          8.946215   0.000000
     30          9.515300   0.000000
 
  0.2500000E+00  0.3214286E+00  0.0000000E+00  0.3174603E-02
      1        -12.374413   1.000000
      2        -11.566444   1.000000
      3         -8.429092   1.000000
      4         -8.165103   1.000000
      5         -5.863920   1.000000
      6         -5.712551   1.000000
      7         -5.553657   1.000000
      8         -4.997771   1.000000
      9         -4.637313   1.000000
     10         -3.089846   1.000000
     11         -2.458694   1.000000
     12         -1.857423   1.000000
     13         -1.342204   1.000000
     14         -1.322009   1.000000
     15         -0.167354   1.000000
     16          0.062845   1.000000
     17          0.296006   1.000000
     18          0.362348   1.000000
     19          0.587498   1.000000
     20          0.949780   1.000000
     21          1.390352   1.000000
     22          1.982749   0.039041
     23          5.072745   0.000000
     24          5.656143   0.000000
     25          6.356430   0.000000
     26          7.200319   0.000000
     27          7.397056   0.000000
     28          8.295927   0.000000
     29          9.144151   0.000000
     30          9.197716   0.000000
 
  0.3500000E+00  0.3214286E+00  0.0000000E+00  0.3174603E-02
      1        -12.251343   1.000000
      2        -11.737492   1.000000
      3         -8.354354   1.000000
      4         -8.172488   1.000000
      5         -5.842966   1.000000
      6         -5.797690   1.000000
      7         -5.665928   1.000000
      8         -5.162676   1.000000
      9         -4.320031   1.000000
     10         -2.740274   1.000000
     11         -2.253679   1.000000
     12         -1.987812   1.000000
     13         -1.256701   1.000000
     14         -1.254104   1.000000
     15         -0.495369   1.000000
     16         -0.144482   1.000000
     17          0.102463   1.000000
     18          0.180286   1.000000
     19          0.672486   1.000000
     20          1.053876   1.000000
     21          1.327042   1.000000
     22          1.631070   1.000000
     23          5.602079   0.000000
     24          6.205416   0.000000
     25          6.459849   0.000000
     26          7.044463   0.000000
     27          7.382344   0.000000
     28          8.165105   0.000000
     29          9.008337   0.000000
     30          9.184464   0.000000
 
  0.4500000E+00  0.3214286E+00  0.0000000E+00  0.3174603E-02
      1        -12.096848   1.000000
      2        -11.920796   1.000000
      3         -8.274187   1.000000
      4         -8.208640   1.000000
      5         -5.918126   1.000000
      6         -5.896484   1.000000
      7         -5.526996   1.000000
      8         -5.346919   1.000000
      9         -3.809457   1.000000
     10         -3.215777   1.000000
     11         -1.937164   1.000000
     12         -1.743023   1.000000
     13         -1.154362   1.000000
     14         -1.106986   1.000000
     15         -0.761378   1.000000
     16         -0.510974   1.000000
     17         -0.013081   1.000000
     18          0.035139   1.000000
     19          0.930176   1.000000
     20          1.155456   1.000000
     21          1.244630   1.000000
     22          1.265261   1.000000
     23          6.260743   0.000000
     24          6.573208   0.000000
     25          6.793531   0.000000
     26          6.891201   0.000000
     27          6.956145   0.000000
     28          7.536602   0.000000
     29          9.239987   0.000000
     30          9.327205   0.000000
 
  0.5000000E-01  0.3928571E+00  0.0000000E+00  0.3174603E-02
      1        -12.452076   1.000000
      2        -11.310646   1.000000
      3         -8.473558   1.000000
      4         -8.131895   1.000000
      5         -6.283444   1.000000
      6         -5.775795   1.000000
      7         -5.094530   1.000000
      8         -4.798494   1.000000
      9         -4.468568   1.000000
     10         -4.069038   1.000000
     11         -3.199354   1.000000