  14  14   1   0
  0.1021318E+02  0.5700971E-09  0.4044058E-09  0.6201871E-09  0.5000000E-15
  1.000000000000000E-004
  CAR 
 BS                                      
     18.01035030    -14.16253636  301      2.21013890      1.00000000
    -14.163  0.0000E+00  0.0000E+00
    -14.055  0.0000E+00  0.0000E+00
    -13.948  0.0000E+00  0.0000E+00
    -13.841  0.0000E+00  0.0000E+00
    -13.734  0.0000E+00  0.0000E+00
    -13.626  0.0000E+00  0.0000E+00
    -13.519  0.0000E+00  0.0000E+00
    -13.412  0.0000E+00  0.0000E+00
    -13.305  0.0000E+00  0.0000E+00
    -13.197  0.5276E-12  0.5658E-13
    -13.090  0.1008E-07  0.1081E-08
    -12.983  0.2128E-04  0.2284E-05
    -12.876  0.5315E-02  0.5722E-03
    -12.768  0.1810E+00  0.1999E-01
    -12.661  0.1108E+01  0.1388E+00
    -12.554  0.1798E+01  0.3317E+00
    -12.447  0.1801E+01  0.5248E+00
    -12.339  0.2963E+01  0.8425E+00
    -12.232  0.4058E+01  0.1278E+01
    -12.125  0.5836E+01  0.1904E+01
    -12.018  0.4025E+01  0.2335E+01
    -11.910  0.2704E+01  0.2625E+01
    -11.803  0.1911E+01  0.2830E+01
    -11.696  0.1981E+01  0.3043E+01
    -11.589  0.2149E+01  0.3273E+01
    -11.481  0.2150E+01  0.3504E+01
    -11.374  0.2123E+01  0.3731E+01
    -11.267  0.1734E+01  0.3917E+01
    -11.160  0.7044E+00  0.3993E+01
    -11.052  0.6477E-01  0.4000E+01
    -10.945  0.8960E-03  0.4000E+01
    -10.838  0.1546E-05  0.4000E+01
    -10.731  0.3033E-09  0.4000E+01
    -10.624  0.6458E-14  0.4000E+01
    -10.516  0.0000E+00  0.4000E+01
    -10.409  0.0000E+00  0.4000E+01
    -10.302  0.0000E+00  0.4000E+01
    -10.195  0.0000E+00  0.4000E+01
    -10.087  0.0000E+00  0.4000E+01
     -9.980  0.0000E+00  0.4000E+01
     -9.873  0.0000E+00  0.4000E+01
     -9.766  0.0000E+00  0.4000E+01
     -9.658  0.0000E+00  0.4000E+01
     -9.551  0.0000E+00  0.4000E+01
     -9.444  0.0000E+00  0.4000E+01
     -9.337  0.1719E-12  0.4000E+01
     -9.229  0.4023E-08  0.4000E+01
     -9.122  0.1034E-04  0.4000E+01
     -9.015  0.3106E-02  0.4000E+01
     -8.908  0.1251E+00  0.4014E+01
     -8.800  0.9549E+00  0.4116E+01
     -8.693  0.2709E+01  0.4407E+01
     -8.586  0.4303E+01  0.4868E+01
     -8.479  0.4751E+01  0.5378E+01
     -8.371  0.6211E+01  0.6044E+01
     -8.264  0.5060E+01  0.6587E+01
     -8.157  0.4138E+01  0.7030E+01
     -8.050  0.4036E+01  0.7463E+01
     -7.942  0.2495E+01  0.7731E+01
     -7.835  0.1305E+01  0.7871E+01
     -7.728  0.9372E+00  0.7971E+01
     -7.621  0.2554E+00  0.7999E+01
     -7.513  0.1260E-01  0.8000E+01
     -7.406  0.8547E-04  0.8000E+01
     -7.299  0.8439E-06  0.8000E+01
     -7.192  0.4369E-03  0.8000E+01
     -7.085  0.3054E-01  0.8003E+01
     -6.977  0.3134E+00  0.8037E+01
     -6.870  0.6454E+00  0.8106E+01
     -6.763  0.5384E+00  0.8164E+01
     -6.656  0.6776E+00  0.8237E+01
     -6.548  0.1154E+01  0.8360E+01
     -6.441  0.1880E+01  0.8562E+01
     -6.334  0.2446E+01  0.8824E+01
     -6.227  0.2872E+01  0.9132E+01
     -6.119  0.3913E+01  0.9552E+01
     -6.012  0.3661E+01  0.9945E+01
     -5.905  0.3555E+01  0.1033E+02
     -5.798  0.4736E+01  0.1083E+02
     -5.690  0.5328E+01  0.1140E+02
     -5.583  0.4708E+01  0.1191E+02
     -5.476  0.3449E+01  0.1228E+02
     -5.369  0.3374E+01  0.1264E+02
     -5.261  0.3495E+01  0.1302E+02
     -5.154  0.2660E+01  0.1330E+02
     -5.047  0.1993E+01  0.1352E+02
     -4.940  0.1711E+01  0.1370E+02
     -4.832  0.1160E+01  0.1382E+02
     -4.725  0.1009E+01  0.1393E+02
     -4.618  0.1653E+01  0.1411E+02
     -4.511  0.2192E+01  0.1434E+02
     -4.403  0.2129E+01  0.1457E+02
     -4.296  0.2122E+01  0.1480E+02
     -4.189  0.1991E+01  0.1501E+02
     -4.082  0.2189E+01  0.1525E+02
     -3.974  0.2381E+01  0.1550E+02
     -3.867  0.2914E+01  0.1582E+02
     -3.760  0.3350E+01  0.1618E+02
     -3.653  0.4435E+01  0.1665E+02
     -3.545  0.5529E+01  0.1724E+02
     -3.438  0.4521E+01  0.1773E+02
     -3.331  0.2763E+01  0.1802E+02
     -3.224  0.3552E+01  0.1841E+02
     -3.117  0.4989E+01  0.1894E+02
     -3.009  0.3038E+01  0.1927E+02
     -2.902  0.2073E+01  0.1949E+02
     -2.795  0.2289E+01  0.1973E+02
     -2.688  0.2953E+01  0.2005E+02
     -2.580  0.3411E+01  0.2042E+02
     -2.473  0.3319E+01  0.2077E+02
     -2.366  0.6797E+01  0.2150E+02
     -2.259  0.7359E+01  0.2229E+02
     -2.151  0.5325E+01  0.2286E+02
     -2.044  0.5461E+01  0.2345E+02
     -1.937  0.5346E+01  0.2402E+02
     -1.830  0.5712E+01  0.2463E+02
     -1.722  0.6607E+01  0.2534E+02
     -1.615  0.6599E+01  0.2605E+02
     -1.508  0.5762E+01  0.2667E+02
     -1.401  0.4698E+01  0.2717E+02
     -1.293  0.3658E+01  0.2756E+02
     -1.186  0.3410E+01  0.2793E+02
     -1.079  0.3589E+01  0.2831E+02
     -0.972  0.3189E+01  0.2866E+02
     -0.864  0.2313E+01  0.2890E+02
     -0.757  0.3304E+01  0.2926E+02
     -0.650  0.5141E+01  0.2981E+02
     -0.543  0.4503E+01  0.3029E+02
     -0.435  0.4385E+01  0.3076E+02
     -0.328  0.5098E+01  0.3131E+02
     -0.221  0.5893E+01  0.3194E+02
     -0.114  0.5891E+01  0.3257E+02
     -0.006  0.5892E+01  0.3321E+02
      0.101  0.7949E+01  0.3406E+02
      0.208  0.9221E+01  0.3505E+02
      0.315  0.8869E+01  0.3600E+02
      0.423  0.6207E+01  0.3666E+02
      0.530  0.3109E+01  0.3700E+02
      0.637  0.2125E+01  0.3723E+02
      0.744  0.2086E+01  0.3745E+02
      0.851  0.2251E+01  0.3769E+02
      0.959  0.2927E+01  0.3800E+02
      1.066  0.4435E+01  0.3848E+02
      1.173  0.3546E+01  0.3886E+02
      1.280  0.1858E+01  0.3906E+02
      1.388  0.2280E+01  0.3930E+02
      1.495  0.2581E+01  0.3958E+02
      1.602  0.2778E+01  0.3988E+02
      1.709  0.3436E+01  0.4025E+02
      1.817  0.3932E+01  0.4067E+02
      1.924  0.3785E+01  0.4107E+02
      2.031  0.3245E+01  0.4142E+02
      2.138  0.3217E+01  0.4177E+02
      2.246  0.3215E+01  0.4211E+02
      2.353  0.3203E+01  0.4246E+02
      2.460  0.3631E+01  0.4285E+02
      2.567  0.2943E+01  0.4316E+02
      2.675  0.1376E+01  0.4331E+02
      2.782  0.4755E+00  0.4336E+02
      2.889  0.3534E+00  0.4340E+02
      2.996  0.3456E+00  0.4343E+02
      3.104  0.3445E+00  0.4347E+02
      3.211  0.3469E+00  0.4351E+02
      3.318  0.3524E+00  0.4355E+02
      3.425  0.3613E+00  0.4359E+02
      3.533  0.3746E+00  0.4363E+02
      3.640  0.3942E+00  0.4367E+02
      3.747  0.4242E+00  0.4371E+02
      3.854  0.4773E+00  0.4376E+02
      3.962  0.6010E+00  0.4383E+02
      4.069  0.7709E+00  0.4391E+02
      4.176  0.7104E+00  0.4399E+02
      4.283  0.8941E+00  0.4408E+02
      4.390  0.1136E+01  0.4421E+02
      4.498  0.1160E+01  0.4433E+02
      4.605  0.1461E+01  0.4449E+02
      4.712  0.1305E+01  0.4463E+02
      4.819  0.1108E+01  0.4475E+02
      4.927  0.1168E+01  0.4487E+02
      5.034  0.9626E+00  0.4497E+02
      5.141  0.8604E+00  0.4507E+02
      5.248  0.1180E+01  0.4519E+02
      5.356  0.1791E+01  0.4538E+02
      5.463  0.2033E+01  0.4560E+02
      5.570  0.2168E+01  0.4584E+02
      5.677  0.2465E+01  0.4610E+02
      5.785  0.3440E+01  0.4647E+02
      5.892  0.4522E+01  0.4695E+02
      5.999  0.5557E+01  0.4755E+02
      6.106  0.3368E+01  0.4791E+02
      6.214  0.1957E+01  0.4812E+02
      6.321  0.2055E+01  0.4834E+02
      6.428  0.2746E+01  0.4864E+02
      6.535  0.4613E+01  0.4913E+02
      6.643  0.4797E+01  0.4964E+02
      6.750  0.4598E+01  0.5014E+02
      6.857  0.5138E+01  0.5069E+02
      6.964  0.5862E+01  0.5132E+02
      7.072  0.6309E+01  0.5199E+02
      7.179  0.6004E+01  0.5264E+02
      7.286  0.4880E+01  0.5316E+02
      7.393  0.4229E+01  0.5361E+02
      7.501  0.4067E+01  0.5405E+02
      7.608  0.3603E+01  0.5444E+02
      7.715  0.4046E+01  0.5487E+02
      7.822  0.4508E+01  0.5535E+02
      7.930  0.3249E+01  0.5570E+02
      8.037  0.2464E+01  0.5597E+02
      8.144  0.2860E+01  0.5627E+02
      8.251  0.3547E+01  0.5665E+02
      8.358  0.5142E+01  0.5721E+02
      8.466  0.5448E+01  0.5779E+02
      8.573  0.4538E+01  0.5828E+02
      8.680  0.3468E+01  0.5865E+02
      8.787  0.3137E+01  0.5899E+02
      8.895  0.3394E+01  0.5935E+02
      9.002  0.3583E+01  0.5973E+02
      9.109  0.3793E+01  0.6014E+02
      9.216  0.3467E+01  0.6051E+02
      9.324  0.3507E+01  0.6089E+02
      9.431  0.4404E+01  0.6136E+02
      9.538  0.4316E+01  0.6182E+02
      9.645  0.4177E+01  0.6227E+02
      9.753  0.4300E+01  0.6273E+02
      9.860  0.3973E+01  0.6316E+02
      9.967  0.3378E+01  0.6352E+02
     10.074  0.3906E+01  0.6394E+02
     10.182  0.4713E+01  0.6445E+02
     10.289  0.4915E+01  0.6497E+02
     10.396  0.4876E+01  0.6550E+02
     10.503  0.4738E+01  0.6600E+02
     10.611  0.4775E+01  0.6652E+02
     10.718  0.3795E+01  0.6692E+02
     10.825  0.3256E+01  0.6727E+02
     10.932  0.3573E+01  0.6765E+02
     11.040  0.5216E+01  0.6821E+02
     11.147  0.6395E+01  0.6890E+02
     11.254  0.6573E+01  0.6960E+02
     11.361  0.5700E+01  0.7022E+02
     11.469  0.5105E+01  0.7076E+02
     11.576  0.5329E+01  0.7133E+02
     11.683  0.5490E+01  0.7192E+02
     11.790  0.5989E+01  0.7257E+02
     11.898  0.7917E+01  0.7342E+02
     12.005  0.9273E+01  0.7441E+02
     12.112  0.9503E+01  0.7543E+02
     12.219  0.8416E+01  0.7633E+02
     12.326  0.5948E+01  0.7697E+02
     12.434  0.4760E+01  0.7748E+02
     12.541  0.5541E+01  0.7807E+02
     12.648  0.5770E+01  0.7869E+02
     12.755  0.4659E+01  0.7919E+02
     12.863  0.4298E+01  0.7965E+02
     12.970  0.4852E+01  0.8017E+02
     13.077  0.6280E+01  0.8085E+02
     13.184  0.6725E+01  0.8157E+02
     13.292  0.6118E+01  0.8222E+02
     13.399  0.6205E+01  0.8289E+02
     13.506  0.5222E+01  0.8345E+02
     13.613  0.4163E+01  0.8390E+02
     13.721  0.4150E+01  0.8434E+02
     13.828  0.3997E+01  0.8477E+02
     13.935  0.4736E+01  0.8528E+02
     14.042  0.6002E+01  0.8592E+02
     14.150  0.5735E+01  0.8654E+02
     14.257  0.4804E+01  0.8705E+02
     14.364  0.5074E+01  0.8760E+02
     14.471  0.5078E+01  0.8814E+02
     14.579  0.4965E+01  0.8867E+02
     14.686  0.5737E+01  0.8929E+02
     14.793  0.5503E+01  0.8988E+02
     14.900  0.4675E+01  0.9038E+02
     15.008  0.5138E+01  0.9093E+02
     15.115  0.5047E+01  0.9147E+02
     15.222  0.4426E+01  0.9195E+02
     15.329  0.6166E+01  0.9261E+02
     15.437  0.8000E+01  0.9347E+02
     15.544  0.6757E+01  0.9419E+02
     15.651  0.4679E+01  0.9469E+02
     15.758  0.2546E+01  0.9497E+02
     15.865  0.1550E+01  0.9513E+02
     15.973  0.1339E+01  0.9527E+02
     16.080  0.1017E+01  0.9538E+02
     16.187  0.8849E+00  0.9548E+02
     16.294  0.1496E+01  0.9564E+02
     16.402  0.2084E+01  0.9586E+02
     16.509  0.9969E+00  0.9597E+02
     16.616  0.2488E+00  0.9600E+02
     16.723  0.3287E-01  0.9600E+02
     16.831  0.9868E-03  0.9600E+02
     16.938  0.4191E-05  0.9600E+02
     17.045  0.2086E-08  0.9600E+02
     17.152  0.1131E-12  0.9600E+02
     17.260  0.0000E+00  0.9600E+02
     17.367  0.0000E+00  0.9600E+02
     17.474  0.0000E+00  0.9600E+02
     17.581  0.0000E+00  0.9600E+02
     17.689  0.0000E+00  0.9600E+02
     17.796  0.0000E+00  0.9600E+02
     17.903  0.0000E+00  0.9600E+02
     18.010  0.0000E+00  0.9600E+02
     18.01035030    -14.16253636  301      2.21013890      1.00000000
    -14.163  0.0000E+00  0.0000E+00  0.0000E+00  0.0000E+00  0.0000E+00  0.0000E+00  0.0000E+00  0.0000E+00  0.0000E+00
    -14.055  0.0000E+00  0.0000E+00  0.0000E+00  0.0000E+00  0.0000E+00  0.0000E+00  0.0000E+00  0.0000E+00  0.0000E+00
    -13.948  0.0000E+00  0.0000E+00  0.0000E+00  0.0000E+00  0.0000E+00  0.0000E+00  0.0000E+00  0.0000E+00  0.0000E+00
    -13.841  0.0000E+00  0.0000E+00  0.0000E+00  0.0000E+00  0.0000E+00  0.0000E+00  0.0000E+00  0.0000E+00  0.0000E+00
    -13.734  0.0000E+00  0.0000E+00  0.0000E+00  0.0000E+00  0.0000E+00  0.0000E+00  0.0000E+00  0.0000E+00  0.0000E+00
    -13.626  0.0000E+00  0.0000E+00  0.0000E+00  0.0000E+00  0.0000E+00  0.0000E+00  0.0000E+00  0.0000E+00  0.0000E+00
    -13.519  0.0000E+00  0.0000E+00  0.0000E+00  0.0000E+00  0.0000E+00  0.0000E+00  0.0000E+00  0.0000E+00  0.0000E+00
    -13.412  0.0000E+00  0.0000E+00  0.0000E+00  0.0000E+00  0.0000E+00  0.0000E+00  0.0000E+00  0.0000E+00  0.0000E+00
    -13.305  0.0000E+00  0.0000E+00  0.0000E+00  0.0000E+00  0.0000E+00  0.0000E+00  0.0000E+00  0.0000E+00  0.0000E+00
    -13.197  0.3336E-13  0.3425E-27  0.6928E-15  0.2570E-14  0.0000E+00  0.0000E+00  0.0000E+00  0.0000E+00  0.0000E+00
    -13.090  0.6375E-09  0.6509E-23  0.1330E-10  0.4913E-10  0.0000E+00  0.0000E+00  0.0000E+00  0.0000E+00  0.0000E+00
    -12.983  0.1347E-05  0.1354E-19  0.2829E-07  0.1039E-06  0.0000E+00  0.0000E+00  0.0000E+00  0.0000E+00  0.0000E+00
    -12.876  0.3369E-03  0.3278E-17  0.7170E-05  0.2600E-04  0.0000E+00  0.0000E+00  0.0000E+00  0.0000E+00  0.0000E+00
    -12.768  0.1151E-01  0.1054E-15  0.2526E-03  0.8910E-03  0.0000E+00  0.0000E+00  0.0000E+00  0.0000E+00  0.0000E+00
    -12.661  0.7105E-01  0.6073E-15  0.1660E-02  0.5541E-02  0.0000E+00  0.0000E+00  0.0000E+00  0.0000E+00  0.0000E+00
    -12.554  0.1164E+00  0.2011E-12  0.2957E-02  0.9367E-02  0.0000E+00  0.0000E+00  0.0000E+00  0.0000E+00  0.0000E+00
    -12.447  0.1177E+00  0.3040E-09  0.3031E-02  0.1025E-01  0.0000E+00  0.0000E+00  0.0000E+00  0.0000E+00  0.0000E+00
    -12.339  0.1947E+00  0.5978E-07  0.5056E-02  0.1810E-01  0.0000E+00  0.0000E+00  0.0000E+00  0.0000E+00  0.0000E+00
    -12.232  0.2439E+00  0.1806E-05  0.7670E-02  0.3379E-01  0.0000E+00  0.0000E+00  0.0000E+00  0.0000E+00  0.0000E+00
    -12.125  0.3162E+00  0.1110E-04  0.1170E-01  0.6078E-01  0.0000E+00  0.0000E+00  0.0000E+00  0.0000E+00  0.0000E+00
    -12.018  0.2152E+00  0.2001E-04  0.8301E-02  0.4432E-01  0.0000E+00  0.0000E+00  0.0000E+00  0.0000E+00  0.0000E+00
    -11.910  0.1418E+00  0.1332E-04  0.5972E-02  0.3217E-01  0.0000E+00  0.0000E+00  0.0000E+00  0.0000E+00  0.0000E+00
    -11.803  0.8894E-01  0.2756E-05  0.5072E-02  0.2585E-01  0.0000E+00  0.0000E+00  0.0000E+00  0.0000E+00  0.0000E+00
    -11.696  0.7119E-01  0.1230E-06  0.6774E-02  0.3164E-01  0.0000E+00  0.0000E+00  0.0000E+00  0.0000E+00  0.0000E+00
    -11.589  0.7007E-01  0.8763E-09  0.7848E-02  0.3722E-01  0.0000E+00  0.0000E+00  0.0000E+00  0.0000E+00  0.0000E+00
    -11.481  0.6709E-01  0.8282E-12  0.8144E-02  0.3978E-01  0.0000E+00  0.0000E+00  0.0000E+00  0.0000E+00  0.0000E+00
    -11.374  0.6337E-01  0.1435E-14  0.8522E-02  0.4097E-01  0.0000E+00  0.0000E+00  0.0000E+00  0.0000E+00  0.0000E+00
    -11.267  0.5041E-01  0.1251E-14  0.6999E-02  0.3554E-01  0.0000E+00  0.0000E+00  0.0000E+00  0.0000E+00  0.0000E+00
    -11.160  0.2019E-01  0.5261E-15  0.2820E-02  0.1495E-01  0.0000E+00  0.0000E+00  0.0000E+00  0.0000E+00  0.0000E+00
    -11.052  0.1844E-02  0.4417E-16  0.2587E-03  0.1390E-02  0.0000E+00  0.0000E+00  0.0000E+00  0.0000E+00  0.0000E+00
    -10.945  0.2542E-04  0.5463E-18  0.3576E-05  0.1932E-04  0.0000E+00  0.0000E+00  0.0000E+00  0.0000E+00  0.0000E+00
    -10.838  0.4378E-07  0.8608E-21  0.6169E-08  0.3340E-07  0.0000E+00  0.0000E+00  0.0000E+00  0.0000E+00  0.0000E+00
    -10.731  0.8580E-11  0.1589E-24  0.1210E-11  0.6561E-11  0.0000E+00  0.0000E+00  0.0000E+00  0.0000E+00  0.0000E+00
    -10.624  0.1826E-15  0.3253E-29  0.2576E-16  0.1398E-15  0.0000E+00  0.0000E+00  0.0000E+00  0.0000E+00  0.0000E+00
    -10.516  0.0000E+00  0.0000E+00  0.0000E+00  0.0000E+00  0.0000E+00  0.0000E+00  0.0000E+00  0.0000E+00  0.0000E+00
    -10.409  0.0000E+00  0.0000E+00  0.0000E+00  0.0000E+00  0.0000E+00  0.0000E+00  0.0000E+00  0.0000E+00  0.0000E+00
    -10.302  0.0000E+00  0.0000E+00  0.0000E+00  0.0000E+00  0.0000E+00  0.0000E+00  0.0000E+00  0.0000E+00  0.0000E+00
    -10.195  0.0000E+00  0.0000E+00  0.0000E+00  0.0000E+00  0.0000E+00  0.0000E+00  0.0000E+00  0.0000E+00  0.0000E+00
    -10.087  0.0000E+00  0.0000E+00  0.0000E+00  0.0000E+00  0.0000E+00  0.0000E+00  0.0000E+00  0.0000E+00  0.0000E+00
     -9.980  0.0000E+00  0.0000E+00  0.0000E+00  0.0000E+00  0.0000E+00  0.0000E+00  0.0000E+00  0.0000E+00  0.0000E+00
     -9.873  0.0000E+00  0.0000E+00  0.0000E+00  0.0000E+00  0.0000E+00  0.0000E+00  0.0000E+00  0.0000E+00  0.0000E+00
     -9.766  0.0000E+00  0.0000E+00  0.0000E+00  0.0000E+00  0.0000E+00  0.0000E+00  0.0000E+00  0.0000E+00  0.0000E+00
     -9.658  0.0000E+00  0.0000E+00  0.0000E+00  0.0000E+00  0.0000E+00  0.0000E+00  0.0000E+00  0.0000E+00  0.0000E+00
     -9.551  0.0000E+00  0.0000E+00  0.0000E+00  0.0000E+00  0.0000E+00  0.0000E+00  0.0000E+00  0.0000E+00  0.0000E+00
     -9.444  0.0000E+00  0.0000E+00  0.0000E+00  0.0000E+00  0.0000E+00  0.0000E+00  0.0000E+00  0.0000E+00  0.0000E+00
     -9.337  0.1205E-13  0.2759E-27  0.3585E-14  0.7858E-16  0.0000E+00  0.0000E+00  0.0000E+00  0.0000E+00  0.0000E+00
     -9.229  0.2821E-09  0.6437E-23  0.8392E-10  0.1864E-11  0.0000E+00  0.0000E+00  0.0000E+00  0.0000E+00  0.0000E+00
     -9.122  0.7257E-06  0.1640E-19  0.2159E-06  0.4895E-08  0.0000E+00  0.0000E+00  0.0000E+00  0.0000E+00  0.0000E+00
     -9.015  0.2179E-03  0.4831E-17  0.6491E-04  0.1537E-05  0.0000E+00  0.0000E+00  0.0000E+00  0.0000E+00  0.0000E+00
     -8.908  0.8735E-02  0.1872E-15  0.2632E-02  0.7022E-04  0.0000E+00  0.0000E+00  0.0000E+00  0.0000E+00  0.0000E+00
     -8.800  0.6565E-01  0.4978E-14  0.2049E-01  0.7226E-03  0.0000E+00  0.0000E+00  0.0000E+00  0.0000E+00  0.0000E+00
     -8.693  0.1971E+00  0.1351E-10  0.5863E-01  0.2510E-02  0.0000E+00  0.0000E+00  0.0000E+00  0.0000E+00  0.0000E+00
     -8.586  0.3464E+00  0.6153E-08  0.9318E-01  0.3732E-02  0.0000E+00  0.0000E+00  0.0000E+00  0.0000E+00  0.0000E+00
     -8.479  0.3789E+00  0.3938E-06  0.1120E+00  0.5039E-02  0.0000E+00  0.0000E+00  0.0000E+00  0.0000E+00  0.0000E+00
     -8.371  0.4702E+00  0.4425E-05  0.1622E+00  0.8941E-02  0.0000E+00  0.0000E+00  0.0000E+00  0.0000E+00  0.0000E+00
     -8.264  0.2966E+00  0.1183E-04  0.1528E+00  0.1180E-01  0.0000E+00  0.0000E+00  0.0000E+00  0.0000E+00  0.0000E+00
     -8.157  0.1752E+00  0.9557E-05  0.1429E+00  0.1406E-01  0.0000E+00  0.0000E+00  0.0000E+00  0.0000E+00  0.0000E+00
     -8.050  0.1149E+00  0.2215E-05  0.1540E+00  0.1686E-01  0.0000E+00  0.0000E+00  0.0000E+00  0.0000E+00  0.0000E+00
     -7.942  0.4916E-01  0.1104E-06  0.9906E-01  0.1304E-01  0.0000E+00  0.0000E+00  0.0000E+00  0.0000E+00  0.0000E+00
     -7.835  0.2183E-01  0.8879E-09  0.5294E-01  0.8569E-02  0.0000E+00  0.0000E+00  0.0000E+00  0.0000E+00  0.0000E+00
     -7.728  0.1461E-01  0.9531E-12  0.3903E-01  0.6807E-02  0.0000E+00  0.0000E+00  0.0000E+00  0.0000E+00  0.0000E+00
     -7.621  0.3860E-02  0.2705E-15  0.1075E-01  0.1898E-02  0.0000E+00  0.0000E+00  0.0000E+00  0.0000E+00  0.0000E+00
     -7.513  0.1880E-03  0.7707E-17  0.5321E-03  0.9425E-04  0.0000E+00  0.0000E+00  0.0000E+00  0.0000E+00  0.0000E+00
     -7.406  0.1268E-05  0.5325E-19  0.3617E-05  0.6413E-06  0.0000E+00  0.0000E+00  0.0000E+00  0.0000E+00  0.0000E+00
     -7.299  0.1225E-08  0.2015E-20  0.6675E-08  0.2634E-07  0.0000E+00  0.0000E+00  0.0000E+00  0.0000E+00  0.0000E+00
     -7.192  0.1341E-06  0.1065E-17  0.2116E-05  0.1456E-04  0.0000E+00  0.0000E+00  0.0000E+00  0.0000E+00  0.0000E+00
     -7.085  0.1227E-04  0.6948E-16  0.1490E-03  0.1018E-02  0.0000E+00  0.0000E+00  0.0000E+00  0.0000E+00  0.0000E+00
     -6.977  0.1920E-03  0.2835E-14  0.1554E-02  0.1044E-01  0.0000E+00  0.0000E+00  0.0000E+00  0.0000E+00  0.0000E+00
     -6.870  0.7561E-03  0.6204E-10  0.3334E-02  0.2151E-01  0.0000E+00  0.0000E+00  0.0000E+00  0.0000E+00  0.0000E+00
     -6.763  0.1312E-02  0.1916E-06  0.3035E-02  0.1801E-01  0.0000E+00  0.0000E+00  0.0000E+00  0.0000E+00  0.0000E+00
     -6.656  0.1846E-02  0.6824E-04  0.4023E-02  0.2307E-01  0.0000E+00  0.0000E+00  0.0000E+00  0.0000E+00  0.0000E+00
     -6.548  0.2679E-02  0.3110E-02  0.6170E-02  0.3520E-01  0.0000E+00  0.0000E+00  0.0000E+00  0.0000E+00  0.0000E+00
     -6.441  0.3355E-02  0.2217E-01  0.5715E-02  0.3105E-01  0.0000E+00  0.0000E+00  0.0000E+00  0.0000E+00  0.0000E+00
     -6.334  0.4283E-02  0.3789E-01  0.5303E-02  0.2650E-01  0.0000E+00  0.0000E+00  0.0000E+00  0.0000E+00  0.0000E+00
     -6.227  0.1527E-01  0.3975E-01  0.1034E-01  0.2959E-01  0.0000E+00  0.0000E+00  0.0000E+00  0.0000E+00  0.0000E+00
     -6.119  0.4796E-01  0.3299E-01  0.2652E-01  0.4379E-01  0.0000E+00  0.0000E+00  0.0000E+00  0.0000E+00  0.0000E+00
     -6.012  0.5303E-01  0.2174E-01  0.2944E-01  0.4553E-01  0.0000E+00  0.0000E+00  0.0000E+00  0.0000E+00  0.0000E+00
     -5.905  0.5269E-01  0.2397E-01  0.2777E-01  0.3701E-01  0.0000E+00  0.0000E+00  0.0000E+00  0.0000E+00  0.0000E+00
     -5.798  0.8689E-01  0.2627E-01  0.4298E-01  0.4576E-01  0.0000E+00  0.0000E+00  0.0000E+00  0.0000E+00  0.0000E+00
     -5.690  0.9425E-01  0.2415E-01  0.5016E-01  0.5862E-01  0.0000E+00  0.0000E+00  0.0000E+00  0.0000E+00  0.0000E+00
     -5.583  0.6383E-01  0.2592E-01  0.3754E-01  0.4765E-01  0.0000E+00  0.0000E+00  0.0000E+00  0.0000E+00  0.0000E+00
     -5.476  0.5618E-01  0.1960E-01  0.3075E-01  0.2809E-01  0.0000E+00  0.0000E+00  0.0000E+00  0.0000E+00  0.0000E+00
     -5.369  0.7867E-01  0.1654E-01  0.3868E-01  0.2023E-01  0.0000E+00  0.0000E+00  0.0000E+00  0.0000E+00  0.0000E+00
     -5.261  0.7738E-01  0.1790E-01  0.4079E-01  0.1974E-01  0.0000E+00  0.0000E+00  0.0000E+00  0.0000E+00  0.0000E+00
     -5.154  0.6612E-01  0.1097E-01  0.3838E-01  0.1985E-01  0.0000E+00  0.0000E+00  0.0000E+00  0.0000E+00  0.0000E+00
     -5.047  0.6131E-01  0.4351E-02  0.3779E-01  0.2127E-01  0.0000E+00  0.0000E+00  0.0000E+00  0.0000E+00  0.0000E+00
     -4.940  0.5068E-01  0.3434E-02  0.3396E-01  0.2089E-01  0.0000E+00  0.0000E+00  0.0000E+00  0.0000E+00  0.0000E+00
     -4.832  0.3481E-01  0.3326E-02  0.2335E-01  0.1282E-01  0.0000E+00  0.0000E+00  0.0000E+00  0.0000E+00  0.0000E+00
     -4.725  0.3084E-01  0.3256E-02  0.2432E-01  0.9459E-02  0.0000E+00  0.0000E+00  0.0000E+00  0.0000E+00  0.0000E+00
     -4.618  0.3782E-01  0.3206E-02  0.5503E-01  0.1873E-01  0.0000E+00  0.0000E+00  0.0000E+00  0.0000E+00  0.0000E+00
     -4.511  0.3216E-01  0.3174E-02  0.8203E-01  0.3183E-01  0.0000E+00  0.0000E+00  0.0000E+00  0.0000E+00  0.0000E+00
     -4.403  0.2117E-01  0.3160E-02  0.8156E-01  0.3375E-01  0.0000E+00  0.0000E+00  0.0000E+00  0.0000E+00  0.0000E+00
     -4.296  0.1944E-01  0.3161E-02  0.7426E-01  0.3881E-01  0.0000E+00  0.0000E+00  0.0000E+00  0.0000E+00  0.0000E+00
     -4.189  0.2052E-01  0.3185E-02  0.6200E-01  0.4177E-01  0.0000E+00  0.0000E+00  0.0000E+00  0.0000E+00  0.0000E+00
     -4.082  0.2237E-01  0.3742E-02  0.6051E-01  0.5050E-01  0.0000E+00  0.0000E+00  0.0000E+00  0.0000E+00  0.0000E+00
     -3.974  0.2362E-01  0.1344E-01  0.6281E-01  0.5081E-01  0.0000E+00  0.0000E+00  0.0000E+00  0.0000E+00  0.0000E+00
     -3.867  0.2471E-01  0.3986E-01  0.6735E-01  0.5048E-01  0.0000E+00  0.0000E+00  0.0000E+00  0.0000E+00  0.0000E+00
     -3.760  0.2787E-01  0.5330E-01  0.7733E-01  0.5878E-01  0.0000E+00  0.0000E+00  0.0000E+00  0.0000E+00  0.0000E+00
     -3.653  0.4369E-01  0.6011E-01  0.1104E+00  0.1019E+00  0.0000E+00  0.0000E+00  0.0000E+00  0.0000E+00  0.0000E+00
     -3.545  0.7060E-01  0.3943E-01  0.1542E+00  0.1650E+00  0.0000E+00  0.0000E+00  0.0000E+00  0.0000E+00  0.0000E+00
     -3.438  0.6561E-01  0.2489E-01  0.1156E+00  0.1361E+00  0.0000E+00  0.0000E+00  0.0000E+00  0.0000E+00  0.0000E+00
     -3.331  0.3546E-01  0.2550E-01  0.6583E-01  0.5808E-01  0.0000E+00  0.0000E+00  0.0000E+00  0.0000E+00  0.0000E+00
     -3.224  0.2970E-01  0.7011E-01  0.6500E-01  0.3022E-01  0.0000E+00  0.0000E+00  0.0000E+00  0.0000E+00  0.0000E+00
     -3.117  0.3686E-01  0.1312E+00  0.3856E-01  0.2714E-01  0.0000E+00  0.0000E+00  0.0000E+00  0.0000E+00  0.0000E+00
     -3.009  0.3385E-01  0.6557E-01  0.1221E-01  0.2619E-01  0.0000E+00  0.0000E+00  0.0000E+00  0.0000E+00  0.0000E+00
     -2.902  0.4198E-01  0.1739E-01  0.1063E-01  0.2925E-01  0.0000E+00  0.0000E+00  0.0000E+00  0.0000E+00  0.0000E+00
     -2.795  0.4616E-01  0.1593E-01  0.1192E-01  0.3261E-01  0.0000E+00  0.0000E+00  0.0000E+00  0.0000E+00  0.0000E+00
     -2.688  0.4661E-01  0.2437E-01  0.1362E-01  0.3903E-01  0.0000E+00  0.0000E+00  0.0000E+00  0.0000E+00  0.0000E+00
     -2.580  0.5023E-01  0.2208E-01  0.1320E-01  0.4734E-01  0.0000E+00  0.0000E+00  0.0000E+00  0.0000E+00  0.0000E+00
     -2.473  0.4170E-01  0.1087E-01  0.8782E-02  0.3761E-01  0.0000E+00  0.0000E+00  0.0000E+00  0.0000E+00  0.0000E+00
     -2.366  0.5254E-01  0.8771E-02  0.1178E-01  0.3912E-01  0.0000E+00  0.0000E+00  0.0000E+00  0.0000E+00  0.0000E+00
     -2.259  0.4375E-01  0.1651E-01  0.1174E-01  0.4296E-01  0.0000E+00  0.0000E+00  0.0000E+00  0.0000E+00  0.0000E+00
     -2.151  0.3493E-01  0.3907E-01  0.1059E-01  0.6206E-01  0.0000E+00  0.0000E+00  0.0000E+00  0.0000E+00  0.0000E+00
     -2.044  0.5553E-01  0.3882E-01  0.2562E-01  0.1192E+00  0.0000E+00  0.0000E+00  0.0000E+00  0.0000E+00  0.0000E+00
     -1.937  0.5009E-01  0.2764E-01  0.5264E-01  0.1342E+00  0.0000E+00  0.0000E+00  0.0000E+00  0.0000E+00  0.0000E+00
     -1.830  0.2472E-01  0.5605E-01  0.7394E-01  0.1157E+00  0.0000E+00  0.0000E+00  0.0000E+00  0.0000E+00  0.0000E+00
     -1.722  0.1680E-01  0.1279E+00  0.6843E-01  0.9188E-01  0.0000E+00  0.0000E+00  0.0000E+00  0.0000E+00  0.0000E+00
     -1.615  0.1581E-01  0.1387E+00  0.6625E-01  0.9720E-01  0.0000E+00  0.0000E+00  0.0000E+00  0.0000E+00  0.0000E+00
     -1.508  0.1539E-01  0.9719E-01  0.6058E-01  0.1367E+00  0.0000E+00  0.0000E+00  0.0000E+00  0.0000E+00  0.0000E+00
     -1.401  0.1180E-01  0.6427E-01  0.4761E-01  0.1523E+00  0.0000E+00  0.0000E+00  0.0000E+00  0.0000E+00  0.0000E+00
     -1.293  0.9024E-02  0.3268E-01  0.3576E-01  0.1390E+00  0.0000E+00  0.0000E+00  0.0000E+00  0.0000E+00  0.0000E+00
     -1.186  0.1131E-01  0.2181E-01  0.3407E-01  0.1321E+00  0.0000E+00  0.0000E+00  0.0000E+00  0.0000E+00  0.0000E+00
     -1.079  0.1711E-01  0.1643E-01  0.3567E-01  0.1518E+00  0.0000E+00  0.0000E+00  0.0000E+00  0.0000E+00  0.0000E+00
     -0.972  0.1845E-01  0.1669E-01  0.3094E-01  0.1174E+00  0.0000E+00  0.0000E+00  0.0000E+00  0.0000E+00  0.0000E+00
     -0.864  0.1689E-01  0.1975E-01  0.2368E-01  0.3266E-01  0.0000E+00  0.0000E+00  0.0000E+00  0.0000E+00  0.0000E+00
     -0.757  0.4054E-01  0.1335E-01  0.2690E-01  0.1012E-01  0.0000E+00  0.0000E+00  0.0000E+00  0.0000E+00  0.0000E+00
     -0.650  0.6971E-01  0.1111E-01  0.3490E-01  0.1100E-01  0.0000E+00  0.0000E+00  0.0000E+00  0.0000E+00  0.0000E+00
     -0.543  0.4665E-01  0.2267E-01  0.3443E-01  0.1291E-01  0.0000E+00  0.0000E+00  0.0000E+00  0.0000E+00  0.0000E+00
     -0.435  0.2261E-01  0.4651E-01  0.3349E-01  0.1411E-01  0.0000E+00  0.0000E+00  0.0000E+00  0.0000E+00  0.0000E+00
     -0.328  0.1651E-01  0.7933E-01  0.3837E-01  0.1528E-01  0.0000E+00  0.0000E+00  0.0000E+00  0.0000E+00  0.0000E+00
     -0.221  0.1569E-01  0.1059E+00  0.5234E-01  0.1624E-01  0.0000E+00  0.0000E+00  0.0000E+00  0.0000E+00  0.0000E+00
     -0.114  0.1544E-01  0.9601E-01  0.6785E-01  0.1624E-01  0.0000E+00  0.0000E+00  0.0000E+00  0.0000E+00  0.0000E+00
     -0.006  0.1590E-01  0.1169E+00  0.5754E-01  0.2190E-01  0.0000E+00  0.0000E+00  0.0000E+00  0.0000E+00  0.0000E+00
      0.101  0.3607E-01  0.1527E+00  0.6068E-01  0.5049E-01  0.0000E+00  0.0000E+00  0.0000E+00  0.0000E+00  0.0000E+00
      0.208  0.5758E-01  0.1459E+00  0.6904E-01  0.8403E-01  0.0000E+00  0.0000E+00  0.0000E+00  0.0000E+00  0.0000E+00
      0.315  0.6702E-01  0.1358E+00  0.8379E-01  0.1070E+00  0.0000E+00  0.0000E+00  0.0000E+00  0.0000E+00  0.0000E+00
      0.423  0.4521E-01  0.8949E-01  0.5771E-01  0.7845E-01  0.0000E+00  0.0000E+00  0.0000E+00  0.0000E+00  0.0000E+00
      0.530  0.1342E-01  0.3281E-01  0.3428E-01  0.4054E-01  0.0000E+00  0.0000E+00  0.0000E+00  0.0000E+00  0.0000E+00
      0.637  0.9504E-02  0.1095E-01  0.4804E-01  0.3021E-01  0.0000E+00  0.0000E+00  0.0000E+00  0.0000E+00  0.0000E+00
      0.744  0.1011E-01  0.1132E-01  0.5708E-01  0.2680E-01  0.0000E+00  0.0000E+00  0.0000E+00  0.0000E+00  0.0000E+00
      0.851  0.8936E-02  0.1967E-01  0.5077E-01  0.2646E-01  0.0000E+00  0.0000E+00  0.0000E+00  0.0000E+00  0.0000E+00
      0.959  0.1100E-01  0.1782E-01  0.7571E-01  0.3970E-01  0.0000E+00  0.0000E+00  0.0000E+00  0.0000E+00  0.0000E+00
      1.066  0.1822E-01  0.1478E-01  0.1305E+00  0.7651E-01  0.0000E+00  0.0000E+00  0.0000E+00  0.0000E+00  0.0000E+00
      1.173  0.1489E-01  0.1362E-01  0.9970E-01  0.6615E-01  0.0000E+00  0.0000E+00  0.0000E+00  0.0000E+00  0.0000E+00
      1.280  0.4525E-02  0.2395E-01  0.2696E-01  0.2137E-01  0.0000E+00  0.0000E+00  0.0000E+00  0.0000E+00  0.0000E+00
      1.388  0.1715E-02  0.4831E-01  0.8613E-02  0.9483E-02  0.0000E+00  0.0000E+00  0.0000E+00  0.0000E+00  0.0000E+00
      1.495  0.1432E-02  0.5662E-01  0.7482E-02  0.8784E-02  0.0000E+00  0.0000E+00  0.0000E+00  0.0000E+00  0.0000E+00
      1.602  0.1279E-02  0.6418E-01  0.7157E-02  0.8568E-02  0.0000E+00  0.0000E+00  0.0000E+00  0.0000E+00  0.0000E+00
      1.709  0.1158E-02  0.7897E-01  0.6918E-02  0.8362E-02  0.0000E+00  0.0000E+00  0.0000E+00  0.0000E+00  0.0000E+00
      1.817  0.1089E-02  0.8406E-01  0.6775E-02  0.8165E-02  0.0000E+00  0.0000E+00  0.0000E+00  0.0000E+00  0.0000E+00
      1.924  0.1060E-02  0.8014E-01  0.6718E-02  0.7962E-02  0.0000E+00  0.0000E+00  0.0000E+00  0.0000E+00  0.0000E+00
      2.031  0.1071E-02  0.7340E-01  0.6760E-02  0.7742E-02  0.0000E+00  0.0000E+00  0.0000E+00  0.0000E+00  0.0000E+00
      2.138  0.1231E-02  0.7161E-01  0.7149E-02  0.7536E-02  0.0000E+00  0.0000E+00  0.0000E+00  0.0000E+00  0.0000E+00
      2.246  0.2081E-02  0.6165E-01  0.9337E-02  0.7570E-02  0.0000E+00  0.0000E+00  0.0000E+00  0.0000E+00  0.0000E+00
      2.353  0.3371E-02  0.5909E-01  0.1282E-01  0.7567E-02  0.0000E+00  0.0000E+00  0.0000E+00  0.0000E+00  0.0000E+00
      2.460  0.4582E-02  0.6964E-01  0.1593E-01  0.7022E-02  0.0000E+00  0.0000E+00  0.0000E+00  0.0000E+00  0.0000E+00
      2.567  0.3697E-02  0.6315E-01  0.1389E-01  0.5809E-02  0.0000E+00  0.0000E+00  0.0000E+00  0.0000E+00  0.0000E+00