 running   24 mpi-ranks, with    1 threads/rank, on    1 nodes
 distrk:  each k-point on   24 cores,    1 groups
 distr:  one band on    1 cores,   24 groups
 vasp.6.4.3 19Mar24 (build May 31 2024 16:31:43) complex                        
  
 POSCAR found type information on POSCAR B 
 POSCAR found :  1 types and      14 ions
 Reading from existing POTCAR
 scaLAPACK will be used
 Reading from existing POTCAR
 LDA part: xc-table for (Slater+PW92), standard interpolation
 WARNING: stress and forces are not correct
 POSCAR, INCAR and KPOINTS ok, starting setup
 FFT: planning ... GRIDC
 FFT: planning ... GRID_SOFT
 FFT: planning ... GRID
 WAVECAR not read
 charge-density read from file: BS                                      
 entering main loop
       N       E                     dE             d eps       ncg     rms          rms(c)
DAV:   1     0.731576124215E+02    0.73158E+02   -0.19599E+04 32256   0.860E+02
DAV:   2    -0.852482236614E+02   -0.15841E+03   -0.14700E+03 44952   0.160E+02
DAV:   3    -0.905234304277E+02   -0.52752E+01   -0.52439E+01 46704   0.257E+01
DAV:   4    -0.905493385374E+02   -0.25908E-01   -0.25907E-01 39624   0.206E+00
DAV:   5    -0.905495685942E+02   -0.23006E-03   -0.23005E-03 46872   0.186E-01
DAV:   6    -0.905495713843E+02   -0.27902E-05   -0.27901E-05 38472   0.205E-02
DAV:   7    -0.905495714224E+02   -0.38036E-07   -0.38136E-07 46416   0.235E-03
   1 F= -.92511868E+02 E0= -.92503871E+02  d E =-.159931E-01
 writing wavefunctions
