   1   1   0   0
  0.3358826E+04  0.1497600E-08  0.1248000E-08  0.1797120E-08  0.5000000E-15
  1.000000000000000E-004
  CAR 
 Convergence                             
      2.50049848     -9.97690701  301     -3.60704514      1.00000000
     -9.977  0.0000E+00  0.0000E+00
     -9.935  0.0000E+00  0.0000E+00
     -9.894  0.0000E+00  0.0000E+00
     -9.852  0.0000E+00  0.0000E+00
     -9.811  0.0000E+00  0.0000E+00
     -9.769  0.0000E+00  0.0000E+00
     -9.727  0.0000E+00  0.0000E+00
     -9.686  0.1415E-12  0.5884E-14
     -9.644  0.8041E-09  0.3345E-10
     -9.603  0.1182E-05  0.4921E-07
     -9.561  0.4527E-03  0.1888E-04
     -9.519  0.4586E-01  0.1926E-02
     -9.478  0.1258E+01  0.5423E-01
     -9.436  0.9614E+01  0.4541E+00
     -9.395  0.2109E+02  0.1331E+01
     -9.353  0.1347E+02  0.1891E+01
     -9.311  0.2483E+01  0.1995E+01
     -9.270  0.1287E+00  0.2000E+01
     -9.228  0.1819E-02  0.2000E+01
     -9.187  0.6839E-05  0.2000E+01
     -9.145  0.6722E-08  0.2000E+01
     -9.103  0.1708E-11  0.2000E+01
     -9.062  0.0000E+00  0.2000E+01
     -9.020  0.0000E+00  0.2000E+01
     -8.979  0.0000E+00  0.2000E+01
     -8.937  0.0000E+00  0.2000E+01
     -8.896  0.0000E+00  0.2000E+01
     -8.854  0.0000E+00  0.2000E+01
     -8.812  0.0000E+00  0.2000E+01
     -8.771  0.0000E+00  0.2000E+01
     -8.729  0.0000E+00  0.2000E+01
     -8.688  0.0000E+00  0.2000E+01
     -8.646  0.0000E+00  0.2000E+01
     -8.604  0.0000E+00  0.2000E+01
     -8.563  0.0000E+00  0.2000E+01
     -8.521  0.0000E+00  0.2000E+01
     -8.480  0.0000E+00  0.2000E+01
     -8.438  0.0000E+00  0.2000E+01
     -8.396  0.0000E+00  0.2000E+01
     -8.355  0.0000E+00  0.2000E+01
     -8.313  0.0000E+00  0.2000E+01
     -8.272  0.0000E+00  0.2000E+01
     -8.230  0.0000E+00  0.2000E+01
     -8.188  0.0000E+00  0.2000E+01
     -8.147  0.0000E+00  0.2000E+01
     -8.105  0.0000E+00  0.2000E+01
     -8.064  0.0000E+00  0.2000E+01
     -8.022  0.0000E+00  0.2000E+01
     -7.981  0.0000E+00  0.2000E+01
     -7.939  0.0000E+00  0.2000E+01
     -7.897  0.0000E+00  0.2000E+01
     -7.856  0.0000E+00  0.2000E+01
     -7.814  0.0000E+00  0.2000E+01
     -7.773  0.0000E+00  0.2000E+01
     -7.731  0.0000E+00  0.2000E+01
     -7.689  0.0000E+00  0.2000E+01
     -7.648  0.0000E+00  0.2000E+01
     -7.606  0.0000E+00  0.2000E+01
     -7.565  0.0000E+00  0.2000E+01
     -7.523  0.0000E+00  0.2000E+01
     -7.481  0.0000E+00  0.2000E+01
     -7.440  0.0000E+00  0.2000E+01
     -7.398  0.0000E+00  0.2000E+01
     -7.357  0.0000E+00  0.2000E+01
     -7.315  0.0000E+00  0.2000E+01
     -7.273  0.0000E+00  0.2000E+01
     -7.232  0.0000E+00  0.2000E+01
     -7.190  0.0000E+00  0.2000E+01
     -7.149  0.0000E+00  0.2000E+01
     -7.107  0.0000E+00  0.2000E+01
     -7.066  0.0000E+00  0.2000E+01
     -7.024  0.0000E+00  0.2000E+01
     -6.982  0.0000E+00  0.2000E+01
     -6.941  0.0000E+00  0.2000E+01
     -6.899  0.0000E+00  0.2000E+01
     -6.858  0.0000E+00  0.2000E+01
     -6.816  0.0000E+00  0.2000E+01
     -6.774  0.0000E+00  0.2000E+01
     -6.733  0.0000E+00  0.2000E+01
     -6.691  0.0000E+00  0.2000E+01
     -6.650  0.0000E+00  0.2000E+01
     -6.608  0.0000E+00  0.2000E+01
     -6.566  0.0000E+00  0.2000E+01
     -6.525  0.0000E+00  0.2000E+01
     -6.483  0.0000E+00  0.2000E+01
     -6.442  0.0000E+00  0.2000E+01
     -6.400  0.0000E+00  0.2000E+01
     -6.358  0.0000E+00  0.2000E+01
     -6.317  0.0000E+00  0.2000E+01
     -6.275  0.0000E+00  0.2000E+01
     -6.234  0.0000E+00  0.2000E+01
     -6.192  0.0000E+00  0.2000E+01
     -6.151  0.0000E+00  0.2000E+01
     -6.109  0.0000E+00  0.2000E+01
     -6.067  0.0000E+00  0.2000E+01
     -6.026  0.0000E+00  0.2000E+01
     -5.984  0.0000E+00  0.2000E+01
     -5.943  0.0000E+00  0.2000E+01
     -5.901  0.0000E+00  0.2000E+01
     -5.859  0.0000E+00  0.2000E+01
     -5.818  0.0000E+00  0.2000E+01
     -5.776  0.0000E+00  0.2000E+01
     -5.735  0.0000E+00  0.2000E+01
     -5.693  0.0000E+00  0.2000E+01
     -5.651  0.0000E+00  0.2000E+01
     -5.610  0.0000E+00  0.2000E+01
     -5.568  0.0000E+00  0.2000E+01
     -5.527  0.0000E+00  0.2000E+01
     -5.485  0.0000E+00  0.2000E+01
     -5.443  0.0000E+00  0.2000E+01
     -5.402  0.0000E+00  0.2000E+01
     -5.360  0.0000E+00  0.2000E+01
     -5.319  0.0000E+00  0.2000E+01
     -5.277  0.0000E+00  0.2000E+01
     -5.235  0.0000E+00  0.2000E+01
     -5.194  0.0000E+00  0.2000E+01
     -5.152  0.0000E+00  0.2000E+01
     -5.111  0.0000E+00  0.2000E+01
     -5.069  0.0000E+00  0.2000E+01
     -5.028  0.0000E+00  0.2000E+01
     -4.986  0.0000E+00  0.2000E+01
     -4.944  0.0000E+00  0.2000E+01
     -4.903  0.0000E+00  0.2000E+01
     -4.861  0.0000E+00  0.2000E+01
     -4.820  0.0000E+00  0.2000E+01
     -4.778  0.0000E+00  0.2000E+01
     -4.736  0.0000E+00  0.2000E+01
     -4.695  0.0000E+00  0.2000E+01
     -4.653  0.0000E+00  0.2000E+01
     -4.612  0.0000E+00  0.2000E+01
     -4.570  0.0000E+00  0.2000E+01
     -4.528  0.0000E+00  0.2000E+01
     -4.487  0.0000E+00  0.2000E+01
     -4.445  0.0000E+00  0.2000E+01
     -4.404  0.0000E+00  0.2000E+01
     -4.362  0.0000E+00  0.2000E+01
     -4.320  0.0000E+00  0.2000E+01
     -4.279  0.0000E+00  0.2000E+01
     -4.237  0.0000E+00  0.2000E+01
     -4.196  0.0000E+00  0.2000E+01
     -4.154  0.0000E+00  0.2000E+01
     -4.113  0.0000E+00  0.2000E+01
     -4.071  0.0000E+00  0.2000E+01
     -4.029  0.0000E+00  0.2000E+01
     -3.988  0.0000E+00  0.2000E+01
     -3.946  0.0000E+00  0.2000E+01
     -3.905  0.0000E+00  0.2000E+01
     -3.863  0.1602E-13  0.2000E+01
     -3.821  0.1490E-09  0.2000E+01
     -3.780  0.3470E-06  0.2000E+01
     -3.738  0.2095E-03  0.2000E+01
     -3.697  0.3325E-01  0.2001E+01
     -3.655  0.1417E+01  0.2060E+01
     -3.613  0.1665E+02  0.2753E+01
     -3.572  0.5566E+02  0.5068E+01
     -3.530  0.5403E+02  0.7315E+01
     -3.489  0.1522E+02  0.7948E+01
     -3.447  0.1218E+01  0.7999E+01
     -3.405  0.2685E-01  0.8000E+01
     -3.364  0.1586E-03  0.8000E+01
     -3.322  0.2463E-06  0.8000E+01
     -3.281  0.9911E-10  0.8000E+01
     -3.239  0.0000E+00  0.8000E+01
     -3.198  0.0000E+00  0.8000E+01
     -3.156  0.0000E+00  0.8000E+01
     -3.114  0.0000E+00  0.8000E+01
     -3.073  0.0000E+00  0.8000E+01
     -3.031  0.0000E+00  0.8000E+01
     -2.990  0.0000E+00  0.8000E+01
     -2.948  0.0000E+00  0.8000E+01
     -2.906  0.0000E+00  0.8000E+01
     -2.865  0.0000E+00  0.8000E+01
     -2.823  0.0000E+00  0.8000E+01
     -2.782  0.0000E+00  0.8000E+01
     -2.740  0.0000E+00  0.8000E+01
     -2.698  0.0000E+00  0.8000E+01
     -2.657  0.0000E+00  0.8000E+01
     -2.615  0.0000E+00  0.8000E+01
     -2.574  0.0000E+00  0.8000E+01
     -2.532  0.0000E+00  0.8000E+01
     -2.490  0.0000E+00  0.8000E+01
     -2.449  0.0000E+00  0.8000E+01
     -2.407  0.0000E+00  0.8000E+01
     -2.366  0.0000E+00  0.8000E+01
     -2.324  0.0000E+00  0.8000E+01
     -2.283  0.0000E+00  0.8000E+01
     -2.241  0.0000E+00  0.8000E+01
     -2.199  0.0000E+00  0.8000E+01
     -2.158  0.0000E+00  0.8000E+01
     -2.116  0.0000E+00  0.8000E+01
     -2.075  0.0000E+00  0.8000E+01
     -2.033  0.0000E+00  0.8000E+01
     -1.991  0.0000E+00  0.8000E+01
     -1.950  0.0000E+00  0.8000E+01
     -1.908  0.0000E+00  0.8000E+01
     -1.867  0.0000E+00  0.8000E+01
     -1.825  0.0000E+00  0.8000E+01
     -1.783  0.0000E+00  0.8000E+01
     -1.742  0.0000E+00  0.8000E+01
     -1.700  0.0000E+00  0.8000E+01
     -1.659  0.0000E+00  0.8000E+01
     -1.617  0.0000E+00  0.8000E+01
     -1.575  0.0000E+00  0.8000E+01
     -1.534  0.0000E+00  0.8000E+01
     -1.492  0.0000E+00  0.8000E+01
     -1.451  0.0000E+00  0.8000E+01
     -1.409  0.0000E+00  0.8000E+01
     -1.367  0.0000E+00  0.8000E+01
     -1.326  0.0000E+00  0.8000E+01
     -1.284  0.0000E+00  0.8000E+01
     -1.243  0.0000E+00  0.8000E+01
     -1.201  0.0000E+00  0.8000E+01
     -1.160  0.0000E+00  0.8000E+01
     -1.118  0.0000E+00  0.8000E+01
     -1.076  0.0000E+00  0.8000E+01
     -1.035  0.0000E+00  0.8000E+01
     -0.993  0.0000E+00  0.8000E+01
     -0.952  0.0000E+00  0.8000E+01
     -0.910  0.0000E+00  0.8000E+01
     -0.868  0.0000E+00  0.8000E+01
     -0.827  0.0000E+00  0.8000E+01
     -0.785  0.0000E+00  0.8000E+01
     -0.744  0.0000E+00  0.8000E+01
     -0.702  0.0000E+00  0.8000E+01
     -0.660  0.0000E+00  0.8000E+01
     -0.619  0.0000E+00  0.8000E+01
     -0.577  0.0000E+00  0.8000E+01
     -0.536  0.2195E-14  0.8000E+01
     -0.494  0.1347E-10  0.8000E+01
     -0.452  0.2223E-07  0.8000E+01
     -0.411  0.1013E-04  0.8000E+01
     -0.369  0.1326E-02  0.8000E+01
     -0.328  0.5299E-01  0.8002E+01
     -0.286  0.7060E+00  0.8032E+01
     -0.245  0.3572E+01  0.8180E+01
     -0.203  0.8236E+01  0.8523E+01
     -0.161  0.1078E+02  0.8971E+01
     -0.120  0.1020E+02  0.9395E+01
     -0.078  0.8148E+01  0.9734E+01
     -0.037  0.4702E+01  0.9930E+01
      0.005  0.1526E+01  0.9993E+01
      0.047  0.7100E+00  0.1002E+02
      0.088  0.2424E+01  0.1012E+02
      0.130  0.6267E+01  0.1038E+02
      0.171  0.1084E+02  0.1084E+02
      0.213  0.1424E+02  0.1143E+02
      0.255  0.1563E+02  0.1208E+02
      0.296  0.1574E+02  0.1273E+02
      0.338  0.1590E+02  0.1339E+02
      0.379  0.1618E+02  0.1407E+02
      0.421  0.1652E+02  0.1475E+02
      0.463  0.1765E+02  0.1549E+02
      0.504  0.1845E+02  0.1626E+02
      0.546  0.1843E+02  0.1702E+02
      0.587  0.1901E+02  0.1781E+02
      0.629  0.1990E+02  0.1864E+02
      0.670  0.2034E+02  0.1949E+02
      0.712  0.2104E+02  0.2036E+02
      0.754  0.2244E+02  0.2129E+02
      0.795  0.2227E+02  0.2222E+02
      0.837  0.2185E+02  0.2313E+02
      0.878  0.2341E+02  0.2410E+02
      0.920  0.2448E+02  0.2512E+02
      0.962  0.2414E+02  0.2613E+02
      1.003  0.2487E+02  0.2716E+02
      1.045  0.2586E+02  0.2824E+02
      1.086  0.2593E+02  0.2931E+02
      1.128  0.2601E+02  0.3040E+02
      1.170  0.2681E+02  0.3151E+02
      1.211  0.2765E+02  0.3266E+02
      1.253  0.2721E+02  0.3379E+02
      1.294  0.2745E+02  0.3493E+02
      1.336  0.2850E+02  0.3612E+02
      1.378  0.2850E+02  0.3730E+02
      1.419  0.2824E+02  0.3848E+02
      1.461  0.2932E+02  0.3970E+02
      1.502  0.3082E+02  0.4098E+02
      1.544  0.2989E+02  0.4222E+02
      1.585  0.2950E+02  0.4345E+02
      1.627  0.3000E+02  0.4470E+02
      1.669  0.2752E+02  0.4584E+02
      1.710  0.2100E+02  0.4672E+02
      1.752  0.1389E+02  0.4729E+02
      1.793  0.8216E+01  0.4763E+02
      1.835  0.4740E+01  0.4783E+02
      1.877  0.2541E+01  0.4794E+02
      1.918  0.1075E+01  0.4798E+02
      1.960  0.3410E+00  0.4800E+02
      2.001  0.7204E-01  0.4800E+02
      2.043  0.6960E-02  0.4800E+02
      2.085  0.2215E-03  0.4800E+02
      2.126  0.2010E-05  0.4800E+02
      2.168  0.4927E-08  0.4800E+02
      2.209  0.3182E-11  0.4800E+02
      2.251  0.5254E-15  0.4800E+02
      2.293  0.0000E+00  0.4800E+02
      2.334  0.0000E+00  0.4800E+02
      2.376  0.0000E+00  0.4800E+02
      2.417  0.0000E+00  0.4800E+02
      2.459  0.0000E+00  0.4800E+02
      2.500  0.0000E+00  0.4800E+02
