  14  14   0   0
  0.1021960E+02  0.5697000E-09  0.4047900E-09  0.6204200E-09  0.5000000E-15
  1.000000000000000E-004
  CAR 
 Kpoints                                 
     18.06411919    -14.19977561  301      1.87744709      1.00000000
    -14.200  0.0000E+00  0.0000E+00
    -14.092  0.0000E+00  0.0000E+00
    -13.985  0.0000E+00  0.0000E+00
    -13.877  0.0000E+00  0.0000E+00
    -13.770  0.0000E+00  0.0000E+00
    -13.662  0.0000E+00  0.0000E+00
    -13.554  0.0000E+00  0.0000E+00
    -13.447  0.0000E+00  0.0000E+00
    -13.339  0.0000E+00  0.0000E+00
    -13.232  0.0000E+00  0.0000E+00
    -13.124  0.0000E+00  0.0000E+00
    -13.017  0.6866E-17  0.7384E-18
    -12.909  0.8240E-08  0.8862E-09
    -12.802  0.1947E-02  0.2094E-03
    -12.694  0.4067E+00  0.4395E-01
    -12.587  0.2250E+01  0.2859E+00
    -12.479  0.3509E+01  0.6633E+00
    -12.371  0.4341E+01  0.1130E+01
    -12.264  0.3575E+01  0.1515E+01
    -12.156  0.2874E+01  0.1824E+01
    -12.049  0.2635E+01  0.2107E+01
    -11.941  0.2588E+01  0.2385E+01
    -11.834  0.2744E+01  0.2680E+01
    -11.726  0.3324E+01  0.3038E+01
    -11.619  0.3621E+01  0.3427E+01
    -11.511  0.3126E+01  0.3764E+01
    -11.404  0.1729E+01  0.3949E+01
    -11.296  0.4609E+00  0.3999E+01
    -11.188  0.9152E-02  0.4000E+01
    -11.081  0.3645E-06  0.4000E+01
    -10.973  0.3855E-14  0.4000E+01
    -10.866  0.0000E+00  0.4000E+01
    -10.758  0.0000E+00  0.4000E+01
    -10.651  0.0000E+00  0.4000E+01
    -10.543  0.0000E+00  0.4000E+01
    -10.436  0.0000E+00  0.4000E+01
    -10.328  0.0000E+00  0.4000E+01
    -10.221  0.0000E+00  0.4000E+01
    -10.113  0.0000E+00  0.4000E+01
    -10.005  0.0000E+00  0.4000E+01
     -9.898  0.0000E+00  0.4000E+01
     -9.790  0.0000E+00  0.4000E+01
     -9.683  0.0000E+00  0.4000E+01
     -9.575  0.0000E+00  0.4000E+01
     -9.468  0.0000E+00  0.4000E+01
     -9.360  0.0000E+00  0.4000E+01
     -9.253  0.0000E+00  0.4000E+01
     -9.145  0.0000E+00  0.4000E+01
     -9.038  0.1140E-08  0.4000E+01
     -8.930  0.7334E-03  0.4000E+01
     -8.822  0.3058E+00  0.4033E+01
     -8.715  0.2177E+01  0.4267E+01
     -8.607  0.5434E+01  0.4852E+01
     -8.500  0.7009E+01  0.5605E+01
     -8.392  0.6216E+01  0.6274E+01
     -8.285  0.5297E+01  0.6843E+01
     -8.177  0.4867E+01  0.7367E+01
     -8.070  0.3712E+01  0.7766E+01
     -7.962  0.1604E+01  0.7938E+01
     -7.855  0.5334E+00  0.7996E+01
     -7.747  0.3850E-01  0.8000E+01
     -7.639  0.2138E-04  0.8000E+01
     -7.532  0.5087E-11  0.8000E+01
     -7.424  0.0000E+00  0.8000E+01
     -7.317  0.0000E+00  0.8000E+01
     -7.209  0.2034E-13  0.8000E+01
     -7.102  0.6064E-06  0.8000E+01
     -6.994  0.4333E-02  0.8000E+01
     -6.887  0.1139E+00  0.8013E+01
     -6.779  0.2898E+00  0.8044E+01
     -6.672  0.4677E+00  0.8094E+01
     -6.564  0.7279E+00  0.8172E+01
     -6.456  0.9146E+00  0.8271E+01
     -6.349  0.1504E+01  0.8433E+01
     -6.241  0.2130E+01  0.8662E+01
     -6.134  0.3072E+01  0.8992E+01
     -6.026  0.3961E+01  0.9418E+01
     -5.919  0.3969E+01  0.9845E+01
     -5.811  0.4046E+01  0.1028E+02
     -5.704  0.4074E+01  0.1072E+02
     -5.596  0.4081E+01  0.1116E+02
     -5.489  0.4068E+01  0.1159E+02
     -5.381  0.4517E+01  0.1208E+02
     -5.273  0.4768E+01  0.1259E+02
     -5.166  0.4353E+01  0.1306E+02
     -5.058  0.3873E+01  0.1348E+02
     -4.951  0.3335E+01  0.1384E+02
     -4.843  0.2377E+01  0.1409E+02
     -4.736  0.2494E+01  0.1436E+02
     -4.628  0.2985E+01  0.1468E+02
     -4.521  0.3715E+01  0.1508E+02
     -4.413  0.3316E+01  0.1544E+02
     -4.306  0.3186E+01  0.1578E+02
     -4.198  0.2907E+01  0.1609E+02
     -4.090  0.2844E+01  0.1640E+02
     -3.983  0.3035E+01  0.1672E+02
     -3.875  0.3037E+01  0.1705E+02
     -3.768  0.2846E+01  0.1736E+02
     -3.660  0.3060E+01  0.1769E+02
     -3.553  0.2744E+01  0.1798E+02
     -3.445  0.2739E+01  0.1828E+02
     -3.338  0.2887E+01  0.1859E+02
     -3.230  0.2658E+01  0.1887E+02
     -3.123  0.2803E+01  0.1917E+02
     -3.015  0.2954E+01  0.1949E+02
     -2.907  0.3068E+01  0.1982E+02
     -2.800  0.2730E+01  0.2012E+02
     -2.692  0.2446E+01  0.2038E+02
     -2.585  0.2619E+01  0.2066E+02
     -2.477  0.3013E+01  0.2098E+02
     -2.370  0.3241E+01  0.2133E+02
     -2.262  0.3825E+01  0.2174E+02
     -2.155  0.3259E+01  0.2209E+02
     -2.047  0.3467E+01  0.2247E+02
     -1.939  0.4233E+01  0.2292E+02
     -1.832  0.4808E+01  0.2344E+02
     -1.724  0.5710E+01  0.2405E+02
     -1.617  0.5913E+01  0.2469E+02
     -1.509  0.6006E+01  0.2534E+02
     -1.402  0.6029E+01  0.2598E+02
     -1.294  0.5786E+01  0.2661E+02
     -1.187  0.4998E+01  0.2714E+02
     -1.079  0.5191E+01  0.2770E+02
     -0.972  0.3823E+01  0.2811E+02
     -0.864  0.2696E+01  0.2840E+02
     -0.756  0.2158E+01  0.2864E+02
     -0.649  0.3778E+01  0.2904E+02
     -0.541  0.5312E+01  0.2961E+02
     -0.434  0.5901E+01  0.3025E+02
     -0.326  0.6459E+01  0.3094E+02
     -0.219  0.6186E+01  0.3161E+02
     -0.111  0.6889E+01  0.3235E+02
     -0.004  0.6916E+01  0.3309E+02
      0.104  0.6265E+01  0.3377E+02
      0.211  0.6885E+01  0.3451E+02
      0.319  0.8680E+01  0.3544E+02
      0.427  0.8547E+01  0.3636E+02
      0.534  0.7964E+01  0.3722E+02
      0.642  0.4174E+01  0.3766E+02
      0.749  0.2860E+01  0.3797E+02
      0.857  0.3222E+01  0.3832E+02
      0.964  0.3317E+01  0.3868E+02
      1.072  0.3369E+01  0.3904E+02
      1.179  0.4035E+01  0.3947E+02
      1.287  0.3412E+01  0.3984E+02
      1.394  0.3759E+01  0.4024E+02
      1.502  0.4115E+01  0.4069E+02
      1.610  0.3878E+01  0.4110E+02
      1.717  0.3460E+01  0.4147E+02
      1.825  0.3406E+01  0.4184E+02
      1.932  0.2908E+01  0.4215E+02
      2.040  0.2448E+01  0.4242E+02
      2.147  0.2588E+01  0.4270E+02
      2.255  0.2416E+01  0.4295E+02
      2.362  0.1885E+01  0.4316E+02
      2.470  0.1126E+01  0.4328E+02
      2.577  0.9341E+00  0.4338E+02
      2.685  0.8091E+00  0.4347E+02
      2.793  0.6003E+00  0.4353E+02
      2.900  0.4479E+00  0.4358E+02
      3.008  0.5750E+00  0.4364E+02
      3.115  0.5568E+00  0.4370E+02
      3.223  0.4395E+00  0.4375E+02
      3.330  0.3557E+00  0.4379E+02
      3.438  0.3934E+00  0.4383E+02
      3.545  0.4415E+00  0.4388E+02
      3.653  0.2751E+00  0.4391E+02
      3.760  0.2793E+00  0.4394E+02
      3.868  0.3210E+00  0.4397E+02
      3.976  0.2057E+00  0.4399E+02
      4.083  0.7012E-01  0.4400E+02
      4.191  0.4105E-02  0.4400E+02
      4.298  0.9239E-01  0.4401E+02
      4.406  0.2716E+00  0.4404E+02
      4.513  0.3987E+00  0.4408E+02
      4.621  0.5811E+00  0.4414E+02
      4.728  0.7427E+00  0.4422E+02
      4.836  0.8449E+00  0.4432E+02
      4.943  0.8991E+00  0.4441E+02
      5.051  0.1014E+01  0.4452E+02
      5.159  0.1183E+01  0.4465E+02
      5.266  0.1441E+01  0.4480E+02
      5.374  0.1814E+01  0.4500E+02
      5.481  0.2258E+01  0.4524E+02
      5.589  0.2695E+01  0.4553E+02
      5.696  0.2982E+01  0.4585E+02
      5.804  0.3456E+01  0.4622E+02
      5.911  0.3798E+01  0.4663E+02
      6.019  0.4215E+01  0.4709E+02
      6.126  0.4667E+01  0.4759E+02
      6.234  0.4427E+01  0.4806E+02
      6.342  0.4137E+01  0.4851E+02
      6.449  0.4241E+01  0.4896E+02
      6.557  0.4325E+01  0.4943E+02
      6.664  0.3826E+01  0.4984E+02
      6.772  0.3500E+01  0.5022E+02
      6.879  0.4228E+01  0.5067E+02
      6.987  0.4437E+01  0.5115E+02
      7.094  0.4972E+01  0.5168E+02
      7.202  0.5074E+01  0.5223E+02
      7.309  0.4960E+01  0.5276E+02
      7.417  0.4442E+01  0.5324E+02
      7.525  0.4483E+01  0.5372E+02
      7.632  0.3952E+01  0.5415E+02
      7.740  0.3220E+01  0.5449E+02
      7.847  0.3140E+01  0.5483E+02
      7.955  0.3275E+01  0.5518E+02
      8.062  0.3336E+01  0.5554E+02
      8.170  0.3650E+01  0.5594E+02
      8.277  0.4112E+01  0.5638E+02
      8.385  0.3997E+01  0.5681E+02
      8.492  0.4030E+01  0.5724E+02
      8.600  0.4107E+01  0.5768E+02
      8.708  0.4469E+01  0.5816E+02
      8.815  0.4925E+01  0.5869E+02
      8.923  0.5240E+01  0.5926E+02
      9.030  0.4925E+01  0.5979E+02
      9.138  0.5127E+01  0.6034E+02
      9.245  0.5203E+01  0.6090E+02
      9.353  0.4733E+01  0.6141E+02
      9.460  0.4901E+01  0.6193E+02
      9.568  0.4381E+01  0.6240E+02
      9.676  0.4967E+01  0.6294E+02
      9.783  0.5173E+01  0.6350E+02
      9.891  0.5013E+01  0.6403E+02
      9.998  0.4843E+01  0.6455E+02
     10.106  0.3784E+01  0.6496E+02
     10.213  0.4294E+01  0.6542E+02
     10.321  0.4440E+01  0.6590E+02
     10.428  0.5491E+01  0.6649E+02
     10.536  0.5457E+01  0.6708E+02
     10.643  0.4753E+01  0.6759E+02
     10.751  0.4136E+01  0.6803E+02
     10.859  0.3802E+01  0.6844E+02
     10.966  0.3666E+01  0.6884E+02
     11.074  0.4974E+01  0.6937E+02
     11.181  0.5837E+01  0.7000E+02
     11.289  0.6309E+01  0.7068E+02
     11.396  0.5489E+01  0.7127E+02
     11.504  0.4614E+01  0.7177E+02
     11.611  0.4722E+01  0.7227E+02
     11.719  0.4749E+01  0.7278E+02
     11.826  0.4782E+01  0.7330E+02
     11.934  0.5601E+01  0.7390E+02
     12.042  0.6108E+01  0.7456E+02
     12.149  0.5806E+01  0.7518E+02
     12.257  0.5507E+01  0.7577E+02
     12.364  0.5142E+01  0.7633E+02
     12.472  0.5788E+01  0.7695E+02
     12.579  0.6071E+01  0.7760E+02
     12.687  0.5704E+01  0.7822E+02
     12.794  0.5915E+01  0.7885E+02
     12.902  0.5984E+01  0.7950E+02
     13.009  0.5821E+01  0.8012E+02
     13.117  0.6301E+01  0.8080E+02
     13.225  0.6008E+01  0.8145E+02
     13.332  0.5958E+01  0.8209E+02
     13.440  0.5412E+01  0.8267E+02
     13.547  0.5390E+01  0.8325E+02
     13.655  0.5324E+01  0.8382E+02
     13.762  0.5700E+01  0.8443E+02
     13.870  0.5715E+01  0.8505E+02
     13.977  0.5437E+01  0.8563E+02
     14.085  0.5262E+01  0.8620E+02
     14.192  0.5133E+01  0.8675E+02
     14.300  0.5083E+01  0.8730E+02
     14.408  0.4582E+01  0.8779E+02
     14.515  0.5109E+01  0.8834E+02
     14.623  0.5411E+01  0.8892E+02
     14.730  0.4919E+01  0.8945E+02
     14.838  0.4172E+01  0.8990E+02
     14.945  0.4809E+01  0.9042E+02
     15.053  0.5886E+01  0.9105E+02
     15.160  0.6097E+01  0.9171E+02
     15.268  0.5687E+01  0.9232E+02
     15.375  0.5898E+01  0.9295E+02
     15.483  0.5850E+01  0.9358E+02
     15.591  0.5948E+01  0.9422E+02
     15.698  0.4657E+01  0.9472E+02
     15.806  0.3302E+01  0.9508E+02
     15.913  0.2427E+01  0.9534E+02
     16.021  0.1845E+01  0.9554E+02
     16.128  0.1368E+01  0.9568E+02
     16.236  0.1012E+01  0.9579E+02
     16.343  0.9287E+00  0.9589E+02
     16.451  0.6977E+00  0.9597E+02
     16.558  0.2896E+00  0.9600E+02
     16.666  0.1715E-01  0.9600E+02
     16.774  0.5942E-04  0.9600E+02
     16.881  0.6866E-09  0.9600E+02
     16.989  0.1184E-17  0.9600E+02
     17.096  0.0000E+00  0.9600E+02
     17.204  0.0000E+00  0.9600E+02
     17.311  0.0000E+00  0.9600E+02
     17.419  0.0000E+00  0.9600E+02
     17.526  0.0000E+00  0.9600E+02
     17.634  0.0000E+00  0.9600E+02
     17.741  0.0000E+00  0.9600E+02
     17.849  0.0000E+00  0.9600E+02
     17.957  0.0000E+00  0.9600E+02
     18.064  0.0000E+00  0.9600E+02
