       N       E                     dE             d eps       ncg     rms          rms(c)
DAV:   1     0.174540403392E+03    0.17454E+03   -0.29079E+04120960   0.146E+03
DAV:   2    -0.869257524396E+02   -0.26147E+03   -0.24077E+03157320   0.222E+02
DAV:   3    -0.975815610731E+02   -0.10656E+02   -0.10547E+02181056   0.394E+01
DAV:   4    -0.976504206031E+02   -0.68860E-01   -0.68854E-01132888   0.360E+00
DAV:   5    -0.976510933184E+02   -0.67272E-03   -0.67270E-03181128   0.339E-01    0.123E+01
