       N       E                     dE             d eps       ncg     rms          rms(c)
DAV:   1     0.174540403392E+03    0.17454E+03   -0.29079E+04120960   0.146E+03
DAV:   2    -0.869257524396E+02   -0.26147E+03   -0.24077E+03157320   0.222E+02
DAV:   3    -0.975815610731E+02   -0.10656E+02   -0.10547E+02181056   0.394E+01
DAV:   4    -0.976504206031E+02   -0.68860E-01   -0.68854E-01132888   0.360E+00
DAV:   5    -0.976510933184E+02   -0.67272E-03   -0.67270E-03181128   0.339E-01    0.123E+01
DAV:   6    -0.922365888802E+02    0.54145E+01   -0.39471E+00174888   0.658E+00    0.679E+00
DAV:   7    -0.905855324660E+02    0.16511E+01   -0.32086E+00180432   0.586E+00    0.172E+00
DAV:   8    -0.905966204833E+02   -0.11088E-01   -0.22984E-01133224   0.166E+00    0.751E-01
DAV:   9    -0.906112910593E+02   -0.14671E-01   -0.17580E-02170520   0.460E-01    0.206E-01
DAV:  10    -0.906156693858E+02   -0.43783E-02   -0.26255E-03133440   0.183E-01    0.665E-02
DAV:  11    -0.906168522671E+02   -0.11829E-02   -0.69293E-04159120   0.943E-02    0.337E-02
DAV:  12    -0.906169522690E+02   -0.10000E-03   -0.69661E-05150384   0.344E-02    0.656E-03
DAV:  13    -0.906169620595E+02   -0.97905E-05   -0.76965E-06166488   0.118E-02    0.205E-03
DAV:  14    -0.906169631536E+02   -0.10941E-05   -0.67686E-07153000   0.396E-03    0.713E-04
DAV:  15    -0.906169633507E+02   -0.19703E-06   -0.13110E-07145224   0.177E-03
   1 F= -.90616963E+02 E0= -.90615137E+02  d E =-.365337E-02
