 running   24 mpi-ranks, with    1 threads/rank, on    1 nodes
 distrk:  each k-point on   24 cores,    1 groups
 distr:  one band on    1 cores,   24 groups
 vasp.6.4.3 19Mar24 (build May 31 2024 16:31:43) complex                        
  
 POSCAR found type information on POSCAR B 
 POSCAR found :  1 types and      14 ions
 Reading from existing POTCAR
 scaLAPACK will be used
 Reading from existing POTCAR
 LDA part: xc-table for (Slater+PW92), standard interpolation
 POSCAR, INCAR and KPOINTS ok, starting setup
 FFT: planning ... GRIDC
 FFT: planning ... GRID_SOFT
 FFT: planning ... GRID
 WAVECAR not read
 entering main loop
       N       E                     dE             d eps       ncg     rms          rms(c)
DAV:   1     0.174540403392E+03    0.17454E+03   -0.29079E+04120960   0.146E+03
DAV:   2    -0.869257524396E+02   -0.26147E+03   -0.24077E+03157320   0.222E+02
DAV:   3    -0.975815610731E+02   -0.10656E+02   -0.10547E+02181056   0.394E+01
DAV:   4    -0.976504206031E+02   -0.68860E-01   -0.68854E-01132888   0.360E+00
DAV:   5    -0.976510933184E+02   -0.67272E-03   -0.67270E-03181128   0.339E-01    0.123E+01
