<?xml version="1.0" encoding="ISO-8859-1"?>
<modeling>
 <generator>
  <i name="program" type="string">vasp </i>
  <i name="version" type="string">6.4.3  </i>
  <i name="subversion" type="string">19Mar24 (build May 31 2024 16:31:43) complex                          parallel </i>
  <i name="platform" type="string">LinuxIFC </i>
  <i name="date" type="string">2024 11 11 </i>
  <i name="time" type="string">15:58:00 </i>
 </generator>
 <incar>
  <i type="string" name="SYSTEM">Convergence</i>
  <i type="int" name="ISTART">     0</i>
  <i type="string" name="PREC">Accurate</i>
  <i type="string" name="ALGO">Normal</i>
  <i type="int" name="ISPIN">     1</i>
  <i type="int" name="ICHARG">     2</i>
  <i type="int" name="NELM">   100</i>
  <i type="int" name="IBRION">    -1</i>
  <i name="EDIFF">      0.00000100</i>
  <i name="EDIFFG">     -0.00100000</i>
  <i type="int" name="NSW">     0</i>
  <i type="int" name="ISIF">     2</i>
  <i name="ENCUT">    600.00000000</i>
  <i name="POTIM">      0.50000000</i>
  <i type="int" name="ISMEAR">     0</i>
  <i name="SIGMA">      0.05000000</i>
  <i type="logical" name="LWAVE"> F  </i>
  <i type="logical" name="LCHARG"> F  </i>
  <i type="string" name="GGA">PE</i>
 </incar>
 <primitive_cell>
  <structure name="primitive_cell" >
   <crystal>
    <varray name="basis" >
     <v>       5.69529090       0.00000000       0.00000000 </v>
     <v>       0.00000000       4.04668563       0.00000000 </v>
     <v>       0.00000000       0.00000000       6.20233874 </v>
    </varray>
    <i name="volume">    142.94562249 </i>
    <varray name="rec_basis" >
     <v>       0.17558366       0.00000000       0.00000000 </v>
     <v>       0.00000000       0.24711581       0.00000000 </v>
     <v>       0.00000000       0.00000000       0.16122950 </v>
    </varray>
   </crystal>
   <varray name="positions" >
    <v>       0.52123000       0.50000000       0.63796000 </v>
    <v>       0.47877000       0.50000000       0.36204000 </v>
    <v>       0.97877000       0.50000000       0.63796000 </v>
    <v>       0.02123000       0.50000000       0.36204000 </v>
    <v>       0.60090000       0.50000000       0.89991000 </v>
    <v>       0.39910000       0.50000000       0.10009000 </v>
    <v>       0.89910000       0.50000000       0.89991000 </v>
    <v>       0.10090000       0.50000000       0.10009000 </v>
    <v>       0.75000000       0.79171000       0.72973000 </v>
    <v>       0.25000000       0.20829000       0.27027000 </v>
    <v>       0.75000000       0.20829000       0.72973000 </v>
    <v>       0.25000000       0.79171000       0.27027000 </v>
    <v>       0.25000000       0.50000000       0.52367000 </v>
    <v>       0.75000000       0.50000000       0.47633000 </v>
   </varray>
  </structure>
  <varray name="primitive_index" >
   <v type="int" >        1 </v>
   <v type="int" >        2 </v>
   <v type="int" >        3 </v>
   <v type="int" >        4 </v>
   <v type="int" >        5 </v>
   <v type="int" >        6 </v>
   <v type="int" >        7 </v>
   <v type="int" >        8 </v>
   <v type="int" >        9 </v>
   <v type="int" >       10 </v>
   <v type="int" >       11 </v>
   <v type="int" >       12 </v>
   <v type="int" >       13 </v>
   <v type="int" >       14 </v>
  </varray>
 </primitive_cell>
 <kpoints>
  <generation param="Monkhorst-Pack">
   <v type="int" name="divisions">      10       14        9 </v>
   <v name="usershift">      0.00000000       0.00000000       0.00000000 </v>
   <v name="genvec1">      0.10000000       0.00000000       0.00000000 </v>
   <v name="genvec2">      0.00000000       0.07142857       0.00000000 </v>
   <v name="genvec3">      0.00000000       0.00000000       0.11111111 </v>
   <v name="shift">      0.50000000       0.50000000       0.00000000 </v>
  </generation>
  <varray name="kpointlist" >
   <v>       0.05000000       0.03571429       0.00000000 </v>
   <v>       0.15000000       0.03571429       0.00000000 </v>
   <v>       0.25000000       0.03571429       0.00000000 </v>
   <v>       0.35000000       0.03571429       0.00000000 </v>
   <v>       0.45000000       0.03571429       0.00000000 </v>
   <v>       0.05000000       0.10714286       0.00000000 </v>
   <v>       0.15000000       0.10714286       0.00000000 </v>
   <v>       0.25000000       0.10714286       0.00000000 </v>
   <v>       0.35000000       0.10714286       0.00000000 </v>
   <v>       0.45000000       0.10714286       0.00000000 </v>
   <v>       0.05000000       0.17857143       0.00000000 </v>
   <v>       0.15000000       0.17857143       0.00000000 </v>
   <v>       0.25000000       0.17857143       0.00000000 </v>
   <v>       0.35000000       0.17857143       0.00000000 </v>
   <v>       0.45000000       0.17857143       0.00000000 </v>
   <v>       0.05000000       0.25000000       0.00000000 </v>
   <v>       0.15000000       0.25000000       0.00000000 </v>
   <v>       0.25000000       0.25000000       0.00000000 </v>
   <v>       0.35000000       0.25000000       0.00000000 </v>
   <v>       0.45000000       0.25000000       0.00000000 </v>
   <v>       0.05000000       0.32142857       0.00000000 </v>
   <v>       0.15000000       0.32142857       0.00000000 </v>
   <v>       0.25000000       0.32142857       0.00000000 </v>
   <v>       0.35000000       0.32142857       0.00000000 </v>
   <v>       0.45000000       0.32142857       0.00000000 </v>
   <v>       0.05000000       0.39285714       0.00000000 </v>
   <v>       0.15000000       0.39285714       0.00000000 </v>
   <v>       0.25000000       0.39285714       0.00000000 </v>
   <v>       0.35000000       0.39285714       0.00000000 </v>
   <v>       0.45000000       0.39285714       0.00000000 </v>
   <v>       0.05000000       0.46428571       0.00000000 </v>
   <v>       0.15000000       0.46428571       0.00000000 </v>
   <v>       0.25000000       0.46428571       0.00000000 </v>
   <v>       0.35000000       0.46428571       0.00000000 </v>
   <v>       0.45000000       0.46428571       0.00000000 </v>
   <v>       0.05000000       0.03571429       0.11111111 </v>
   <v>       0.15000000       0.03571429       0.11111111 </v>
   <v>       0.25000000       0.03571429       0.11111111 </v>
   <v>       0.35000000       0.03571429       0.11111111 </v>
   <v>       0.45000000       0.03571429       0.11111111 </v>
   <v>       0.05000000       0.10714286       0.11111111 </v>
   <v>       0.15000000       0.10714286       0.11111111 </v>
   <v>       0.25000000       0.10714286       0.11111111 </v>
   <v>       0.35000000       0.10714286       0.11111111 </v>
   <v>       0.45000000       0.10714286       0.11111111 </v>
   <v>       0.05000000       0.17857143       0.11111111 </v>
   <v>       0.15000000       0.17857143       0.11111111 </v>
   <v>       0.25000000       0.17857143       0.11111111 </v>
   <v>       0.35000000       0.17857143       0.11111111 </v>
   <v>       0.45000000       0.17857143       0.11111111 </v>
   <v>       0.05000000       0.25000000       0.11111111 </v>
   <v>       0.15000000       0.25000000       0.11111111 </v>
   <v>       0.25000000       0.25000000       0.11111111 </v>
   <v>       0.35000000       0.25000000       0.11111111 </v>
   <v>       0.45000000       0.25000000       0.11111111 </v>
   <v>       0.05000000       0.32142857       0.11111111 </v>
   <v>       0.15000000       0.32142857       0.11111111 </v>
   <v>       0.25000000       0.32142857       0.11111111 </v>
   <v>       0.35000000       0.32142857       0.11111111 </v>
   <v>       0.45000000       0.32142857       0.11111111 </v>
   <v>       0.05000000       0.39285714       0.11111111 </v>
   <v>       0.15000000       0.39285714       0.11111111 </v>
   <v>       0.25000000       0.39285714       0.11111111 </v>
   <v>       0.35000000       0.39285714       0.11111111 </v>
   <v>       0.45000000       0.39285714       0.11111111 </v>
   <v>       0.05000000       0.46428571       0.11111111 </v>
   <v>       0.15000000       0.46428571       0.11111111 </v>
   <v>       0.25000000       0.46428571       0.11111111 </v>
   <v>       0.35000000       0.46428571       0.11111111 </v>
   <v>       0.45000000       0.46428571       0.11111111 </v>
   <v>       0.05000000       0.03571429       0.22222222 </v>
   <v>       0.15000000       0.03571429       0.22222222 </v>
   <v>       0.25000000       0.03571429       0.22222222 </v>
   <v>       0.35000000       0.03571429       0.22222222 </v>
   <v>       0.45000000       0.03571429       0.22222222 </v>
   <v>       0.05000000       0.10714286       0.22222222 </v>
   <v>       0.15000000       0.10714286       0.22222222 </v>
   <v>       0.25000000       0.10714286       0.22222222 </v>
   <v>       0.35000000       0.10714286       0.22222222 </v>
   <v>       0.45000000       0.10714286       0.22222222 </v>
   <v>       0.05000000       0.17857143       0.22222222 </v>
   <v>       0.15000000       0.17857143       0.22222222 </v>
   <v>       0.25000000       0.17857143       0.22222222 </v>
   <v>       0.35000000       0.17857143       0.22222222 </v>
   <v>       0.45000000       0.17857143       0.22222222 </v>
   <v>       0.05000000       0.25000000       0.22222222 </v>
   <v>       0.15000000       0.25000000       0.22222222 </v>
   <v>       0.25000000       0.25000000       0.22222222 </v>
   <v>       0.35000000       0.25000000       0.22222222 </v>
   <v>       0.45000000       0.25000000       0.22222222 </v>
   <v>       0.05000000       0.32142857       0.22222222 </v>
   <v>       0.15000000       0.32142857       0.22222222 </v>
   <v>       0.25000000       0.32142857       0.22222222 </v>
   <v>       0.35000000       0.32142857       0.22222222 </v>
   <v>       0.45000000       0.32142857       0.22222222 </v>
   <v>       0.05000000       0.39285714       0.22222222 </v>
   <v>       0.15000000       0.39285714       0.22222222 </v>
   <v>       0.25000000       0.39285714       0.22222222 </v>
   <v>       0.35000000       0.39285714       0.22222222 </v>
   <v>       0.45000000       0.39285714       0.22222222 </v>
   <v>       0.05000000       0.46428571       0.22222222 </v>
   <v>       0.15000000       0.46428571       0.22222222 </v>
   <v>       0.25000000       0.46428571       0.22222222 </v>
   <v>       0.35000000       0.46428571       0.22222222 </v>
   <v>       0.45000000       0.46428571       0.22222222 </v>
   <v>       0.05000000       0.03571429       0.33333333 </v>
   <v>       0.15000000       0.03571429       0.33333333 </v>
   <v>       0.25000000       0.03571429       0.33333333 </v>
   <v>       0.35000000       0.03571429       0.33333333 </v>
   <v>       0.45000000       0.03571429       0.33333333 </v>
   <v>       0.05000000       0.10714286       0.33333333 </v>
   <v>       0.15000000       0.10714286       0.33333333 </v>
   <v>       0.25000000       0.10714286       0.33333333 </v>
   <v>       0.35000000       0.10714286       0.33333333 </v>
   <v>       0.45000000       0.10714286       0.33333333 </v>
   <v>       0.05000000       0.17857143       0.33333333 </v>
   <v>       0.15000000       0.17857143       0.33333333 </v>
   <v>       0.25000000       0.17857143       0.33333333 </v>
   <v>       0.35000000       0.17857143       0.33333333 </v>
   <v>       0.45000000       0.17857143       0.33333333 </v>
   <v>       0.05000000       0.25000000       0.33333333 </v>
   <v>       0.15000000       0.25000000       0.33333333 </v>
   <v>       0.25000000       0.25000000       0.33333333 </v>
   <v>       0.35000000       0.25000000       0.33333333 </v>
   <v>       0.45000000       0.25000000       0.33333333 </v>
   <v>       0.05000000       0.32142857       0.33333333 </v>
   <v>       0.15000000       0.32142857       0.33333333 </v>
   <v>       0.25000000       0.32142857       0.33333333 </v>
   <v>       0.35000000       0.32142857       0.33333333 </v>
   <v>       0.45000000       0.32142857       0.33333333 </v>
   <v>       0.05000000       0.39285714       0.33333333 </v>
   <v>       0.15000000       0.39285714       0.33333333 </v>
   <v>       0.25000000       0.39285714       0.33333333 </v>
   <v>       0.35000000       0.39285714       0.33333333 </v>
   <v>       0.45000000       0.39285714       0.33333333 </v>
   <v>       0.05000000       0.46428571       0.33333333 </v>
   <v>       0.15000000       0.46428571       0.33333333 </v>
   <v>       0.25000000       0.46428571       0.33333333 </v>
   <v>       0.35000000       0.46428571       0.33333333 </v>
   <v>       0.45000000       0.46428571       0.33333333 </v>
   <v>       0.05000000       0.03571429       0.44444444 </v>
   <v>       0.15000000       0.03571429       0.44444444 </v>
   <v>       0.25000000       0.03571429       0.44444444 </v>
   <v>       0.35000000       0.03571429       0.44444444 </v>
   <v>       0.45000000       0.03571429       0.44444444 </v>
   <v>       0.05000000       0.10714286       0.44444444 </v>
   <v>       0.15000000       0.10714286       0.44444444 </v>
   <v>       0.25000000       0.10714286       0.44444444 </v>
   <v>       0.35000000       0.10714286       0.44444444 </v>
   <v>       0.45000000       0.10714286       0.44444444 </v>
   <v>       0.05000000       0.17857143       0.44444444 </v>
   <v>       0.15000000       0.17857143       0.44444444 </v>
   <v>       0.25000000       0.17857143       0.44444444 </v>
   <v>       0.35000000       0.17857143       0.44444444 </v>
   <v>       0.45000000       0.17857143       0.44444444 </v>
   <v>       0.05000000       0.25000000       0.44444444 </v>
   <v>       0.15000000       0.25000000       0.44444444 </v>
   <v>       0.25000000       0.25000000       0.44444444 </v>
   <v>       0.35000000       0.25000000       0.44444444 </v>
   <v>       0.45000000       0.25000000       0.44444444 </v>
   <v>       0.05000000       0.32142857       0.44444444 </v>
   <v>       0.15000000       0.32142857       0.44444444 </v>
   <v>       0.25000000       0.32142857       0.44444444 </v>
   <v>       0.35000000       0.32142857       0.44444444 </v>
   <v>       0.45000000       0.32142857       0.44444444 </v>
   <v>       0.05000000       0.39285714       0.44444444 </v>
   <v>       0.15000000       0.39285714       0.44444444 </v>
   <v>       0.25000000       0.39285714       0.44444444 </v>
   <v>       0.35000000       0.39285714       0.44444444 </v>
   <v>       0.45000000       0.39285714       0.44444444 </v>
   <v>       0.05000000       0.46428571       0.44444444 </v>
   <v>       0.15000000       0.46428571       0.44444444 </v>
   <v>       0.25000000       0.46428571       0.44444444 </v>
   <v>       0.35000000       0.46428571       0.44444444 </v>
   <v>       0.45000000       0.46428571       0.44444444 </v>
  </varray>
  <varray name="weights" >
   <v>       0.00317460 </v>
   <v>       0.00317460 </v>
   <v>       0.00317460 </v>
   <v>       0.00317460 </v>
   <v>       0.00317460 </v>
   <v>       0.00317460 </v>
   <v>       0.00317460 </v>
   <v>       0.00317460 </v>
   <v>       0.00317460 </v>
   <v>       0.00317460 </v>
   <v>       0.00317460 </v>
   <v>       0.00317460 </v>
   <v>       0.00317460 </v>
   <v>       0.00317460 </v>
   <v>       0.00317460 </v>
   <v>       0.00317460 </v>
   <v>       0.00317460 </v>
   <v>       0.00317460 </v>
   <v>       0.00317460 </v>
   <v>       0.00317460 </v>
   <v>       0.00317460 </v>
   <v>       0.00317460 </v>
   <v>       0.00317460 </v>
   <v>       0.00317460 </v>
   <v>       0.00317460 </v>
   <v>       0.00317460 </v>
   <v>       0.00317460 </v>
   <v>       0.00317460 </v>
   <v>       0.00317460 </v>
   <v>       0.00317460 </v>
   <v>       0.00317460 </v>
   <v>       0.00317460 </v>
   <v>       0.00317460 </v>
   <v>       0.00317460 </v>
   <v>       0.00317460 </v>
   <v>       0.00634921 </v>
   <v>       0.00634921 </v>
   <v>       0.00634921 </v>
   <v>       0.00634921 </v>
   <v>       0.00634921 </v>
   <v>       0.00634921 </v>
   <v>       0.00634921 </v>
   <v>       0.00634921 </v>
   <v>       0.00634921 </v>
   <v>       0.00634921 </v>
   <v>       0.00634921 </v>
   <v>       0.00634921 </v>
   <v>       0.00634921 </v>
   <v>       0.00634921 </v>
   <v>       0.00634921 </v>
   <v>       0.00634921 </v>
   <v>       0.00634921 </v>
   <v>       0.00634921 </v>
   <v>       0.00634921 </v>
   <v>       0.00634921 </v>
   <v>       0.00634921 </v>
   <v>       0.00634921 </v>
   <v>       0.00634921 </v>
   <v>       0.00634921 </v>
   <v>       0.00634921 </v>
   <v>       0.00634921 </v>
   <v>       0.00634921 </v>
   <v>       0.00634921 </v>
   <v>       0.00634921 </v>
   <v>       0.00634921 </v>
   <v>       0.00634921 </v>
   <v>       0.00634921 </v>
   <v>       0.00634921 </v>
   <v>       0.00634921 </v>
   <v>       0.00634921 </v>
   <v>       0.00634921 </v>
   <v>       0.00634921 </v>
   <v>       0.00634921 </v>
   <v>       0.00634921 </v>
   <v>       0.00634921 </v>
   <v>       0.00634921 </v>
   <v>       0.00634921 </v>
   <v>       0.00634921 </v>
   <v>       0.00634921 </v>
   <v>       0.00634921 </v>
   <v>       0.00634921 </v>
   <v>       0.00634921 </v>
   <v>       0.00634921 </v>
   <v>       0.00634921 </v>
   <v>       0.00634921 </v>
   <v>       0.00634921 </v>
   <v>       0.00634921 </v>
   <v>       0.00634921 </v>
   <v>       0.00634921 </v>
   <v>       0.00634921 </v>
   <v>       0.00634921 </v>
   <v>       0.00634921 </v>
   <v>       0.00634921 </v>
   <v>       0.00634921 </v>
   <v>       0.00634921 </v>
   <v>       0.00634921 </v>
   <v>       0.00634921 </v>
   <v>       0.00634921 </v>
   <v>       0.00634921 </v>
   <v>       0.00634921 </v>
   <v>       0.00634921 </v>
   <v>       0.00634921 </v>
   <v>       0.00634921 </v>
   <v>       0.00634921 </v>
   <v>       0.00634921 </v>
   <v>       0.00634921 </v>
   <v>       0.00634921 </v>
   <v>       0.00634921 </v>
   <v>       0.00634921 </v>
   <v>       0.00634921 </v>
   <v>       0.00634921 </v>
   <v>       0.00634921 </v>
   <v>       0.00634921 </v>
   <v>       0.00634921 </v>
   <v>       0.00634921 </v>
   <v>       0.00634921 </v>
   <v>       0.00634921 </v>
   <v>       0.00634921 </v>
   <v>       0.00634921 </v>
   <v>       0.00634921 </v>
   <v>       0.00634921 </v>
   <v>       0.00634921 </v>
   <v>       0.00634921 </v>
   <v>       0.00634921 </v>
   <v>       0.00634921 </v>
   <v>       0.00634921 </v>
   <v>       0.00634921 </v>
   <v>       0.00634921 </v>
   <v>       0.00634921 </v>
   <v>       0.00634921 </v>
   <v>       0.00634921 </v>
   <v>       0.00634921 </v>
   <v>       0.00634921 </v>
   <v>       0.00634921 </v>
   <v>       0.00634921 </v>
   <v>       0.00634921 </v>
   <v>       0.00634921 </v>
   <v>       0.00634921 </v>
   <v>       0.00634921 </v>
   <v>       0.00634921 </v>
   <v>       0.00634921 </v>
   <v>       0.00634921 </v>
   <v>       0.00634921 </v>
   <v>       0.00634921 </v>
   <v>       0.00634921 </v>
   <v>       0.00634921 </v>
   <v>       0.00634921 </v>
   <v>       0.00634921 </v>
   <v>       0.00634921 </v>
   <v>       0.00634921 </v>
   <v>       0.00634921 </v>
   <v>       0.00634921 </v>
   <v>       0.00634921 </v>
   <v>       0.00634921 </v>
   <v>       0.00634921 </v>
   <v>       0.00634921 </v>
   <v>       0.00634921 </v>
   <v>       0.00634921 </v>
   <v>       0.00634921 </v>
   <v>       0.00634921 </v>
   <v>       0.00634921 </v>
   <v>       0.00634921 </v>
   <v>       0.00634921 </v>
   <v>       0.00634921 </v>
   <v>       0.00634921 </v>
   <v>       0.00634921 </v>
   <v>       0.00634921 </v>
   <v>       0.00634921 </v>
   <v>       0.00634921 </v>
   <v>       0.00634921 </v>
   <v>       0.00634921 </v>
   <v>       0.00634921 </v>
   <v>       0.00634921 </v>
   <v>       0.00634921 </v>
   <v>       0.00634921 </v>
  </varray>
 </kpoints>
 <parameters>
  <separator name="general" >
   <i type="string" name="SYSTEM">Convergence</i>
   <i type="logical" name="LCOMPAT"> F  </i>
  </separator>
  <separator name="electronic" >
   <i type="string" name="PREC">accura</i>
   <i name="ENMAX">    600.00000000</i>
   <i name="ENAUG">    535.51400000</i>
   <i name="EDIFF">      0.00000100</i>
   <i type="int" name="IALGO">    38</i>
   <i type="int" name="IWAVPR">    10</i>
   <i type="int" name="NBANDS">    48</i>
   <i type="int" name="NBANDSLOW">    -1</i>
   <i type="int" name="NBANDSHIGH">    -1</i>
   <i name="NELECT">     42.00000000</i>
   <i type="int" name="TURBO">     0</i>
   <i type="int" name="IRESTART">     0</i>
   <i type="int" name="NREBOOT">     0</i>
   <i type="int" name="NMIN">     0</i>
   <i name="EREF">      0.00000000</i>
   <separator name="electronic smearing" >
    <i type="int" name="ISMEAR">     0</i>
    <i name="SIGMA">      0.05000000</i>
    <i name="KSPACING">      0.50000000</i>
    <i type="logical" name="KGAMMA"> T  </i>
    <i type="logical" name="KBLOWUP"> T  </i>
   </separator>
   <separator name="electronic projectors" >
    <i type="logical" name="LREAL"> F  </i>
    <v name="ROPT">      0.00000000</v>
    <i type="int" name="LMAXPAW">  -100</i>
    <i type="int" name="LMAXMIX">     2</i>
    <i type="logical" name="NLSPLINE"> F  </i>
   </separator>
   <separator name="electronic startup" >
    <i type="int" name="ISTART">     0</i>
    <i type="int" name="ICHARG">     2</i>
    <i type="int" name="INIWAV">     1</i>
   </separator>
   <separator name="electronic spin" >
    <i type="int" name="ISPIN">     1</i>
    <i type="logical" name="LNONCOLLINEAR"> F  </i>
    <v name="MAGMOM">      1.00000000      1.00000000      1.00000000      1.00000000      1.00000000      1.00000000      1.00000000      1.00000000      1.00000000      1.00000000      1.00000000      1.00000000      1.00000000      1.00000000</v>
    <i name="NUPDOWN">     -1.00000000</i>
    <i type="logical" name="LSORBIT"> F  </i>
    <v name="SAXIS">      0.00000000      0.00000000      1.00000000</v>
    <i type="logical" name="LSPIRAL"> F  </i>
    <v name="QSPIRAL">      0.00000000      0.00000000      0.00000000</v>
    <i type="logical" name="LZEROZ"> F  </i>
   </separator>
   <separator name="electronic exchange-correlation" >
    <i type="logical" name="LASPH"> F  </i>
   </separator>
   <separator name="electronic convergence" >
    <i type="int" name="NELM">   100</i>
    <i type="int" name="NELMDL">    -5</i>
    <i type="int" name="NELMIN">     2</i>
    <i name="ENINI">    600.00000000</i>
    <separator name="electronic convergence detail" >
     <i type="logical" name="LDIAG"> T  </i>
     <i type="logical" name="LSUBROT"> F  </i>
     <i name="WEIMIN">      0.00000000</i>
     <i name="EBREAK">      0.00000001</i>
     <i name="DEPER">      0.30000000</i>
     <i type="int" name="NRMM">     4</i>
     <i name="TIME">      0.40000000</i>
    </separator>
   </separator>
   <separator name="electronic mixer" >
    <i name="AMIX">      0.40000000</i>
    <i name="BMIX">      1.00000000</i>
    <i name="AMIN">      0.10000000</i>
    <i name="AMIX_MAG">      1.60000000</i>
    <i name="BMIX_MAG">      1.00000000</i>
    <separator name="electronic mixer details" >
     <i type="int" name="IMIX">     4</i>
     <i type="logical" name="MIXFIRST"> F  </i>
     <i type="int" name="MAXMIX">   -45</i>
     <i name="WC">    100.00000000</i>
     <i type="int" name="INIMIX">     1</i>
     <i type="int" name="MIXPRE">     1</i>
     <i type="int" name="MREMOVE">     5</i>
    </separator>
   </separator>
   <separator name="electronic dipolcorrection" >
    <i type="logical" name="LDIPOL"> F  </i>
    <i type="logical" name="LMONO"> F  </i>
    <i type="int" name="IDIPOL">     0</i>
    <i name="EPSILON">      1.00000000</i>
    <v name="DIPOL">   -100.00000000   -100.00000000   -100.00000000</v>
    <i name="EFIELD">      0.00000000</i>
    <i type="logical" name="LVACPOTAV"> F  </i>
   </separator>
  </separator>
  <separator name="grids" >
   <i type="int" name="NGX">    48</i>
   <i type="int" name="NGY">    32</i>
   <i type="int" name="NGZ">    50</i>
   <i type="int" name="NGXF">    96</i>
   <i type="int" name="NGYF">    64</i>
   <i type="int" name="NGZF">   100</i>
   <i type="logical" name="ADDGRID"> F  </i>
  </separator>
  <separator name="ionic" >
   <i type="int" name="NSW">     0</i>
   <i type="int" name="IBRION">    -1</i>
   <i type="int" name="MDALGO">     0</i>
   <i type="int" name="ISIF">     2</i>
   <i name="PSTRESS">      0.00000000</i>
   <i name="EDIFFG">     -0.00100000</i>
   <i type="int" name="NFREE">     0</i>
   <i name="POTIM">      0.50000000</i>
   <i name="SMASS">     -3.00000000</i>
   <i name="SCALEE">      1.00000000</i>
  </separator>
  <separator name="ionic md" >
   <i name="TEBEG">      0.00010000</i>
   <i name="TEEND">      0.00010000</i>
   <i type="int" name="NBLOCK">     1</i>
   <i type="int" name="KBLOCK">     1</i>
   <i type="int" name="NPACO">   256</i>
   <i name="APACO">     10.00000000</i>
  </separator>
  <separator name="symmetry" >
   <i type="int" name="ISYM">     2</i>
   <i name="SYMPREC">      0.00001000</i>
  </separator>
  <separator name="dos" >
   <i type="int" name="LORBIT">     0</i>
   <v name="RWIGS">     -1.00000000</v>
   <i type="int" name="NEDOS">   301</i>
   <i name="EMIN">     10.00000000</i>
   <i name="EMAX">    -10.00000000</i>
   <i name="EFERMI">      0.00000000</i>
  </separator>
  <separator name="writing" >
   <i type="int" name="NWRITE">     2</i>
   <i type="logical" name="LWAVE"> F  </i>
   <i type="logical" name="LDOWNSAMPLE"> F  </i>
   <i type="logical" name="LCHARG"> F  </i>
   <i type="logical" name="LPARD"> F  </i>
   <i type="logical" name="LVTOT"> F  </i>
   <i type="logical" name="LVHAR"> F  </i>
   <i type="logical" name="LELF"> F  </i>
   <i type="logical" name="LOPTICS"> F  </i>
   <v name="STM">      0.00000000      0.00000000      0.00000000      0.00000000      0.00000000      0.00000000      0.00000000</v>
  </separator>
  <separator name="performance" >
   <i type="int" name="NPAR">    24</i>
   <i type="int" name="NSIM">     4</i>
   <i type="int" name="NBLK">    -1</i>
   <i type="logical" name="LPLANE"> T  </i>
   <i type="logical" name="LSCALAPACK"> T  </i>
   <i type="logical" name="LSCAAWARE"> F  </i>
   <i type="logical" name="LSCALU"> F  </i>
   <i type="logical" name="LASYNC"> F  </i>
   <i type="logical" name="LORBITALREAL"> F  </i>
  </separator>
  <separator name="miscellaneous" >
   <i type="int" name="IDIOT">     3</i>
   <i type="int" name="PHON_NSTRUCT">    -1</i>
   <i type="logical" name="LMUSIC"> F  </i>
   <v name="POMASS">     10.81100000</v>
   <v name="DARWINR">      0.00000000</v>
   <v name="DARWINV">      1.00000000</v>
   <i type="logical" name="LCORR"> T  </i>
  </separator>
  <i type="logical" name="GGA_COMPAT"> T  </i>
  <i type="logical" name="LBERRY"> F  </i>
  <i type="int" name="ICORELEVEL">     0</i>
  <i type="logical" name="LDAU"> F  </i>
  <i type="int" name="I_CONSTRAINED_M">     0</i>
  <separator name="electronic exchange-correlation" >
   <i type="string" name="GGA    ">PE</i>
   <i type="string" name="XC_C">1</i>
   <i type="int" name="VOSKOWN">     0</i>
   <i type="logical" name="LHFCALC"> F  </i>
   <i type="string" name="PRECFOCK"></i>
   <i type="logical" name="LSYMGRAD"> F  </i>
   <i type="logical" name="LHFONE"> F  </i>
   <i type="logical" name="LRHFCALC"> F  </i>
   <i type="logical" name="LTHOMAS"> F  </i>
   <i type="logical" name="LMODELHF"> F  </i>
   <i type="logical" name="LFOCKACE"> F  </i>
   <i name="ENCUT4O">     -1.00000000</i>
   <i type="int" name="EXXOEP">     0</i>
   <i type="int" name="FOURORBIT">     0</i>
   <i name="AEXX">      0.00000000</i>
   <i name="HFALPHA">      0.00000000</i>
   <i name="MCALPHA">      0.00000000</i>
   <i name="ALDAX">      1.00000000</i>
   <i name="AGGAX">      1.00000000</i>
   <i name="AMGGAX">      1.00000000</i>
   <i name="ALDAC">      1.00000000</i>
   <i name="AGGAC">      1.00000000</i>
   <i name="AMGGAC">      1.00000000</i>
   <i type="int" name="NKREDX">     1</i>
   <i type="int" name="NKREDY">     1</i>
   <i type="int" name="NKREDZ">     1</i>
   <i type="logical" name="SHIFTRED"> F  </i>
   <i type="logical" name="ODDONLY"> F  </i>
   <i type="logical" name="EVENONLY"> F  </i>
   <i type="int" name="LMAXFOCK">     0</i>
   <i type="int" name="NMAXFOCKAE">     0</i>
   <i type="logical" name="LFOCKAEDFT"> F  </i>
   <i name="HFSCREEN">      0.00000000</i>
   <i name="HFSCREENC">      0.00000000</i>
   <i type="int" name="NBANDSGWLOW">     0</i>
  </separator>
  <separator name="vdW DFT" >
   <i type="logical" name="LUSE_VDW"> F  </i>
   <i type="int" name="IVDW_NL">    -1</i>
   <i type="logical" name="LSPIN_VDW"> F  </i>
   <i name="ZAB_VDW">     -0.84910000</i>
   <i name="GAMMA_VDW">      1.39626340</i>
   <i name="ALPHA_VDW">      0.00000000</i>
   <i name="PARAM1">      0.12340000</i>
   <i name="PARAM2">      1.00000000</i>
   <i name="BPARAM">      6.30000000</i>
   <i name="CPARAM">      0.00930000</i>
  </separator>
  <separator name="model GW" >
   <i type="int" name="MODEL_GW">     0</i>
   <i name="MODEL_EPS0">      6.12624096</i>
   <i name="MODEL_ALPHA">      1.00000000</i>
  </separator>
  <separator name="linear response parameters" >
   <i type="logical" name="LEPSILON"> F  </i>
   <i type="logical" name="LRPA"> F  </i>
   <i type="logical" name="LNABLA"> F  </i>
   <i type="logical" name="LVEL"> F  </i>
   <i name="CSHIFT">      0.10000000</i>
   <i name="OMEGAMAX">     -1.00000000</i>
   <i name="DEG_THRESHOLD">      0.00200000</i>
   <i name="RTIME">     -0.10000000</i>
   <i name="WPLASMAI">      0.00000000</i>
   <v name="DFIELD">      0.00000000      0.00000000      0.00000000</v>
   <v name="WPLASMA">      0.00000000      0.00000000      0.00000000      0.00000000      0.00000000      0.00000000      0.00000000      0.00000000      0.00000000</v>
  </separator>
  <separator name="orbital magnetization" >
   <i type="logical" name="NUCIND"> F  </i>
   <v name="MAGPOS">      0.00000000      0.00000000      0.00000000</v>
   <i type="logical" name="LNICSALL"> T  </i>
   <i type="logical" name="ORBITALMAG"> F  </i>
   <i type="logical" name="LMAGBLOCH"> F  </i>
   <i type="logical" name="LCHIMAG"> F  </i>
   <i type="logical" name="LGAUGE"> T  </i>
   <i type="int" name="MAGATOM">     0</i>
   <v name="MAGDIPOL">      0.00000000      0.00000000      0.00000000</v>
   <v name="AVECCONST">      0.00000000      0.00000000      0.00000000</v>
  </separator>
  <separator name="response functions" >
   <i type="logical" name="LALL_IN_ONE"> F  </i>
   <i type="int" name="IALL_IN_ONE">    -1</i>
   <i type="int" name="NBANDS_WAVE">    -1</i>
   <i type="logical" name="LFINITE_TEMPERATURE"> F  </i>
   <i type="logical" name="LADDER"> F  </i>
   <i type="logical" name="LRPAFORCE"> F  </i>
   <i type="logical" name="LFXC"> F  </i>
   <i type="logical" name="LHARTREE"> T  </i>
   <i type="int" name="IBSE">     0</i>
   <v type="int" name="KPOINT">    -1     0     0     0</v>
   <i type="logical" name="LTCTC"> F  </i>
   <i type="logical" name="LTCTE"> F  </i>
   <i type="logical" name="LTETE"> F  </i>
   <i type="logical" name="LTRIPLET"> F  </i>
   <i type="logical" name="LFXCEPS"> F  </i>
   <i type="logical" name="LFXHEG"> F  </i>
   <i type="int" name="NATURALO">     2</i>
   <i type="logical" name="LHOLEGF"> F  </i>
   <i type="logical" name="L2ORDER"> F  </i>
   <i type="logical" name="LDMP1"> F  </i>
   <i type="logical" name="LMP2LT"> F  </i>
   <i type="logical" name="LSMP2LT"> F  </i>
   <i type="logical" name="LGWLF"> F  </i>
   <i name="ENCUTGW">     -1.60000002</i>
   <i name="ENCUTGWSOFT">     -1.60000002</i>
   <i name="ENCUTLF">     -1.00000000</i>
   <i type="logical" name="ESF_SPLINES"> F  </i>
   <i name="ESF_CONV">      0.01000000</i>
   <i type="int" name="ESF_NINTER">    15</i>
   <i type="int" name="LMAXMP2">    -1</i>
   <i name="SCISSOR">      0.00000000</i>
   <i type="int" name="NOMEGA">     0</i>
   <i type="int" name="NOMEGAR">     0</i>
   <i type="int" name="NBANDSGW">    -1</i>
   <i type="int" name="NBANDSO">    -1</i>
   <i type="int" name="NBANDSV">    -1</i>
   <i type="int" name="NELMGW">     1</i>
   <i type="int" name="NELMHF">     1</i>
   <i type="int" name="DIM">     3</i>
   <i type="int" name="IESPILON">     4</i>
   <i type="int" name="ANTIRES">     0</i>
   <i name="OMEGAMAX">    -30.00000000</i>
   <i name="OMEGAMIN">    -30.00000000</i>
   <i name="OMEGATL">   -200.00000000</i>
   <i type="int" name="OMEGAGRID">     0</i>
   <i name="CSHIFT">     -0.10000000</i>
   <i type="logical" name="LSELFENERGY"> F  </i>
   <i type="logical" name="LSPECTRAL"> F  </i>
   <i type="logical" name="LSPECTRALGW"> F  </i>
   <i type="logical" name="LSINGLES"> F  </i>
   <i type="logical" name="LFERMIGW"> F  </i>
   <i type="logical" name="ODDONLYGW"> F  </i>
   <i type="logical" name="EVENONLYGW"> F  </i>
   <i type="int" name="NKREDLFX">     1</i>
   <i type="int" name="NKREDLFY">     1</i>
   <i type="int" name="NKREDLFZ">     1</i>
   <i type="int" name="MAXMEM">  2800</i>
   <i type="int" name="TELESCOPE">     0</i>
   <i type="int" name="NTAUPAR">    -1</i>
   <i type="int" name="NOMEGAPAR">    -1</i>
   <i name="DAMP_NEWTON">      0.80000001</i>
   <i name="LAMBDA">      1.00000000</i>
  </separator>
  <separator name="External order field" >
   <i name="OFIELD_KAPPA">      0.00000000</i>
   <v name="OFIELD_K">      0.00000000      0.00000000      0.00000000</v>
   <i name="OFIELD_Q6_NEAR">      0.00000000</i>
   <i name="OFIELD_Q6_FAR">      0.00000000</i>
   <i name="OFIELD_A">      0.00000000</i>
  </separator>
  <separator name="optional k-points parameters" >
   <i type="int" name="KPOINTS_OPT_MODE">     1</i>
   <i type="logical" name="LKPOINTS_OPT"> F  </i>
  </separator>
 </parameters>
 <atominfo>
  <atoms>      14 </atoms>
  <types>       1 </types>
  <array name="atoms" >
   <dimension dim="1">ion</dimension>
   <field type="string">element</field>
   <field type="int">atomtype</field>
   <set>
    <rc><c>B </c><c>   1</c></rc>
    <rc><c>B </c><c>   1</c></rc>
    <rc><c>B </c><c>   1</c></rc>
    <rc><c>B </c><c>   1</c></rc>
    <rc><c>B </c><c>   1</c></rc>
    <rc><c>B </c><c>   1</c></rc>
    <rc><c>B </c><c>   1</c></rc>
    <rc><c>B </c><c>   1</c></rc>
    <rc><c>B </c><c>   1</c></rc>
    <rc><c>B </c><c>   1</c></rc>
    <rc><c>B </c><c>   1</c></rc>
    <rc><c>B </c><c>   1</c></rc>
    <rc><c>B </c><c>   1</c></rc>
    <rc><c>B </c><c>   1</c></rc>
   </set>
  </array>
  <array name="atomtypes" >
   <dimension dim="1">type</dimension>
   <field type="int">atomspertype</field>
   <field type="string">element</field>
   <field>mass</field>
   <field>valence</field>
   <field type="string">pseudopotential</field>
   <set>
    <rc><c>  14</c><c>B </c><c>     10.81100000</c><c>      3.00000000</c><c>  PAW_PBE B 06Sep2000                   </c></rc>
   </set>
  </array>
 </atominfo>
 <structure name="initialpos" >
  <crystal>
   <varray name="basis" >
    <v>       5.69529090       0.00000000       0.00000000 </v>
    <v>       0.00000000       4.04668563       0.00000000 </v>
    <v>       0.00000000       0.00000000       6.20233874 </v>
   </varray>
   <i name="volume">    142.94562249 </i>
   <varray name="rec_basis" >
    <v>       0.17558366       0.00000000       0.00000000 </v>
    <v>       0.00000000       0.24711581       0.00000000 </v>
    <v>       0.00000000       0.00000000       0.16122950 </v>
   </varray>
  </crystal>
  <varray name="positions" >
   <v>       0.52123000       0.50000000       0.63796000 </v>
   <v>       0.47877000       0.50000000       0.36204000 </v>
   <v>       0.97877000       0.50000000       0.63796000 </v>
   <v>       0.02123000       0.50000000       0.36204000 </v>
   <v>       0.60090000       0.50000000       0.89991000 </v>
   <v>       0.39910000       0.50000000       0.10009000 </v>
   <v>       0.89910000       0.50000000       0.89991000 </v>
   <v>       0.10090000       0.50000000       0.10009000 </v>
   <v>       0.75000000       0.79171000       0.72973000 </v>
   <v>       0.25000000       0.20829000       0.27027000 </v>
   <v>       0.75000000       0.20829000       0.72973000 </v>
   <v>       0.25000000       0.79171000       0.27027000 </v>
   <v>       0.25000000       0.50000000       0.52367000 </v>
   <v>       0.75000000       0.50000000       0.47633000 </v>
  </varray>
 </structure>
 <calculation>
  <scstep>
   <time name="dav">    5.56    5.58</time>
   <time name="total">    5.58    5.60</time>
   <energy>
    <i name="alphaZ">     94.32845006 </i>
    <i name="ewald">   -796.00538253 </i>
    <i name="hartreedc">   -271.24629440 </i>
    <i name="XCdc">     97.52385059 </i>
    <i name="pawpsdc">    608.99811708 </i>
    <i name="pawaedc">   -597.02363782 </i>
    <i name="eentropy">     -0.00254484 </i>
    <i name="bandstr">    -54.45211863 </i>
    <i name="atom">    996.37441054 </i>
    <i name="e_fr_energy">     78.49485005 </i>
    <i name="e_wo_entrp">     78.49739489 </i>
    <i name="e_0_energy">     78.49612247 </i>
   </energy>
  </scstep>
  <scstep>
   <time name="dav">    7.38    7.38</time>
   <time name="total">    7.38    7.38</time>
   <energy>
    <i name="e_fr_energy">    -91.86117733 </i>
    <i name="e_wo_entrp">    -91.85805998 </i>
    <i name="e_0_energy">    -91.85961865 </i>
   </energy>
  </scstep>
  <scstep>
   <time name="dav">    7.78    7.78</time>
   <time name="total">    7.78    7.79</time>
   <energy>
    <i name="e_fr_energy">    -97.62541087 </i>
    <i name="e_wo_entrp">    -97.62175459 </i>
    <i name="e_0_energy">    -97.62358273 </i>
   </energy>
  </scstep>
  <scstep>
   <time name="dav">    6.50    6.50</time>
   <time name="total">    6.50    6.51</time>
   <energy>
    <i name="e_fr_energy">    -97.65925866 </i>
    <i name="e_wo_entrp">    -97.65560476 </i>
    <i name="e_0_energy">    -97.65743171 </i>
   </energy>
  </scstep>
  <scstep>
   <time name="dav">    7.78    7.78</time>
   <time name="total">    7.88    7.88</time>
   <energy>
    <i name="e_fr_energy">    -97.65963932 </i>
    <i name="e_wo_entrp">    -97.65598541 </i>
    <i name="e_0_energy">    -97.65781236 </i>
   </energy>
  </scstep>
  <scstep>
   <time name="dav">    7.67    7.67</time>
   <time name="total">    7.78    7.78</time>
   <energy>
    <i name="e_fr_energy">    -92.23058204 </i>
    <i name="e_wo_entrp">    -92.22715337 </i>
    <i name="e_0_energy">    -92.22886771 </i>
   </energy>
  </scstep>
  <scstep>
   <time name="dav">    7.94    7.94</time>
   <time name="total">    8.04    8.04</time>
   <energy>
    <i name="e_fr_energy">    -90.57562236 </i>
    <i name="e_wo_entrp">    -90.57249009 </i>
    <i name="e_0_energy">    -90.57405623 </i>
   </energy>
  </scstep>
  <scstep>
   <time name="dav">    6.02    6.02</time>
   <time name="total">    6.12    6.12</time>
   <energy>
    <i name="e_fr_energy">    -90.58799444 </i>
    <i name="e_wo_entrp">    -90.58481764 </i>
    <i name="e_0_energy">    -90.58640604 </i>
   </energy>
  </scstep>
  <scstep>
   <time name="dav">    7.44    7.44</time>
   <time name="total">    7.54    7.54</time>
   <energy>
    <i name="e_fr_energy">    -90.60215537 </i>
    <i name="e_wo_entrp">    -90.59889193 </i>
    <i name="e_0_energy">    -90.60052365 </i>
   </energy>
  </scstep>
  <scstep>
   <time name="dav">    6.17    6.17</time>
   <time name="total">    6.27    6.27</time>
   <energy>
    <i name="e_fr_energy">    -90.60620491 </i>
    <i name="e_wo_entrp">    -90.60298771 </i>
    <i name="e_0_energy">    -90.60459631 </i>
   </energy>
  </scstep>
  <scstep>
   <time name="dav">    6.98    6.98</time>
   <time name="total">    7.08    7.08</time>
   <energy>
    <i name="e_fr_energy">    -90.60727141 </i>
    <i name="e_wo_entrp">    -90.60406504 </i>
    <i name="e_0_energy">    -90.60566822 </i>
   </energy>
  </scstep>
  <scstep>
   <time name="dav">    6.65    6.65</time>
   <time name="total">    6.75    6.75</time>
   <energy>
    <i name="e_fr_energy">    -90.60738739 </i>
    <i name="e_wo_entrp">    -90.60417481 </i>
    <i name="e_0_energy">    -90.60578110 </i>
   </energy>
  </scstep>
  <scstep>
   <time name="dav">    7.44    7.44</time>
   <time name="total">    7.54    7.54</time>
   <energy>
    <i name="e_fr_energy">    -90.60739226 </i>
    <i name="e_wo_entrp">    -90.60417938 </i>
    <i name="e_0_energy">    -90.60578582 </i>
   </energy>
  </scstep>
  <scstep>
   <time name="dav">    6.69    6.69</time>
   <time name="total">    6.70    6.70</time>
   <energy>
    <i name="alphaZ">     94.32845006 </i>
    <i name="ewald">   -796.00538253 </i>
    <i name="hartreedc">   -349.10415091 </i>
    <i name="XCdc">    101.62246954 </i>
    <i name="pawpsdc">   3744.47769059 </i>
    <i name="pawaedc">  -3733.66775046 </i>
    <i name="eentropy">     -0.00321299 </i>
    <i name="bandstr">   -148.62991678 </i>
    <i name="atom">    996.37441054 </i>
    <i name="e_fr_energy">    -90.60739295 </i>
    <i name="e_wo_entrp">    -90.60417995 </i>
    <i name="e_0_energy">    -90.60578645 </i>
   </energy>
  </scstep>
  <structure>
   <crystal>
    <varray name="basis" >
     <v>       5.69529090       0.00000000       0.00000000 </v>
     <v>       0.00000000       4.04668563       0.00000000 </v>
     <v>       0.00000000       0.00000000       6.20233874 </v>
    </varray>
    <i name="volume">    142.94562249 </i>
    <varray name="rec_basis" >
     <v>       0.17558366       0.00000000       0.00000000 </v>
     <v>       0.00000000       0.24711581       0.00000000 </v>
     <v>       0.00000000       0.00000000       0.16122950 </v>
    </varray>
   </crystal>
   <varray name="positions" >
    <v>       0.52123000       0.50000000       0.63796000 </v>
    <v>       0.47877000       0.50000000       0.36204000 </v>
    <v>       0.97877000       0.50000000       0.63796000 </v>
    <v>       0.02123000       0.50000000       0.36204000 </v>
    <v>       0.60090000       0.50000000       0.89991000 </v>
    <v>       0.39910000       0.50000000       0.10009000 </v>
    <v>       0.89910000       0.50000000       0.89991000 </v>
    <v>       0.10090000       0.50000000       0.10009000 </v>
    <v>       0.75000000       0.79171000       0.72973000 </v>
    <v>       0.25000000       0.20829000       0.27027000 </v>
    <v>       0.75000000       0.20829000       0.72973000 </v>
    <v>       0.25000000       0.79171000       0.27027000 </v>
    <v>       0.25000000       0.50000000       0.52367000 </v>
    <v>       0.75000000       0.50000000       0.47633000 </v>
   </varray>
  </structure>
  <varray name="forces" >
   <v>      -0.00890942      -0.00000000       0.05291707 </v>
   <v>       0.00890942      -0.00000000      -0.05291707 </v>
   <v>       0.00890942      -0.00000000       0.05291707 </v>
   <v>      -0.00890942      -0.00000000      -0.05291707 </v>
   <v>      -0.83589596      -0.00000000       0.28178153 </v>
   <v>       0.83589596      -0.00000000      -0.28178153 </v>
   <v>       0.83589596      -0.00000000       0.28178153 </v>
   <v>      -0.83589596      -0.00000000      -0.28178153 </v>
   <v>      -0.00000000       0.06220232      -0.07894492 </v>
   <v>       0.00000000      -0.06220232       0.07894492 </v>
   <v>       0.00000000      -0.06220232      -0.07894492 </v>
   <v>       0.00000000       0.06220232       0.07894492 </v>
   <v>      -0.00000000      -0.00000000       0.07665796 </v>
   <v>       0.00000000      -0.00000000      -0.07665796 </v>
  </varray>
  <varray name="stress" >
   <v>      15.83514988       0.00000000       0.00000000 </v>
   <v>       0.00000000       1.55814067       0.00000000 </v>
   <v>       0.00000000       0.00000000      -5.51860377 </v>
  </varray>
  <energy>
   <i name="e_fr_energy">    -90.60739295 </i>
   <i name="e_wo_entrp">    -90.60417995 </i>
   <i name="e_0_energy">    -90.60578645 </i>
  </energy>
  <time name="totalsc">  103.88  103.92</time>
  <eigenvalues>
   <array>
    <dimension dim="1">band</dimension>
    <dimension dim="2">kpoint</dimension>
    <dimension dim="3">spin</dimension>
    <field>eigene</field>
    <field>occ</field>
    <set>
     <set comment="spin 1">
      <set comment="kpoint 1">
       <r>  -12.7259    1.0000 </r>
       <r>  -11.5838    1.0000 </r>
       <r>   -8.6566    1.0000 </r>
       <r>   -8.4197    1.0000 </r>
       <r>   -6.0611    1.0000 </r>
       <r>   -5.1273    1.0000 </r>
       <r>   -4.6627    1.0000 </r>
       <r>   -4.2732    1.0000 </r>
       <r>   -4.0305    1.0000 </r>
       <r>   -3.5409    1.0000 </r>
       <r>   -2.5895    1.0000 </r>
       <r>   -2.3203    1.0000 </r>
       <r>   -1.8291    1.0000 </r>
       <r>   -1.0918    1.0000 </r>
       <r>   -0.0661    1.0000 </r>
       <r>   -0.0359    1.0000 </r>
       <r>    0.1611    1.0000 </r>
       <r>    0.1831    1.0000 </r>
       <r>    0.5706    1.0000 </r>
       <r>    2.0239    0.0001 </r>
       <r>    2.0871    0.0000 </r>
       <r>    2.2230    0.0000 </r>
       <r>    5.4650    0.0000 </r>
       <r>    5.7563    0.0000 </r>
       <r>    5.8459    0.0000 </r>
       <r>    5.9664    0.0000 </r>
       <r>    6.8225    0.0000 </r>
       <r>    7.5565    0.0000 </r>
       <r>    7.8863    0.0000 </r>
       <r>    8.5458    0.0000 </r>
       <r>    8.8144    0.0000 </r>
       <r>    8.9605    0.0000 </r>
       <r>    9.0657    0.0000 </r>
       <r>   10.1319    0.0000 </r>
       <r>   11.1920    0.0000 </r>
       <r>   11.3460    0.0000 </r>
       <r>   11.6767    0.0000 </r>
       <r>   11.7928    0.0000 </r>
       <r>   11.9508    0.0000 </r>
       <r>   12.4124    0.0000 </r>
       <r>   12.8807    0.0000 </r>
       <r>   13.4648    0.0000 </r>
       <r>   13.4920    0.0000 </r>
       <r>   15.3968    0.0000 </r>
       <r>   15.5850    0.0000 </r>
       <r>   16.0765    0.0000 </r>
       <r>   16.3464    0.0000 </r>
       <r>   16.3701    0.0000 </r>
      </set>
      <set comment="kpoint 2">
       <r>  -12.6821    1.0000 </r>
       <r>  -11.6576    1.0000 </r>
       <r>   -8.6355    1.0000 </r>
       <r>   -8.4082    1.0000 </r>
       <r>   -5.9928    1.0000 </r>
       <r>   -5.4688    1.0000 </r>
       <r>   -4.7856    1.0000 </r>
       <r>   -4.0073    1.0000 </r>
       <r>   -3.7896    1.0000 </r>
       <r>   -3.2030    1.0000 </r>
       <r>   -2.6598    1.0000 </r>
       <r>   -2.3002    1.0000 </r>
       <r>   -1.9079    1.0000 </r>
       <r>   -1.3989    1.0000 </r>
       <r>   -0.0257    1.0000 </r>
       <r>   -0.0137    1.0000 </r>
       <r>    0.0982    1.0000 </r>
       <r>    0.2031    1.0000 </r>
       <r>    0.4756    1.0000 </r>
       <r>    1.9376    0.0861 </r>
       <r>    2.0091    0.0004 </r>
       <r>    2.1017    0.0000 </r>
       <r>    5.5536    0.0000 </r>
       <r>    5.7654    0.0000 </r>
       <r>    5.8729    0.0000 </r>
       <r>    6.3123    0.0000 </r>
       <r>    6.7369    0.0000 </r>
       <r>    7.1945    0.0000 </r>
       <r>    8.0969    0.0000 </r>
       <r>    8.6821    0.0000 </r>
       <r>    9.0723    0.0000 </r>
       <r>    9.1432    0.0000 </r>
       <r>    9.2148    0.0000 </r>
       <r>   10.2459    0.0000 </r>
       <r>   10.9532    0.0000 </r>
       <r>   11.1419    0.0000 </r>
       <r>   11.2652    0.0000 </r>
       <r>   11.7098    0.0000 </r>
       <r>   12.1681    0.0000 </r>
       <r>   12.5022    0.0000 </r>
       <r>   13.1338    0.0000 </r>
       <r>   13.1401    0.0000 </r>
       <r>   14.0242    0.0000 </r>
       <r>   14.8846    0.0000 </r>
       <r>   15.7638    0.0000 </r>
       <r>   15.8420    0.0000 </r>
       <r>   16.2410    0.0000 </r>
       <r>   16.5277    0.0000 </r>
      </set>
      <set comment="kpoint 3">
       <r>  -12.5965    1.0000 </r>
       <r>  -11.7906    1.0000 </r>
       <r>   -8.5920    1.0000 </r>
       <r>   -8.3935    1.0000 </r>
       <r>   -5.9713    1.0000 </r>
       <r>   -5.7956    1.0000 </r>
       <r>   -4.7398    1.0000 </r>
       <r>   -3.8796    1.0000 </r>
       <r>   -3.2784    1.0000 </r>
       <r>   -2.8289    1.0000 </r>
       <r>   -2.7103    1.0000 </r>
       <r>   -2.2596    1.0000 </r>
       <r>   -2.0189    1.0000 </r>
       <r>   -1.9033    1.0000 </r>
       <r>   -0.2139    1.0000 </r>
       <r>    0.0184    1.0000 </r>
       <r>    0.1484    1.0000 </r>
       <r>    0.1611    1.0000 </r>
       <r>    0.4453    1.0000 </r>
       <r>    1.7900    0.9975 </r>
       <r>    1.8717    0.6905 </r>
       <r>    1.8763    0.6441 </r>
       <r>    5.6744    0.0000 </r>
       <r>    5.7219    0.0000 </r>
       <r>    6.1821    0.0000 </r>
       <r>    6.6107    0.0000 </r>
       <r>    6.7712    0.0000 </r>
       <r>    6.9398    0.0000 </r>
       <r>    8.2483    0.0000 </r>
       <r>    8.8305    0.0000 </r>
       <r>    9.0124    0.0000 </r>
       <r>    9.5872    0.0000 </r>
       <r>    9.6586    0.0000 </r>
       <r>   10.2914    0.0000 </r>
       <r>   10.4973    0.0000 </r>
       <r>   10.6374    0.0000 </r>
       <r>   11.3860    0.0000 </r>
       <r>   11.8515    0.0000 </r>
       <r>   12.4031    0.0000 </r>
       <r>   12.5786    0.0000 </r>
       <r>   12.8033    0.0000 </r>
       <r>   12.9314    0.0000 </r>
       <r>   14.6502    0.0000 </r>
       <r>   14.9323    0.0000 </r>
       <r>   15.2379    0.0000 </r>
       <r>   15.9973    0.0000 </r>
       <r>   16.0159    0.0000 </r>
       <r>   16.3062    0.0000 </r>
      </set>
      <set comment="kpoint 4">
       <r>  -12.4729    1.0000 </r>
       <r>  -11.9599    1.0000 </r>
       <r>   -8.5302    1.0000 </r>
       <r>   -8.3904    1.0000 </r>
       <r>   -6.0522    1.0000 </r>
       <r>   -6.0287    1.0000 </r>
       <r>   -4.4121    1.0000 </r>
       <r>   -3.7104    1.0000 </r>
       <r>   -3.0232    1.0000 </r>
       <r>   -2.8936    1.0000 </r>
       <r>   -2.4406    1.0000 </r>
       <r>   -2.2487    1.0000 </r>
       <r>   -2.1409    1.0000 </r>
       <r>   -2.1202    1.0000 </r>
       <r>   -0.5130    1.0000 </r>
       <r>   -0.2399    1.0000 </r>
       <r>    0.1768    1.0000 </r>
       <r>    0.2524    1.0000 </r>
       <r>    0.6186    1.0000 </r>
       <r>    1.5359    1.0000 </r>
       <r>    1.6670    1.0000 </r>
       <r>    1.7278    1.0000 </r>
       <r>    5.7065    0.0000 </r>
       <r>    5.7598    0.0000 </r>
       <r>    6.5091    0.0000 </r>
       <r>    6.6805    0.0000 </r>
       <r>    6.7065    0.0000 </r>
       <r>    7.4216    0.0000 </r>
       <r>    8.3730    0.0000 </r>
       <r>    8.6986    0.0000 </r>
       <r>    8.8205    0.0000 </r>
       <r>    9.5452    0.0000 </r>
       <r>   10.0678    0.0000 </r>
       <r>   10.1290    0.0000 </r>
       <r>   10.4101    0.0000 </r>
       <r>   11.1622    0.0000 </r>
       <r>   11.4147    0.0000 </r>
       <r>   11.9586    0.0000 </r>
       <r>   12.2157    0.0000 </r>
       <r>   12.2880    0.0000 </r>
       <r>   12.5318    0.0000 </r>
       <r>   13.2682    0.0000 </r>
       <r>   14.7248    0.0000 </r>
       <r>   14.9898    0.0000 </r>
       <r>   15.2787    0.0000 </r>
       <r>   15.3880    0.0000 </r>
       <r>   15.5871    0.0000 </r>
       <r>   16.3915    0.0000 </r>
      </set>
      <set comment="kpoint 5">
       <r>  -12.3182    1.0000 </r>
       <r>  -12.1423    1.0000 </r>
       <r>   -8.4640    1.0000 </r>
       <r>   -8.4130    1.0000 </r>
       <r>   -6.1423    1.0000 </r>
       <r>   -6.1377    1.0000 </r>
       <r>   -3.8965    1.0000 </r>
       <r>   -3.5009    1.0000 </r>
       <r>   -3.2969    1.0000 </r>
       <r>   -3.2626    1.0000 </r>
       <r>   -2.3585    1.0000 </r>
       <r>   -2.2295    1.0000 </r>
       <r>   -1.9568    1.0000 </r>
       <r>   -1.9043    1.0000 </r>
       <r>   -0.7335    1.0000 </r>
       <r>   -0.5981    1.0000 </r>
       <r>    0.2601    1.0000 </r>
       <r>    0.2938    1.0000 </r>
       <r>    0.8794    1.0000 </r>
       <r>    1.1970    1.0000 </r>
       <r>    1.5864    1.0000 </r>
       <r>    1.6139    1.0000 </r>
       <r>    5.7343    0.0000 </r>
       <r>    5.7714    0.0000 </r>
       <r>    6.4874    0.0000 </r>
       <r>    6.5513    0.0000 </r>
       <r>    7.3762    0.0000 </r>
       <r>    8.0831    0.0000 </r>
       <r>    8.1043    0.0000 </r>
       <r>    8.4911    0.0000 </r>
       <r>    8.6301    0.0000 </r>
       <r>    8.7993    0.0000 </r>
       <r>   10.5120    0.0000 </r>
       <r>   10.5289    0.0000 </r>
       <r>   10.7731    0.0000 </r>
       <r>   11.2313    0.0000 </r>
       <r>   11.4159    0.0000 </r>
       <r>   11.6131    0.0000 </r>
       <r>   11.9470    0.0000 </r>
       <r>   12.4945    0.0000 </r>
       <r>   12.7273    0.0000 </r>
       <r>   13.2640    0.0000 </r>
       <r>   14.6022    0.0000 </r>
       <r>   14.7488    0.0000 </r>
       <r>   14.8818    0.0000 </r>
       <r>   14.9403    0.0000 </r>
       <r>   16.1172    0.0000 </r>
       <r>   16.4616    0.0000 </r>
      </set>
      <set comment="kpoint 6">
       <r>  -12.7019    1.0000 </r>
       <r>  -11.5623    1.0000 </r>
       <r>   -8.6378    1.0000 </r>
       <r>   -8.3966    1.0000 </r>
       <r>   -6.0343    1.0000 </r>
       <r>   -5.0935    1.0000 </r>
       <r>   -4.6406    1.0000 </r>
       <r>   -4.5713    1.0000 </r>
       <r>   -4.1745    1.0000 </r>
       <r>   -3.5180    1.0000 </r>
       <r>   -3.2830    1.0000 </r>
       <r>   -1.7895    1.0000 </r>
       <r>   -1.0873    1.0000 </r>
       <r>   -1.0299    1.0000 </r>
       <r>   -0.3000    1.0000 </r>
       <r>   -0.2720    1.0000 </r>
       <r>    0.1746    1.0000 </r>
       <r>    0.2533    1.0000 </r>
       <r>    0.6491    1.0000 </r>
       <r>    1.7559    0.9999 </r>
       <r>    1.8359    0.9345 </r>
       <r>    2.2752    0.0000 </r>
       <r>    5.5830    0.0000 </r>
       <r>    5.7153    0.0000 </r>
       <r>    5.7485    0.0000 </r>
       <r>    6.0151    0.0000 </r>
       <r>    7.1089    0.0000 </r>
       <r>    7.8422    0.0000 </r>
       <r>    8.0867    0.0000 </r>
       <r>    8.1968    0.0000 </r>
       <r>    8.8184    0.0000 </r>
       <r>    9.1120    0.0000 </r>
       <r>    9.1624    0.0000 </r>
       <r>   10.5848    0.0000 </r>
       <r>   11.2771    0.0000 </r>
       <r>   11.4076    0.0000 </r>
       <r>   11.6105    0.0000 </r>
       <r>   11.8957    0.0000 </r>
       <r>   12.0614    0.0000 </r>
       <r>   12.6931    0.0000 </r>
       <r>   12.8806    0.0000 </r>
       <r>   13.2010    0.0000 </r>
       <r>   13.2076    0.0000 </r>
       <r>   15.3455    0.0000 </r>
       <r>   15.3958    0.0000 </r>
       <r>   15.8719    0.0000 </r>
       <r>   15.8845    0.0000 </r>
       <r>   16.2349    0.0000 </r>
      </set>
      <set comment="kpoint 7">
       <r>  -12.6582    1.0000 </r>
       <r>  -11.6359    1.0000 </r>
       <r>   -8.6166    1.0000 </r>
       <r>   -8.3855    1.0000 </r>
       <r>   -5.9642    1.0000 </r>
       <r>   -5.4387    1.0000 </r>
       <r>   -4.7655    1.0000 </r>
       <r>   -4.4881    1.0000 </r>
       <r>   -3.7500    1.0000 </r>
       <r>   -3.3639    1.0000 </r>
       <r>   -3.1649    1.0000 </r>
       <r>   -1.7677    1.0000 </r>
       <r>   -1.3935    1.0000 </r>
       <r>   -1.1495    1.0000 </r>
       <r>   -0.2610    1.0000 </r>
       <r>   -0.1908    1.0000 </r>
       <r>    0.1423    1.0000 </r>
       <r>    0.2245    1.0000 </r>
       <r>    0.5464    1.0000 </r>
       <r>    1.6753    1.0000 </r>
       <r>    1.7594    0.9999 </r>
       <r>    2.1443    0.0000 </r>
       <r>    5.6587    0.0000 </r>
       <r>    5.8138    0.0000 </r>
       <r>    5.9432    0.0000 </r>
       <r>    6.1190    0.0000 </r>
       <r>    7.0253    0.0000 </r>
       <r>    7.5169    0.0000 </r>
       <r>    8.2325    0.0000 </r>
       <r>    8.3681    0.0000 </r>
       <r>    9.1435    0.0000 </r>
       <r>    9.1723    0.0000 </r>
       <r>    9.4273    0.0000 </r>
       <r>   10.5107    0.0000 </r>
       <r>   10.8842    0.0000 </r>
       <r>   11.0944    0.0000 </r>
       <r>   11.4623    0.0000 </r>
       <r>   11.8826    0.0000 </r>
       <r>   12.2812    0.0000 </r>
       <r>   12.7490    0.0000 </r>
       <r>   12.8784    0.0000 </r>
       <r>   13.1642    0.0000 </r>
       <r>   13.7411    0.0000 </r>
       <r>   14.9698    0.0000 </r>
       <r>   15.4125    0.0000 </r>
       <r>   15.7631    0.0000 </r>
       <r>   15.8104    0.0000 </r>
       <r>   16.4150    0.0000 </r>
      </set>
      <set comment="kpoint 8">
       <r>  -12.5727    1.0000 </r>
       <r>  -11.7686    1.0000 </r>
       <r>   -8.5728    1.0000 </r>
       <r>   -8.3714    1.0000 </r>
       <r>   -5.9399    1.0000 </r>
       <r>   -5.7652    1.0000 </r>
       <r>   -4.7231    1.0000 </r>
       <r>   -4.3793    1.0000 </r>
       <r>   -3.4861    1.0000 </r>
       <r>   -3.2238    1.0000 </r>
       <r>   -2.6981    1.0000 </r>
       <r>   -1.8988    1.0000 </r>
       <r>   -1.7233    1.0000 </r>
       <r>   -1.3131    1.0000 </r>
       <r>   -0.2163    1.0000 </r>
       <r>   -0.2136    1.0000 </r>
       <r>    0.0567    1.0000 </r>
       <r>    0.2117    1.0000 </r>
       <r>    0.4699    1.0000 </r>
       <r>    1.5402    1.0000 </r>
       <r>    1.6293    1.0000 </r>
       <r>    1.8958    0.4270 </r>
       <r>    5.8636    0.0000 </r>
       <r>    5.9413    0.0000 </r>
       <r>    6.0189    0.0000 </r>
       <r>    6.5682    0.0000 </r>
       <r>    6.9044    0.0000 </r>
       <r>    7.2888    0.0000 </r>
       <r>    8.4386    0.0000 </r>
       <r>    8.5015    0.0000 </r>
       <r>    9.1130    0.0000 </r>
       <r>    9.6249    0.0000 </r>
       <r>    9.8845    0.0000 </r>
       <r>   10.1350    0.0000 </r>
       <r>   10.3642    0.0000 </r>
       <r>   10.8351    0.0000 </r>
       <r>   11.5286    0.0000 </r>
       <r>   12.1169    0.0000 </r>
       <r>   12.3204    0.0000 </r>
       <r>   12.5653    0.0000 </r>
       <r>   12.9710    0.0000 </r>
       <r>   13.0337    0.0000 </r>
       <r>   14.3183    0.0000 </r>
       <r>   15.1008    0.0000 </r>
       <r>   15.1754    0.0000 </r>
       <r>   15.6596    0.0000 </r>
       <r>   15.7222    0.0000 </r>
       <r>   16.4351    0.0000 </r>
      </set>
      <set comment="kpoint 9">
       <r>  -12.4495    1.0000 </r>
       <r>  -11.9376    1.0000 </r>
       <r>   -8.5108    1.0000 </r>
       <r>   -8.3692    1.0000 </r>
       <r>   -6.0197    1.0000 </r>
       <r>   -5.9974    1.0000 </r>
       <r>   -4.3976    1.0000 </r>
       <r>   -4.2320    1.0000 </r>
       <r>   -3.6580    1.0000 </r>
       <r>   -2.8438    1.0000 </r>
       <r>   -2.3588    1.0000 </r>
       <r>   -2.2146    1.0000 </r>
       <r>   -1.6590    1.0000 </r>
       <r>   -1.4766    1.0000 </r>
       <r>   -0.4743    1.0000 </r>
       <r>   -0.3034    1.0000 </r>
       <r>    0.0889    1.0000 </r>
       <r>    0.1186    1.0000 </r>
       <r>    0.6293    1.0000 </r>
       <r>    1.4005    1.0000 </r>
       <r>    1.4837    1.0000 </r>
       <r>    1.5715    1.0000 </r>
       <r>    5.8817    0.0000 </r>
       <r>    6.0150    0.0000 </r>
       <r>    6.5243    0.0000 </r>
       <r>    6.8146    0.0000 </r>
       <r>    6.8873    0.0000 </r>
       <r>    7.3800    0.0000 </r>
       <r>    8.4268    0.0000 </r>
       <r>    8.6097    0.0000 </r>
       <r>    8.9505    0.0000 </r>
       <r>    9.3803    0.0000 </r>
       <r>   10.0832    0.0000 </r>
       <r>   10.1103    0.0000 </r>
       <r>   10.4521    0.0000 </r>
       <r>   11.2396    0.0000 </r>
       <r>   11.3746    0.0000 </r>
       <r>   11.8531    0.0000 </r>
       <r>   12.3066    0.0000 </r>
       <r>   12.5561    0.0000 </r>
       <r>   12.7321    0.0000 </r>
       <r>   13.4710    0.0000 </r>
       <r>   14.7787    0.0000 </r>
       <r>   14.7860    0.0000 </r>
       <r>   15.1681    0.0000 </r>
       <r>   15.3208    0.0000 </r>
       <r>   15.6665    0.0000 </r>
       <r>   16.4044    0.0000 </r>
      </set>
      <set comment="kpoint 10">
       <r>  -12.2951    1.0000 </r>
       <r>  -12.1196    1.0000 </r>
       <r>   -8.4443    1.0000 </r>
       <r>   -8.3927    1.0000 </r>
       <r>   -6.1101    1.0000 </r>
       <r>   -6.1051    1.0000 </r>
       <r>   -4.0526    1.0000 </r>
       <r>   -3.8893    1.0000 </r>
       <r>   -3.8481    1.0000 </r>
       <r>   -3.2840    1.0000 </r>
       <r>   -2.1049    1.0000 </r>
       <r>   -1.9106    1.0000 </r>
       <r>   -1.5908    1.0000 </r>
       <r>   -1.5885    1.0000 </r>
       <r>   -0.6951    1.0000 </r>
       <r>   -0.5944    1.0000 </r>
       <r>    0.1217    1.0000 </r>
       <r>    0.1529    1.0000 </r>
       <r>    0.8888    1.0000 </r>
       <r>    1.2033    1.0000 </r>
       <r>    1.3469    1.0000 </r>
       <r>    1.3711    1.0000 </r>
       <r>    5.9327    0.0000 </r>
       <r>    5.9981    0.0000 </r>
       <r>    6.8033    0.0000 </r>
       <r>    6.8538    0.0000 </r>
       <r>    7.1924    0.0000 </r>
       <r>    7.9056    0.0000 </r>
       <r>    7.9512    0.0000 </r>
       <r>    8.6344    0.0000 </r>
       <r>    8.7026    0.0000 </r>
       <r>    8.8156    0.0000 </r>
       <r>   10.3314    0.0000 </r>
       <r>   10.5795    0.0000 </r>
       <r>   10.8160    0.0000 </r>
       <r>   10.9215    0.0000 </r>
       <r>   11.5631    0.0000 </r>
       <r>   11.6725    0.0000 </r>
       <r>   12.0265    0.0000 </r>
       <r>   12.6642    0.0000 </r>
       <r>   13.0363    0.0000 </r>
       <r>   13.4957    0.0000 </r>
       <r>   14.5616    0.0000 </r>
       <r>   14.7461    0.0000 </r>
       <r>   14.8427    0.0000 </r>
       <r>   15.0601    0.0000 </r>
       <r>   16.1413    0.0000 </r>
       <r>   16.4357    0.0000 </r>
      </set>
      <set comment="kpoint 11">
       <r>  -12.6574    1.0000 </r>
       <r>  -11.5225    1.0000 </r>
       <r>   -8.6033    1.0000 </r>
       <r>   -8.3538    1.0000 </r>
       <r>   -5.9847    1.0000 </r>
       <r>   -5.1283    1.0000 </r>
       <r>   -5.0025    1.0000 </r>
       <r>   -4.5987    1.0000 </r>
       <r>   -4.1584    1.0000 </r>
       <r>   -3.9054    1.0000 </r>
       <r>   -3.4647    1.0000 </r>
       <r>   -1.2006    1.0000 </r>
       <r>   -1.0779    1.0000 </r>
       <r>   -0.6445    1.0000 </r>
       <r>   -0.5381    1.0000 </r>
       <r>   -0.1710    1.0000 </r>
       <r>    0.1958    1.0000 </r>
       <r>    0.3064    1.0000 </r>
       <r>    0.7276    1.0000 </r>
       <r>    1.3726    1.0000 </r>
       <r>    1.4365    1.0000 </r>
       <r>    2.3134    0.0000 </r>
       <r>    5.2931    0.0000 </r>
       <r>    5.4591    0.0000 </r>
       <r>    6.1309    0.0000 </r>
       <r>    6.2039    0.0000 </r>
       <r>    7.5451    0.0000 </r>
       <r>    7.6338    0.0000 </r>
       <r>    8.3253    0.0000 </r>
       <r>    8.7368    0.0000 </r>
       <r>    8.8927    0.0000 </r>
       <r>    9.2542    0.0000 </r>
       <r>    9.3824    0.0000 </r>
       <r>   10.8912    0.0000 </r>
       <r>   11.3284    0.0000 </r>
       <r>   11.5829    0.0000 </r>
       <r>   11.7095    0.0000 </r>
       <r>   12.0966    0.0000 </r>
       <r>   12.2777    0.0000 </r>
       <r>   12.7566    0.0000 </r>
       <r>   12.7703    0.0000 </r>
       <r>   13.0186    0.0000 </r>
       <r>   13.2339    0.0000 </r>
       <r>   14.6904    0.0000 </r>
       <r>   15.1743    0.0000 </r>
       <r>   15.3573    0.0000 </r>
       <r>   15.4420    0.0000 </r>
       <r>   15.9760    0.0000 </r>
      </set>
      <set comment="kpoint 12">
       <r>  -12.6140    1.0000 </r>
       <r>  -11.5959    1.0000 </r>
       <r>   -8.5818    1.0000 </r>
       <r>   -8.3434    1.0000 </r>
       <r>   -5.9112    1.0000 </r>
       <r>   -5.3906    1.0000 </r>
       <r>   -5.0292    1.0000 </r>
       <r>   -4.7277    1.0000 </r>
       <r>   -3.9717    1.0000 </r>
       <r>   -3.7078    1.0000 </r>
       <r>   -3.1254    1.0000 </r>
       <r>   -1.3852    1.0000 </r>
       <r>   -1.1741    1.0000 </r>
       <r>   -0.7515    1.0000 </r>
       <r>   -0.5000    1.0000 </r>
       <r>   -0.0901    1.0000 </r>
       <r>    0.1768    1.0000 </r>
       <r>    0.2497    1.0000 </r>
       <r>    0.6152    1.0000 </r>
       <r>    1.2935    1.0000 </r>
       <r>    1.3667    1.0000 </r>
       <r>    2.1775    0.0000 </r>
       <r>    5.3733    0.0000 </r>
       <r>    5.8055    0.0000 </r>
       <r>    6.1499    0.0000 </r>
       <r>    6.2451    0.0000 </r>
       <r>    7.4643    0.0000 </r>
       <r>    7.7904    0.0000 </r>
       <r>    8.0575    0.0000 </r>
       <r>    8.8275    0.0000 </r>
       <r>    9.2657    0.0000 </r>
       <r>    9.2968    0.0000 </r>
       <r>    9.6672    0.0000 </r>
       <r>   10.5267    0.0000 </r>
       <r>   10.7894    0.0000 </r>
       <r>   11.2866    0.0000 </r>
       <r>   11.7276    0.0000 </r>
       <r>   12.2085    0.0000 </r>
       <r>   12.4414    0.0000 </r>
       <r>   12.5105    0.0000 </r>
       <r>   13.1740    0.0000 </r>
       <r>   13.2828    0.0000 </r>
       <r>   13.4492    0.0000 </r>
       <r>   14.7002    0.0000 </r>
       <r>   14.8355    0.0000 </r>
       <r>   15.2994    0.0000 </r>
       <r>   15.5058    0.0000 </r>
       <r>   16.0008    0.0000 </r>
      </set>
      <set comment="kpoint 13">
       <r>  -12.5289    1.0000 </r>
       <r>  -11.7280    1.0000 </r>
       <r>   -8.5376    1.0000 </r>
       <r>   -8.3307    1.0000 </r>
       <r>   -5.8815    1.0000 </r>
       <r>   -5.7103    1.0000 </r>
       <r>   -4.9375    1.0000 </r>
       <r>   -4.6919    1.0000 </r>
       <r>   -4.0956    1.0000 </r>
       <r>   -3.1734    1.0000 </r>
       <r>   -2.6541    1.0000 </r>
       <r>   -1.8824    1.0000 </r>
       <r>   -1.1334    1.0000 </r>
       <r>   -0.8902    1.0000 </r>
       <r>   -0.4470    1.0000 </r>
       <r>   -0.0804    1.0000 </r>
       <r>    0.0180    1.0000 </r>
       <r>    0.2617    1.0000 </r>
       <r>    0.5000    1.0000 </r>
       <r>    1.1619    1.0000 </r>
       <r>    1.2483    1.0000 </r>
       <r>    1.9207    0.1873 </r>
       <r>    5.6948    0.0000 </r>
       <r>    6.1049    0.0000 </r>
       <r>    6.2823    0.0000 </r>
       <r>    6.3748    0.0000 </r>
       <r>    7.3617    0.0000 </r>
       <r>    7.8680    0.0000 </r>
       <r>    8.0242    0.0000 </r>
       <r>    8.9560    0.0000 </r>
       <r>    9.2585    0.0000 </r>
       <r>    9.7303    0.0000 </r>
       <r>    9.8613    0.0000 </r>
       <r>   10.1492    0.0000 </r>
       <r>   10.2642    0.0000 </r>
       <r>   11.0740    0.0000 </r>
       <r>   11.5964    0.0000 </r>
       <r>   12.1155    0.0000 </r>
       <r>   12.5201    0.0000 </r>
       <r>   12.8112    0.0000 </r>
       <r>   13.0568    0.0000 </r>
       <r>   13.4573    0.0000 </r>
       <r>   13.9718    0.0000 </r>
       <r>   14.6083    0.0000 </r>
       <r>   14.8853    0.0000 </r>
       <r>   15.3188    0.0000 </r>
       <r>   15.5253    0.0000 </r>
       <r>   16.2114    0.0000 </r>
      </set>
      <set comment="kpoint 14">
       <r>  -12.4061    1.0000 </r>
       <r>  -11.8963    1.0000 </r>
       <r>   -8.4751    1.0000 </r>
       <r>   -8.3302    1.0000 </r>
       <r>   -5.9590    1.0000 </r>
       <r>   -5.9396    1.0000 </r>
       <r>   -4.8014    1.0000 </r>
       <r>   -4.3708    1.0000 </r>
       <r>   -4.2605    1.0000 </r>
       <r>   -2.8050    1.0000 </r>
       <r>   -2.3177    1.0000 </r>
       <r>   -2.1735    1.0000 </r>
       <r>   -1.0767    1.0000 </r>
       <r>   -1.0269    1.0000 </r>
       <r>   -0.4519    1.0000 </r>
       <r>   -0.3667    1.0000 </r>
       <r>    0.0619    1.0000 </r>
       <r>    0.0661    1.0000 </r>
       <r>    0.6469    1.0000 </r>
       <r>    1.0322    1.0000 </r>
       <r>    1.1155    1.0000 </r>
       <r>    1.5855    1.0000 </r>
       <r>    6.1160    0.0000 </r>
       <r>    6.2305    0.0000 </r>
       <r>    6.4066    0.0000 </r>
       <r>    6.8099    0.0000 </r>
       <r>    7.3055    0.0000 </r>
       <r>    7.7891    0.0000 </r>
       <r>    8.0788    0.0000 </r>
       <r>    9.0556    0.0000 </r>
       <r>    9.1133    0.0000 </r>
       <r>    9.1865    0.0000 </r>
       <r>    9.8990    0.0000 </r>
       <r>   10.1980    0.0000 </r>
       <r>   10.7115    0.0000 </r>
       <r>   11.0885    0.0000 </r>
       <r>   11.3387    0.0000 </r>
       <r>   11.9617    0.0000 </r>
       <r>   12.3692    0.0000 </r>
       <r>   12.9963    0.0000 </r>
       <r>   13.0472    0.0000 </r>
       <r>   13.8019    0.0000 </r>
       <r>   14.3943    0.0000 </r>
       <r>   14.4095    0.0000 </r>
       <r>   15.0437    0.0000 </r>
       <r>   15.1368    0.0000 </r>
       <r>   15.6283    0.0000 </r>
       <r>   16.3883    0.0000 </r>
      </set>
      <set comment="kpoint 15">
       <r>  -12.2523    1.0000 </r>
       <r>  -12.0776    1.0000 </r>
       <r>   -8.4080    1.0000 </r>
       <r>   -8.3553    1.0000 </r>
       <r>   -6.0505    1.0000 </r>
       <r>   -6.0444    1.0000 </r>
       <r>   -4.6333    1.0000 </r>
       <r>   -4.4473    1.0000 </r>
       <r>   -3.8579    1.0000 </r>
       <r>   -3.2614    1.0000 </r>
       <r>   -2.0358    1.0000 </r>
       <r>   -1.8700    1.0000 </r>
       <r>   -1.0983    1.0000 </r>
       <r>   -1.0363    1.0000 </r>
       <r>   -0.6247    1.0000 </r>
       <r>   -0.6177    1.0000 </r>
       <r>    0.0122    1.0000 </r>
       <r>    0.0557    1.0000 </r>
       <r>    0.9045    1.0000 </r>
       <r>    0.9699    1.0000 </r>
       <r>    1.0108    1.0000 </r>
       <r>    1.2318    1.0000 </r>
       <r>    6.2076    0.0000 </r>
       <r>    6.3256    0.0000 </r>
       <r>    6.8839    0.0000 </r>
       <r>    7.2243    0.0000 </r>
       <r>    7.2831    0.0000 </r>
       <r>    7.6289    0.0000 </r>
       <r>    7.9363    0.0000 </r>
       <r>    8.4484    0.0000 </r>
       <r>    9.1117    0.0000 </r>
       <r>    9.1440    0.0000 </r>
       <r>   10.0226    0.0000 </r>
       <r>   10.4945    0.0000 </r>
       <r>   10.7190    0.0000 </r>
       <r>   10.9884    0.0000 </r>
       <r>   11.7434    0.0000 </r>
       <r>   11.7628    0.0000 </r>
       <r>   12.1478    0.0000 </r>
       <r>   12.9224    0.0000 </r>
       <r>   13.4268    0.0000 </r>
       <r>   13.7746    0.0000 </r>
       <r>   14.2411    0.0000 </r>
       <r>   14.3957    0.0000 </r>
       <r>   15.0055    0.0000 </r>
       <r>   15.1457    0.0000 </r>
       <r>   16.0045    0.0000 </r>
       <r>   16.3087    0.0000 </r>
      </set>
      <set comment="kpoint 16">
       <r>  -12.5999    1.0000 </r>
       <r>  -11.4711    1.0000 </r>
       <r>   -8.5593    1.0000 </r>
       <r>   -8.2985    1.0000 </r>
       <r>   -5.9203    1.0000 </r>
       <r>   -5.6095    1.0000 </r>
       <r>   -4.9321    1.0000 </r>
       <r>   -4.5424    1.0000 </r>
       <r>   -4.4258    1.0000 </r>
       <r>   -4.1190    1.0000 </r>
       <r>   -3.4026    1.0000 </r>
       <r>   -1.2173    1.0000 </r>
       <r>   -1.0637    1.0000 </r>
       <r>   -0.9996    1.0000 </r>
       <r>   -0.1898    1.0000 </r>
       <r>    0.2242    1.0000 </r>
       <r>    0.3499    1.0000 </r>
       <r>    0.6000    1.0000 </r>
       <r>    0.7914    1.0000 </r>
       <r>    0.9872    1.0000 </r>
       <r>    1.0014    1.0000 </r>
       <r>    2.3477    0.0000 </r>
       <r>    4.9490    0.0000 </r>
       <r>    5.1651    0.0000 </r>
       <r>    6.3645    0.0000 </r>
       <r>    6.5939    0.0000 </r>
       <r>    7.2749    0.0000 </r>
       <r>    7.9771    0.0000 </r>
       <r>    8.7119    0.0000 </r>
       <r>    9.0671    0.0000 </r>
       <r>    9.4768    0.0000 </r>
       <r>    9.5887    0.0000 </r>
       <r>    9.6636    0.0000 </r>
       <r>   10.7527    0.0000 </r>
       <r>   11.2795    0.0000 </r>
       <r>   11.9759    0.0000 </r>
       <r>   12.0264    0.0000 </r>
       <r>   12.3059    0.0000 </r>
       <r>   12.4335    0.0000 </r>
       <r>   12.4574    0.0000 </r>
       <r>   12.5753    0.0000 </r>
       <r>   13.0041    0.0000 </r>
       <r>   13.8076    0.0000 </r>
       <r>   13.8908    0.0000 </r>
       <r>   14.4309    0.0000 </r>
       <r>   15.1142    0.0000 </r>
       <r>   15.4142    0.0000 </r>
       <r>   15.8755    0.0000 </r>
      </set>
      <set comment="kpoint 17">
       <r>  -12.5567    1.0000 </r>
       <r>  -11.5441    1.0000 </r>
       <r>   -8.5374    1.0000 </r>
       <r>   -8.2891    1.0000 </r>
       <r>   -5.8422    1.0000 </r>
       <r>   -5.5747    1.0000 </r>
       <r>   -5.2696    1.0000 </r>
       <r>   -4.6777    1.0000 </r>
       <r>   -4.4914    1.0000 </r>
       <r>   -3.6538    1.0000 </r>
       <r>   -3.0637    1.0000 </r>
       <r>   -1.3792    1.0000 </r>
       <r>   -1.1597    1.0000 </r>
       <r>   -1.0143    1.0000 </r>
       <r>   -0.1912    1.0000 </r>
       <r>    0.2097    1.0000 </r>
       <r>    0.2814    1.0000 </r>
       <r>    0.5793    1.0000 </r>
       <r>    0.6700    1.0000 </r>
       <r>    0.9219    1.0000 </r>
       <r>    0.9600    1.0000 </r>
       <r>    2.2098    0.0000 </r>
       <r>    5.0450    0.0000 </r>
       <r>    5.4971    0.0000 </r>
       <r>    6.3107    0.0000 </r>
       <r>    6.7254    0.0000 </r>
       <r>    7.4106    0.0000 </r>
       <r>    7.9344    0.0000 </r>
       <r>    8.6435    0.0000 </r>
       <r>    9.1845    0.0000 </r>
       <r>    9.4397    0.0000 </r>
       <r>    9.7991    0.0000 </r>
       <r>    9.9085    0.0000 </r>
       <r>   10.3448    0.0000 </r>
       <r>   10.7167    0.0000 </r>
       <r>   11.7159    0.0000 </r>
       <r>   11.8947    0.0000 </r>
       <r>   12.2549    0.0000 </r>
       <r>   12.4895    0.0000 </r>
       <r>   12.6518    0.0000 </r>
       <r>   12.9721    0.0000 </r>
       <r>   13.4032    0.0000 </r>
       <r>   13.8044    0.0000 </r>
       <r>   13.9359    0.0000 </r>
       <r>   14.2668    0.0000 </r>
       <r>   15.0916    0.0000 </r>
       <r>   15.4433    0.0000 </r>
       <r>   15.7446    0.0000 </r>
      </set>
      <set comment="kpoint 18">
       <r>  -12.4721    1.0000 </r>
       <r>  -11.6756    1.0000 </r>
       <r>   -8.4927    1.0000 </r>
       <r>   -8.2782    1.0000 </r>
       <r>   -5.8050    1.0000 </r>
       <r>   -5.6585    1.0000 </r>
       <r>   -5.4185    1.0000 </r>
       <r>   -4.6520    1.0000 </r>
       <r>   -4.6141    1.0000 </r>
       <r>   -3.1140    1.0000 </r>
       <r>   -2.5936    1.0000 </r>
       <r>   -1.8634    1.0000 </r>
       <r>   -1.0989    1.0000 </r>
       <r>   -1.0329    1.0000 </r>
       <r>   -0.2097    1.0000 </r>
       <r>   -0.0448    1.0000 </r>
       <r>    0.3198    1.0000 </r>
       <r>    0.5110    1.0000 </r>
       <r>    0.5274    1.0000 </r>
       <r>    0.8337    1.0000 </r>
       <r>    0.8931    1.0000 </r>
       <r>    1.9493    0.0449 </r>
       <r>    5.3709    0.0000 </r>
       <r>    5.9724    0.0000 </r>
       <r>    6.2835    0.0000 </r>
       <r>    6.8381    0.0000 </r>
       <r>    7.5784    0.0000 </r>
       <r>    7.9542    0.0000 </r>
       <r>    8.5682    0.0000 </r>
       <r>    9.3741    0.0000 </r>
       <r>    9.4046    0.0000 </r>
       <r>    9.6008    0.0000 </r>
       <r>   10.0530    0.0000 </r>
       <r>   10.1232    0.0000 </r>
       <r>   10.5705    0.0000 </r>
       <r>   11.3978    0.0000 </r>
       <r>   11.4074    0.0000 </r>
       <r>   12.2481    0.0000 </r>
       <r>   12.7526    0.0000 </r>
       <r>   12.9662    0.0000 </r>
       <r>   13.1911    0.0000 </r>
       <r>   13.5340    0.0000 </r>
       <r>   13.7783    0.0000 </r>
       <r>   14.0283    0.0000 </r>
       <r>   14.4025    0.0000 </r>
       <r>   15.1831    0.0000 </r>
       <r>   15.3701    0.0000 </r>
       <r>   16.0052    0.0000 </r>
      </set>
      <set comment="kpoint 19">
       <r>  -12.3500    1.0000 </r>
       <r>  -11.8430    1.0000 </r>
       <r>   -8.4295    1.0000 </r>
       <r>   -8.2799    1.0000 </r>
       <r>   -5.8792    1.0000 </r>
       <r>   -5.8669    1.0000 </r>
       <r>   -5.3054    1.0000 </r>
       <r>   -4.7788    1.0000 </r>
       <r>   -4.3350    1.0000 </r>
       <r>   -2.7601    1.0000 </r>
       <r>   -2.2750    1.0000 </r>
       <r>   -2.1177    1.0000 </r>
       <r>   -1.0408    1.0000 </r>
       <r>   -1.0141    1.0000 </r>
       <r>   -0.3692    1.0000 </r>
       <r>   -0.3248    1.0000 </r>
       <r>    0.1564    1.0000 </r>
       <r>    0.3800    1.0000 </r>
       <r>    0.6669    1.0000 </r>
       <r>    0.7780    1.0000 </r>
       <r>    0.8269    1.0000 </r>
       <r>    1.6102    1.0000 </r>
       <r>    5.8987    0.0000 </r>
       <r>    6.3154    0.0000 </r>
       <r>    6.5521    0.0000 </r>
       <r>    6.7904    0.0000 </r>
       <r>    7.5776    0.0000 </r>
       <r>    8.0117    0.0000 </r>
       <r>    8.5218    0.0000 </r>
       <r>    8.9235    0.0000 </r>
       <r>    9.2804    0.0000 </r>
       <r>    9.5926    0.0000 </r>
       <r>    9.9157    0.0000 </r>
       <r>   10.3553    0.0000 </r>
       <r>   10.8041    0.0000 </r>
       <r>   11.1029    0.0000 </r>
       <r>   11.4555    0.0000 </r>
       <r>   12.1783    0.0000 </r>
       <r>   12.4349    0.0000 </r>
       <r>   13.1701    0.0000 </r>
       <r>   13.2905    0.0000 </r>
       <r>   13.6735    0.0000 </r>
       <r>   13.9136    0.0000 </r>
       <r>   14.1637    0.0000 </r>
       <r>   14.7700    0.0000 </r>
       <r>   15.0045    0.0000 </r>
       <r>   15.4475    0.0000 </r>
       <r>   16.3419    0.0000 </r>
      </set>
      <set comment="kpoint 20">
       <r>  -12.1971    1.0000 </r>
       <r>  -12.0233    1.0000 </r>
       <r>   -8.3615    1.0000 </r>
       <r>   -8.3072    1.0000 </r>
       <r>   -5.9729    1.0000 </r>
       <r>   -5.9649    1.0000 </r>
       <r>   -5.1439    1.0000 </r>
       <r>   -4.9620    1.0000 </r>
       <r>   -3.8257    1.0000 </r>
       <r>   -3.2312    1.0000 </r>
       <r>   -1.9788    1.0000 </r>
       <r>   -1.8239    1.0000 </r>
       <r>   -0.9771    1.0000 </r>
       <r>   -0.9179    1.0000 </r>
       <r>   -0.6671    1.0000 </r>
       <r>   -0.6240    1.0000 </r>
       <r>    0.1316    1.0000 </r>
       <r>    0.2320    1.0000 </r>
       <r>    0.7624    1.0000 </r>
       <r>    0.7782    1.0000 </r>
       <r>    0.9303    1.0000 </r>
       <r>    1.2536    1.0000 </r>
       <r>    6.4486    0.0000 </r>
       <r>    6.5604    0.0000 </r>
       <r>    6.6277    0.0000 </r>
       <r>    7.1426    0.0000 </r>
       <r>    7.2126    0.0000 </r>
       <r>    7.7001    0.0000 </r>
       <r>    8.5103    0.0000 </r>
       <r>    8.5746    0.0000 </r>
       <r>    9.4746    0.0000 </r>
       <r>    9.6484    0.0000 </r>
       <r>    9.8554    0.0000 </r>
       <r>   10.1514    0.0000 </r>
       <r>   10.8689    0.0000 </r>
       <r>   11.2426    0.0000 </r>
       <r>   11.8817    0.0000 </r>
       <r>   11.9558    0.0000 </r>
       <r>   12.2698    0.0000 </r>
       <r>   13.1600    0.0000 </r>
       <r>   13.4498    0.0000 </r>
       <r>   13.6363    0.0000 </r>
       <r>   13.8501    0.0000 </r>
       <r>   13.9597    0.0000 </r>
       <r>   15.1120    0.0000 </r>
       <r>   15.1296    0.0000 </r>
       <r>   15.6804    0.0000 </r>
       <r>   15.9827    0.0000 </r>
      </set>
      <set comment="kpoint 21">
       <r>  -12.5397    1.0000 </r>
[...]
       <r>   -2.3110    1.0000 </r>
       <r>   -2.1458    1.0000 </r>
       <r>   -1.9816    1.0000 </r>
       <r>   -1.4866    1.0000 </r>
       <r>   -0.7346    1.0000 </r>
       <r>   -0.1979    1.0000 </r>
       <r>    0.1688    1.0000 </r>
       <r>    0.3882    1.0000 </r>
       <r>    0.5179    1.0000 </r>
       <r>    1.5933    1.0000 </r>
       <r>    1.6209    1.0000 </r>
       <r>    1.8763    0.6432 </r>
       <r>    5.5175    0.0000 </r>
       <r>    6.1530    0.0000 </r>
       <r>    6.6738    0.0000 </r>
       <r>    7.2267    0.0000 </r>
       <r>    7.7914    0.0000 </r>
       <r>    8.2319    0.0000 </r>
       <r>    8.9995    0.0000 </r>
       <r>    9.1599    0.0000 </r>
       <r>    9.7288    0.0000 </r>
       <r>    9.9648    0.0000 </r>
       <r>   10.5964    0.0000 </r>
       <r>   11.0386    0.0000 </r>
       <r>   11.2179    0.0000 </r>
       <r>   11.4907    0.0000 </r>
       <r>   11.5769    0.0000 </r>
       <r>   11.9589    0.0000 </r>
       <r>   12.8477    0.0000 </r>
       <r>   13.1586    0.0000 </r>
       <r>   13.3785    0.0000 </r>
       <r>   13.7597    0.0000 </r>
       <r>   13.8858    0.0000 </r>
       <r>   14.1666    0.0000 </r>
       <r>   14.4892    0.0000 </r>
       <r>   14.9770    0.0000 </r>
       <r>   15.1059    0.0000 </r>
       <r>   15.4065    0.0000 </r>
      </set>
      <set comment="kpoint 175">
       <r>  -12.0216    1.0000 </r>
       <r>  -11.8825    1.0000 </r>
       <r>   -8.5456    1.0000 </r>
       <r>   -8.4333    1.0000 </r>
       <r>   -5.9248    1.0000 </r>
       <r>   -5.8184    1.0000 </r>
       <r>   -4.8891    1.0000 </r>
       <r>   -4.5652    1.0000 </r>
       <r>   -4.4112    1.0000 </r>
       <r>   -3.9726    1.0000 </r>
       <r>   -2.1980    1.0000 </r>
       <r>   -2.1363    1.0000 </r>
       <r>   -2.0533    1.0000 </r>
       <r>   -1.7690    1.0000 </r>
       <r>   -0.2159    1.0000 </r>
       <r>   -0.0018    1.0000 </r>
       <r>    0.3912    1.0000 </r>
       <r>    0.4792    1.0000 </r>
       <r>    0.5524    1.0000 </r>
       <r>    0.8784    1.0000 </r>
       <r>    1.6350    1.0000 </r>
       <r>    1.7346    1.0000 </r>
       <r>    5.8651    0.0000 </r>
       <r>    6.0509    0.0000 </r>
       <r>    6.8758    0.0000 </r>
       <r>    7.4159    0.0000 </r>
       <r>    7.4803    0.0000 </r>
       <r>    7.5859    0.0000 </r>
       <r>    9.4042    0.0000 </r>
       <r>    9.5888    0.0000 </r>
       <r>    9.7978    0.0000 </r>
       <r>    9.9754    0.0000 </r>
       <r>   10.4734    0.0000 </r>
       <r>   10.8240    0.0000 </r>
       <r>   11.2428    0.0000 </r>
       <r>   11.5184    0.0000 </r>
       <r>   11.5315    0.0000 </r>
       <r>   11.6221    0.0000 </r>
       <r>   13.0927    0.0000 </r>
       <r>   13.1991    0.0000 </r>
       <r>   13.7354    0.0000 </r>
       <r>   14.0658    0.0000 </r>
       <r>   14.2005    0.0000 </r>
       <r>   14.3042    0.0000 </r>
       <r>   14.6047    0.0000 </r>
       <r>   14.7476    0.0000 </r>
       <r>   14.8953    0.0000 </r>
       <r>   15.0601    0.0000 </r>
      </set>
     </set>
    </set>
   </array>
  </eigenvalues>
  <separator name="orbital magnetization" >
   <v name="MAGDIPOLOUT">      0.00000000      0.00000000      0.00000000</v>
  </separator>
  <dos>
   <i name="efermi">      1.88932790 </i>
   <total>
    <array>
     <dimension dim="1">gridpoints</dimension>
     <dimension dim="2">spin</dimension>
     <field>energy</field>
     <field>total</field>
     <field>integrated</field>
     <set>
      <set comment="spin 1">
       <r>   -14.1886     0.0000     0.0000 </r>
       <r>   -14.0813     0.0000     0.0000 </r>
       <r>   -13.9740     0.0000     0.0000 </r>
       <r>   -13.8668     0.0000     0.0000 </r>
       <r>   -13.7595     0.0000     0.0000 </r>
       <r>   -13.6523     0.0000     0.0000 </r>
       <r>   -13.5450     0.0000     0.0000 </r>
       <r>   -13.4377     0.0000     0.0000 </r>
       <r>   -13.3305     0.0000     0.0000 </r>
       <r>   -13.2232     0.0000     0.0000 </r>
       <r>   -13.1159     0.0000     0.0000 </r>
       <r>   -13.0087     0.0000     0.0000 </r>
       <r>   -12.9014     0.0000     0.0000 </r>
       <r>   -12.7941     0.0038     0.0004 </r>
       <r>   -12.6869     0.5082     0.0549 </r>
       <r>   -12.5796     2.3893     0.3112 </r>
       <r>   -12.4724     3.5619     0.6933 </r>
       <r>   -12.3651     4.3697     1.1620 </r>
       <r>   -12.2578     3.5390     1.5416 </r>
       <r>   -12.1506     2.7346     1.8349 </r>
       <r>   -12.0433     2.7500     2.1299 </r>
       <r>   -11.9360     2.5064     2.3987 </r>
       <r>   -11.8288     2.7710     2.6959 </r>
       <r>   -11.7215     3.4306     3.0639 </r>
       <r>   -11.6142     3.5349     3.4431 </r>
       <r>   -11.5070     3.1091     3.7766 </r>
       <r>   -11.3997     1.6603     3.9547 </r>
       <r>   -11.2925     0.4157     3.9993 </r>
       <r>   -11.1852     0.0069     4.0000 </r>
       <r>   -11.0779     0.0000     4.0000 </r>
       <r>   -10.9707     0.0000     4.0000 </r>
       <r>   -10.8634     0.0000     4.0000 </r>
       <r>   -10.7561     0.0000     4.0000 </r>
       <r>   -10.6489     0.0000     4.0000 </r>
       <r>   -10.5416     0.0000     4.0000 </r>
       <r>   -10.4344     0.0000     4.0000 </r>
       <r>   -10.3271     0.0000     4.0000 </r>
       <r>   -10.2198     0.0000     4.0000 </r>
       <r>   -10.1126     0.0000     4.0000 </r>
       <r>   -10.0053     0.0000     4.0000 </r>
       <r>    -9.8980     0.0000     4.0000 </r>
       <r>    -9.7908     0.0000     4.0000 </r>
       <r>    -9.6835     0.0000     4.0000 </r>
       <r>    -9.5762     0.0000     4.0000 </r>
       <r>    -9.4690     0.0000     4.0000 </r>
       <r>    -9.3617     0.0000     4.0000 </r>
       <r>    -9.2545     0.0000     4.0000 </r>
       <r>    -9.1472     0.0000     4.0000 </r>
       <r>    -9.0399     0.0000     4.0000 </r>
       <r>    -8.9327     0.0006     4.0001 </r>
       <r>    -8.8254     0.2750     4.0296 </r>
       <r>    -8.7181     2.0863     4.2533 </r>
       <r>    -8.6109     5.3219     4.8242 </r>
       <r>    -8.5036     6.9823     5.5731 </r>
       <r>    -8.3963     6.3004     6.2489 </r>
       <r>    -8.2891     5.3245     6.8201 </r>
       <r>    -8.1818     4.8325     7.3384 </r>
       <r>    -8.0746     3.8740     7.7539 </r>
       <r>    -7.9673     1.6658     7.9326 </r>
       <r>    -7.8600     0.5765     7.9945 </r>
       <r>    -7.7528     0.0517     8.0000 </r>
       <r>    -7.6455     0.0000     8.0000 </r>
       <r>    -7.5382     0.0000     8.0000 </r>
       <r>    -7.4310     0.0000     8.0000 </r>
       <r>    -7.3237     0.0000     8.0000 </r>
       <r>    -7.2165     0.0000     8.0000 </r>
       <r>    -7.1092     0.0000     8.0000 </r>
       <r>    -7.0019     0.0004     8.0000 </r>
       <r>    -6.8947     0.1137     8.0122 </r>
       <r>    -6.7874     0.2573     8.0398 </r>
       <r>    -6.6801     0.4267     8.0856 </r>
       <r>    -6.5729     0.7661     8.1678 </r>
       <r>    -6.4656     0.8526     8.2592 </r>
       <r>    -6.3583     1.4476     8.4145 </r>
       <r>    -6.2511     1.9697     8.6258 </r>
       <r>    -6.1438     3.0584     8.9538 </r>
       <r>    -6.0366     3.7800     9.3593 </r>
       <r>    -5.9293     4.1121     9.8004 </r>
       <r>    -5.8220     4.0436    10.2341 </r>
       <r>    -5.7148     3.8561    10.6477 </r>
       <r>    -5.6075     4.0720    11.0845 </r>
       <r>    -5.5002     4.2214    11.5373 </r>
       <r>    -5.3930     4.5399    12.0243 </r>
       <r>    -5.2857     4.5930    12.5169 </r>
       <r>    -5.1784     4.4892    12.9984 </r>
       <r>    -5.0712     3.8651    13.4130 </r>
       <r>    -4.9639     3.2290    13.7594 </r>
       <r>    -4.8567     2.9467    14.0754 </r>
       <r>    -4.7494     2.3442    14.3269 </r>
       <r>    -4.6421     2.8959    14.6375 </r>
       <r>    -4.5349     3.3677    14.9987 </r>
       <r>    -4.4276     3.4779    15.3718 </r>
       <r>    -4.3203     3.3242    15.7284 </r>
       <r>    -4.2131     2.9522    16.0450 </r>
       <r>    -4.1058     2.9062    16.3567 </r>
       <r>    -3.9986     2.9489    16.6731 </r>
       <r>    -3.8913     2.8549    16.9793 </r>
       <r>    -3.7840     3.1226    17.3142 </r>
       <r>    -3.6768     2.8690    17.6220 </r>
       <r>    -3.5695     2.7046    17.9121 </r>
       <r>    -3.4622     3.0617    18.2405 </r>
       <r>    -3.3550     2.6325    18.5228 </r>
       <r>    -3.2477     2.8695    18.8306 </r>
       <r>    -3.1404     2.7318    19.1236 </r>
       <r>    -3.0332     2.7471    19.4183 </r>
       <r>    -2.9259     3.0363    19.7440 </r>
       <r>    -2.8187     2.9718    20.0627 </r>
       <r>    -2.7114     2.4267    20.3230 </r>
       <r>    -2.6041     2.6619    20.6086 </r>
       <r>    -2.4969     3.0233    20.9329 </r>
       <r>    -2.3896     2.9809    21.2526 </r>
       <r>    -2.2823     3.1968    21.5955 </r>
       <r>    -2.1751     4.0126    22.0259 </r>
       <r>    -2.0678     3.6554    22.4180 </r>
       <r>    -1.9606     3.2873    22.7706 </r>
       <r>    -1.8533     5.1618    23.3243 </r>
       <r>    -1.7460     5.5924    23.9241 </r>
       <r>    -1.6388     5.5927    24.5240 </r>
       <r>    -1.5315     6.1848    25.1874 </r>
       <r>    -1.4242     6.1014    25.8419 </r>
       <r>    -1.3170     5.5552    26.4377 </r>
       <r>    -1.2097     4.6846    26.9402 </r>
       <r>    -1.1024     6.4957    27.6370 </r>
       <r>    -0.9952     3.9281    28.0583 </r>
       <r>    -0.8879     2.2675    28.3015 </r>
       <r>    -0.7807     2.6971    28.5908 </r>
       <r>    -0.6734     2.8801    28.8998 </r>
       <r>    -0.5661     4.5487    29.3877 </r>
       <r>    -0.4589     6.8720    30.1248 </r>
       <r>    -0.3516     5.6538    30.7312 </r>
       <r>    -0.2443     6.7197    31.4520 </r>
       <r>    -0.1371     6.3575    32.1339 </r>
       <r>    -0.0298     6.7493    32.8579 </r>
       <r>     0.0775     6.7342    33.5802 </r>
       <r>     0.1847     6.3155    34.2576 </r>
       <r>     0.2920     8.7970    35.2012 </r>
       <r>     0.3992     7.9538    36.0544 </r>
       <r>     0.5065     8.7016    36.9878 </r>
       <r>     0.6138     5.2040    37.5460 </r>
       <r>     0.7210     2.9152    37.8586 </r>
       <r>     0.8283     3.3091    38.2136 </r>
       <r>     0.9356     3.5861    38.5982 </r>
       <r>     1.0428     3.5525    38.9793 </r>
       <r>     1.1501     2.7884    39.2784 </r>
       <r>     1.2573     3.4007    39.6432 </r>
       <r>     1.3646     4.5012    40.1260 </r>
       <r>     1.4719     3.7683    40.5302 </r>
       <r>     1.5791     3.7315    40.9304 </r>
       <r>     1.6864     4.5718    41.4208 </r>
       <r>     1.7937     3.1969    41.7637 </r>
       <r>     1.9009     2.4822    42.0300 </r>
       <r>     2.0082     2.6538    42.3146 </r>
       <r>     2.1155     2.0927    42.5391 </r>
       <r>     2.2227     2.6530    42.8237 </r>
       <r>     2.3300     2.5599    43.0982 </r>
       <r>     2.4372     1.9234    43.3046 </r>
       <r>     2.5445     0.8361    43.3942 </r>
       <r>     2.6518     0.3783    43.4348 </r>
       <r>     2.7590     0.5713    43.4961 </r>
       <r>     2.8663     0.4192    43.5411 </r>
       <r>     2.9736     0.3057    43.5739 </r>
       <r>     3.0808     0.7663    43.6561 </r>
       <r>     3.1881     1.0109    43.7645 </r>
       <r>     3.2954     0.5269    43.8210 </r>
       <r>     3.4026     0.0120    43.8223 </r>
       <r>     3.5099     0.1350    43.8368 </r>
       <r>     3.6171     0.3970    43.8794 </r>
       <r>     3.7244     0.3268    43.9144 </r>
       <r>     3.8317     0.3751    43.9546 </r>
       <r>     3.9389     0.3981    43.9973 </r>
       <r>     4.0462     0.0249    44.0000 </r>
       <r>     4.1535     0.0000    44.0000 </r>
       <r>     4.2607     0.0350    44.0038 </r>
       <r>     4.3680     0.1793    44.0230 </r>
       <r>     4.4752     0.4053    44.0665 </r>
       <r>     4.5825     0.4766    44.1176 </r>
       <r>     4.6898     0.6381    44.1860 </r>
       <r>     4.7970     0.8923    44.2818 </r>
       <r>     4.9043     0.8433    44.3722 </r>
       <r>     5.0116     0.8564    44.4641 </r>
       <r>     5.1188     1.2815    44.6015 </r>
       <r>     5.2261     1.1467    44.7245 </r>
       <r>     5.3334     1.6423    44.9007 </r>
       <r>     5.4406     2.2020    45.1369 </r>
       <r>     5.5479     2.4844    45.4034 </r>
       <r>     5.6551     2.7868    45.7023 </r>
       <r>     5.7624     3.3854    46.0654 </r>
       <r>     5.8697     3.2103    46.4098 </r>
       <r>     5.9769     4.3296    46.8742 </r>
       <r>     6.0842     4.7436    47.3830 </r>
       <r>     6.1915     4.0378    47.8161 </r>
       <r>     6.2987     4.6280    48.3125 </r>
       <r>     6.4060     4.1211    48.7546 </r>
       <r>     6.5133     4.0338    49.1872 </r>
       <r>     6.6205     4.4658    49.6663 </r>
       <r>     6.7278     3.2219    50.0119 </r>
       <r>     6.8350     4.0074    50.4417 </r>
       <r>     6.9423     4.6143    50.9367 </r>
       <r>     7.0496     4.5423    51.4239 </r>
       <r>     7.1568     4.3418    51.8896 </r>
       <r>     7.2641     5.6062    52.4909 </r>
       <r>     7.3714     4.9038    53.0169 </r>
       <r>     7.4786     4.4463    53.4939 </r>
       <r>     7.5859     4.1795    53.9422 </r>
       <r>     7.6931     3.5599    54.3240 </r>
       <r>     7.8004     3.1296    54.6597 </r>
       <r>     7.9077     3.0033    54.9819 </r>
       <r>     8.0149     2.9830    55.3018 </r>
       <r>     8.1222     4.1703    55.7491 </r>
       <r>     8.2295     3.8786    56.1652 </r>
       <r>     8.3367     3.6760    56.5595 </r>
       <r>     8.4440     3.9881    56.9873 </r>
       <r>     8.5513     4.2053    57.4383 </r>
       <r>     8.6585     4.4500    57.9157 </r>
       <r>     8.7658     4.2059    58.3668 </r>
       <r>     8.8730     5.2464    58.9295 </r>
       <r>     8.9803     4.9740    59.4631 </r>
       <r>     9.0876     5.2939    60.0309 </r>
       <r>     9.1948     5.2407    60.5930 </r>
       <r>     9.3021     4.9584    61.1249 </r>
       <r>     9.4094     4.6962    61.6286 </r>
       <r>     9.5166     4.3612    62.0964 </r>
       <r>     9.6239     5.1082    62.6444 </r>
       <r>     9.7312     5.0235    63.1832 </r>
       <r>     9.8384     5.3050    63.7522 </r>
       <r>     9.9457     4.4744    64.2322 </r>
       <r>    10.0529     3.6241    64.6209 </r>
       <r>    10.1602     5.1752    65.1760 </r>
       <r>    10.2675     4.7117    65.6814 </r>
       <r>    10.3747     4.1072    66.1220 </r>
       <r>    10.4820     5.4382    66.7053 </r>
       <r>    10.5893     5.8007    67.3275 </r>
       <r>    10.6965     4.0614    67.7631 </r>
       <r>    10.8038     3.8776    68.1790 </r>
       <r>    10.9110     3.2272    68.5252 </r>
       <r>    11.0183     4.6654    69.0256 </r>
       <r>    11.1256     5.4996    69.6155 </r>
       <r>    11.2328     6.1686    70.2772 </r>
       <r>    11.3401     5.9879    70.9195 </r>
       <r>    11.4474     5.3051    71.4885 </r>
       <r>    11.5546     4.2753    71.9471 </r>
       <r>    11.6619     4.4731    72.4269 </r>
       <r>    11.7692     4.9222    72.9549 </r>
       <r>    11.8764     4.8026    73.4700 </r>
       <r>    11.9837     6.0425    74.1182 </r>
       <r>    12.0909     5.9501    74.7564 </r>
       <r>    12.1982     5.9697    75.3967 </r>
       <r>    12.3055     5.6315    76.0008 </r>
       <r>    12.4127     5.0127    76.5384 </r>
       <r>    12.5200     5.6783    77.1475 </r>
       <r>    12.6273     5.9953    77.7906 </r>
       <r>    12.7345     6.0382    78.4383 </r>
       <r>    12.8418     5.8734    79.0683 </r>
       <r>    12.9490     5.8575    79.6966 </r>
       <r>    13.0563     5.5893    80.2961 </r>
       <r>    13.1636     6.3503    80.9772 </r>
       <r>    13.2708     6.2507    81.6477 </r>
       <r>    13.3781     5.3722    82.2239 </r>
       <r>    13.4854     6.1364    82.8822 </r>
       <r>    13.5926     5.3199    83.4528 </r>
       <r>    13.6999     4.8053    83.9682 </r>
       <r>    13.8072     6.1192    84.6246 </r>
       <r>    13.9144     5.5220    85.2169 </r>
       <r>    14.0217     5.3403    85.7897 </r>
       <r>    14.1289     5.4740    86.3769 </r>
       <r>    14.2362     4.6874    86.8797 </r>
       <r>    14.3435     4.8936    87.4046 </r>
       <r>    14.4507     5.0313    87.9442 </r>
       <r>    14.5580     4.9659    88.4769 </r>
       <r>    14.6653     5.2729    89.0425 </r>
       <r>    14.7725     5.1581    89.5958 </r>
       <r>    14.8798     4.0900    90.0345 </r>
       <r>    14.9871     5.0982    90.5813 </r>
       <r>    15.0943     6.1963    91.2459 </r>
       <r>    15.2016     5.6254    91.8493 </r>
       <r>    15.3088     5.6630    92.4568 </r>
       <r>    15.4161     6.0352    93.1041 </r>
       <r>    15.5234     5.7257    93.7183 </r>
       <r>    15.6306     5.9375    94.3552 </r>
       <r>    15.7379     4.5833    94.8468 </r>
       <r>    15.8452     2.4591    95.1106 </r>
       <r>    15.9524     2.7047    95.4007 </r>
       <r>    16.0597     1.8633    95.6005 </r>
       <r>    16.1669     1.1471    95.7236 </r>
       <r>    16.2742     0.8834    95.8183 </r>
       <r>    16.3815     0.7037    95.8938 </r>
       <r>    16.4887     0.8140    95.9811 </r>
       <r>    16.5960     0.1742    95.9998 </r>
       <r>    16.7033     0.0017    96.0000 </r>
       <r>    16.8105     0.0000    96.0000 </r>
       <r>    16.9178     0.0000    96.0000 </r>
       <r>    17.0251     0.0000    96.0000 </r>
       <r>    17.1323     0.0000    96.0000 </r>
       <r>    17.2396     0.0000    96.0000 </r>
       <r>    17.3468     0.0000    96.0000 </r>
       <r>    17.4541     0.0000    96.0000 </r>
       <r>    17.5614     0.0000    96.0000 </r>
       <r>    17.6686     0.0000    96.0000 </r>
       <r>    17.7759     0.0000    96.0000 </r>
       <r>    17.8832     0.0000    96.0000 </r>
       <r>    17.9904     0.0000    96.0000 </r>
      </set>
     </set>
    </array>
   </total>
  </dos>
 </calculation>
 <structure name="finalpos" >
  <crystal>
   <varray name="basis" >
    <v>       5.69529090       0.00000000       0.00000000 </v>
    <v>       0.00000000       4.04668563       0.00000000 </v>
    <v>       0.00000000       0.00000000       6.20233874 </v>
   </varray>
   <i name="volume">    142.94562249 </i>
   <varray name="rec_basis" >
    <v>       0.17558366       0.00000000       0.00000000 </v>
    <v>       0.00000000       0.24711581       0.00000000 </v>
    <v>       0.00000000       0.00000000       0.16122950 </v>
   </varray>
  </crystal>
  <varray name="positions" >
   <v>       0.52123000       0.50000000       0.63796000 </v>
   <v>       0.47877000       0.50000000       0.36204000 </v>
   <v>       0.97877000       0.50000000       0.63796000 </v>
   <v>       0.02123000       0.50000000       0.36204000 </v>
   <v>       0.60090000       0.50000000       0.89991000 </v>
   <v>       0.39910000       0.50000000       0.10009000 </v>
   <v>       0.89910000       0.50000000       0.89991000 </v>
   <v>       0.10090000       0.50000000       0.10009000 </v>
   <v>       0.75000000       0.79171000       0.72973000 </v>
   <v>       0.25000000       0.20829000       0.27027000 </v>
   <v>       0.75000000       0.20829000       0.72973000 </v>
   <v>       0.25000000       0.79171000       0.27027000 </v>
   <v>       0.25000000       0.50000000       0.52367000 </v>
   <v>       0.75000000       0.50000000       0.47633000 </v>
  </varray>
 </structure>
</modeling>
