   1   1   0   0
  0.3388180E+04  0.1501950E-08  0.1251625E-08  0.1802340E-08  0.5000000E-15
  1.000000000000000E-004
  CAR 
 Convergence                             
      2.48834807     -9.97663300  301     -3.60733604      1.00000000
     -9.977  0.0000E+00  0.0000E+00
     -9.935  0.0000E+00  0.0000E+00
     -9.894  0.0000E+00  0.0000E+00
     -9.852  0.0000E+00  0.0000E+00
     -9.810  0.0000E+00  0.0000E+00
     -9.769  0.0000E+00  0.0000E+00
     -9.727  0.0000E+00  0.0000E+00
     -9.686  0.1496E-12  0.6217E-14
     -9.644  0.8417E-09  0.3498E-10
     -9.603  0.1220E-05  0.5074E-07
     -9.561  0.4619E-03  0.1924E-04
     -9.520  0.4638E-01  0.1946E-02
     -9.478  0.1264E+01  0.5447E-01
     -9.436  0.9629E+01  0.4545E+00
     -9.395  0.2109E+02  0.1331E+01
     -9.353  0.1348E+02  0.1891E+01
     -9.312  0.2492E+01  0.1995E+01
     -9.270  0.1299E+00  0.2000E+01
     -9.229  0.1851E-02  0.2000E+01
     -9.187  0.7034E-05  0.2000E+01
     -9.146  0.7007E-08  0.2000E+01
     -9.104  0.1806E-11  0.2000E+01
     -9.063  0.0000E+00  0.2000E+01
     -9.021  0.0000E+00  0.2000E+01
     -8.979  0.0000E+00  0.2000E+01
     -8.938  0.0000E+00  0.2000E+01
     -8.896  0.0000E+00  0.2000E+01
     -8.855  0.0000E+00  0.2000E+01
     -8.813  0.0000E+00  0.2000E+01
     -8.772  0.0000E+00  0.2000E+01
     -8.730  0.0000E+00  0.2000E+01
     -8.689  0.0000E+00  0.2000E+01
     -8.647  0.0000E+00  0.2000E+01
     -8.605  0.0000E+00  0.2000E+01
     -8.564  0.0000E+00  0.2000E+01
     -8.522  0.0000E+00  0.2000E+01
     -8.481  0.0000E+00  0.2000E+01
     -8.439  0.0000E+00  0.2000E+01
     -8.398  0.0000E+00  0.2000E+01
     -8.356  0.0000E+00  0.2000E+01
     -8.315  0.0000E+00  0.2000E+01
     -8.273  0.0000E+00  0.2000E+01
     -8.232  0.0000E+00  0.2000E+01
     -8.190  0.0000E+00  0.2000E+01
     -8.148  0.0000E+00  0.2000E+01
     -8.107  0.0000E+00  0.2000E+01
     -8.065  0.0000E+00  0.2000E+01
     -8.024  0.0000E+00  0.2000E+01
     -7.982  0.0000E+00  0.2000E+01
     -7.941  0.0000E+00  0.2000E+01
     -7.899  0.0000E+00  0.2000E+01
     -7.858  0.0000E+00  0.2000E+01
     -7.816  0.0000E+00  0.2000E+01
     -7.774  0.0000E+00  0.2000E+01
     -7.733  0.0000E+00  0.2000E+01
     -7.691  0.0000E+00  0.2000E+01
     -7.650  0.0000E+00  0.2000E+01
     -7.608  0.0000E+00  0.2000E+01
     -7.567  0.0000E+00  0.2000E+01
     -7.525  0.0000E+00  0.2000E+01
     -7.484  0.0000E+00  0.2000E+01
     -7.442  0.0000E+00  0.2000E+01
     -7.401  0.0000E+00  0.2000E+01
     -7.359  0.0000E+00  0.2000E+01
     -7.317  0.0000E+00  0.2000E+01
     -7.276  0.0000E+00  0.2000E+01
     -7.234  0.0000E+00  0.2000E+01
     -7.193  0.0000E+00  0.2000E+01
     -7.151  0.0000E+00  0.2000E+01
     -7.110  0.0000E+00  0.2000E+01
     -7.068  0.0000E+00  0.2000E+01
     -7.027  0.0000E+00  0.2000E+01
     -6.985  0.0000E+00  0.2000E+01
     -6.943  0.0000E+00  0.2000E+01
     -6.902  0.0000E+00  0.2000E+01
     -6.860  0.0000E+00  0.2000E+01
     -6.819  0.0000E+00  0.2000E+01
     -6.777  0.0000E+00  0.2000E+01
     -6.736  0.0000E+00  0.2000E+01
     -6.694  0.0000E+00  0.2000E+01
     -6.653  0.0000E+00  0.2000E+01
     -6.611  0.0000E+00  0.2000E+01
     -6.570  0.0000E+00  0.2000E+01
     -6.528  0.0000E+00  0.2000E+01
     -6.486  0.0000E+00  0.2000E+01
     -6.445  0.0000E+00  0.2000E+01
     -6.403  0.0000E+00  0.2000E+01
     -6.362  0.0000E+00  0.2000E+01
     -6.320  0.0000E+00  0.2000E+01
     -6.279  0.0000E+00  0.2000E+01
     -6.237  0.0000E+00  0.2000E+01
     -6.196  0.0000E+00  0.2000E+01
     -6.154  0.0000E+00  0.2000E+01
     -6.112  0.0000E+00  0.2000E+01
     -6.071  0.0000E+00  0.2000E+01
     -6.029  0.0000E+00  0.2000E+01
     -5.988  0.0000E+00  0.2000E+01
     -5.946  0.0000E+00  0.2000E+01
     -5.905  0.0000E+00  0.2000E+01
     -5.863  0.0000E+00  0.2000E+01
     -5.822  0.0000E+00  0.2000E+01
     -5.780  0.0000E+00  0.2000E+01
     -5.739  0.0000E+00  0.2000E+01
     -5.697  0.0000E+00  0.2000E+01
     -5.655  0.0000E+00  0.2000E+01
     -5.614  0.0000E+00  0.2000E+01
     -5.572  0.0000E+00  0.2000E+01
     -5.531  0.0000E+00  0.2000E+01
     -5.489  0.0000E+00  0.2000E+01
     -5.448  0.0000E+00  0.2000E+01
     -5.406  0.0000E+00  0.2000E+01
     -5.365  0.0000E+00  0.2000E+01
     -5.323  0.0000E+00  0.2000E+01
     -5.281  0.0000E+00  0.2000E+01
     -5.240  0.0000E+00  0.2000E+01
     -5.198  0.0000E+00  0.2000E+01
     -5.157  0.0000E+00  0.2000E+01
     -5.115  0.0000E+00  0.2000E+01
     -5.074  0.0000E+00  0.2000E+01
     -5.032  0.0000E+00  0.2000E+01
     -4.991  0.0000E+00  0.2000E+01
     -4.949  0.0000E+00  0.2000E+01
     -4.908  0.0000E+00  0.2000E+01
     -4.866  0.0000E+00  0.2000E+01
     -4.824  0.0000E+00  0.2000E+01
     -4.783  0.0000E+00  0.2000E+01
     -4.741  0.0000E+00  0.2000E+01
     -4.700  0.0000E+00  0.2000E+01
     -4.658  0.0000E+00  0.2000E+01
     -4.617  0.0000E+00  0.2000E+01
     -4.575  0.0000E+00  0.2000E+01
     -4.534  0.0000E+00  0.2000E+01
     -4.492  0.0000E+00  0.2000E+01
     -4.450  0.0000E+00  0.2000E+01
     -4.409  0.0000E+00  0.2000E+01
     -4.367  0.0000E+00  0.2000E+01
     -4.326  0.0000E+00  0.2000E+01
     -4.284  0.0000E+00  0.2000E+01
     -4.243  0.0000E+00  0.2000E+01
     -4.201  0.0000E+00  0.2000E+01
     -4.160  0.0000E+00  0.2000E+01
     -4.118  0.0000E+00  0.2000E+01
     -4.077  0.0000E+00  0.2000E+01
     -4.035  0.0000E+00  0.2000E+01
     -3.993  0.0000E+00  0.2000E+01
     -3.952  0.0000E+00  0.2000E+01
     -3.910  0.0000E+00  0.2000E+01
     -3.869  0.8016E-14  0.2000E+01
     -3.827  0.4770E-10  0.2000E+01
     -3.786  0.1322E-06  0.2000E+01
     -3.744  0.9509E-04  0.2000E+01
     -3.703  0.1800E-01  0.2001E+01
     -3.661  0.9134E+00  0.2039E+01
     -3.619  0.1277E+02  0.2569E+01
     -3.578  0.5069E+02  0.4675E+01
     -3.536  0.5845E+02  0.7104E+01
     -3.495  0.1963E+02  0.7920E+01
     -3.453  0.1885E+01  0.7998E+01
     -3.412  0.5018E-01  0.8000E+01
     -3.370  0.3603E-03  0.8000E+01
     -3.329  0.6833E-06  0.8000E+01
     -3.287  0.3373E-09  0.8000E+01
     -3.246  0.3206E-13  0.8000E+01
     -3.204  0.0000E+00  0.8000E+01
     -3.162  0.0000E+00  0.8000E+01
     -3.121  0.0000E+00  0.8000E+01
     -3.079  0.0000E+00  0.8000E+01
     -3.038  0.0000E+00  0.8000E+01
     -2.996  0.0000E+00  0.8000E+01
     -2.955  0.0000E+00  0.8000E+01
     -2.913  0.0000E+00  0.8000E+01
     -2.872  0.0000E+00  0.8000E+01
     -2.830  0.0000E+00  0.8000E+01
     -2.788  0.0000E+00  0.8000E+01
     -2.747  0.0000E+00  0.8000E+01
     -2.705  0.0000E+00  0.8000E+01
     -2.664  0.0000E+00  0.8000E+01
     -2.622  0.0000E+00  0.8000E+01
     -2.581  0.0000E+00  0.8000E+01
     -2.539  0.0000E+00  0.8000E+01
     -2.498  0.0000E+00  0.8000E+01
     -2.456  0.0000E+00  0.8000E+01
     -2.415  0.0000E+00  0.8000E+01
     -2.373  0.0000E+00  0.8000E+01
     -2.331  0.0000E+00  0.8000E+01
     -2.290  0.0000E+00  0.8000E+01
     -2.248  0.0000E+00  0.8000E+01
     -2.207  0.0000E+00  0.8000E+01
     -2.165  0.0000E+00  0.8000E+01
     -2.124  0.0000E+00  0.8000E+01
     -2.082  0.0000E+00  0.8000E+01
     -2.041  0.0000E+00  0.8000E+01
     -1.999  0.0000E+00  0.8000E+01
     -1.957  0.0000E+00  0.8000E+01
     -1.916  0.0000E+00  0.8000E+01
     -1.874  0.0000E+00  0.8000E+01
     -1.833  0.0000E+00  0.8000E+01
     -1.791  0.0000E+00  0.8000E+01
     -1.750  0.0000E+00  0.8000E+01
     -1.708  0.0000E+00  0.8000E+01
     -1.667  0.0000E+00  0.8000E+01
     -1.625  0.0000E+00  0.8000E+01
     -1.584  0.0000E+00  0.8000E+01
     -1.542  0.0000E+00  0.8000E+01
     -1.500  0.0000E+00  0.8000E+01
     -1.459  0.0000E+00  0.8000E+01
     -1.417  0.0000E+00  0.8000E+01
     -1.376  0.0000E+00  0.8000E+01
     -1.334  0.0000E+00  0.8000E+01
     -1.293  0.0000E+00  0.8000E+01
     -1.251  0.0000E+00  0.8000E+01
     -1.210  0.0000E+00  0.8000E+01
     -1.168  0.0000E+00  0.8000E+01
     -1.126  0.0000E+00  0.8000E+01
     -1.085  0.0000E+00  0.8000E+01
     -1.043  0.0000E+00  0.8000E+01
     -1.002  0.0000E+00  0.8000E+01
     -0.960  0.0000E+00  0.8000E+01
     -0.919  0.0000E+00  0.8000E+01
     -0.877  0.0000E+00  0.8000E+01
     -0.836  0.0000E+00  0.8000E+01
     -0.794  0.0000E+00  0.8000E+01
     -0.753  0.0000E+00  0.8000E+01
     -0.711  0.0000E+00  0.8000E+01
     -0.669  0.0000E+00  0.8000E+01
     -0.628  0.0000E+00  0.8000E+01
     -0.586  0.0000E+00  0.8000E+01
     -0.545  0.2375E-15  0.8000E+01
     -0.503  0.1945E-11  0.8000E+01
     -0.462  0.4346E-08  0.8000E+01
     -0.420  0.2669E-05  0.8000E+01
     -0.379  0.4668E-03  0.8000E+01
     -0.337  0.2456E-01  0.8001E+01
     -0.295  0.4212E+00  0.8019E+01
     -0.254  0.2650E+01  0.8129E+01
     -0.212  0.7237E+01  0.8429E+01
     -0.171  0.1061E+02  0.8870E+01
     -0.129  0.1058E+02  0.9310E+01
     -0.088  0.8773E+01  0.9674E+01
     -0.046  0.5513E+01  0.9903E+01
     -0.005  0.2009E+01  0.9987E+01
      0.037  0.6466E+00  0.1001E+02
      0.078  0.1843E+01  0.1009E+02
      0.120  0.5319E+01  0.1031E+02
      0.162  0.9952E+01  0.1072E+02
      0.203  0.1376E+02  0.1130E+02
      0.245  0.1559E+02  0.1194E+02
      0.286  0.1583E+02  0.1260E+02
      0.328  0.1594E+02  0.1326E+02
      0.369  0.1623E+02  0.1394E+02
      0.411  0.1651E+02  0.1462E+02
      0.452  0.1751E+02  0.1535E+02
      0.494  0.1850E+02  0.1612E+02
      0.536  0.1853E+02  0.1689E+02
      0.577  0.1896E+02  0.1768E+02
      0.619  0.1989E+02  0.1851E+02
      0.660  0.2039E+02  0.1935E+02
      0.702  0.2099E+02  0.2022E+02
      0.743  0.2238E+02  0.2115E+02
      0.785  0.2252E+02  0.2209E+02
      0.826  0.2190E+02  0.2300E+02
      0.868  0.2328E+02  0.2397E+02
      0.909  0.2457E+02  0.2499E+02
      0.951  0.2431E+02  0.2600E+02
      0.993  0.2485E+02  0.2703E+02
      1.034  0.2594E+02  0.2811E+02
      1.076  0.2608E+02  0.2919E+02
      1.117  0.2613E+02  0.3028E+02
      1.159  0.2685E+02  0.3139E+02
      1.200  0.2777E+02  0.3255E+02
      1.242  0.2743E+02  0.3369E+02
      1.283  0.2753E+02  0.3483E+02
      1.325  0.2861E+02  0.3602E+02
      1.366  0.2871E+02  0.3721E+02
      1.408  0.2839E+02  0.3839E+02
      1.450  0.2936E+02  0.3961E+02
      1.491  0.3095E+02  0.4090E+02
      1.533  0.3015E+02  0.4215E+02
      1.574  0.2964E+02  0.4338E+02
      1.616  0.3016E+02  0.4464E+02
      1.657  0.2788E+02  0.4579E+02
      1.699  0.2143E+02  0.4668E+02
      1.740  0.1422E+02  0.4728E+02
      1.782  0.8438E+01  0.4763E+02
      1.824  0.4856E+01  0.4783E+02
      1.865  0.2602E+01  0.4794E+02
      1.907  0.1103E+01  0.4798E+02
      1.948  0.3502E+00  0.4800E+02
      1.990  0.7378E-01  0.4800E+02
      2.031  0.7139E-02  0.4800E+02
      2.073  0.2288E-03  0.4800E+02
      2.114  0.2098E-05  0.4800E+02
      2.156  0.5206E-08  0.4800E+02
      2.197  0.3410E-11  0.4800E+02
      2.239  0.5768E-15  0.4800E+02
      2.281  0.0000E+00  0.4800E+02
      2.322  0.0000E+00  0.4800E+02
      2.364  0.0000E+00  0.4800E+02
      2.405  0.0000E+00  0.4800E+02
      2.447  0.0000E+00  0.4800E+02
      2.488  0.0000E+00  0.4800E+02
