   14   14    1    1
  0.1021960E+02  0.5697000E-09  0.4047900E-09  0.6204200E-09  0.5000000E-15
  1.000000000000000E-004
  CAR 
 Kpoints                                 
     42      2     48
 
  0.2500000E+00  0.0000000E+00  0.2500000E+00  0.3333333E+00
      1        -12.561327   1.000000
      2        -11.824685   1.000000
      3         -8.791748   1.000000
      4         -8.335241   1.000000
      5         -6.316705   1.000000
      6         -5.304076   1.000000
      7         -4.725515   1.000000
      8         -3.686234   1.000000
      9         -3.245041   1.000000
     10         -2.651726   1.000000
     11         -2.600462   1.000000
     12         -2.163009   1.000000
     13         -2.070234   1.000000
     14         -1.817635   1.000000
     15         -0.584158   1.000000
     16         -0.489317   1.000000
     17         -0.230967   1.000000
     18          0.236790   1.000000
     19          0.480233   1.000000
     20          1.563635   1.000000
     21          2.124494   0.955032
     22          2.356695   0.000001
     23          5.410737   0.000000
     24          6.096973   0.000000
     25          6.315074   0.000000
     26          6.585275   0.000000
     27          6.777588   0.000000
     28          7.010269   0.000000
     29          8.176178   0.000000
     30          8.755260   0.000000
     31          9.147713   0.000000
     32          9.696848   0.000000
     33          9.815622   0.000000
     34         10.293285   0.000000
     35         10.435094   0.000000
     36         10.629894   0.000000
     37         11.259126   0.000000
     38         11.846907   0.000000
     39         12.294384   0.000000
     40         12.968701   0.000000
     41         13.237340   0.000000
     42         14.054403   0.000000
     43         14.173557   0.000000
     44         14.230514   0.000000
     45         15.029776   0.000000
     46         15.213135   0.000000
     47         15.358464   0.000000
     48         15.955548   0.000000
 
  0.2500000E+00  0.3333333E+00  0.2500000E+00  0.6666667E+00
      1        -12.373594   1.000000
      2        -11.646405   1.000000
      3         -8.623894   1.000000
      4         -8.171503   1.000000
      5         -6.074193   1.000000
      6         -5.747707   1.000000
      7         -5.056574   1.000000
      8         -5.029887   1.000000
      9         -4.537871   1.000000
     10         -3.044815   1.000000
     11         -2.418806   1.000000
     12         -1.782008   1.000000
     13         -1.645672   1.000000
     14         -1.090916   1.000000
     15         -0.530017   1.000000
     16         -0.439382   1.000000
     17         -0.018743   1.000000
     18          0.434288   1.000000
     19          0.778771   1.000000
     20          1.033250   1.000000
     21          1.569221   1.000000
     22          2.255333   0.022484
     23          5.186391   0.000000
     24          5.767588   0.000000
     25          6.355584   0.000000
     26          7.569498   0.000000
     27          7.858863   0.000000
     28          8.378404   0.000000
     29          8.597306   0.000000
     30          9.068755   0.000000
     31          9.321141   0.000000
     32          9.737538   0.000000
     33         10.227133   0.000000
     34         11.005486   0.000000
     35         11.260543   0.000000
     36         11.446599   0.000000
     37         11.557360   0.000000
     38         12.238378   0.000000
     39         12.273115   0.000000
     40         12.574629   0.000000
     41         12.974819   0.000000
     42         13.438945   0.000000
     43         13.892171   0.000000
     44         14.472983   0.000000
     45         14.734255   0.000000
     46         15.012238   0.000000
     47         15.438506   0.000000
     48         15.786583   0.000000
