<?xml version="1.0" encoding="ISO-8859-1"?>
<modeling>
 <generator>
  <i name="program" type="string">vasp </i>
  <i name="version" type="string">6.4.3  </i>
  <i name="subversion" type="string">19Mar24 (build May 31 2024 16:31:43) complex                          parallel </i>
  <i name="platform" type="string">LinuxIFC </i>
  <i name="date" type="string">2024 10 29 </i>
  <i name="time" type="string">14:13:09 </i>
 </generator>
 <incar>
  <i type="string" name="SYSTEM">Kpoints</i>
  <i type="int" name="ISTART">     0</i>
  <i type="string" name="PREC">Accurate</i>
  <i type="string" name="ALGO">Normal</i>
  <i type="int" name="ISPIN">     1</i>
  <i type="int" name="ICHARG">     2</i>
  <i type="int" name="NELM">   100</i>
  <i type="int" name="IBRION">    -1</i>
  <i name="EDIFF">      0.00000100</i>
  <i name="EDIFFG">     -0.00100000</i>
  <i type="int" name="NSW">     0</i>
  <i type="int" name="ISIF">     2</i>
  <i name="ENCUT">    450.00000000</i>
  <i name="POTIM">      0.50000000</i>
  <i type="int" name="ISMEAR">     0</i>
  <i name="SIGMA">      0.05000000</i>
  <i type="logical" name="LWAVE"> F  </i>
  <i type="logical" name="LCHARG"> F  </i>
  <i type="string" name="GGA">PE</i>
 </incar>
 <primitive_cell>
  <structure name="primitive_cell" >
   <crystal>
    <varray name="basis" >
     <v>       5.69700000       0.00000000       0.00000000 </v>
     <v>       0.00000000       4.04790000       0.00000000 </v>
     <v>       0.00000000       0.00000000       6.20420000 </v>
    </varray>
    <i name="volume">    143.07435078 </i>
    <varray name="rec_basis" >
     <v>       0.17553098       0.00000000       0.00000000 </v>
     <v>       0.00000000       0.24704168       0.00000000 </v>
     <v>       0.00000000       0.00000000       0.16118114 </v>
    </varray>
   </crystal>
   <varray name="positions" >
    <v>       0.52123000       0.50000000       0.63796000 </v>
    <v>       0.47877000       0.50000000       0.36204000 </v>
    <v>       0.97877000       0.50000000       0.63796000 </v>
    <v>       0.02123000       0.50000000       0.36204000 </v>
    <v>       0.60090000       0.50000000       0.89991000 </v>
    <v>       0.39910000       0.50000000       0.10009000 </v>
    <v>       0.89910000       0.50000000       0.89991000 </v>
    <v>       0.10090000       0.50000000       0.10009000 </v>
    <v>       0.75000000       0.79171000       0.72973000 </v>
    <v>       0.25000000       0.20829000       0.27027000 </v>
    <v>       0.75000000       0.20829000       0.72973000 </v>
    <v>       0.25000000       0.79171000       0.27027000 </v>
    <v>       0.25000000       0.50000000       0.52367000 </v>
    <v>       0.75000000       0.50000000       0.47633000 </v>
   </varray>
  </structure>
  <varray name="primitive_index" >
   <v type="int" >        1 </v>
   <v type="int" >        2 </v>
   <v type="int" >        3 </v>
   <v type="int" >        4 </v>
   <v type="int" >        5 </v>
   <v type="int" >        6 </v>
   <v type="int" >        7 </v>
   <v type="int" >        8 </v>
   <v type="int" >        9 </v>
   <v type="int" >       10 </v>
   <v type="int" >       11 </v>
   <v type="int" >       12 </v>
   <v type="int" >       13 </v>
   <v type="int" >       14 </v>
  </varray>
 </primitive_cell>
 <kpoints>
  <generation param="Monkhorst-Pack">
   <v type="int" name="divisions">       2        3        2 </v>
   <v name="usershift">      0.00000000       0.00000000       0.00000000 </v>
   <v name="genvec1">      0.50000000       0.00000000       0.00000000 </v>
   <v name="genvec2">      0.00000000       0.33333333       0.00000000 </v>
   <v name="genvec3">      0.00000000       0.00000000       0.50000000 </v>
   <v name="shift">      0.50000000       0.00000000       0.50000000 </v>
  </generation>
  <varray name="kpointlist" >
   <v>       0.25000000       0.00000000       0.25000000 </v>
   <v>       0.25000000       0.33333333       0.25000000 </v>
  </varray>
  <varray name="weights" >
   <v>       0.33333333 </v>
   <v>       0.66666667 </v>
  </varray>
 </kpoints>
 <parameters>
  <separator name="general" >
   <i type="string" name="SYSTEM">Kpoints</i>
   <i type="logical" name="LCOMPAT"> F  </i>
  </separator>
  <separator name="electronic" >
   <i type="string" name="PREC">accura</i>
   <i name="ENMAX">    450.00000000</i>
   <i name="ENAUG">    535.51400000</i>
   <i name="EDIFF">      0.00000100</i>
   <i type="int" name="IALGO">    38</i>
   <i type="int" name="IWAVPR">    10</i>
   <i type="int" name="NBANDS">    48</i>
   <i type="int" name="NBANDSLOW">    -1</i>
   <i type="int" name="NBANDSHIGH">    -1</i>
   <i name="NELECT">     42.00000000</i>
   <i type="int" name="TURBO">     0</i>
   <i type="int" name="IRESTART">     0</i>
   <i type="int" name="NREBOOT">     0</i>
   <i type="int" name="NMIN">     0</i>
   <i name="EREF">      0.00000000</i>
   <separator name="electronic smearing" >
    <i type="int" name="ISMEAR">     0</i>
    <i name="SIGMA">      0.05000000</i>
    <i name="KSPACING">      0.50000000</i>
    <i type="logical" name="KGAMMA"> T  </i>
    <i type="logical" name="KBLOWUP"> T  </i>
   </separator>
   <separator name="electronic projectors" >
    <i type="logical" name="LREAL"> F  </i>
    <v name="ROPT">      0.00000000</v>
    <i type="int" name="LMAXPAW">  -100</i>
    <i type="int" name="LMAXMIX">     2</i>
    <i type="logical" name="NLSPLINE"> F  </i>
   </separator>
   <separator name="electronic startup" >
    <i type="int" name="ISTART">     0</i>
    <i type="int" name="ICHARG">     2</i>
    <i type="int" name="INIWAV">     1</i>
   </separator>
   <separator name="electronic spin" >
    <i type="int" name="ISPIN">     1</i>
    <i type="logical" name="LNONCOLLINEAR"> F  </i>
    <v name="MAGMOM">      1.00000000      1.00000000      1.00000000      1.00000000      1.00000000      1.00000000      1.00000000      1.00000000      1.00000000      1.00000000      1.00000000      1.00000000      1.00000000      1.00000000</v>
    <i name="NUPDOWN">     -1.00000000</i>
    <i type="logical" name="LSORBIT"> F  </i>
    <v name="SAXIS">      0.00000000      0.00000000      1.00000000</v>
    <i type="logical" name="LSPIRAL"> F  </i>
    <v name="QSPIRAL">      0.00000000      0.00000000      0.00000000</v>
    <i type="logical" name="LZEROZ"> F  </i>
   </separator>
   <separator name="electronic exchange-correlation" >
    <i type="logical" name="LASPH"> F  </i>
   </separator>
   <separator name="electronic convergence" >
    <i type="int" name="NELM">   100</i>
    <i type="int" name="NELMDL">    -5</i>
    <i type="int" name="NELMIN">     2</i>
    <i name="ENINI">    450.00000000</i>
    <separator name="electronic convergence detail" >
     <i type="logical" name="LDIAG"> T  </i>
     <i type="logical" name="LSUBROT"> F  </i>
     <i name="WEIMIN">      0.00000000</i>
     <i name="EBREAK">      0.00000001</i>
     <i name="DEPER">      0.30000000</i>
     <i type="int" name="NRMM">     4</i>
     <i name="TIME">      0.40000000</i>
    </separator>
   </separator>
   <separator name="electronic mixer" >
    <i name="AMIX">      0.40000000</i>
    <i name="BMIX">      1.00000000</i>
    <i name="AMIN">      0.10000000</i>
    <i name="AMIX_MAG">      1.60000000</i>
    <i name="BMIX_MAG">      1.00000000</i>
    <separator name="electronic mixer details" >
     <i type="int" name="IMIX">     4</i>
     <i type="logical" name="MIXFIRST"> F  </i>
     <i type="int" name="MAXMIX">   -45</i>
     <i name="WC">    100.00000000</i>
     <i type="int" name="INIMIX">     1</i>
     <i type="int" name="MIXPRE">     1</i>
     <i type="int" name="MREMOVE">     5</i>
    </separator>
   </separator>
   <separator name="electronic dipolcorrection" >
    <i type="logical" name="LDIPOL"> F  </i>
    <i type="logical" name="LMONO"> F  </i>
    <i type="int" name="IDIPOL">     0</i>
    <i name="EPSILON">      1.00000000</i>
    <v name="DIPOL">   -100.00000000   -100.00000000   -100.00000000</v>
    <i name="EFIELD">      0.00000000</i>
    <i type="logical" name="LVACPOTAV"> F  </i>
   </separator>
  </separator>
  <separator name="grids" >
   <i type="int" name="NGX">    40</i>
   <i type="int" name="NGY">    28</i>
   <i type="int" name="NGZ">    48</i>
   <i type="int" name="NGXF">    80</i>
   <i type="int" name="NGYF">    56</i>
   <i type="int" name="NGZF">    96</i>
   <i type="logical" name="ADDGRID"> F  </i>
  </separator>
  <separator name="ionic" >
   <i type="int" name="NSW">     0</i>
   <i type="int" name="IBRION">    -1</i>
   <i type="int" name="MDALGO">     0</i>
   <i type="int" name="ISIF">     2</i>
   <i name="PSTRESS">      0.00000000</i>
   <i name="EDIFFG">     -0.00100000</i>
   <i type="int" name="NFREE">     0</i>
   <i name="POTIM">      0.50000000</i>
   <i name="SMASS">     -3.00000000</i>
   <i name="SCALEE">      1.00000000</i>
  </separator>
  <separator name="ionic md" >
   <i name="TEBEG">      0.00010000</i>
   <i name="TEEND">      0.00010000</i>
   <i type="int" name="NBLOCK">     1</i>
   <i type="int" name="KBLOCK">     1</i>
   <i type="int" name="NPACO">   256</i>
   <i name="APACO">     10.00000000</i>
  </separator>
  <separator name="symmetry" >
   <i type="int" name="ISYM">     2</i>
   <i name="SYMPREC">      0.00001000</i>
  </separator>
  <separator name="dos" >
   <i type="int" name="LORBIT">     0</i>
   <v name="RWIGS">     -1.00000000</v>
   <i type="int" name="NEDOS">   301</i>
   <i name="EMIN">     10.00000000</i>
   <i name="EMAX">    -10.00000000</i>
   <i name="EFERMI">      0.00000000</i>
  </separator>
  <separator name="writing" >
   <i type="int" name="NWRITE">     2</i>
   <i type="logical" name="LWAVE"> F  </i>
   <i type="logical" name="LDOWNSAMPLE"> F  </i>
   <i type="logical" name="LCHARG"> F  </i>
   <i type="logical" name="LPARD"> F  </i>
   <i type="logical" name="LVTOT"> F  </i>
   <i type="logical" name="LVHAR"> F  </i>
   <i type="logical" name="LELF"> F  </i>
   <i type="logical" name="LOPTICS"> F  </i>
   <v name="STM">      0.00000000      0.00000000      0.00000000      0.00000000      0.00000000      0.00000000      0.00000000</v>
  </separator>
  <separator name="performance" >
   <i type="int" name="NPAR">    24</i>
   <i type="int" name="NSIM">     4</i>
   <i type="int" name="NBLK">    -1</i>
   <i type="logical" name="LPLANE"> T  </i>
   <i type="logical" name="LSCALAPACK"> T  </i>
   <i type="logical" name="LSCAAWARE"> F  </i>
   <i type="logical" name="LSCALU"> F  </i>
   <i type="logical" name="LASYNC"> F  </i>
   <i type="logical" name="LORBITALREAL"> F  </i>
  </separator>
  <separator name="miscellaneous" >
   <i type="int" name="IDIOT">     3</i>
   <i type="int" name="PHON_NSTRUCT">    -1</i>
   <i type="logical" name="LMUSIC"> F  </i>
   <v name="POMASS">     10.81100000</v>
   <v name="DARWINR">      0.00000000</v>
   <v name="DARWINV">      1.00000000</v>
   <i type="logical" name="LCORR"> T  </i>
  </separator>
  <i type="logical" name="GGA_COMPAT"> T  </i>
  <i type="logical" name="LBERRY"> F  </i>
  <i type="int" name="ICORELEVEL">     0</i>
  <i type="logical" name="LDAU"> F  </i>
  <i type="int" name="I_CONSTRAINED_M">     0</i>
  <separator name="electronic exchange-correlation" >
   <i type="string" name="GGA    ">PE</i>
   <i type="string" name="XC_C">1</i>
   <i type="int" name="VOSKOWN">     0</i>
   <i type="logical" name="LHFCALC"> F  </i>
   <i type="string" name="PRECFOCK"></i>
   <i type="logical" name="LSYMGRAD"> F  </i>
   <i type="logical" name="LHFONE"> F  </i>
   <i type="logical" name="LRHFCALC"> F  </i>
   <i type="logical" name="LTHOMAS"> F  </i>
   <i type="logical" name="LMODELHF"> F  </i>
   <i type="logical" name="LFOCKACE"> F  </i>
   <i name="ENCUT4O">     -1.00000000</i>
   <i type="int" name="EXXOEP">     0</i>
   <i type="int" name="FOURORBIT">     0</i>
   <i name="AEXX">      0.00000000</i>
   <i name="HFALPHA">      0.00000000</i>
   <i name="MCALPHA">      0.00000000</i>
   <i name="ALDAX">      1.00000000</i>
   <i name="AGGAX">      1.00000000</i>
   <i name="AMGGAX">      1.00000000</i>
   <i name="ALDAC">      1.00000000</i>
   <i name="AGGAC">      1.00000000</i>
   <i name="AMGGAC">      1.00000000</i>
   <i type="int" name="NKREDX">     1</i>
   <i type="int" name="NKREDY">     1</i>
   <i type="int" name="NKREDZ">     1</i>
   <i type="logical" name="SHIFTRED"> F  </i>
   <i type="logical" name="ODDONLY"> F  </i>
   <i type="logical" name="EVENONLY"> F  </i>
   <i type="int" name="LMAXFOCK">     0</i>
   <i type="int" name="NMAXFOCKAE">     0</i>
   <i type="logical" name="LFOCKAEDFT"> F  </i>
   <i name="HFSCREEN">      0.00000000</i>
   <i name="HFSCREENC">      0.00000000</i>
   <i type="int" name="NBANDSGWLOW">     0</i>
  </separator>
  <separator name="vdW DFT" >
   <i type="logical" name="LUSE_VDW"> F  </i>
   <i type="int" name="IVDW_NL">    -1</i>
   <i type="logical" name="LSPIN_VDW"> F  </i>
   <i name="ZAB_VDW">     -0.84910000</i>
   <i name="GAMMA_VDW">      1.39626340</i>
   <i name="ALPHA_VDW">      0.00000000</i>
   <i name="PARAM1">      0.12340000</i>
   <i name="PARAM2">      1.00000000</i>
   <i name="BPARAM">      6.30000000</i>
   <i name="CPARAM">      0.00930000</i>
  </separator>
  <separator name="model GW" >
   <i type="int" name="MODEL_GW">     0</i>
   <i name="MODEL_EPS0">      6.13175789</i>
   <i name="MODEL_ALPHA">      1.00000000</i>
  </separator>
  <separator name="linear response parameters" >
   <i type="logical" name="LEPSILON"> F  </i>
   <i type="logical" name="LRPA"> F  </i>
   <i type="logical" name="LNABLA"> F  </i>
   <i type="logical" name="LVEL"> F  </i>
   <i name="CSHIFT">      0.10000000</i>
   <i name="OMEGAMAX">     -1.00000000</i>
   <i name="DEG_THRESHOLD">      0.00200000</i>
   <i name="RTIME">     -0.10000000</i>
   <i name="WPLASMAI">      0.00000000</i>
   <v name="DFIELD">      0.00000000      0.00000000      0.00000000</v>
   <v name="WPLASMA">      0.00000000      0.00000000      0.00000000      0.00000000      0.00000000      0.00000000      0.00000000      0.00000000      0.00000000</v>
  </separator>
  <separator name="orbital magnetization" >
   <i type="logical" name="NUCIND"> F  </i>
   <v name="MAGPOS">      0.00000000      0.00000000      0.00000000</v>
   <i type="logical" name="LNICSALL"> T  </i>
   <i type="logical" name="ORBITALMAG"> F  </i>
   <i type="logical" name="LMAGBLOCH"> F  </i>
   <i type="logical" name="LCHIMAG"> F  </i>
   <i type="logical" name="LGAUGE"> T  </i>
   <i type="int" name="MAGATOM">     0</i>
   <v name="MAGDIPOL">      0.00000000      0.00000000      0.00000000</v>
   <v name="AVECCONST">      0.00000000      0.00000000      0.00000000</v>
  </separator>
  <separator name="response functions" >
   <i type="logical" name="LALL_IN_ONE"> F  </i>
   <i type="int" name="IALL_IN_ONE">    -1</i>
   <i type="int" name="NBANDS_WAVE">    -1</i>
   <i type="logical" name="LFINITE_TEMPERATURE"> F  </i>
   <i type="logical" name="LADDER"> F  </i>
   <i type="logical" name="LRPAFORCE"> F  </i>
   <i type="logical" name="LFXC"> F  </i>
   <i type="logical" name="LHARTREE"> T  </i>
   <i type="int" name="IBSE">     0</i>
   <v type="int" name="KPOINT">    -1     0     0     0</v>
   <i type="logical" name="LTCTC"> F  </i>
   <i type="logical" name="LTCTE"> F  </i>
   <i type="logical" name="LTETE"> F  </i>
   <i type="logical" name="LTRIPLET"> F  </i>
   <i type="logical" name="LFXCEPS"> F  </i>
   <i type="logical" name="LFXHEG"> F  </i>
   <i type="int" name="NATURALO">     2</i>
   <i type="logical" name="LHOLEGF"> F  </i>
   <i type="logical" name="L2ORDER"> F  </i>
   <i type="logical" name="LDMP1"> F  </i>
   <i type="logical" name="LMP2LT"> F  </i>
   <i type="logical" name="LSMP2LT"> F  </i>
   <i type="logical" name="LGWLF"> F  </i>
   <i name="ENCUTGW">     -1.60000002</i>
   <i name="ENCUTGWSOFT">     -1.60000002</i>
   <i name="ENCUTLF">     -1.00000000</i>
   <i type="logical" name="ESF_SPLINES"> F  </i>
   <i name="ESF_CONV">      0.01000000</i>
   <i type="int" name="ESF_NINTER">    15</i>
   <i type="int" name="LMAXMP2">    -1</i>
   <i name="SCISSOR">      0.00000000</i>
   <i type="int" name="NOMEGA">     0</i>
   <i type="int" name="NOMEGAR">     0</i>
   <i type="int" name="NBANDSGW">    -1</i>
   <i type="int" name="NBANDSO">    -1</i>
   <i type="int" name="NBANDSV">    -1</i>
   <i type="int" name="NELMGW">     1</i>
   <i type="int" name="NELMHF">     1</i>
   <i type="int" name="DIM">     3</i>
   <i type="int" name="IESPILON">     4</i>
   <i type="int" name="ANTIRES">     0</i>
   <i name="OMEGAMAX">    -30.00000000</i>
   <i name="OMEGAMIN">    -30.00000000</i>
   <i name="OMEGATL">   -200.00000000</i>
   <i type="int" name="OMEGAGRID">     0</i>
   <i name="CSHIFT">     -0.10000000</i>
   <i type="logical" name="LSELFENERGY"> F  </i>
   <i type="logical" name="LSPECTRAL"> F  </i>
   <i type="logical" name="LSPECTRALGW"> F  </i>
   <i type="logical" name="LSINGLES"> F  </i>
   <i type="logical" name="LFERMIGW"> F  </i>
   <i type="logical" name="ODDONLYGW"> F  </i>
   <i type="logical" name="EVENONLYGW"> F  </i>
   <i type="int" name="NKREDLFX">     1</i>
   <i type="int" name="NKREDLFY">     1</i>
   <i type="int" name="NKREDLFZ">     1</i>
   <i type="int" name="MAXMEM">  2800</i>
   <i type="int" name="TELESCOPE">     0</i>
   <i type="int" name="NTAUPAR">    -1</i>
   <i type="int" name="NOMEGAPAR">    -1</i>
   <i name="DAMP_NEWTON">      0.80000001</i>
   <i name="LAMBDA">      1.00000000</i>
  </separator>
  <separator name="External order field" >
   <i name="OFIELD_KAPPA">      0.00000000</i>
   <v name="OFIELD_K">      0.00000000      0.00000000      0.00000000</v>
   <i name="OFIELD_Q6_NEAR">      0.00000000</i>
   <i name="OFIELD_Q6_FAR">      0.00000000</i>
   <i name="OFIELD_A">      0.00000000</i>
  </separator>
  <separator name="optional k-points parameters" >
   <i type="int" name="KPOINTS_OPT_MODE">     1</i>
   <i type="logical" name="LKPOINTS_OPT"> F  </i>
  </separator>
 </parameters>
 <atominfo>
  <atoms>      14 </atoms>
  <types>       1 </types>
  <array name="atoms" >
   <dimension dim="1">ion</dimension>
   <field type="string">element</field>
   <field type="int">atomtype</field>
   <set>
    <rc><c>B </c><c>   1</c></rc>
    <rc><c>B </c><c>   1</c></rc>
    <rc><c>B </c><c>   1</c></rc>
    <rc><c>B </c><c>   1</c></rc>
    <rc><c>B </c><c>   1</c></rc>
    <rc><c>B </c><c>   1</c></rc>
    <rc><c>B </c><c>   1</c></rc>
    <rc><c>B </c><c>   1</c></rc>
    <rc><c>B </c><c>   1</c></rc>
    <rc><c>B </c><c>   1</c></rc>
    <rc><c>B </c><c>   1</c></rc>
    <rc><c>B </c><c>   1</c></rc>
    <rc><c>B </c><c>   1</c></rc>
    <rc><c>B </c><c>   1</c></rc>
   </set>
  </array>
  <array name="atomtypes" >
   <dimension dim="1">type</dimension>
   <field type="int">atomspertype</field>
   <field type="string">element</field>
   <field>mass</field>
   <field>valence</field>
   <field type="string">pseudopotential</field>
   <set>
    <rc><c>  14</c><c>B </c><c>     10.81100000</c><c>      3.00000000</c><c>  PAW_PBE B 06Sep2000                   </c></rc>
   </set>
  </array>
 </atominfo>
 <structure name="initialpos" >
  <crystal>
   <varray name="basis" >
    <v>       5.69700000       0.00000000       0.00000000 </v>
    <v>       0.00000000       4.04790000       0.00000000 </v>
    <v>       0.00000000       0.00000000       6.20420000 </v>
   </varray>
   <i name="volume">    143.07435078 </i>
   <varray name="rec_basis" >
    <v>       0.17553098       0.00000000       0.00000000 </v>
    <v>       0.00000000       0.24704168       0.00000000 </v>
    <v>       0.00000000       0.00000000       0.16118114 </v>
   </varray>
  </crystal>
  <varray name="positions" >
   <v>       0.52123000       0.50000000       0.63796000 </v>
   <v>       0.47877000       0.50000000       0.36204000 </v>
   <v>       0.97877000       0.50000000       0.63796000 </v>
   <v>       0.02123000       0.50000000       0.36204000 </v>
   <v>       0.60090000       0.50000000       0.89991000 </v>
   <v>       0.39910000       0.50000000       0.10009000 </v>
   <v>       0.89910000       0.50000000       0.89991000 </v>
   <v>       0.10090000       0.50000000       0.10009000 </v>
   <v>       0.75000000       0.79171000       0.72973000 </v>
   <v>       0.25000000       0.20829000       0.27027000 </v>
   <v>       0.75000000       0.20829000       0.72973000 </v>
   <v>       0.25000000       0.79171000       0.27027000 </v>
   <v>       0.25000000       0.50000000       0.52367000 </v>
   <v>       0.75000000       0.50000000       0.47633000 </v>
  </varray>
 </structure>
 <calculation>
  <scstep>
   <time name="dav">    0.09    0.09</time>
   <time name="total">    0.10    0.11</time>
   <energy>
    <i name="alphaZ">     94.24357992 </i>
    <i name="ewald">   -795.76658092 </i>
    <i name="hartreedc">   -271.33601302 </i>
    <i name="XCdc">     97.50108175 </i>
    <i name="pawpsdc">    608.99811708 </i>
    <i name="pawaedc">   -597.02363782 </i>
    <i name="eentropy">     -0.00000000 </i>
    <i name="bandstr">    -83.57974812 </i>
    <i name="atom">    996.36340036 </i>
    <i name="e_fr_energy">     49.40019923 </i>
    <i name="e_wo_entrp">     49.40019923 </i>
    <i name="e_0_energy">     49.40019923 </i>
   </energy>
  </scstep>
  <scstep>
   <time name="dav">    0.08    0.08</time>
   <time name="total">    0.08    0.08</time>
   <energy>
    <i name="e_fr_energy">    -92.90569780 </i>
    <i name="e_wo_entrp">    -92.88031037 </i>
    <i name="e_0_energy">    -92.89300409 </i>
   </energy>
  </scstep>
  <scstep>
   <time name="dav">    0.06    0.06</time>
   <time name="total">    0.06    0.06</time>
   <energy>
    <i name="e_fr_energy">    -97.38347095 </i>
    <i name="e_wo_entrp">    -97.37095578 </i>
    <i name="e_0_energy">    -97.37721336 </i>
   </energy>
  </scstep>
  <scstep>
   <time name="dav">    0.05    0.05</time>
   <time name="total">    0.05    0.05</time>
   <energy>
    <i name="e_fr_energy">    -97.40930198 </i>
    <i name="e_wo_entrp">    -97.39689037 </i>
    <i name="e_0_energy">    -97.40309617 </i>
   </energy>
  </scstep>
  <scstep>
   <time name="dav">    0.06    0.06</time>
   <time name="total">    0.07    0.07</time>
   <energy>
    <i name="e_fr_energy">    -97.40960362 </i>
    <i name="e_wo_entrp">    -97.39719372 </i>
    <i name="e_0_energy">    -97.40339867 </i>
   </energy>
  </scstep>
  <scstep>
   <time name="dav">    0.06    0.07</time>
   <time name="total">    0.09    0.09</time>
   <energy>
    <i name="e_fr_energy">    -91.93907312 </i>
    <i name="e_wo_entrp">    -91.93041544 </i>
    <i name="e_0_energy">    -91.93474428 </i>
   </energy>
  </scstep>
  <scstep>
   <time name="dav">    0.06    0.06</time>
   <time name="total">    0.08    0.08</time>
   <energy>
    <i name="e_fr_energy">    -90.23952317 </i>
    <i name="e_wo_entrp">    -90.23509881 </i>
    <i name="e_0_energy">    -90.23731099 </i>
   </energy>
  </scstep>
  <scstep>
   <time name="dav">    0.04    0.05</time>
   <time name="total">    0.06    0.06</time>
   <energy>
    <i name="e_fr_energy">    -90.24806178 </i>
    <i name="e_wo_entrp">    -90.24342570 </i>
    <i name="e_0_energy">    -90.24574374 </i>
   </energy>
  </scstep>
  <scstep>
   <time name="dav">    0.06    0.06</time>
   <time name="total">    0.07    0.08</time>
   <energy>
    <i name="e_fr_energy">    -90.26164988 </i>
    <i name="e_wo_entrp">    -90.25690664 </i>
    <i name="e_0_energy">    -90.25927826 </i>
   </energy>
  </scstep>
  <scstep>
   <time name="dav">    0.04    0.04</time>
   <time name="total">    0.06    0.06</time>
   <energy>
    <i name="e_fr_energy">    -90.26644830 </i>
    <i name="e_wo_entrp">    -90.26167753 </i>
    <i name="e_0_energy">    -90.26406292 </i>
   </energy>
  </scstep>
  <scstep>
   <time name="dav">    0.06    0.06</time>
   <time name="total">    0.08    0.08</time>
   <energy>
    <i name="e_fr_energy">    -90.26751446 </i>
    <i name="e_wo_entrp">    -90.26275836 </i>
    <i name="e_0_energy">    -90.26513641 </i>
   </energy>
  </scstep>
  <scstep>
   <time name="dav">    0.04    0.04</time>
   <time name="total">    0.06    0.06</time>
   <energy>
    <i name="e_fr_energy">    -90.26758253 </i>
    <i name="e_wo_entrp">    -90.26283375 </i>
    <i name="e_0_energy">    -90.26520814 </i>
   </energy>
  </scstep>
  <scstep>
   <time name="dav">    0.06    0.06</time>
   <time name="total">    0.07    0.08</time>
   <energy>
    <i name="e_fr_energy">    -90.26759788 </i>
    <i name="e_wo_entrp">    -90.26284388 </i>
    <i name="e_0_energy">    -90.26522088 </i>
   </energy>
  </scstep>
  <scstep>
   <time name="dav">    0.04    0.04</time>
   <time name="total">    0.05    0.05</time>
   <energy>
    <i name="alphaZ">     94.24357992 </i>
    <i name="ewald">   -795.76658092 </i>
    <i name="hartreedc">   -349.66452710 </i>
    <i name="XCdc">    101.64069927 </i>
    <i name="pawpsdc">   3720.12650976 </i>
    <i name="pawaedc">  -3709.32595492 </i>
    <i name="eentropy">     -0.00475298 </i>
    <i name="bandstr">   -147.87997177 </i>
    <i name="atom">    996.36340036 </i>
    <i name="e_fr_energy">    -90.26759838 </i>
    <i name="e_wo_entrp">    -90.26284540 </i>
    <i name="e_0_energy">    -90.26522189 </i>
   </energy>
  </scstep>
  <structure>
   <crystal>
    <varray name="basis" >
     <v>       5.69700000       0.00000000       0.00000000 </v>
     <v>       0.00000000       4.04790000       0.00000000 </v>
     <v>       0.00000000       0.00000000       6.20420000 </v>
    </varray>
    <i name="volume">    143.07435078 </i>
    <varray name="rec_basis" >
     <v>       0.17553098       0.00000000       0.00000000 </v>
     <v>       0.00000000       0.24704168       0.00000000 </v>
     <v>       0.00000000       0.00000000       0.16118114 </v>
    </varray>
   </crystal>
   <varray name="positions" >
    <v>       0.52123000       0.50000000       0.63796000 </v>
    <v>       0.47877000       0.50000000       0.36204000 </v>
    <v>       0.97877000       0.50000000       0.63796000 </v>
    <v>       0.02123000       0.50000000       0.36204000 </v>
    <v>       0.60090000       0.50000000       0.89991000 </v>
    <v>       0.39910000       0.50000000       0.10009000 </v>
    <v>       0.89910000       0.50000000       0.89991000 </v>
    <v>       0.10090000       0.50000000       0.10009000 </v>
    <v>       0.75000000       0.79171000       0.72973000 </v>
    <v>       0.25000000       0.20829000       0.27027000 </v>
    <v>       0.75000000       0.20829000       0.72973000 </v>
    <v>       0.25000000       0.79171000       0.27027000 </v>
    <v>       0.25000000       0.50000000       0.52367000 </v>
    <v>       0.75000000       0.50000000       0.47633000 </v>
   </varray>
  </structure>
  <varray name="forces" >
   <v>       0.11962288      -0.00000000       0.08568292 </v>
   <v>      -0.11962288      -0.00000000      -0.08568292 </v>
   <v>      -0.11962288       0.00000000       0.08568292 </v>
   <v>       0.11962288       0.00000000      -0.08568292 </v>
   <v>      -0.67804536      -0.00000000       0.36329326 </v>
   <v>       0.67804536      -0.00000000      -0.36329326 </v>
   <v>       0.67804536       0.00000000       0.36329326 </v>
   <v>      -0.67804536       0.00000000      -0.36329326 </v>
   <v>       0.00000000       1.20443533      -0.02813724 </v>
   <v>       0.00000000      -1.20443533       0.02813724 </v>
   <v>       0.00000000      -1.20443533      -0.02813724 </v>
   <v>       0.00000000       1.20443533       0.02813724 </v>
   <v>       0.00000000      -0.00000000      -0.20328398 </v>
   <v>       0.00000000       0.00000000       0.20328398 </v>
  </varray>
  <varray name="stress" >
   <v>       5.04066075       0.00000000       0.00000000 </v>
   <v>       0.00000000      36.06118650       0.00000000 </v>
   <v>       0.00000000       0.00000000     -14.12367647 </v>
  </varray>
  <energy>
   <i name="e_fr_energy">    -90.26759838 </i>
   <i name="e_wo_entrp">    -90.26284540 </i>
   <i name="e_0_energy">    -90.26522189 </i>
  </energy>
  <time name="totalsc">    1.05    1.09</time>
  <eigenvalues>
   <array>
    <dimension dim="1">band</dimension>
    <dimension dim="2">kpoint</dimension>
    <dimension dim="3">spin</dimension>
    <field>eigene</field>
    <field>occ</field>
    <set>
     <set comment="spin 1">
      <set comment="kpoint 1">
       <r>  -12.5613    1.0000 </r>
       <r>  -11.8247    1.0000 </r>
       <r>   -8.7917    1.0000 </r>
       <r>   -8.3352    1.0000 </r>
       <r>   -6.3167    1.0000 </r>
       <r>   -5.3041    1.0000 </r>
       <r>   -4.7255    1.0000 </r>
       <r>   -3.6862    1.0000 </r>
       <r>   -3.2450    1.0000 </r>
       <r>   -2.6517    1.0000 </r>
       <r>   -2.6005    1.0000 </r>
       <r>   -2.1630    1.0000 </r>
       <r>   -2.0702    1.0000 </r>
       <r>   -1.8176    1.0000 </r>
       <r>   -0.5842    1.0000 </r>
       <r>   -0.4893    1.0000 </r>
       <r>   -0.2310    1.0000 </r>
       <r>    0.2368    1.0000 </r>
       <r>    0.4802    1.0000 </r>
       <r>    1.5636    1.0000 </r>
       <r>    2.1245    0.9550 </r>
       <r>    2.3567    0.0000 </r>
       <r>    5.4107    0.0000 </r>
       <r>    6.0970    0.0000 </r>
       <r>    6.3151    0.0000 </r>
       <r>    6.5853    0.0000 </r>
       <r>    6.7776    0.0000 </r>
       <r>    7.0103    0.0000 </r>
       <r>    8.1762    0.0000 </r>
       <r>    8.7553    0.0000 </r>
       <r>    9.1477    0.0000 </r>
       <r>    9.6968    0.0000 </r>
       <r>    9.8156    0.0000 </r>
       <r>   10.2933    0.0000 </r>
       <r>   10.4351    0.0000 </r>
       <r>   10.6299    0.0000 </r>
       <r>   11.2591    0.0000 </r>
       <r>   11.8469    0.0000 </r>
       <r>   12.2944    0.0000 </r>
       <r>   12.9687    0.0000 </r>
       <r>   13.2373    0.0000 </r>
       <r>   14.0544    0.0000 </r>
       <r>   14.1736    0.0000 </r>
       <r>   14.2305    0.0000 </r>
       <r>   15.0298    0.0000 </r>
       <r>   15.2131    0.0000 </r>
       <r>   15.3585    0.0000 </r>
       <r>   15.9555    0.0000 </r>
      </set>
      <set comment="kpoint 2">
       <r>  -12.3736    1.0000 </r>
       <r>  -11.6464    1.0000 </r>
       <r>   -8.6239    1.0000 </r>
       <r>   -8.1715    1.0000 </r>
       <r>   -6.0742    1.0000 </r>
       <r>   -5.7477    1.0000 </r>
       <r>   -5.0566    1.0000 </r>
       <r>   -5.0299    1.0000 </r>
       <r>   -4.5379    1.0000 </r>
       <r>   -3.0448    1.0000 </r>
       <r>   -2.4188    1.0000 </r>
       <r>   -1.7820    1.0000 </r>
       <r>   -1.6457    1.0000 </r>
       <r>   -1.0909    1.0000 </r>
       <r>   -0.5300    1.0000 </r>
       <r>   -0.4394    1.0000 </r>
       <r>   -0.0187    1.0000 </r>
       <r>    0.4343    1.0000 </r>
       <r>    0.7788    1.0000 </r>
       <r>    1.0333    1.0000 </r>
       <r>    1.5692    1.0000 </r>
       <r>    2.2553    0.0225 </r>
       <r>    5.1864    0.0000 </r>
       <r>    5.7676    0.0000 </r>
       <r>    6.3556    0.0000 </r>
       <r>    7.5695    0.0000 </r>
       <r>    7.8589    0.0000 </r>
       <r>    8.3784    0.0000 </r>
       <r>    8.5973    0.0000 </r>
       <r>    9.0688    0.0000 </r>
       <r>    9.3211    0.0000 </r>
       <r>    9.7375    0.0000 </r>
       <r>   10.2271    0.0000 </r>
       <r>   11.0055    0.0000 </r>
       <r>   11.2605    0.0000 </r>
       <r>   11.4466    0.0000 </r>
       <r>   11.5574    0.0000 </r>
       <r>   12.2384    0.0000 </r>
       <r>   12.2731    0.0000 </r>
       <r>   12.5746    0.0000 </r>
       <r>   12.9748    0.0000 </r>
       <r>   13.4389    0.0000 </r>
       <r>   13.8922    0.0000 </r>
       <r>   14.4730    0.0000 </r>
       <r>   14.7343    0.0000 </r>
       <r>   15.0122    0.0000 </r>
       <r>   15.4385    0.0000 </r>
       <r>   15.7866    0.0000 </r>
      </set>
     </set>
    </set>
   </array>
  </eigenvalues>
  <separator name="orbital magnetization" >
   <v name="MAGDIPOLOUT">      0.00000000      0.00000000      0.00000000</v>
  </separator>
  <dos>
   <i name="efermi">      2.18444706 </i>
   <total>
    <array>
     <dimension dim="1">gridpoints</dimension>
     <dimension dim="2">spin</dimension>
     <field>energy</field>
     <field>total</field>
     <field>integrated</field>
     <set>
      <set comment="spin 1">
       <r>   -13.9872     0.0000     0.0000 </r>
       <r>   -13.8826     0.0000     0.0000 </r>
       <r>   -13.7780     0.0000     0.0000 </r>
       <r>   -13.6735     0.0000     0.0000 </r>
       <r>   -13.5689     0.0000     0.0000 </r>
       <r>   -13.4644     0.0000     0.0000 </r>
       <r>   -13.3598     0.0000     0.0000 </r>
       <r>   -13.2552     0.0000     0.0000 </r>
       <r>   -13.1507     0.0000     0.0000 </r>
       <r>   -13.0461     0.0000     0.0000 </r>
       <r>   -12.9416     0.0000     0.0000 </r>
       <r>   -12.8370     0.0000     0.0000 </r>
       <r>   -12.7324     0.0000     0.0000 </r>
       <r>   -12.6279     0.1907     0.0199 </r>
       <r>   -12.5233     5.2857     0.5726 </r>
       <r>   -12.4187     2.1846     0.8011 </r>
       <r>   -12.3142    10.8743     1.9381 </r>
       <r>   -12.2096     0.5921     2.0000 </r>
       <r>   -12.1051     0.0000     2.0000 </r>
       <r>   -12.0005     0.0000     2.0000 </r>
       <r>   -11.8959     0.1399     2.0146 </r>
       <r>   -11.7914     5.1329     2.5513 </r>
       <r>   -11.6868     2.7164     2.8354 </r>
       <r>   -11.5822    10.6945     3.9536 </r>
       <r>   -11.4777     0.4436     4.0000 </r>
       <r>   -11.3731     0.0000     4.0000 </r>
       <r>   -11.2686     0.0000     4.0000 </r>
       <r>   -11.1640     0.0000     4.0000 </r>
       <r>   -11.0594     0.0000     4.0000 </r>
       <r>   -10.9549     0.0000     4.0000 </r>
       <r>   -10.8503     0.0000     4.0000 </r>
       <r>   -10.7458     0.0000     4.0000 </r>
       <r>   -10.6412     0.0000     4.0000 </r>
       <r>   -10.5366     0.0000     4.0000 </r>
       <r>   -10.4321     0.0000     4.0000 </r>
       <r>   -10.3275     0.0000     4.0000 </r>
       <r>   -10.2229     0.0000     4.0000 </r>
       <r>   -10.1184     0.0000     4.0000 </r>
       <r>   -10.0138     0.0000     4.0000 </r>
       <r>    -9.9093     0.0000     4.0000 </r>
       <r>    -9.8047     0.0000     4.0000 </r>
       <r>    -9.7001     0.0000     4.0000 </r>
       <r>    -9.5956     0.0000     4.0000 </r>
       <r>    -9.4910     0.0000     4.0000 </r>
       <r>    -9.3864     0.0000     4.0000 </r>
       <r>    -9.2819     0.0000     4.0000 </r>
       <r>    -9.1773     0.0000     4.0000 </r>
       <r>    -9.0728     0.0000     4.0000 </r>
       <r>    -8.9682     0.0000     4.0000 </r>
       <r>    -8.8636     0.1339     4.0140 </r>
       <r>    -8.7591     5.1096     4.5483 </r>
       <r>    -8.6545     3.5958     4.9243 </r>
       <r>    -8.5500    10.0554     5.9757 </r>
       <r>    -8.4454     0.2385     6.0006 </r>
       <r>    -8.3408     2.7817     6.2915 </r>
       <r>    -8.2363     3.9990     6.7096 </r>
       <r>    -8.1317    10.6812     7.8265 </r>
       <r>    -8.0271     1.6595     8.0000 </r>
       <r>    -7.9226     0.0003     8.0000 </r>
       <r>    -7.8180     0.0000     8.0000 </r>
       <r>    -7.7135     0.0000     8.0000 </r>
       <r>    -7.6089     0.0000     8.0000 </r>
       <r>    -7.5043     0.0000     8.0000 </r>
       <r>    -7.3998     0.0000     8.0000 </r>
       <r>    -7.2952     0.0000     8.0000 </r>
       <r>    -7.1906     0.0000     8.0000 </r>
       <r>    -7.0861     0.0000     8.0000 </r>
       <r>    -6.9815     0.0000     8.0000 </r>
       <r>    -6.8770     0.0000     8.0000 </r>
       <r>    -6.7724     0.0000     8.0000 </r>
       <r>    -6.6678     0.0000     8.0000 </r>
       <r>    -6.5633     0.0000     8.0000 </r>
       <r>    -6.4587     0.0002     8.0000 </r>
       <r>    -6.3542     0.9227     8.0965 </r>
       <r>    -6.2496     5.2691     8.6474 </r>
       <r>    -6.1450     0.4715     8.6967 </r>
       <r>    -6.0405    10.2953     9.7732 </r>
       <r>    -5.9359     2.1681     9.9999 </r>
       <r>    -5.8313     0.1153    10.0120 </r>
       <r>    -5.7268     9.1049    10.9640 </r>
       <r>    -5.6222     3.5295    11.3331 </r>
       <r>    -5.5177     0.0025    11.3333 </r>
       <r>    -5.4131     0.0065    11.3340 </r>
       <r>    -5.3085     2.8614    11.6332 </r>
       <r>    -5.2040     3.4933    11.9985 </r>
       <r>    -5.0994     1.7673    12.1833 </r>
       <r>    -4.9948    21.1841    14.3983 </r>
       <r>    -4.8903     2.5659    14.6666 </r>
       <r>    -4.7857     0.2829    14.6962 </r>
       <r>    -4.6812     5.4254    15.2635 </r>
       <r>    -4.5766     2.4105    15.5155 </r>
       <r>    -4.4720    10.6100    16.6249 </r>
       <r>    -4.3675     0.3992    16.6667 </r>
       <r>    -4.2629     0.0000    16.6667 </r>
       <r>    -4.1584     0.0000    16.6667 </r>
       <r>    -4.0538     0.0000    16.6667 </r>
       <r>    -3.9492     0.0000    16.6667 </r>
       <r>    -3.8447     0.0000    16.6667 </r>
       <r>    -3.7401     0.4066    16.7092 </r>
       <r>    -3.6355     5.4857    17.2828 </r>
       <r>    -3.5310     0.4834    17.3333 </r>
       <r>    -3.4264     0.0000    17.3333 </r>
       <r>    -3.3219     0.0950    17.3433 </r>
       <r>    -3.2173     4.9016    17.8558 </r>
       <r>    -3.1127     1.7275    18.0364 </r>
       <r>    -3.0082    10.4904    19.1333 </r>
       <r>    -2.9036     1.9125    19.3333 </r>
       <r>    -2.7991     0.0005    19.3333 </r>
       <r>    -2.6945     0.7468    19.4114 </r>
       <r>    -2.5899     9.3071    20.3846 </r>
       <r>    -2.4854     3.0750    20.7061 </r>
       <r>    -2.3808    10.5736    21.8117 </r>
       <r>    -2.2762     1.8046    22.0004 </r>
       <r>    -2.1717     2.5795    22.2701 </r>
       <r>    -2.0671     7.1829    23.0212 </r>
       <r>    -1.9626     2.9780    23.3326 </r>
       <r>    -1.8580     1.0175    23.4390 </r>
       <r>    -1.7534    15.2396    25.0325 </r>
       <r>    -1.6489     8.7928    25.9518 </r>
       <r>    -1.5443     6.8099    26.6639 </r>
       <r>    -1.4397     0.0264    26.6667 </r>
       <r>    -1.3352     0.0000    26.6667 </r>
       <r>    -1.2306     0.0005    26.6667 </r>
       <r>    -1.1261     2.0411    26.8801 </r>
       <r>    -1.0215    10.3938    27.9669 </r>
       <r>    -0.9169     0.3162    28.0000 </r>
       <r>    -0.8124     0.0000    28.0000 </r>
       <r>    -0.7078     0.0015    28.0002 </r>
       <r>    -0.6033     2.1252    28.2224 </r>
       <r>    -0.4987    17.6737    30.0704 </r>
       <r>    -0.3941    17.1524    31.8639 </r>
       <r>    -0.2896     1.6125    32.0325 </r>
       <r>    -0.1850     5.4482    32.6021 </r>
       <r>    -0.0804     1.1333    32.7206 </r>
       <r>     0.0241    10.7985    33.8497 </r>
       <r>     0.1287     1.4439    34.0007 </r>
       <r>     0.2332     2.9263    34.3067 </r>
       <r>     0.3378     3.4696    34.6695 </r>
       <r>     0.4424     8.4072    35.5486 </r>
       <r>     0.5469    10.4951    36.6460 </r>
       <r>     0.6515     0.2000    36.6669 </r>
       <r>     0.7561     3.3167    37.0137 </r>
       <r>     0.8606     9.3015    37.9863 </r>
       <r>     0.9652     0.4769    38.0361 </r>
       <r>     1.0697    10.4804    39.1320 </r>
       <r>     1.1743     1.9253    39.3333 </r>
       <r>     1.2789     0.0004    39.3333 </r>
       <r>     1.3834     0.0000    39.3333 </r>
       <r>     1.4880     0.2408    39.3585 </r>
       <r>     1.5925    14.3207    40.8559 </r>
       <r>     1.6971     4.5634    41.3331 </r>
       <r>     1.8017     0.0024    41.3333 </r>
       <r>     1.9062     0.0000    41.3333 </r>
       <r>     2.0108     0.0041    41.3338 </r>
       <r>     2.1154     2.5342    41.5987 </r>
       <r>     2.2199     5.8337    42.2087 </r>
       <r>     2.3245    11.5882    43.4204 </r>
       <r>     2.4290     5.4131    43.9864 </r>
       <r>     2.5336     0.1298    44.0000 </r>
       <r>     2.6382     0.0000    44.0000 </r>
       <r>     2.7427     0.0000    44.0000 </r>
       <r>     2.8473     0.0000    44.0000 </r>
       <r>     2.9519     0.0000    44.0000 </r>
       <r>     3.0564     0.0000    44.0000 </r>
       <r>     3.1610     0.0000    44.0000 </r>
       <r>     3.2655     0.0000    44.0000 </r>
       <r>     3.3701     0.0000    44.0000 </r>
       <r>     3.4747     0.0000    44.0000 </r>
       <r>     3.5792     0.0000    44.0000 </r>
       <r>     3.6838     0.0000    44.0000 </r>
       <r>     3.7883     0.0000    44.0000 </r>
       <r>     3.8929     0.0000    44.0000 </r>
       <r>     3.9975     0.0000    44.0000 </r>
       <r>     4.1020     0.0000    44.0000 </r>
       <r>     4.2066     0.0000    44.0000 </r>
       <r>     4.3112     0.0000    44.0000 </r>
       <r>     4.4157     0.0000    44.0000 </r>
       <r>     4.5203     0.0000    44.0000 </r>
       <r>     4.6248     0.0000    44.0000 </r>
       <r>     4.7294     0.0000    44.0000 </r>
       <r>     4.8340     0.0000    44.0000 </r>
       <r>     4.9385     0.0000    44.0000 </r>
       <r>     5.0431     0.0003    44.0000 </r>
       <r>     5.1477     1.7416    44.1821 </r>
       <r>     5.2522    10.6104    45.2916 </r>
       <r>     5.3568     0.8040    45.3756 </r>
       <r>     5.4613     5.4854    45.9492 </r>
       <r>     5.5659     0.4857    46.0000 </r>
       <r>     5.6705     0.0384    46.0040 </r>
       <r>     5.7750     7.3996    46.7777 </r>
       <r>     5.8796     5.3039    47.3323 </r>
       <r>     5.9841     0.0143    47.3338 </r>
       <r>     6.0887     2.5942    47.6051 </r>
       <r>     6.1933     3.7583    47.9980 </r>
       <r>     6.2978     2.6665    48.2769 </r>
       <r>     6.4024    15.2539    49.8718 </r>
       <r>     6.5070     1.3110    50.0089 </r>
       <r>     6.6115     4.8309    50.5140 </r>
       <r>     6.7161     1.7202    50.6939 </r>
       <r>     6.8206     5.4035    51.2589 </r>
       <r>     6.9252     0.7632    51.3387 </r>
       <r>     7.0298     4.4713    51.8062 </r>
       <r>     7.1343     1.8517    51.9999 </r>
       <r>     7.2389     0.0014    52.0000 </r>
       <r>     7.3435     0.0000    52.0000 </r>
       <r>     7.4480     0.0038    52.0004 </r>
       <r>     7.5526     4.0270    52.4215 </r>
       <r>     7.6571     8.6368    53.3245 </r>
       <r>     7.7617     0.1222    53.3373 </r>
       <r>     7.8663     7.3944    54.1105 </r>
       <r>     7.9708     5.3092    54.6656 </r>
       <r>     8.0754     0.0237    54.6681 </r>
       <r>     8.1799     3.4446    55.0283 </r>
       <r>     8.2845     2.9608    55.3379 </r>
       <r>     8.3891     7.8442    56.1581 </r>
       <r>     8.4936     4.8783    56.6682 </r>
       <r>     8.5982     6.4894    57.3467 </r>
       <r>     8.7028     6.6681    58.0439 </r>
       <r>     8.8073     5.5064    58.6197 </r>
       <r>     8.9119     0.4492    58.6667 </r>
       <r>     9.0164     0.8867    58.7594 </r>
       <r>     9.1210    12.4103    60.0570 </r>
       <r>     9.2256     5.7860    60.6620 </r>
       <r>     9.3301     7.6995    61.4671 </r>
       <r>     9.4347     5.0882    61.9991 </r>
       <r>     9.5393     0.0084    62.0000 </r>
       <r>     9.6438     0.4771    62.0499 </r>
       <r>     9.7484    13.5298    63.4646 </r>
       <r>     9.8529    10.5609    64.5689 </r>
       <r>     9.9575     0.9353    64.6666 </r>
       <r>    10.0621     0.0002    64.6667 </r>
       <r>    10.1666     0.5557    64.7248 </r>
       <r>    10.2712    12.5350    66.0355 </r>
       <r>    10.3757     6.2710    66.6912 </r>
       <r>    10.4803     5.5010    67.2664 </r>
       <r>    10.5849     1.2871    67.4009 </r>
       <r>    10.6894     5.4353    67.9693 </r>
       <r>    10.7940     0.2939    68.0000 </r>
       <r>    10.8986     0.0159    68.0017 </r>
       <r>    11.0031     6.0194    68.6311 </r>
       <r>    11.1077     6.6920    69.3308 </r>
       <r>    11.2122     1.7094    69.5095 </r>
       <r>    11.3168    16.4050    71.2249 </r>
       <r>    11.4214     4.0692    71.6503 </r>
       <r>    11.5259    11.9458    72.8994 </r>
       <r>    11.6305    10.2796    73.9743 </r>
       <r>    11.7351     0.2511    74.0005 </r>
       <r>    11.8396     2.6619    74.2788 </r>
       <r>    11.9442     3.6901    74.6647 </r>
       <r>    12.0487     0.0189    74.6667 </r>
       <r>    12.1533     0.1074    74.6779 </r>
       <r>    12.2579    14.1445    76.1569 </r>
       <r>    12.3624    17.3776    77.9739 </r>
       <r>    12.4670     0.2644    78.0016 </r>
       <r>    12.5715     5.9179    78.6203 </r>
       <r>    12.6761     6.7928    79.3306 </r>
       <r>    12.7807     0.0262    79.3333 </r>
       <r>    12.8852     0.1300    79.3469 </r>
       <r>    12.9898    12.9576    80.7018 </r>
       <r>    13.0944     6.0341    81.3327 </r>
       <r>    13.1989     0.8891    81.4257 </r>
       <r>    13.3035     5.2974    81.9796 </r>
       <r>    13.4080     2.6308    82.2547 </r>
       <r>    13.5126    10.0784    83.3085 </r>
       <r>    13.6172     0.2373    83.3333 </r>
       <r>    13.7217     0.0000    83.3333 </r>
       <r>    13.8263     0.3978    83.3749 </r>
       <r>    13.9309    10.6087    84.4842 </r>
       <r>    14.0354     3.6296    84.8637 </r>
       <r>    14.1400     5.5659    85.4457 </r>
       <r>    14.2445     9.3295    86.4212 </r>
       <r>    14.3491     2.3478    86.6667 </r>
       <r>    14.4537     3.7275    87.0565 </r>
       <r>    14.5582     8.9223    87.9894 </r>
       <r>    14.6628     0.3771    88.0288 </r>
       <r>    14.7673    10.2489    89.1005 </r>
       <r>    14.8719     2.2270    89.3333 </r>
       <r>    14.9765     2.4069    89.5850 </r>
       <r>    15.0810    15.9226    91.2499 </r>
       <r>    15.1856     2.1878    91.4787 </r>
       <r>    15.2902     5.0626    92.0080 </r>
       <r>    15.3947     6.7004    92.7086 </r>
       <r>    15.4993    11.8043    93.9429 </r>
       <r>    15.6038     0.5462    94.0000 </r>
       <r>    15.7084     0.1723    94.0180 </r>
       <r>    15.8130     9.6749    95.0296 </r>
       <r>    15.9175     3.8026    95.4273 </r>
       <r>    16.0221     5.2869    95.9801 </r>
       <r>    16.1266     0.1907    96.0000 </r>
       <r>    16.2312     0.0000    96.0000 </r>
       <r>    16.3358     0.0000    96.0000 </r>
       <r>    16.4403     0.0000    96.0000 </r>
       <r>    16.5449     0.0000    96.0000 </r>
       <r>    16.6495     0.0000    96.0000 </r>
       <r>    16.7540     0.0000    96.0000 </r>
       <r>    16.8586     0.0000    96.0000 </r>
       <r>    16.9631     0.0000    96.0000 </r>
       <r>    17.0677     0.0000    96.0000 </r>
       <r>    17.1723     0.0000    96.0000 </r>
       <r>    17.2768     0.0000    96.0000 </r>
       <r>    17.3814     0.0000    96.0000 </r>
      </set>
     </set>
    </array>
   </total>
  </dos>
 </calculation>
 <structure name="finalpos" >
  <crystal>
   <varray name="basis" >
    <v>       5.69700000       0.00000000       0.00000000 </v>
    <v>       0.00000000       4.04790000       0.00000000 </v>
    <v>       0.00000000       0.00000000       6.20420000 </v>
   </varray>
   <i name="volume">    143.07435078 </i>
   <varray name="rec_basis" >
    <v>       0.17553098       0.00000000       0.00000000 </v>
    <v>       0.00000000       0.24704168       0.00000000 </v>
    <v>       0.00000000       0.00000000       0.16118114 </v>
   </varray>
  </crystal>
  <varray name="positions" >
   <v>       0.52123000       0.50000000       0.63796000 </v>
   <v>       0.47877000       0.50000000       0.36204000 </v>
   <v>       0.97877000       0.50000000       0.63796000 </v>
   <v>       0.02123000       0.50000000       0.36204000 </v>
   <v>       0.60090000       0.50000000       0.89991000 </v>
   <v>       0.39910000       0.50000000       0.10009000 </v>
   <v>       0.89910000       0.50000000       0.89991000 </v>
   <v>       0.10090000       0.50000000       0.10009000 </v>
   <v>       0.75000000       0.79171000       0.72973000 </v>
   <v>       0.25000000       0.20829000       0.27027000 </v>
   <v>       0.75000000       0.20829000       0.72973000 </v>
   <v>       0.25000000       0.79171000       0.27027000 </v>
   <v>       0.25000000       0.50000000       0.52367000 </v>
   <v>       0.75000000       0.50000000       0.47633000 </v>
  </varray>
 </structure>
</modeling>
