  14  14   1   0
  0.1021318E+02  0.5700971E-09  0.4044058E-09  0.6201871E-09  0.5000000E-15
  1.000000000000000E-004
  CAR 
 BS                                      
     18.00020148    -14.16205308  301      2.21074182      1.00000000
    -14.162  0.0000E+00  0.0000E+00
    -14.055  0.0000E+00  0.0000E+00
    -13.948  0.0000E+00  0.0000E+00
    -13.840  0.0000E+00  0.0000E+00
    -13.733  0.0000E+00  0.0000E+00
    -13.626  0.0000E+00  0.0000E+00
    -13.519  0.0000E+00  0.0000E+00
    -13.412  0.0000E+00  0.0000E+00
    -13.304  0.0000E+00  0.0000E+00
    -13.197  0.5907E-12  0.6333E-13
    -13.090  0.1104E-07  0.1183E-08
    -12.983  0.2277E-04  0.2443E-05
    -12.876  0.5549E-02  0.5974E-03
    -12.768  0.1844E+00  0.2037E-01
    -12.661  0.1112E+01  0.1396E+00
    -12.554  0.1805E+01  0.3330E+00
    -12.447  0.1798E+01  0.5258E+00
    -12.340  0.2937E+01  0.8408E+00
    -12.232  0.4042E+01  0.1274E+01
    -12.125  0.5847E+01  0.1901E+01
    -12.018  0.3967E+01  0.2326E+01
    -11.911  0.2782E+01  0.2625E+01
    -11.803  0.2005E+01  0.2839E+01
    -11.696  0.1961E+01  0.3050E+01
    -11.589  0.2094E+01  0.3274E+01
    -11.482  0.2111E+01  0.3501E+01
    -11.375  0.2117E+01  0.3728E+01
    -11.267  0.1733E+01  0.3913E+01
    -11.160  0.7366E+00  0.3992E+01
    -11.053  0.7127E-01  0.4000E+01
    -10.946  0.1032E-02  0.4000E+01
    -10.839  0.1856E-05  0.4000E+01
    -10.731  0.3786E-09  0.4000E+01
    -10.624  0.8309E-14  0.4000E+01
    -10.517  0.0000E+00  0.4000E+01
    -10.410  0.0000E+00  0.4000E+01
    -10.303  0.0000E+00  0.4000E+01
    -10.195  0.0000E+00  0.4000E+01
    -10.088  0.0000E+00  0.4000E+01
     -9.981  0.0000E+00  0.4000E+01
     -9.874  0.0000E+00  0.4000E+01
     -9.767  0.0000E+00  0.4000E+01
     -9.659  0.0000E+00  0.4000E+01
     -9.552  0.0000E+00  0.4000E+01
     -9.445  0.0000E+00  0.4000E+01
     -9.338  0.1434E-12  0.4000E+01
     -9.231  0.3424E-08  0.4000E+01
     -9.123  0.8993E-05  0.4000E+01
     -9.016  0.2766E-02  0.4000E+01
     -8.909  0.1151E+00  0.4013E+01
     -8.802  0.9290E+00  0.4112E+01
     -8.694  0.2736E+01  0.4406E+01
     -8.587  0.4266E+01  0.4863E+01
     -8.480  0.4703E+01  0.5367E+01
     -8.373  0.6287E+01  0.6041E+01
     -8.266  0.5034E+01  0.6581E+01
     -8.158  0.4094E+01  0.7020E+01
     -8.051  0.4046E+01  0.7453E+01
     -7.944  0.2510E+01  0.7722E+01
     -7.837  0.1301E+01  0.7862E+01
     -7.730  0.9805E+00  0.7967E+01
     -7.622  0.2918E+00  0.7998E+01
     -7.515  0.1562E-01  0.8000E+01
     -7.408  0.1143E-03  0.8000E+01
     -7.301  0.1054E-05  0.8000E+01
     -7.194  0.5300E-03  0.8000E+01
     -7.086  0.3620E-01  0.8004E+01
     -6.979  0.3560E+00  0.8042E+01
     -6.872  0.6815E+00  0.8115E+01
     -6.765  0.5231E+00  0.8171E+01
     -6.658  0.6937E+00  0.8246E+01
     -6.550  0.1168E+01  0.8371E+01
     -6.443  0.1849E+01  0.8569E+01
     -6.336  0.2363E+01  0.8822E+01
     -6.229  0.2844E+01  0.9127E+01
     -6.121  0.3902E+01  0.9546E+01
     -6.014  0.3623E+01  0.9934E+01
     -5.907  0.3562E+01  0.1032E+02
     -5.800  0.4924E+01  0.1084E+02
     -5.693  0.5347E+01  0.1142E+02
     -5.585  0.4584E+01  0.1191E+02
     -5.478  0.3367E+01  0.1227E+02
     -5.371  0.3232E+01  0.1262E+02
     -5.264  0.3383E+01  0.1298E+02
     -5.157  0.2634E+01  0.1326E+02
     -5.049  0.1945E+01  0.1347E+02
     -4.942  0.1770E+01  0.1366E+02
     -4.835  0.1289E+01  0.1380E+02
     -4.728  0.9797E+00  0.1390E+02
     -4.621  0.1719E+01  0.1409E+02
     -4.513  0.2483E+01  0.1435E+02
     -4.406  0.2287E+01  0.1460E+02
     -4.299  0.2137E+01  0.1483E+02
     -4.192  0.1926E+01  0.1503E+02
     -4.085  0.2275E+01  0.1528E+02
     -3.977  0.2196E+01  0.1551E+02
     -3.870  0.2647E+01  0.1580E+02
     -3.763  0.3345E+01  0.1616E+02
     -3.656  0.4302E+01  0.1662E+02
     -3.549  0.5441E+01  0.1720E+02
     -3.441  0.4670E+01  0.1770E+02
     -3.334  0.2807E+01  0.1800E+02
     -3.227  0.3539E+01  0.1838E+02
     -3.120  0.5157E+01  0.1893E+02
     -3.012  0.3121E+01  0.1927E+02
     -2.905  0.2059E+01  0.1949E+02
     -2.798  0.2203E+01  0.1973E+02
     -2.691  0.2890E+01  0.2004E+02
     -2.584  0.3445E+01  0.2040E+02
     -2.476  0.3270E+01  0.2076E+02
     -2.369  0.6678E+01  0.2147E+02
     -2.262  0.7331E+01  0.2226E+02
     -2.155  0.5405E+01  0.2284E+02
     -2.048  0.5473E+01  0.2342E+02
     -1.940  0.5448E+01  0.2401E+02
     -1.833  0.5727E+01  0.2462E+02
     -1.726  0.6444E+01  0.2531E+02
     -1.619  0.6703E+01  0.2603E+02
     -1.512  0.5949E+01  0.2667E+02
     -1.404  0.4749E+01  0.2718E+02
     -1.297  0.3682E+01  0.2757E+02
     -1.190  0.3387E+01  0.2794E+02
     -1.083  0.3513E+01  0.2831E+02
     -0.976  0.3295E+01  0.2867E+02
     -0.868  0.2329E+01  0.2892E+02
     -0.761  0.3201E+01  0.2926E+02
     -0.654  0.5141E+01  0.2981E+02
     -0.547  0.4605E+01  0.3030E+02
     -0.439  0.4416E+01  0.3078E+02
     -0.332  0.4953E+01  0.3131E+02
     -0.225  0.5711E+01  0.3192E+02
     -0.118  0.5812E+01  0.3254E+02
     -0.011  0.5750E+01  0.3316E+02
      0.097  0.7741E+01  0.3399E+02
      0.204  0.9124E+01  0.3497E+02
      0.311  0.9058E+01  0.3594E+02
      0.418  0.6428E+01  0.3663E+02
      0.525  0.3246E+01  0.3698E+02
      0.633  0.2202E+01  0.3721E+02
      0.740  0.1976E+01  0.3742E+02
      0.847  0.2154E+01  0.3765E+02
      0.954  0.2879E+01  0.3796E+02
      1.061  0.4362E+01  0.3843E+02
      1.169  0.3864E+01  0.3884E+02
      1.276  0.2116E+01  0.3907E+02
      1.383  0.2186E+01  0.3931E+02
      1.490  0.2595E+01  0.3958E+02
      1.597  0.2813E+01  0.3989E+02
      1.705  0.3343E+01  0.4024E+02
      1.812  0.3820E+01  0.4065E+02
      1.919  0.3699E+01  0.4105E+02
      2.026  0.3275E+01  0.4140E+02
      2.133  0.3243E+01  0.4175E+02
      2.241  0.3232E+01  0.4210E+02
      2.348  0.3122E+01  0.4243E+02
      2.455  0.3580E+01  0.4281E+02
      2.562  0.3062E+01  0.4314E+02
      2.670  0.1554E+01  0.4331E+02
      2.777  0.5006E+00  0.4336E+02
      2.884  0.3270E+00  0.4340E+02
      2.991  0.3255E+00  0.4343E+02
      3.098  0.3015E+00  0.4347E+02
      3.206  0.3736E+00  0.4351E+02
      3.313  0.2767E+00  0.4353E+02
      3.420  0.3709E+00  0.4357E+02
      3.527  0.3285E+00  0.4361E+02
      3.634  0.3972E+00  0.4365E+02
      3.742  0.3597E+00  0.4369E+02
      3.849  0.4684E+00  0.4374E+02
      3.956  0.5614E+00  0.4380E+02
      4.063  0.8128E+00  0.4389E+02
      4.170  0.8336E+00  0.4398E+02
      4.278  0.9673E+00  0.4408E+02
      4.385  0.1155E+01  0.4421E+02
      4.492  0.1167E+01  0.4433E+02
      4.599  0.1483E+01  0.4449E+02
      4.706  0.1353E+01  0.4463E+02
      4.814  0.1123E+01  0.4475E+02
      4.921  0.1176E+01  0.4488E+02
      5.028  0.9257E+00  0.4498E+02
      5.135  0.8049E+00  0.4507E+02
      5.243  0.1134E+01  0.4519E+02
      5.350  0.1753E+01  0.4538E+02
      5.457  0.1930E+01  0.4558E+02
      5.564  0.2148E+01  0.4581E+02
      5.671  0.2520E+01  0.4608E+02
      5.779  0.3468E+01  0.4646E+02
      5.886  0.4352E+01  0.4692E+02
      5.993  0.5745E+01  0.4754E+02
      6.100  0.3377E+01  0.4790E+02
      6.207  0.1916E+01  0.4811E+02
      6.315  0.2191E+01  0.4834E+02
      6.422  0.2564E+01  0.4861E+02
      6.529  0.4506E+01  0.4910E+02
      6.636  0.4778E+01  0.4961E+02
      6.743  0.4294E+01  0.5007E+02
      6.851  0.5217E+01  0.5063E+02
      6.958  0.6275E+01  0.5130E+02
      7.065  0.6563E+01  0.5201E+02
      7.172  0.5938E+01  0.5264E+02
      7.279  0.4949E+01  0.5317E+02
      7.387  0.3932E+01  0.5359E+02
      7.494  0.4012E+01  0.5403E+02
      7.601  0.3652E+01  0.5442E+02
      7.708  0.3804E+01  0.5482E+02
      7.815  0.4659E+01  0.5532E+02
      7.923  0.3504E+01  0.5570E+02
      8.030  0.2414E+01  0.5596E+02
      8.137  0.2872E+01  0.5627E+02
      8.244  0.3420E+01  0.5663E+02
      8.352  0.4966E+01  0.5717E+02
      8.459  0.5686E+01  0.5777E+02
      8.566  0.4697E+01  0.5828E+02
      8.673  0.3584E+01  0.5866E+02
      8.780  0.3123E+01  0.5900E+02
      8.888  0.3290E+01  0.5935E+02
      8.995  0.3506E+01  0.5973E+02
      9.102  0.3773E+01  0.6013E+02
      9.209  0.3137E+01  0.6047E+02
      9.316  0.3552E+01  0.6085E+02
      9.424  0.4484E+01  0.6133E+02
      9.531  0.4080E+01  0.6177E+02
      9.638  0.4015E+01  0.6220E+02
      9.745  0.4311E+01  0.6266E+02
      9.852  0.4188E+01  0.6311E+02
      9.960  0.3429E+01  0.6348E+02
     10.067  0.3737E+01  0.6388E+02
     10.174  0.4584E+01  0.6437E+02
     10.281  0.4699E+01  0.6487E+02
     10.388  0.4839E+01  0.6539E+02
     10.496  0.4718E+01  0.6590E+02
     10.603  0.5067E+01  0.6644E+02
     10.710  0.4171E+01  0.6689E+02
     10.817  0.3363E+01  0.6725E+02
     10.925  0.3503E+01  0.6762E+02
     11.032  0.5113E+01  0.6817E+02
     11.139  0.6286E+01  0.6884E+02
     11.246  0.6535E+01  0.6954E+02
     11.353  0.5733E+01  0.7016E+02
     11.461  0.5181E+01  0.7071E+02
     11.568  0.5411E+01  0.7129E+02
     11.675  0.5483E+01  0.7188E+02
     11.782  0.5795E+01  0.7250E+02
     11.889  0.8027E+01  0.7336E+02
     11.997  0.9220E+01  0.7435E+02
     12.104  0.9366E+01  0.7536E+02
     12.211  0.8565E+01  0.7628E+02
     12.318  0.6010E+01  0.7692E+02
     12.425  0.4873E+01  0.7744E+02
     12.533  0.5695E+01  0.7805E+02
     12.640  0.5799E+01  0.7867E+02
     12.747  0.4731E+01  0.7918E+02
     12.854  0.4268E+01  0.7964E+02
     12.961  0.4730E+01  0.8015E+02
     13.069  0.6342E+01  0.8083E+02
     13.176  0.6809E+01  0.8156E+02
     13.283  0.6073E+01  0.8221E+02
     13.390  0.6149E+01  0.8287E+02
     13.497  0.5429E+01  0.8345E+02
     13.605  0.4076E+01  0.8389E+02
     13.712  0.3850E+01  0.8430E+02
     13.819  0.3860E+01  0.8471E+02
     13.926  0.4482E+01  0.8519E+02
     14.034  0.6045E+01  0.8584E+02
     14.141  0.6015E+01  0.8649E+02
     14.248  0.4626E+01  0.8698E+02
     14.355  0.5300E+01  0.8755E+02
     14.462  0.5173E+01  0.8810E+02
     14.570  0.4864E+01  0.8863E+02
     14.677  0.5695E+01  0.8924E+02
     14.784  0.5891E+01  0.8987E+02
     14.891  0.4524E+01  0.9035E+02
     14.998  0.4974E+01  0.9089E+02
     15.106  0.5187E+01  0.9144E+02
     15.213  0.4167E+01  0.9189E+02
     15.320  0.5787E+01  0.9251E+02
     15.427  0.8110E+01  0.9338E+02
     15.534  0.6625E+01  0.9409E+02
     15.642  0.5073E+01  0.9463E+02
     15.749  0.2639E+01  0.9492E+02
     15.856  0.1675E+01  0.9509E+02
     15.963  0.1490E+01  0.9525E+02
     16.070  0.9480E+00  0.9536E+02
     16.178  0.8739E+00  0.9545E+02
     16.285  0.1361E+01  0.9560E+02
     16.392  0.2179E+01  0.9583E+02
     16.499  0.1206E+01  0.9596E+02
     16.607  0.3328E+00  0.9599E+02
     16.714  0.4923E-01  0.9600E+02
     16.821  0.1608E-02  0.9600E+02
     16.928  0.7361E-05  0.9600E+02
     17.035  0.3954E-08  0.9600E+02
     17.143  0.2311E-12  0.9600E+02
     17.250  0.0000E+00  0.9600E+02
     17.357  0.0000E+00  0.9600E+02
     17.464  0.0000E+00  0.9600E+02
     17.571  0.0000E+00  0.9600E+02
     17.679  0.0000E+00  0.9600E+02
     17.786  0.0000E+00  0.9600E+02
     17.893  0.0000E+00  0.9600E+02
     18.000  0.0000E+00  0.9600E+02
     18.00020148    -14.16205308  301      2.21074182      1.00000000
    -14.162  0.0000E+00  0.0000E+00  0.0000E+00  0.0000E+00  0.0000E+00  0.0000E+00  0.0000E+00  0.0000E+00  0.0000E+00
    -14.055  0.0000E+00  0.0000E+00  0.0000E+00  0.0000E+00  0.0000E+00  0.0000E+00  0.0000E+00  0.0000E+00  0.0000E+00
    -13.948  0.0000E+00  0.0000E+00  0.0000E+00  0.0000E+00  0.0000E+00  0.0000E+00  0.0000E+00  0.0000E+00  0.0000E+00
    -13.840  0.0000E+00  0.0000E+00  0.0000E+00  0.0000E+00  0.0000E+00  0.0000E+00  0.0000E+00  0.0000E+00  0.0000E+00
    -13.733  0.0000E+00  0.0000E+00  0.0000E+00  0.0000E+00  0.0000E+00  0.0000E+00  0.0000E+00  0.0000E+00  0.0000E+00
    -13.626  0.0000E+00  0.0000E+00  0.0000E+00  0.0000E+00  0.0000E+00  0.0000E+00  0.0000E+00  0.0000E+00  0.0000E+00
    -13.519  0.0000E+00  0.0000E+00  0.0000E+00  0.0000E+00  0.0000E+00  0.0000E+00  0.0000E+00  0.0000E+00  0.0000E+00
    -13.412  0.0000E+00  0.0000E+00  0.0000E+00  0.0000E+00  0.0000E+00  0.0000E+00  0.0000E+00  0.0000E+00  0.0000E+00
    -13.304  0.0000E+00  0.0000E+00  0.0000E+00  0.0000E+00  0.0000E+00  0.0000E+00  0.0000E+00  0.0000E+00  0.0000E+00
    -13.197  0.3734E-13  0.1753E-27  0.7737E-15  0.2876E-14  0.0000E+00  0.0000E+00  0.0000E+00  0.0000E+00  0.0000E+00
    -13.090  0.6979E-09  0.3308E-23  0.1452E-10  0.5378E-10  0.0000E+00  0.0000E+00  0.0000E+00  0.0000E+00  0.0000E+00
    -12.983  0.1441E-05  0.6899E-20  0.3017E-07  0.1111E-06  0.0000E+00  0.0000E+00  0.0000E+00  0.0000E+00  0.0000E+00
    -12.876  0.3516E-03  0.1706E-17  0.7457E-05  0.2713E-04  0.0000E+00  0.0000E+00  0.0000E+00  0.0000E+00  0.0000E+00
    -12.768  0.1173E-01  0.5849E-16  0.2564E-03  0.9071E-03  0.0000E+00  0.0000E+00  0.0000E+00  0.0000E+00  0.0000E+00
    -12.661  0.7127E-01  0.3951E-15  0.1663E-02  0.5555E-02  0.0000E+00  0.0000E+00  0.0000E+00  0.0000E+00  0.0000E+00
    -12.554  0.1169E+00  0.1874E-12  0.2971E-02  0.9386E-02  0.0000E+00  0.0000E+00  0.0000E+00  0.0000E+00  0.0000E+00
    -12.447  0.1176E+00  0.2833E-09  0.3019E-02  0.1018E-01  0.0000E+00  0.0000E+00  0.0000E+00  0.0000E+00  0.0000E+00
    -12.340  0.1932E+00  0.5572E-07  0.5007E-02  0.1787E-01  0.0000E+00  0.0000E+00  0.0000E+00  0.0000E+00  0.0000E+00
    -12.232  0.2426E+00  0.1685E-05  0.7650E-02  0.3374E-01  0.0000E+00  0.0000E+00  0.0000E+00  0.0000E+00  0.0000E+00
    -12.125  0.3161E+00  0.1037E-04  0.1174E-01  0.6106E-01  0.0000E+00  0.0000E+00  0.0000E+00  0.0000E+00  0.0000E+00
    -12.018  0.2118E+00  0.1873E-04  0.8191E-02  0.4373E-01  0.0000E+00  0.0000E+00  0.0000E+00  0.0000E+00  0.0000E+00
    -11.911  0.1464E+00  0.1250E-04  0.6133E-02  0.3308E-01  0.0000E+00  0.0000E+00  0.0000E+00  0.0000E+00  0.0000E+00
    -11.803  0.9464E-01  0.2596E-05  0.5250E-02  0.2683E-01  0.0000E+00  0.0000E+00  0.0000E+00  0.0000E+00  0.0000E+00
    -11.696  0.7018E-01  0.1164E-06  0.6731E-02  0.3131E-01  0.0000E+00  0.0000E+00  0.0000E+00  0.0000E+00  0.0000E+00
    -11.589  0.6780E-01  0.8359E-09  0.7682E-02  0.3629E-01  0.0000E+00  0.0000E+00  0.0000E+00  0.0000E+00  0.0000E+00
    -11.482  0.6549E-01  0.7971E-12  0.8023E-02  0.3914E-01  0.0000E+00  0.0000E+00  0.0000E+00  0.0000E+00  0.0000E+00
    -11.375  0.6290E-01  0.1297E-14  0.8523E-02  0.4085E-01  0.0000E+00  0.0000E+00  0.0000E+00  0.0000E+00  0.0000E+00
    -11.267  0.5027E-01  0.8888E-15  0.7000E-02  0.3555E-01  0.0000E+00  0.0000E+00  0.0000E+00  0.0000E+00  0.0000E+00
    -11.160  0.2108E-01  0.3335E-15  0.2948E-02  0.1566E-01  0.0000E+00  0.0000E+00  0.0000E+00  0.0000E+00  0.0000E+00
    -11.053  0.2027E-02  0.3024E-16  0.2846E-03  0.1532E-02  0.0000E+00  0.0000E+00  0.0000E+00  0.0000E+00  0.0000E+00
    -10.946  0.2925E-04  0.4234E-18  0.4118E-05  0.2227E-04  0.0000E+00  0.0000E+00  0.0000E+00  0.0000E+00  0.0000E+00
    -10.839  0.5251E-07  0.7500E-21  0.7404E-08  0.4014E-07  0.0000E+00  0.0000E+00  0.0000E+00  0.0000E+00  0.0000E+00
    -10.731  0.1070E-10  0.1524E-24  0.1510E-11  0.8197E-11  0.0000E+00  0.0000E+00  0.0000E+00  0.0000E+00  0.0000E+00
    -10.624  0.2347E-15  0.3355E-29  0.3315E-16  0.1801E-15  0.0000E+00  0.0000E+00  0.0000E+00  0.0000E+00  0.0000E+00
    -10.517  0.0000E+00  0.0000E+00  0.0000E+00  0.0000E+00  0.0000E+00  0.0000E+00  0.0000E+00  0.0000E+00  0.0000E+00
    -10.410  0.0000E+00  0.0000E+00  0.0000E+00  0.0000E+00  0.0000E+00  0.0000E+00  0.0000E+00  0.0000E+00  0.0000E+00
    -10.303  0.0000E+00  0.0000E+00  0.0000E+00  0.0000E+00  0.0000E+00  0.0000E+00  0.0000E+00  0.0000E+00  0.0000E+00
    -10.195  0.0000E+00  0.0000E+00  0.0000E+00  0.0000E+00  0.0000E+00  0.0000E+00  0.0000E+00  0.0000E+00  0.0000E+00
    -10.088  0.0000E+00  0.0000E+00  0.0000E+00  0.0000E+00  0.0000E+00  0.0000E+00  0.0000E+00  0.0000E+00  0.0000E+00
     -9.981  0.0000E+00  0.0000E+00  0.0000E+00  0.0000E+00  0.0000E+00  0.0000E+00  0.0000E+00  0.0000E+00  0.0000E+00
     -9.874  0.0000E+00  0.0000E+00  0.0000E+00  0.0000E+00  0.0000E+00  0.0000E+00  0.0000E+00  0.0000E+00  0.0000E+00
     -9.767  0.0000E+00  0.0000E+00  0.0000E+00  0.0000E+00  0.0000E+00  0.0000E+00  0.0000E+00  0.0000E+00  0.0000E+00
     -9.659  0.0000E+00  0.0000E+00  0.0000E+00  0.0000E+00  0.0000E+00  0.0000E+00  0.0000E+00  0.0000E+00  0.0000E+00
     -9.552  0.0000E+00  0.0000E+00  0.0000E+00  0.0000E+00  0.0000E+00  0.0000E+00  0.0000E+00  0.0000E+00  0.0000E+00
     -9.445  0.0000E+00  0.0000E+00  0.0000E+00  0.0000E+00  0.0000E+00  0.0000E+00  0.0000E+00  0.0000E+00  0.0000E+00
     -9.338  0.1005E-13  0.1132E-27  0.2990E-14  0.6553E-16  0.0000E+00  0.0000E+00  0.0000E+00  0.0000E+00  0.0000E+00
     -9.231  0.2401E-09  0.2948E-23  0.7142E-10  0.1586E-11  0.0000E+00  0.0000E+00  0.0000E+00  0.0000E+00  0.0000E+00
     -9.123  0.6309E-06  0.8506E-20  0.1877E-06  0.4258E-08  0.0000E+00  0.0000E+00  0.0000E+00  0.0000E+00  0.0000E+00
     -9.016  0.1939E-03  0.2876E-17  0.5782E-04  0.1375E-05  0.0000E+00  0.0000E+00  0.0000E+00  0.0000E+00  0.0000E+00
     -8.909  0.8008E-02  0.1299E-15  0.2426E-02  0.6616E-04  0.0000E+00  0.0000E+00  0.0000E+00  0.0000E+00  0.0000E+00
     -8.802  0.6314E-01  0.4161E-14  0.2003E-01  0.7372E-03  0.0000E+00  0.0000E+00  0.0000E+00  0.0000E+00  0.0000E+00
     -8.694  0.1964E+00  0.1158E-10  0.5946E-01  0.2613E-02  0.0000E+00  0.0000E+00  0.0000E+00  0.0000E+00  0.0000E+00
     -8.587  0.3441E+00  0.5399E-08  0.9210E-01  0.3664E-02  0.0000E+00  0.0000E+00  0.0000E+00  0.0000E+00  0.0000E+00
     -8.480  0.3768E+00  0.3535E-06  0.1105E+00  0.4936E-02  0.0000E+00  0.0000E+00  0.0000E+00  0.0000E+00  0.0000E+00
     -8.373  0.4757E+00  0.4053E-05  0.1642E+00  0.9005E-02  0.0000E+00  0.0000E+00  0.0000E+00  0.0000E+00  0.0000E+00
     -8.266  0.2974E+00  0.1102E-04  0.1516E+00  0.1154E-01  0.0000E+00  0.0000E+00  0.0000E+00  0.0000E+00  0.0000E+00
     -8.158  0.1752E+00  0.9045E-05  0.1413E+00  0.1377E-01  0.0000E+00  0.0000E+00  0.0000E+00  0.0000E+00  0.0000E+00
     -8.051  0.1175E+00  0.2138E-05  0.1541E+00  0.1670E-01  0.0000E+00  0.0000E+00  0.0000E+00  0.0000E+00  0.0000E+00
     -7.944  0.4947E-01  0.1092E-06  0.9966E-01  0.1309E-01  0.0000E+00  0.0000E+00  0.0000E+00  0.0000E+00  0.0000E+00
     -7.837  0.2162E-01  0.9053E-09  0.5275E-01  0.8536E-02  0.0000E+00  0.0000E+00  0.0000E+00  0.0000E+00  0.0000E+00
     -7.730  0.1521E-01  0.1004E-11  0.4090E-01  0.7141E-02  0.0000E+00  0.0000E+00  0.0000E+00  0.0000E+00  0.0000E+00
     -7.622  0.4392E-02  0.2671E-15  0.1230E-01  0.2173E-02  0.0000E+00  0.0000E+00  0.0000E+00  0.0000E+00  0.0000E+00
     -7.515  0.2324E-03  0.7164E-17  0.6606E-03  0.1171E-03  0.0000E+00  0.0000E+00  0.0000E+00  0.0000E+00  0.0000E+00
     -7.408  0.1692E-05  0.5186E-19  0.4843E-05  0.8588E-06  0.0000E+00  0.0000E+00  0.0000E+00  0.0000E+00  0.0000E+00
     -7.301  0.1659E-08  0.1283E-20  0.8812E-08  0.3257E-07  0.0000E+00  0.0000E+00  0.0000E+00  0.0000E+00  0.0000E+00
     -7.194  0.1316E-06  0.6987E-18  0.2556E-05  0.1767E-04  0.0000E+00  0.0000E+00  0.0000E+00  0.0000E+00  0.0000E+00
     -7.086  0.1204E-04  0.4810E-16  0.1757E-03  0.1207E-02  0.0000E+00  0.0000E+00  0.0000E+00  0.0000E+00  0.0000E+00
     -6.979  0.1817E-03  0.2585E-14  0.1752E-02  0.1187E-01  0.0000E+00  0.0000E+00  0.0000E+00  0.0000E+00  0.0000E+00
     -6.872  0.7122E-03  0.6092E-10  0.3486E-02  0.2272E-01  0.0000E+00  0.0000E+00  0.0000E+00  0.0000E+00  0.0000E+00
     -6.765  0.1209E-02  0.1908E-06  0.2933E-02  0.1751E-01  0.0000E+00  0.0000E+00  0.0000E+00  0.0000E+00  0.0000E+00
     -6.658  0.1768E-02  0.6866E-04  0.4090E-02  0.2366E-01  0.0000E+00  0.0000E+00  0.0000E+00  0.0000E+00  0.0000E+00
     -6.550  0.2502E-02  0.3140E-02  0.6210E-02  0.3570E-01  0.0000E+00  0.0000E+00  0.0000E+00  0.0000E+00  0.0000E+00
     -6.443  0.3167E-02  0.2220E-01  0.5482E-02  0.2991E-01  0.0000E+00  0.0000E+00  0.0000E+00  0.0000E+00  0.0000E+00
     -6.336  0.4013E-02  0.3713E-01  0.4981E-02  0.2473E-01  0.0000E+00  0.0000E+00  0.0000E+00  0.0000E+00  0.0000E+00
     -6.229  0.1591E-01  0.3933E-01  0.1042E-01  0.2861E-01  0.0000E+00  0.0000E+00  0.0000E+00  0.0000E+00  0.0000E+00
     -6.121  0.4882E-01  0.3279E-01  0.2684E-01  0.4235E-01  0.0000E+00  0.0000E+00  0.0000E+00  0.0000E+00  0.0000E+00
     -6.014  0.5232E-01  0.2119E-01  0.2902E-01  0.4614E-01  0.0000E+00  0.0000E+00  0.0000E+00  0.0000E+00  0.0000E+00
     -5.907  0.5032E-01  0.2601E-01  0.2670E-01  0.3470E-01  0.0000E+00  0.0000E+00  0.0000E+00  0.0000E+00  0.0000E+00
     -5.800  0.8873E-01  0.2885E-01  0.4343E-01  0.4649E-01  0.0000E+00  0.0000E+00  0.0000E+00  0.0000E+00  0.0000E+00
     -5.693  0.9501E-01  0.2353E-01  0.5077E-01  0.5996E-01  0.0000E+00  0.0000E+00  0.0000E+00  0.0000E+00  0.0000E+00
     -5.585  0.6115E-01  0.2547E-01  0.3613E-01  0.4571E-01  0.0000E+00  0.0000E+00  0.0000E+00  0.0000E+00  0.0000E+00
     -5.478  0.5517E-01  0.1853E-01  0.2970E-01  0.2885E-01  0.0000E+00  0.0000E+00  0.0000E+00  0.0000E+00  0.0000E+00
     -5.371  0.7624E-01  0.1641E-01  0.3733E-01  0.1668E-01  0.0000E+00  0.0000E+00  0.0000E+00  0.0000E+00  0.0000E+00
     -5.264  0.7549E-01  0.1648E-01  0.3904E-01  0.2072E-01  0.0000E+00  0.0000E+00  0.0000E+00  0.0000E+00  0.0000E+00
     -5.157  0.6253E-01  0.1227E-01  0.3628E-01  0.1796E-01  0.0000E+00  0.0000E+00  0.0000E+00  0.0000E+00  0.0000E+00
     -5.049  0.6091E-01  0.4262E-02  0.3677E-01  0.1979E-01  0.0000E+00  0.0000E+00  0.0000E+00  0.0000E+00  0.0000E+00
     -4.942  0.5409E-01  0.1882E-02  0.3585E-01  0.2436E-01  0.0000E+00  0.0000E+00  0.0000E+00  0.0000E+00  0.0000E+00
     -4.835  0.3603E-01  0.5006E-02  0.2485E-01  0.1279E-01  0.0000E+00  0.0000E+00  0.0000E+00  0.0000E+00  0.0000E+00
     -4.728  0.3055E-01  0.2492E-02  0.2447E-01  0.9735E-02  0.0000E+00  0.0000E+00  0.0000E+00  0.0000E+00  0.0000E+00
     -4.621  0.4274E-01  0.1332E-02  0.5889E-01  0.2199E-01  0.0000E+00  0.0000E+00  0.0000E+00  0.0000E+00  0.0000E+00
     -4.513  0.3769E-01  0.5045E-02  0.8831E-01  0.3592E-01  0.0000E+00  0.0000E+00  0.0000E+00  0.0000E+00  0.0000E+00
     -4.406  0.2344E-01  0.3243E-02  0.8511E-01  0.3771E-01  0.0000E+00  0.0000E+00  0.0000E+00  0.0000E+00  0.0000E+00
     -4.299  0.1955E-01  0.6594E-03  0.7744E-01  0.4222E-01  0.0000E+00  0.0000E+00  0.0000E+00  0.0000E+00  0.0000E+00
     -4.192  0.1880E-01  0.3689E-02  0.5910E-01  0.3920E-01  0.0000E+00  0.0000E+00  0.0000E+00  0.0000E+00  0.0000E+00
     -4.085  0.2185E-01  0.5881E-02  0.5681E-01  0.5209E-01  0.0000E+00  0.0000E+00  0.0000E+00  0.0000E+00  0.0000E+00
     -3.977  0.2207E-01  0.1118E-01  0.5882E-01  0.4848E-01  0.0000E+00  0.0000E+00  0.0000E+00  0.0000E+00  0.0000E+00
     -3.870  0.2248E-01  0.3713E-01  0.6269E-01  0.4507E-01  0.0000E+00  0.0000E+00  0.0000E+00  0.0000E+00  0.0000E+00
     -3.763  0.2694E-01  0.5480E-01  0.7242E-01  0.5804E-01  0.0000E+00  0.0000E+00  0.0000E+00  0.0000E+00  0.0000E+00
     -3.656  0.4154E-01  0.6187E-01  0.1053E+00  0.9642E-01  0.0000E+00  0.0000E+00  0.0000E+00  0.0000E+00  0.0000E+00
     -3.549  0.7060E-01  0.3658E-01  0.1550E+00  0.1649E+00  0.0000E+00  0.0000E+00  0.0000E+00  0.0000E+00  0.0000E+00
     -3.441  0.6806E-01  0.2386E-01  0.1218E+00  0.1437E+00  0.0000E+00  0.0000E+00  0.0000E+00  0.0000E+00  0.0000E+00
     -3.334  0.3601E-01  0.2675E-01  0.6623E-01  0.5896E-01  0.0000E+00  0.0000E+00  0.0000E+00  0.0000E+00  0.0000E+00
     -3.227  0.3025E-01  0.6750E-01  0.6689E-01  0.3147E-01  0.0000E+00  0.0000E+00  0.0000E+00  0.0000E+00  0.0000E+00
     -3.120  0.3775E-01  0.1361E+00  0.4451E-01  0.2583E-01  0.0000E+00  0.0000E+00  0.0000E+00  0.0000E+00  0.0000E+00
     -3.012  0.3254E-01  0.7129E-01  0.1226E-01  0.2354E-01  0.0000E+00  0.0000E+00  0.0000E+00  0.0000E+00  0.0000E+00
     -2.905  0.4237E-01  0.1752E-01  0.1046E-01  0.2939E-01  0.0000E+00  0.0000E+00  0.0000E+00  0.0000E+00  0.0000E+00
     -2.798  0.4602E-01  0.1492E-01  0.1168E-01  0.2995E-01  0.0000E+00  0.0000E+00  0.0000E+00  0.0000E+00  0.0000E+00
     -2.691  0.4603E-01  0.2392E-01  0.1250E-01  0.3771E-01  0.0000E+00  0.0000E+00  0.0000E+00  0.0000E+00  0.0000E+00
     -2.584  0.5032E-01  0.2279E-01  0.1336E-01  0.4672E-01  0.0000E+00  0.0000E+00  0.0000E+00  0.0000E+00  0.0000E+00
     -2.476  0.4009E-01  0.1070E-01  0.8296E-02  0.3831E-01  0.0000E+00  0.0000E+00  0.0000E+00  0.0000E+00  0.0000E+00
     -2.369  0.5121E-01  0.8044E-02  0.1166E-01  0.3782E-01  0.0000E+00  0.0000E+00  0.0000E+00  0.0000E+00  0.0000E+00
     -2.262  0.4307E-01  0.1590E-01  0.1130E-01  0.4127E-01  0.0000E+00  0.0000E+00  0.0000E+00  0.0000E+00  0.0000E+00
     -2.155  0.3446E-01  0.3998E-01  0.1103E-01  0.6066E-01  0.0000E+00  0.0000E+00  0.0000E+00  0.0000E+00  0.0000E+00
     -2.048  0.5587E-01  0.3897E-01  0.2436E-01  0.1190E+00  0.0000E+00  0.0000E+00  0.0000E+00  0.0000E+00  0.0000E+00
     -1.940  0.5295E-01  0.2672E-01  0.5283E-01  0.1385E+00  0.0000E+00  0.0000E+00  0.0000E+00  0.0000E+00  0.0000E+00
     -1.833  0.2640E-01  0.5372E-01  0.7371E-01  0.1178E+00  0.0000E+00  0.0000E+00  0.0000E+00  0.0000E+00  0.0000E+00
     -1.726  0.1667E-01  0.1241E+00  0.6740E-01  0.8912E-01  0.0000E+00  0.0000E+00  0.0000E+00  0.0000E+00  0.0000E+00
     -1.619  0.1546E-01  0.1385E+00  0.6876E-01  0.9949E-01  0.0000E+00  0.0000E+00  0.0000E+00  0.0000E+00  0.0000E+00
     -1.512  0.1555E-01  0.9917E-01  0.6454E-01  0.1419E+00  0.0000E+00  0.0000E+00  0.0000E+00  0.0000E+00  0.0000E+00
     -1.404  0.1199E-01  0.6665E-01  0.4935E-01  0.1553E+00  0.0000E+00  0.0000E+00  0.0000E+00  0.0000E+00  0.0000E+00
     -1.297  0.8597E-02  0.3596E-01  0.3601E-01  0.1332E+00  0.0000E+00  0.0000E+00  0.0000E+00  0.0000E+00  0.0000E+00
     -1.190  0.1098E-01  0.2270E-01  0.3247E-01  0.1245E+00  0.0000E+00  0.0000E+00  0.0000E+00  0.0000E+00  0.0000E+00
     -1.083  0.1721E-01  0.1476E-01  0.3348E-01  0.1471E+00  0.0000E+00  0.0000E+00  0.0000E+00  0.0000E+00  0.0000E+00
     -0.976  0.1892E-01  0.1638E-01  0.2995E-01  0.1254E+00  0.0000E+00  0.0000E+00  0.0000E+00  0.0000E+00  0.0000E+00
     -0.868  0.1687E-01  0.1861E-01  0.2297E-01  0.3766E-01  0.0000E+00  0.0000E+00  0.0000E+00  0.0000E+00  0.0000E+00
     -0.761  0.3922E-01  0.1266E-01  0.2516E-01  0.9741E-02  0.0000E+00  0.0000E+00  0.0000E+00  0.0000E+00  0.0000E+00
     -0.654  0.6954E-01  0.1109E-01  0.3356E-01  0.1034E-01  0.0000E+00  0.0000E+00  0.0000E+00  0.0000E+00  0.0000E+00
     -0.547  0.4889E-01  0.2399E-01  0.3320E-01  0.1194E-01  0.0000E+00  0.0000E+00  0.0000E+00  0.0000E+00  0.0000E+00
     -0.439  0.2308E-01  0.4730E-01  0.3181E-01  0.1332E-01  0.0000E+00  0.0000E+00  0.0000E+00  0.0000E+00  0.0000E+00
     -0.332  0.1574E-01  0.7807E-01  0.3545E-01  0.1416E-01  0.0000E+00  0.0000E+00  0.0000E+00  0.0000E+00  0.0000E+00
     -0.225  0.1467E-01  0.1059E+00  0.4966E-01  0.1514E-01  0.0000E+00  0.0000E+00  0.0000E+00  0.0000E+00  0.0000E+00
     -0.118  0.1557E-01  0.9260E-01  0.6998E-01  0.1565E-01  0.0000E+00  0.0000E+00  0.0000E+00  0.0000E+00  0.0000E+00
     -0.011  0.1552E-01  0.1112E+00  0.6141E-01  0.2047E-01  0.0000E+00  0.0000E+00  0.0000E+00  0.0000E+00  0.0000E+00
      0.097  0.3434E-01  0.1482E+00  0.6157E-01  0.4861E-01  0.0000E+00  0.0000E+00  0.0000E+00  0.0000E+00  0.0000E+00
      0.204  0.5726E-01  0.1422E+00  0.6914E-01  0.8488E-01  0.0000E+00  0.0000E+00  0.0000E+00  0.0000E+00  0.0000E+00
      0.311  0.6815E-01  0.1377E+00  0.8626E-01  0.1131E+00  0.0000E+00  0.0000E+00  0.0000E+00  0.0000E+00  0.0000E+00
      0.418  0.4673E-01  0.9970E-01  0.5838E-01  0.7992E-01  0.0000E+00  0.0000E+00  0.0000E+00  0.0000E+00  0.0000E+00
      0.525  0.1376E-01  0.3796E-01  0.3343E-01  0.4101E-01  0.0000E+00  0.0000E+00  0.0000E+00  0.0000E+00  0.0000E+00
      0.633  0.9550E-02  0.1187E-01  0.4672E-01  0.3366E-01  0.0000E+00  0.0000E+00  0.0000E+00  0.0000E+00  0.0000E+00
      0.740  0.9392E-02  0.1031E-01  0.5555E-01  0.2437E-01  0.0000E+00  0.0000E+00  0.0000E+00  0.0000E+00  0.0000E+00
      0.847  0.8644E-02  0.1793E-01  0.4907E-01  0.2648E-01  0.0000E+00  0.0000E+00  0.0000E+00  0.0000E+00  0.0000E+00
      0.954  0.1076E-01  0.1846E-01  0.7347E-01  0.3859E-01  0.0000E+00  0.0000E+00  0.0000E+00  0.0000E+00  0.0000E+00
      1.061  0.1796E-01  0.1213E-01  0.1327E+00  0.7426E-01  0.0000E+00  0.0000E+00  0.0000E+00  0.0000E+00  0.0000E+00
      1.169  0.1591E-01  0.1382E-01  0.1079E+00  0.7140E-01  0.0000E+00  0.0000E+00  0.0000E+00  0.0000E+00  0.0000E+00
      1.276  0.5281E-02  0.2683E-01  0.3093E-01  0.2432E-01  0.0000E+00  0.0000E+00  0.0000E+00  0.0000E+00  0.0000E+00
      1.383  0.1378E-02  0.4732E-01  0.7531E-02  0.7430E-02  0.0000E+00  0.0000E+00  0.0000E+00  0.0000E+00  0.0000E+00
      1.490  0.1316E-02  0.5707E-01  0.7084E-02  0.8524E-02  0.0000E+00  0.0000E+00  0.0000E+00  0.0000E+00  0.0000E+00
      1.597  0.1345E-02  0.6531E-01  0.7089E-02  0.8827E-02  0.0000E+00  0.0000E+00  0.0000E+00  0.0000E+00  0.0000E+00
      1.705  0.1109E-02  0.7840E-01  0.6572E-02  0.7659E-02  0.0000E+00  0.0000E+00  0.0000E+00  0.0000E+00  0.0000E+00
      1.812  0.8941E-03  0.8260E-01  0.5770E-02  0.6730E-02  0.0000E+00  0.0000E+00  0.0000E+00  0.0000E+00  0.0000E+00
      1.919  0.1017E-02  0.7752E-01  0.6556E-02  0.8195E-02  0.0000E+00  0.0000E+00  0.0000E+00  0.0000E+00  0.0000E+00
      2.026  0.1086E-02  0.7345E-01  0.6690E-02  0.7654E-02  0.0000E+00  0.0000E+00  0.0000E+00  0.0000E+00  0.0000E+00
      2.133  0.1139E-02  0.7370E-01  0.6340E-02  0.6316E-02  0.0000E+00  0.0000E+00  0.0000E+00  0.0000E+00  0.0000E+00
      2.241  0.2066E-02  0.6214E-01  0.9116E-02  0.7229E-02  0.0000E+00  0.0000E+00  0.0000E+00  0.0000E+00  0.0000E+00
      2.348  0.3423E-02  0.5641E-01  0.1281E-01  0.7633E-02  0.0000E+00  0.0000E+00  0.0000E+00  0.0000E+00  0.0000E+00
      2.455  0.4907E-02  0.6693E-01  0.1664E-01  0.7047E-02  0.0000E+00  0.0000E+00  0.0000E+00  0.0000E+00  0.0000E+00
      2.562  0.4043E-02  0.6552E-01  0.1386E-01  0.4784E-02  0.0000E+00  0.0000E+00  0.0000E+00  0.0000E+00  0.0000E+00