 running   24 mpi-ranks, with    1 threads/rank, on    1 nodes
 distrk:  each k-point on   24 cores,    1 groups
 distr:  one band on    1 cores,   24 groups
 vasp.6.4.3 19Mar24 (build May 31 2024 16:31:43) complex                        
  
 POSCAR found type information on POSCAR B 
 POSCAR found :  1 types and      14 ions
 Reading from existing POTCAR
 scaLAPACK will be used
 Reading from existing POTCAR
 LDA part: xc-table for (Slater+PW92), standard interpolation
 POSCAR, INCAR and KPOINTS ok, starting setup
 FFT: planning ... GRIDC
 FFT: planning ... GRID_SOFT
 FFT: planning ... GRID
 WAVECAR not read
 entering main loop
       N       E                     dE             d eps       ncg     rms          rms(c)
DAV:   1     0.983716314066E+02    0.98372E+02   -0.21816E+04120960   0.973E+02
DAV:   2    -0.908921869794E+02   -0.18926E+03   -0.17670E+03164664   0.179E+02
DAV:   3    -0.976049911416E+02   -0.67128E+01   -0.66665E+01179520   0.299E+01
DAV:   4    -0.976450360306E+02   -0.40045E-01   -0.40043E-01140856   0.268E+00
DAV:   5    -0.976454704021E+02   -0.43437E-03   -0.43436E-03179736   0.266E-01    0.123E+01
DAV:   6    -0.922314015445E+02    0.54141E+01   -0.39472E+00175176   0.658E+00    0.680E+00
DAV:   7    -0.905804434656E+02    0.16510E+01   -0.32089E+00180456   0.586E+00    0.172E+00
DAV:   8    -0.905915192175E+02   -0.11076E-01   -0.22961E-01133080   0.166E+00    0.751E-01
DAV:   9    -0.906061897716E+02   -0.14671E-01   -0.17569E-02170448   0.458E-01    0.206E-01
DAV:  10    -0.906105661863E+02   -0.43764E-02   -0.26236E-03134184   0.181E-01    0.665E-02
DAV:  11    -0.906117483103E+02   -0.11821E-02   -0.69100E-04158784   0.926E-02    0.337E-02
DAV:  12    -0.906118485252E+02   -0.10021E-03   -0.69324E-05151560   0.331E-02    0.657E-03
DAV:  13    -0.906118582913E+02   -0.97661E-05   -0.76127E-06166248   0.112E-02    0.205E-03
DAV:  14    -0.906118593725E+02   -0.10812E-05   -0.65947E-07153360   0.366E-03    0.712E-04
DAV:  15    -0.906118595659E+02   -0.19340E-06   -0.12700E-07144792   0.162E-03
   1 F= -.90611860E+02 E0= -.90610033E+02  d E =-.365334E-02
