 running   24 mpi-ranks, with    1 threads/rank, on    1 nodes
 distrk:  each k-point on   24 cores,    1 groups
 distr:  one band on    1 cores,   24 groups
 vasp.6.4.3 19Mar24 (build May 31 2024 16:31:43) complex                        
  
 POSCAR found type information on POSCAR B 
 POSCAR found :  1 types and      14 ions
 Reading from existing POTCAR
 scaLAPACK will be used
 Reading from existing POTCAR
 LDA part: xc-table for (Slater+PW92), standard interpolation
 POSCAR, INCAR and KPOINTS ok, starting setup
 FFT: planning ... GRIDC
 FFT: planning ... GRID_SOFT
 FFT: planning ... GRID
 WAVECAR not read
 entering main loop
       N       E                     dE             d eps       ncg     rms          rms(c)
DAV:   1     0.983716314066E+02    0.98372E+02   -0.21816E+04120960   0.973E+02
DAV:   2    -0.908921869794E+02   -0.18926E+03   -0.17670E+03164664   0.179E+02
DAV:   3    -0.976049911416E+02   -0.67128E+01   -0.66665E+01179520   0.299E+01
DAV:   4    -0.976450360306E+02   -0.40045E-01   -0.40043E-01140856   0.268E+00
DAV:   5    -0.976454704021E+02   -0.43437E-03   -0.43436E-03179736   0.266E-01    0.123E+01
DAV:   6    -0.922314015445E+02    0.54141E+01   -0.39472E+00175176   0.658E+00    0.680E+00
DAV:   7    -0.905804434656E+02    0.16510E+01   -0.32089E+00180456   0.586E+00    0.172E+00
DAV:   8    -0.905915192175E+02   -0.11076E-01   -0.22961E-01133080   0.166E+00    0.751E-01
