   1   1   0   0
  0.3384121E+04  0.1501350E-08  0.1251125E-08  0.1801620E-08  0.5000000E-15
  1.000000000000000E-004
  CAR 
 Convergence                             
      2.49004322     -9.97666553  301     -3.60729063      1.00000000
     -9.977  0.0000E+00  0.0000E+00
     -9.935  0.0000E+00  0.0000E+00
     -9.894  0.0000E+00  0.0000E+00
     -9.852  0.0000E+00  0.0000E+00
     -9.810  0.0000E+00  0.0000E+00
     -9.769  0.0000E+00  0.0000E+00
     -9.727  0.0000E+00  0.0000E+00
     -9.686  0.1496E-12  0.6217E-14
     -9.644  0.8364E-09  0.3476E-10
     -9.603  0.1215E-05  0.5052E-07
     -9.561  0.4606E-03  0.1919E-04
     -9.520  0.4631E-01  0.1944E-02
     -9.478  0.1263E+01  0.5444E-01
     -9.436  0.9627E+01  0.4545E+00
     -9.395  0.2109E+02  0.1331E+01
     -9.353  0.1348E+02  0.1891E+01
     -9.312  0.2491E+01  0.1995E+01
     -9.270  0.1297E+00  0.2000E+01
     -9.229  0.1846E-02  0.2000E+01
     -9.187  0.7007E-05  0.2000E+01
     -9.146  0.6967E-08  0.2000E+01
     -9.104  0.1795E-11  0.2000E+01
     -9.062  0.0000E+00  0.2000E+01
     -9.021  0.0000E+00  0.2000E+01
     -8.979  0.0000E+00  0.2000E+01
     -8.938  0.0000E+00  0.2000E+01
     -8.896  0.0000E+00  0.2000E+01
     -8.855  0.0000E+00  0.2000E+01
     -8.813  0.0000E+00  0.2000E+01
     -8.772  0.0000E+00  0.2000E+01
     -8.730  0.0000E+00  0.2000E+01
     -8.688  0.0000E+00  0.2000E+01
     -8.647  0.0000E+00  0.2000E+01
     -8.605  0.0000E+00  0.2000E+01
     -8.564  0.0000E+00  0.2000E+01
     -8.522  0.0000E+00  0.2000E+01
     -8.481  0.0000E+00  0.2000E+01
     -8.439  0.0000E+00  0.2000E+01
     -8.398  0.0000E+00  0.2000E+01
     -8.356  0.0000E+00  0.2000E+01
     -8.314  0.0000E+00  0.2000E+01
     -8.273  0.0000E+00  0.2000E+01
     -8.231  0.0000E+00  0.2000E+01
     -8.190  0.0000E+00  0.2000E+01
     -8.148  0.0000E+00  0.2000E+01
     -8.107  0.0000E+00  0.2000E+01
     -8.065  0.0000E+00  0.2000E+01
     -8.024  0.0000E+00  0.2000E+01
     -7.982  0.0000E+00  0.2000E+01
     -7.940  0.0000E+00  0.2000E+01
     -7.899  0.0000E+00  0.2000E+01
     -7.857  0.0000E+00  0.2000E+01
     -7.816  0.0000E+00  0.2000E+01
     -7.774  0.0000E+00  0.2000E+01
     -7.733  0.0000E+00  0.2000E+01
     -7.691  0.0000E+00  0.2000E+01
     -7.650  0.0000E+00  0.2000E+01
     -7.608  0.0000E+00  0.2000E+01
     -7.566  0.0000E+00  0.2000E+01
     -7.525  0.0000E+00  0.2000E+01
     -7.483  0.0000E+00  0.2000E+01
     -7.442  0.0000E+00  0.2000E+01
     -7.400  0.0000E+00  0.2000E+01
     -7.359  0.0000E+00  0.2000E+01
     -7.317  0.0000E+00  0.2000E+01
     -7.276  0.0000E+00  0.2000E+01
     -7.234  0.0000E+00  0.2000E+01
     -7.192  0.0000E+00  0.2000E+01
     -7.151  0.0000E+00  0.2000E+01
     -7.109  0.0000E+00  0.2000E+01
     -7.068  0.0000E+00  0.2000E+01
     -7.026  0.0000E+00  0.2000E+01
     -6.985  0.0000E+00  0.2000E+01
     -6.943  0.0000E+00  0.2000E+01
     -6.902  0.0000E+00  0.2000E+01
     -6.860  0.0000E+00  0.2000E+01
     -6.818  0.0000E+00  0.2000E+01
     -6.777  0.0000E+00  0.2000E+01
     -6.735  0.0000E+00  0.2000E+01
     -6.694  0.0000E+00  0.2000E+01
     -6.652  0.0000E+00  0.2000E+01
     -6.611  0.0000E+00  0.2000E+01
     -6.569  0.0000E+00  0.2000E+01
     -6.528  0.0000E+00  0.2000E+01
     -6.486  0.0000E+00  0.2000E+01
     -6.444  0.0000E+00  0.2000E+01
     -6.403  0.0000E+00  0.2000E+01
     -6.361  0.0000E+00  0.2000E+01
     -6.320  0.0000E+00  0.2000E+01
     -6.278  0.0000E+00  0.2000E+01
     -6.237  0.0000E+00  0.2000E+01
     -6.195  0.0000E+00  0.2000E+01
     -6.154  0.0000E+00  0.2000E+01
     -6.112  0.0000E+00  0.2000E+01
     -6.070  0.0000E+00  0.2000E+01
     -6.029  0.0000E+00  0.2000E+01
     -5.987  0.0000E+00  0.2000E+01
     -5.946  0.0000E+00  0.2000E+01
     -5.904  0.0000E+00  0.2000E+01
     -5.863  0.0000E+00  0.2000E+01
     -5.821  0.0000E+00  0.2000E+01
     -5.780  0.0000E+00  0.2000E+01
     -5.738  0.0000E+00  0.2000E+01
     -5.696  0.0000E+00  0.2000E+01
     -5.655  0.0000E+00  0.2000E+01
     -5.613  0.0000E+00  0.2000E+01
     -5.572  0.0000E+00  0.2000E+01
     -5.530  0.0000E+00  0.2000E+01
     -5.489  0.0000E+00  0.2000E+01
     -5.447  0.0000E+00  0.2000E+01
     -5.406  0.0000E+00  0.2000E+01
     -5.364  0.0000E+00  0.2000E+01
     -5.322  0.0000E+00  0.2000E+01
     -5.281  0.0000E+00  0.2000E+01
     -5.239  0.0000E+00  0.2000E+01
     -5.198  0.0000E+00  0.2000E+01
     -5.156  0.0000E+00  0.2000E+01
     -5.115  0.0000E+00  0.2000E+01
     -5.073  0.0000E+00  0.2000E+01
     -5.032  0.0000E+00  0.2000E+01
     -4.990  0.0000E+00  0.2000E+01
     -4.948  0.0000E+00  0.2000E+01
     -4.907  0.0000E+00  0.2000E+01
     -4.865  0.0000E+00  0.2000E+01
     -4.824  0.0000E+00  0.2000E+01
     -4.782  0.0000E+00  0.2000E+01
     -4.741  0.0000E+00  0.2000E+01
     -4.699  0.0000E+00  0.2000E+01
     -4.658  0.0000E+00  0.2000E+01
     -4.616  0.0000E+00  0.2000E+01
     -4.574  0.0000E+00  0.2000E+01
     -4.533  0.0000E+00  0.2000E+01
     -4.491  0.0000E+00  0.2000E+01
     -4.450  0.0000E+00  0.2000E+01
     -4.408  0.0000E+00  0.2000E+01
     -4.367  0.0000E+00  0.2000E+01
     -4.325  0.0000E+00  0.2000E+01
     -4.284  0.0000E+00  0.2000E+01
     -4.242  0.0000E+00  0.2000E+01
     -4.200  0.0000E+00  0.2000E+01
     -4.159  0.0000E+00  0.2000E+01
     -4.117  0.0000E+00  0.2000E+01
     -4.076  0.0000E+00  0.2000E+01
     -4.034  0.0000E+00  0.2000E+01
     -3.993  0.0000E+00  0.2000E+01
     -3.951  0.0000E+00  0.2000E+01
     -3.910  0.0000E+00  0.2000E+01
     -3.868  0.8015E-14  0.2000E+01
     -3.826  0.5598E-10  0.2000E+01
     -3.785  0.1514E-06  0.2000E+01
     -3.743  0.1063E-03  0.2000E+01
     -3.702  0.1963E-01  0.2001E+01
     -3.660  0.9724E+00  0.2041E+01
     -3.619  0.1327E+02  0.2593E+01
     -3.577  0.5143E+02  0.4730E+01
     -3.536  0.5790E+02  0.7136E+01
     -3.494  0.1898E+02  0.7924E+01
     -3.452  0.1776E+01  0.7998E+01
     -3.411  0.4607E-01  0.8000E+01
     -3.369  0.3220E-03  0.8000E+01
     -3.328  0.5938E-06  0.8000E+01
     -3.286  0.2849E-09  0.8000E+01
     -3.245  0.3206E-13  0.8000E+01
     -3.203  0.0000E+00  0.8000E+01
     -3.162  0.0000E+00  0.8000E+01
     -3.120  0.0000E+00  0.8000E+01
     -3.078  0.0000E+00  0.8000E+01
     -3.037  0.0000E+00  0.8000E+01
     -2.995  0.0000E+00  0.8000E+01
     -2.954  0.0000E+00  0.8000E+01
     -2.912  0.0000E+00  0.8000E+01
     -2.871  0.0000E+00  0.8000E+01
     -2.829  0.0000E+00  0.8000E+01
     -2.788  0.0000E+00  0.8000E+01
     -2.746  0.0000E+00  0.8000E+01
     -2.704  0.0000E+00  0.8000E+01
     -2.663  0.0000E+00  0.8000E+01
     -2.621  0.0000E+00  0.8000E+01
     -2.580  0.0000E+00  0.8000E+01
     -2.538  0.0000E+00  0.8000E+01
     -2.497  0.0000E+00  0.8000E+01
     -2.455  0.0000E+00  0.8000E+01
     -2.414  0.0000E+00  0.8000E+01
     -2.372  0.0000E+00  0.8000E+01
     -2.330  0.0000E+00  0.8000E+01
     -2.289  0.0000E+00  0.8000E+01
     -2.247  0.0000E+00  0.8000E+01
     -2.206  0.0000E+00  0.8000E+01
     -2.164  0.0000E+00  0.8000E+01
     -2.123  0.0000E+00  0.8000E+01
     -2.081  0.0000E+00  0.8000E+01
     -2.040  0.0000E+00  0.8000E+01
     -1.998  0.0000E+00  0.8000E+01
     -1.956  0.0000E+00  0.8000E+01
     -1.915  0.0000E+00  0.8000E+01
     -1.873  0.0000E+00  0.8000E+01
     -1.832  0.0000E+00  0.8000E+01
     -1.790  0.0000E+00  0.8000E+01
     -1.749  0.0000E+00  0.8000E+01
     -1.707  0.0000E+00  0.8000E+01
     -1.666  0.0000E+00  0.8000E+01
     -1.624  0.0000E+00  0.8000E+01
     -1.582  0.0000E+00  0.8000E+01
     -1.541  0.0000E+00  0.8000E+01
     -1.499  0.0000E+00  0.8000E+01
     -1.458  0.0000E+00  0.8000E+01
     -1.416  0.0000E+00  0.8000E+01
     -1.375  0.0000E+00  0.8000E+01
     -1.333  0.0000E+00  0.8000E+01
     -1.292  0.0000E+00  0.8000E+01
     -1.250  0.0000E+00  0.8000E+01
     -1.208  0.0000E+00  0.8000E+01
     -1.167  0.0000E+00  0.8000E+01
     -1.125  0.0000E+00  0.8000E+01
     -1.084  0.0000E+00  0.8000E+01
     -1.042  0.0000E+00  0.8000E+01
     -1.001  0.0000E+00  0.8000E+01
     -0.959  0.0000E+00  0.8000E+01
     -0.918  0.0000E+00  0.8000E+01
     -0.876  0.0000E+00  0.8000E+01
     -0.834  0.0000E+00  0.8000E+01
     -0.793  0.0000E+00  0.8000E+01
     -0.751  0.0000E+00  0.8000E+01
     -0.710  0.0000E+00  0.8000E+01
     -0.668  0.0000E+00  0.8000E+01
     -0.627  0.0000E+00  0.8000E+01
     -0.585  0.0000E+00  0.8000E+01
     -0.544  0.3138E-15  0.8000E+01
     -0.502  0.2559E-11  0.8000E+01
     -0.460  0.5480E-08  0.8000E+01
     -0.419  0.3228E-05  0.8000E+01
     -0.377  0.5422E-03  0.8000E+01
     -0.336  0.2744E-01  0.8001E+01
     -0.294  0.4542E+00  0.8020E+01
     -0.253  0.2771E+01  0.8135E+01
     -0.211  0.7384E+01  0.8442E+01
     -0.170  0.1064E+02  0.8884E+01
     -0.128  0.1053E+02  0.9322E+01
     -0.086  0.8689E+01  0.9683E+01
     -0.045  0.5399E+01  0.9907E+01
     -0.003  0.1935E+01  0.9988E+01
      0.038  0.6485E+00  0.1001E+02
      0.080  0.1918E+01  0.1009E+02
      0.121  0.5449E+01  0.1032E+02
      0.163  0.1008E+02  0.1074E+02
      0.204  0.1384E+02  0.1131E+02
      0.246  0.1560E+02  0.1196E+02
      0.288  0.1582E+02  0.1262E+02
      0.329  0.1593E+02  0.1328E+02
      0.371  0.1622E+02  0.1396E+02
      0.412  0.1651E+02  0.1464E+02
      0.454  0.1753E+02  0.1537E+02
      0.495  0.1850E+02  0.1614E+02
      0.537  0.1852E+02  0.1691E+02
      0.578  0.1897E+02  0.1770E+02
      0.620  0.1989E+02  0.1852E+02
      0.662  0.2038E+02  0.1937E+02
      0.703  0.2100E+02  0.2024E+02
      0.745  0.2239E+02  0.2117E+02
      0.786  0.2249E+02  0.2211E+02
      0.828  0.2189E+02  0.2302E+02
      0.869  0.2330E+02  0.2399E+02
      0.911  0.2456E+02  0.2501E+02
      0.952  0.2428E+02  0.2602E+02
      0.994  0.2486E+02  0.2705E+02
      1.036  0.2593E+02  0.2813E+02
      1.077  0.2606E+02  0.2921E+02
      1.119  0.2611E+02  0.3030E+02
      1.160  0.2684E+02  0.3141E+02
      1.202  0.2775E+02  0.3256E+02
      1.243  0.2740E+02  0.3370E+02
      1.285  0.2752E+02  0.3485E+02
      1.326  0.2860E+02  0.3603E+02
      1.368  0.2868E+02  0.3723E+02
      1.410  0.2837E+02  0.3840E+02
      1.451  0.2935E+02  0.3962E+02
      1.493  0.3094E+02  0.4091E+02
      1.534  0.3012E+02  0.4216E+02
      1.576  0.2962E+02  0.4339E+02
      1.617  0.3014E+02  0.4465E+02
      1.659  0.2782E+02  0.4580E+02
      1.700  0.2137E+02  0.4669E+02
      1.742  0.1417E+02  0.4728E+02
      1.784  0.8407E+01  0.4763E+02
      1.825  0.4839E+01  0.4783E+02
      1.867  0.2593E+01  0.4794E+02
      1.908  0.1099E+01  0.4798E+02
      1.950  0.3488E+00  0.4800E+02
      1.991  0.7356E-01  0.4800E+02
      2.033  0.7121E-02  0.4800E+02
      2.074  0.2281E-03  0.4800E+02
      2.116  0.2089E-05  0.4800E+02
      2.158  0.5175E-08  0.4800E+02
      2.199  0.3383E-11  0.4800E+02
      2.241  0.5767E-15  0.4800E+02
      2.282  0.0000E+00  0.4800E+02
      2.324  0.0000E+00  0.4800E+02
      2.365  0.0000E+00  0.4800E+02
      2.407  0.0000E+00  0.4800E+02
      2.448  0.0000E+00  0.4800E+02
      2.490  0.0000E+00  0.4800E+02
