  14  14   0   0
  0.1021318E+02  0.5700971E-09  0.4044058E-09  0.6201871E-09  0.5000000E-15
  1.000000000000000E-004
  CAR 
 Dielectric                              
     46.58965945    -15.52274195 4000      1.91603376      1.00000000
    -15.523  0.0000E+00  0.0000E+00
    -15.507  0.0000E+00  0.0000E+00
    -15.492  0.0000E+00  0.0000E+00
    -15.476  0.0000E+00  0.0000E+00
    -15.461  0.0000E+00  0.0000E+00
    -15.445  0.0000E+00  0.0000E+00
    -15.430  0.0000E+00  0.0000E+00
    -15.414  0.0000E+00  0.0000E+00
    -15.398  0.0000E+00  0.0000E+00
    -15.383  0.0000E+00  0.0000E+00
    -15.367  0.0000E+00  0.0000E+00
    -15.352  0.0000E+00  0.0000E+00
    -15.336  0.0000E+00  0.0000E+00
    -15.321  0.0000E+00  0.0000E+00
    -15.305  0.0000E+00  0.0000E+00
    -15.290  0.0000E+00  0.0000E+00
    -15.274  0.0000E+00  0.0000E+00
    -15.259  0.0000E+00  0.0000E+00
    -15.243  0.0000E+00  0.0000E+00
    -15.228  0.0000E+00  0.0000E+00
    -15.212  0.0000E+00  0.0000E+00
    -15.197  0.0000E+00  0.0000E+00
    -15.181  0.0000E+00  0.0000E+00
    -15.166  0.0000E+00  0.0000E+00
    -15.150  0.0000E+00  0.0000E+00
    -15.134  0.0000E+00  0.0000E+00
    -15.119  0.0000E+00  0.0000E+00
    -15.103  0.0000E+00  0.0000E+00
    -15.088  0.0000E+00  0.0000E+00
    -15.072  0.0000E+00  0.0000E+00
    -15.057  0.0000E+00  0.0000E+00
    -15.041  0.0000E+00  0.0000E+00
    -15.026  0.0000E+00  0.0000E+00
    -15.010  0.0000E+00  0.0000E+00
    -14.995  0.0000E+00  0.0000E+00
    -14.979  0.0000E+00  0.0000E+00
    -14.964  0.0000E+00  0.0000E+00
    -14.948  0.0000E+00  0.0000E+00
    -14.933  0.0000E+00  0.0000E+00
    -14.917  0.0000E+00  0.0000E+00
    -14.901  0.0000E+00  0.0000E+00
    -14.886  0.0000E+00  0.0000E+00
    -14.870  0.0000E+00  0.0000E+00
    -14.855  0.0000E+00  0.0000E+00
    -14.839  0.0000E+00  0.0000E+00
    -14.824  0.0000E+00  0.0000E+00
    -14.808  0.0000E+00  0.0000E+00
    -14.793  0.0000E+00  0.0000E+00
    -14.777  0.0000E+00  0.0000E+00
    -14.762  0.0000E+00  0.0000E+00
    -14.746  0.0000E+00  0.0000E+00
    -14.731  0.0000E+00  0.0000E+00
    -14.715  0.0000E+00  0.0000E+00
    -14.700  0.0000E+00  0.0000E+00
    -14.684  0.0000E+00  0.0000E+00
    -14.668  0.0000E+00  0.0000E+00
    -14.653  0.0000E+00  0.0000E+00
    -14.637  0.0000E+00  0.0000E+00
    -14.622  0.0000E+00  0.0000E+00
    -14.606  0.0000E+00  0.0000E+00
    -14.591  0.0000E+00  0.0000E+00
    -14.575  0.0000E+00  0.0000E+00
    -14.560  0.0000E+00  0.0000E+00
    -14.544  0.0000E+00  0.0000E+00
    -14.529  0.0000E+00  0.0000E+00
    -14.513  0.0000E+00  0.0000E+00
    -14.498  0.0000E+00  0.0000E+00
    -14.482  0.0000E+00  0.0000E+00
    -14.467  0.0000E+00  0.0000E+00
    -14.451  0.0000E+00  0.0000E+00
    -14.436  0.0000E+00  0.0000E+00
    -14.420  0.0000E+00  0.0000E+00
    -14.404  0.0000E+00  0.0000E+00
    -14.389  0.0000E+00  0.0000E+00
    -14.373  0.0000E+00  0.0000E+00
    -14.358  0.0000E+00  0.0000E+00
    -14.342  0.0000E+00  0.0000E+00
    -14.327  0.0000E+00  0.0000E+00
    -14.311  0.0000E+00  0.0000E+00
    -14.296  0.0000E+00  0.0000E+00
    -14.280  0.0000E+00  0.0000E+00
    -14.265  0.0000E+00  0.0000E+00
    -14.249  0.0000E+00  0.0000E+00
    -14.234  0.0000E+00  0.0000E+00
    -14.218  0.0000E+00  0.0000E+00
    -14.203  0.0000E+00  0.0000E+00
    -14.187  0.0000E+00  0.0000E+00
    -14.171  0.0000E+00  0.0000E+00
    -14.156  0.0000E+00  0.0000E+00
    -14.140  0.0000E+00  0.0000E+00
    -14.125  0.0000E+00  0.0000E+00
    -14.109  0.0000E+00  0.0000E+00
    -14.094  0.0000E+00  0.0000E+00
    -14.078  0.0000E+00  0.0000E+00
    -14.063  0.0000E+00  0.0000E+00
    -14.047  0.0000E+00  0.0000E+00
    -14.032  0.0000E+00  0.0000E+00
    -14.016  0.0000E+00  0.0000E+00
    -14.001  0.0000E+00  0.0000E+00
    -13.985  0.0000E+00  0.0000E+00
    -13.970  0.0000E+00  0.0000E+00
    -13.954  0.0000E+00  0.0000E+00
    -13.938  0.0000E+00  0.0000E+00
    -13.923  0.0000E+00  0.0000E+00
    -13.907  0.0000E+00  0.0000E+00
    -13.892  0.0000E+00  0.0000E+00
    -13.876  0.0000E+00  0.0000E+00
    -13.861  0.0000E+00  0.0000E+00
    -13.845  0.0000E+00  0.0000E+00
    -13.830  0.0000E+00  0.0000E+00
    -13.814  0.0000E+00  0.0000E+00
    -13.799  0.0000E+00  0.0000E+00
    -13.783  0.0000E+00  0.0000E+00
    -13.768  0.0000E+00  0.0000E+00
    -13.752  0.0000E+00  0.0000E+00
    -13.737  0.0000E+00  0.0000E+00
    -13.721  0.0000E+00  0.0000E+00
    -13.705  0.0000E+00  0.0000E+00
    -13.690  0.0000E+00  0.0000E+00
    -13.674  0.0000E+00  0.0000E+00
    -13.659  0.0000E+00  0.0000E+00
    -13.643  0.0000E+00  0.0000E+00
    -13.628  0.0000E+00  0.0000E+00
    -13.612  0.0000E+00  0.0000E+00
    -13.597  0.0000E+00  0.0000E+00
    -13.581  0.0000E+00  0.0000E+00
    -13.566  0.0000E+00  0.0000E+00
    -13.550  0.0000E+00  0.0000E+00
    -13.535  0.0000E+00  0.0000E+00
    -13.519  0.0000E+00  0.0000E+00
    -13.504  0.0000E+00  0.0000E+00
    -13.488  0.0000E+00  0.0000E+00
    -13.473  0.0000E+00  0.0000E+00
    -13.457  0.0000E+00  0.0000E+00
    -13.441  0.0000E+00  0.0000E+00
    -13.426  0.0000E+00  0.0000E+00
    -13.410  0.0000E+00  0.0000E+00
    -13.395  0.0000E+00  0.0000E+00
    -13.379  0.0000E+00  0.0000E+00
    -13.364  0.0000E+00  0.0000E+00
    -13.348  0.0000E+00  0.0000E+00
    -13.333  0.0000E+00  0.0000E+00
    -13.317  0.0000E+00  0.0000E+00
    -13.302  0.0000E+00  0.0000E+00
    -13.286  0.0000E+00  0.0000E+00
    -13.271  0.0000E+00  0.0000E+00
    -13.255  0.0000E+00  0.0000E+00
    -13.240  0.0000E+00  0.0000E+00
    -13.224  0.0000E+00  0.0000E+00
    -13.208  0.0000E+00  0.0000E+00
    -13.193  0.0000E+00  0.0000E+00
    -13.177  0.0000E+00  0.0000E+00
    -13.162  0.0000E+00  0.0000E+00
    -13.146  0.0000E+00  0.0000E+00
    -13.131  0.0000E+00  0.0000E+00
    -13.115  0.0000E+00  0.0000E+00
    -13.100  0.0000E+00  0.0000E+00
    -13.084  0.0000E+00  0.0000E+00
    -13.069  0.0000E+00  0.0000E+00
    -13.053  0.0000E+00  0.0000E+00
    -13.038  0.0000E+00  0.0000E+00
    -13.022  0.0000E+00  0.0000E+00
    -13.007  0.0000E+00  0.0000E+00
    -12.991  0.0000E+00  0.0000E+00
    -12.975  0.0000E+00  0.0000E+00
    -12.960  0.0000E+00  0.0000E+00
    -12.944  0.0000E+00  0.0000E+00
    -12.929  0.0000E+00  0.0000E+00
    -12.913  0.0000E+00  0.0000E+00
    -12.898  0.0000E+00  0.0000E+00
    -12.882  0.0000E+00  0.0000E+00
    -12.867  0.0000E+00  0.0000E+00
    -12.851  0.0000E+00  0.0000E+00
    -12.836  0.0000E+00  0.0000E+00
    -12.820  0.0000E+00  0.0000E+00
    -12.805  0.0000E+00  0.0000E+00
    -12.789  0.0000E+00  0.0000E+00
    -12.774  0.0000E+00  0.0000E+00
    -12.758  0.1007E-17  0.1564E-19
    -12.743  0.1645E-10  0.2555E-12
    -12.727  0.1966E-05  0.3054E-07
    -12.711  0.3169E-02  0.4925E-04
    -12.696  0.1396E+00  0.2217E-02
    -12.680  0.6033E+00  0.1159E-01
    -12.665  0.9891E+00  0.2695E-01
    -12.649  0.1294E+01  0.4704E-01
    -12.634  0.1588E+01  0.7170E-01
    -12.618  0.1865E+01  0.1007E+00
    -12.603  0.2259E+01  0.1358E+00
    -12.587  0.2694E+01  0.1776E+00
    -12.572  0.2993E+01  0.2241E+00
    -12.556  0.3044E+01  0.2714E+00
    -12.541  0.3084E+01  0.3193E+00
    -12.525  0.3214E+01  0.3692E+00
    -12.510  0.3229E+01  0.4193E+00
    -12.494  0.3338E+01  0.4712E+00
    -12.478  0.3525E+01  0.5259E+00
    -12.463  0.3515E+01  0.5805E+00
    -12.447  0.3776E+01  0.6392E+00
    -12.432  0.4047E+01  0.7020E+00
    -12.416  0.4404E+01  0.7704E+00
    -12.401  0.4503E+01  0.8404E+00
    -12.385  0.4579E+01  0.9115E+00
    -12.370  0.4565E+01  0.9824E+00
    -12.354  0.4370E+01  0.1050E+01
    -12.339  0.4448E+01  0.1119E+01
    -12.323  0.4398E+01  0.1188E+01
    -12.308  0.3837E+01  0.1247E+01
    -12.292  0.3480E+01  0.1301E+01
    -12.277  0.3501E+01  0.1356E+01
    -12.261  0.3349E+01  0.1408E+01
    -12.245  0.3066E+01  0.1455E+01
    -12.230  0.3061E+01  0.1503E+01
    -12.214  0.2995E+01  0.1549E+01
    -12.199  0.2930E+01  0.1595E+01
    -12.183  0.2948E+01  0.1641E+01
    -12.168  0.2676E+01  0.1682E+01
    -12.152  0.2659E+01  0.1724E+01
    -12.137  0.2890E+01  0.1768E+01
    -12.121  0.2830E+01  0.1812E+01
    -12.106  0.2312E+01  0.1848E+01
    -12.090  0.2504E+01  0.1887E+01
    -12.075  0.3086E+01  0.1935E+01
    -12.059  0.2464E+01  0.1973E+01
    -12.044  0.2155E+01  0.2007E+01
    -12.028  0.2682E+01  0.2049E+01
    -12.013  0.2883E+01  0.2093E+01
    -11.997  0.2315E+01  0.2129E+01
    -11.981  0.2304E+01  0.2165E+01
    -11.966  0.2589E+01  0.2205E+01
    -11.950  0.2728E+01  0.2248E+01
    -11.935  0.2465E+01  0.2286E+01
    -11.919  0.2359E+01  0.2323E+01
    -11.904  0.2421E+01  0.2360E+01
    -11.888  0.2880E+01  0.2405E+01
    -11.873  0.2580E+01  0.2445E+01
    -11.857  0.2230E+01  0.2480E+01
    -11.842  0.2635E+01  0.2521E+01
    -11.826  0.3065E+01  0.2568E+01
    -11.811  0.2486E+01  0.2607E+01
    -11.795  0.2438E+01  0.2645E+01
    -11.780  0.2937E+01  0.2690E+01
    -11.764  0.3189E+01  0.2740E+01
    -11.748  0.2649E+01  0.2781E+01
    -11.733  0.2891E+01  0.2826E+01
    -11.717  0.3459E+01  0.2880E+01
    -11.702  0.3641E+01  0.2936E+01
    -11.686  0.3428E+01  0.2989E+01
    -11.671  0.3615E+01  0.3046E+01
    -11.655  0.3704E+01  0.3103E+01
    -11.640  0.3642E+01  0.3160E+01
    -11.624  0.3499E+01  0.3214E+01
    -11.609  0.3492E+01  0.3268E+01
    -11.593  0.3559E+01  0.3323E+01
    -11.578  0.3604E+01  0.3379E+01
    -11.562  0.3399E+01  0.3432E+01
    -11.547  0.3457E+01  0.3486E+01
    -11.531  0.3478E+01  0.3540E+01
    -11.515  0.3439E+01  0.3593E+01
    -11.500  0.3056E+01  0.3641E+01
    -11.484  0.2913E+01  0.3686E+01
    -11.469  0.2834E+01  0.3730E+01
    -11.453  0.2651E+01  0.3771E+01
    -11.438  0.2462E+01  0.3810E+01
    -11.422  0.2173E+01  0.3843E+01
    -11.407  0.1845E+01  0.3872E+01
    -11.391  0.1565E+01  0.3896E+01
    -11.376  0.1445E+01  0.3919E+01
    -11.360  0.1243E+01  0.3938E+01
    -11.345  0.1065E+01  0.3955E+01
    -11.329  0.9500E+00  0.3969E+01
    -11.314  0.7589E+00  0.3981E+01
    -11.298  0.6214E+00  0.3991E+01
    -11.283  0.4215E+00  0.3997E+01
    -11.267  0.1639E+00  0.4000E+01
    -11.251  0.1095E-01  0.4000E+01
    -11.236  0.3002E-04  0.4000E+01
    -11.220  0.1239E-08  0.4000E+01
    -11.205  0.5237E-15  0.4000E+01
    -11.189  0.0000E+00  0.4000E+01
    -11.174  0.0000E+00  0.4000E+01
    -11.158  0.0000E+00  0.4000E+01
    -11.143  0.0000E+00  0.4000E+01
    -11.127  0.0000E+00  0.4000E+01
    -11.112  0.0000E+00  0.4000E+01
    -11.096  0.0000E+00  0.4000E+01
    -11.081  0.0000E+00  0.4000E+01
    -11.065  0.0000E+00  0.4000E+01
    -11.050  0.0000E+00  0.4000E+01
    -11.034  0.0000E+00  0.4000E+01
    -11.018  0.0000E+00  0.4000E+01
    -11.003  0.0000E+00  0.4000E+01
    -10.987  0.0000E+00  0.4000E+01
    -10.972  0.0000E+00  0.4000E+01
    -10.956  0.0000E+00  0.4000E+01
    -10.941  0.0000E+00  0.4000E+01
    -10.925  0.0000E+00  0.4000E+01
    -10.910  0.0000E+00  0.4000E+01
    -10.894  0.0000E+00  0.4000E+01
    -10.879  0.0000E+00  0.4000E+01
    -10.863  0.0000E+00  0.4000E+01
    -10.848  0.0000E+00  0.4000E+01
    -10.832  0.0000E+00  0.4000E+01
    -10.817  0.0000E+00  0.4000E+01
    -10.801  0.0000E+00  0.4000E+01
    -10.785  0.0000E+00  0.4000E+01
    -10.770  0.0000E+00  0.4000E+01
    -10.754  0.0000E+00  0.4000E+01
    -10.739  0.0000E+00  0.4000E+01
    -10.723  0.0000E+00  0.4000E+01
    -10.708  0.0000E+00  0.4000E+01
    -10.692  0.0000E+00  0.4000E+01
    -10.677  0.0000E+00  0.4000E+01
    -10.661  0.0000E+00  0.4000E+01
    -10.646  0.0000E+00  0.4000E+01
    -10.630  0.0000E+00  0.4000E+01
    -10.615  0.0000E+00  0.4000E+01
    -10.599  0.0000E+00  0.4000E+01
    -10.584  0.0000E+00  0.4000E+01
    -10.568  0.0000E+00  0.4000E+01
    -10.553  0.0000E+00  0.4000E+01
    -10.537  0.0000E+00  0.4000E+01
    -10.521  0.0000E+00  0.4000E+01
    -10.506  0.0000E+00  0.4000E+01
    -10.490  0.0000E+00  0.4000E+01
    -10.475  0.0000E+00  0.4000E+01
    -10.459  0.0000E+00  0.4000E+01
    -10.444  0.0000E+00  0.4000E+01
    -10.428  0.0000E+00  0.4000E+01
    -10.413  0.0000E+00  0.4000E+01
    -10.397  0.0000E+00  0.4000E+01
    -10.382  0.0000E+00  0.4000E+01
    -10.366  0.0000E+00  0.4000E+01
    -10.351  0.0000E+00  0.4000E+01
    -10.335  0.0000E+00  0.4000E+01
    -10.320  0.0000E+00  0.4000E+01
    -10.304  0.0000E+00  0.4000E+01
    -10.288  0.0000E+00  0.4000E+01
    -10.273  0.0000E+00  0.4000E+01
    -10.257  0.0000E+00  0.4000E+01
    -10.242  0.0000E+00  0.4000E+01
    -10.226  0.0000E+00  0.4000E+01
    -10.211  0.0000E+00  0.4000E+01
    -10.195  0.0000E+00  0.4000E+01
    -10.180  0.0000E+00  0.4000E+01
    -10.164  0.0000E+00  0.4000E+01
    -10.149  0.0000E+00  0.4000E+01
    -10.133  0.0000E+00  0.4000E+01
    -10.118  0.0000E+00  0.4000E+01
    -10.102  0.0000E+00  0.4000E+01
    -10.087  0.0000E+00  0.4000E+01
    -10.071  0.0000E+00  0.4000E+01
    -10.055  0.0000E+00  0.4000E+01
    -10.040  0.0000E+00  0.4000E+01
    -10.024  0.0000E+00  0.4000E+01
    -10.009  0.0000E+00  0.4000E+01
     -9.993  0.0000E+00  0.4000E+01
     -9.978  0.0000E+00  0.4000E+01
     -9.962  0.0000E+00  0.4000E+01
     -9.947  0.0000E+00  0.4000E+01
     -9.931  0.0000E+00  0.4000E+01
     -9.916  0.0000E+00  0.4000E+01
     -9.900  0.0000E+00  0.4000E+01
     -9.885  0.0000E+00  0.4000E+01
     -9.869  0.0000E+00  0.4000E+01
     -9.854  0.0000E+00  0.4000E+01
     -9.838  0.0000E+00  0.4000E+01
     -9.823  0.0000E+00  0.4000E+01
     -9.807  0.0000E+00  0.4000E+01
     -9.791  0.0000E+00  0.4000E+01
     -9.776  0.0000E+00  0.4000E+01
     -9.760  0.0000E+00  0.4000E+01
     -9.745  0.0000E+00  0.4000E+01
     -9.729  0.0000E+00  0.4000E+01
     -9.714  0.0000E+00  0.4000E+01
     -9.698  0.0000E+00  0.4000E+01
     -9.683  0.0000E+00  0.4000E+01
     -9.667  0.0000E+00  0.4000E+01
     -9.652  0.0000E+00  0.4000E+01
     -9.636  0.0000E+00  0.4000E+01
     -9.621  0.0000E+00  0.4000E+01
     -9.605  0.0000E+00  0.4000E+01
     -9.590  0.0000E+00  0.4000E+01
     -9.574  0.0000E+00  0.4000E+01
     -9.558  0.0000E+00  0.4000E+01
     -9.543  0.0000E+00  0.4000E+01
     -9.527  0.0000E+00  0.4000E+01
     -9.512  0.0000E+00  0.4000E+01
     -9.496  0.0000E+00  0.4000E+01
     -9.481  0.0000E+00  0.4000E+01
     -9.465  0.0000E+00  0.4000E+01
     -9.450  0.0000E+00  0.4000E+01
     -9.434  0.0000E+00  0.4000E+01
     -9.419  0.0000E+00  0.4000E+01
     -9.403  0.0000E+00  0.4000E+01
     -9.388  0.0000E+00  0.4000E+01
     -9.372  0.0000E+00  0.4000E+01
     -9.357  0.0000E+00  0.4000E+01
     -9.341  0.0000E+00  0.4000E+01
     -9.325  0.0000E+00  0.4000E+01
     -9.310  0.0000E+00  0.4000E+01
     -9.294  0.0000E+00  0.4000E+01
     -9.279  0.0000E+00  0.4000E+01
     -9.263  0.0000E+00  0.4000E+01
     -9.248  0.0000E+00  0.4000E+01
     -9.232  0.0000E+00  0.4000E+01
     -9.217  0.0000E+00  0.4000E+01
     -9.201  0.0000E+00  0.4000E+01
     -9.186  0.0000E+00  0.4000E+01
     -9.170  0.0000E+00  0.4000E+01
     -9.155  0.0000E+00  0.4000E+01
     -9.139  0.0000E+00  0.4000E+01
     -9.124  0.0000E+00  0.4000E+01
     -9.108  0.0000E+00  0.4000E+01
     -9.093  0.0000E+00  0.4000E+01
     -9.077  0.0000E+00  0.4000E+01
     -9.061  0.0000E+00  0.4000E+01
     -9.046  0.0000E+00  0.4000E+01
     -9.030  0.0000E+00  0.4000E+01
     -9.015  0.0000E+00  0.4000E+01
     -8.999  0.0000E+00  0.4000E+01
     -8.984  0.0000E+00  0.4000E+01
     -8.968  0.0000E+00  0.4000E+01
     -8.953  0.0000E+00  0.4000E+01
     -8.937  0.0000E+00  0.4000E+01
     -8.922  0.0000E+00  0.4000E+01
     -8.906  0.0000E+00  0.4000E+01
     -8.891  0.0000E+00  0.4000E+01
     -8.875  0.1275E-11  0.4000E+01
     -8.860  0.3287E-06  0.4000E+01
     -8.844  0.1110E-02  0.4000E+01
     -8.828  0.9261E-01  0.4001E+01
     -8.813  0.5634E+00  0.4010E+01
     -8.797  0.1041E+01  0.4026E+01
     -8.782  0.1365E+01  0.4048E+01
     -8.766  0.1686E+01  0.4074E+01
     -8.751  0.1968E+01  0.4104E+01
     -8.735  0.2278E+01  0.4140E+01
     -8.720  0.2561E+01  0.4179E+01
     -8.704  0.2932E+01  0.4225E+01
     -8.689  0.3264E+01  0.4276E+01
     -8.673  0.3849E+01  0.4336E+01
     -8.658  0.4651E+01  0.4408E+01
     -8.642  0.6289E+01  0.4505E+01
     -8.627  0.6621E+01  0.4608E+01
     -8.611  0.6651E+01  0.4712E+01
     -8.595  0.6549E+01  0.4813E+01
     -8.580  0.6747E+01  0.4918E+01
     -8.564  0.6888E+01  0.5025E+01
     -8.549  0.6817E+01  0.5131E+01
     -8.533  0.6754E+01  0.5236E+01
     -8.518  0.6661E+01  0.5339E+01
     -8.502  0.6786E+01  0.5445E+01
     -8.487  0.6628E+01  0.5548E+01
     -8.471  0.6815E+01  0.5654E+01
     -8.456  0.7068E+01  0.5763E+01
     -8.440  0.7047E+01  0.5873E+01
     -8.425  0.5482E+01  0.5958E+01
     -8.409  0.4304E+01  0.6025E+01
     -8.394  0.3751E+01  0.6083E+01
     -8.378  0.3699E+01  0.6140E+01
     -8.362  0.3687E+01  0.6198E+01
     -8.347  0.4277E+01  0.6264E+01
     -8.331  0.4856E+01  0.6340E+01
     -8.316  0.5257E+01  0.6421E+01
     -8.300  0.5155E+01  0.6501E+01
     -8.285  0.5014E+01  0.6579E+01
     -8.269  0.5019E+01  0.6657E+01
     -8.254  0.4799E+01  0.6732E+01
     -8.238  0.4912E+01  0.6808E+01
     -8.223  0.4764E+01  0.6882E+01
     -8.207  0.4557E+01  0.6953E+01
     -8.192  0.4665E+01  0.7025E+01
     -8.176  0.4583E+01  0.7096E+01
     -8.161  0.4486E+01  0.7166E+01
     -8.145  0.4463E+01  0.7235E+01
     -8.130  0.4519E+01  0.7306E+01
     -8.114  0.4619E+01  0.7377E+01
     -8.098  0.4716E+01  0.7451E+01
     -8.083  0.4773E+01  0.7525E+01
     -8.067  0.4105E+01  0.7588E+01
     -8.052  0.3316E+01  0.7640E+01
     -8.036  0.3005E+01  0.7687E+01
     -8.021  0.2721E+01  0.7729E+01
     -8.005  0.2570E+01  0.7769E+01
     -7.990  0.2194E+01  0.7803E+01
     -7.974  0.1823E+01  0.7831E+01
     -7.959  0.1834E+01  0.7860E+01
     -7.943  0.1437E+01  0.7882E+01
     -7.928  0.1243E+01  0.7901E+01
     -7.912  0.1167E+01  0.7919E+01
     -7.897  0.1024E+01  0.7935E+01
     -7.881  0.8729E+00  0.7949E+01
     -7.865  0.7373E+00  0.7960E+01
     -7.850  0.7042E+00  0.7971E+01
     -7.834  0.5400E+00  0.7980E+01
     -7.819  0.4772E+00  0.7987E+01
     -7.803  0.3792E+00  0.7993E+01
     -7.788  0.2762E+00  0.7997E+01
     -7.772  0.1511E+00  0.8000E+01
     -7.757  0.2606E-01  0.8000E+01
     -7.741  0.3101E-03  0.8000E+01
     -7.726  0.6015E-07  0.8000E+01
     -7.710  0.1230E-12  0.8000E+01
     -7.695  0.0000E+00  0.8000E+01
     -7.679  0.0000E+00  0.8000E+01
     -7.664  0.0000E+00  0.8000E+01
     -7.648  0.0000E+00  0.8000E+01
     -7.632  0.0000E+00  0.8000E+01
     -7.617  0.0000E+00  0.8000E+01
     -7.601  0.0000E+00  0.8000E+01
     -7.586  0.0000E+00  0.8000E+01
     -7.570  0.0000E+00  0.8000E+01
     -7.555  0.0000E+00  0.8000E+01
     -7.539  0.0000E+00  0.8000E+01
     -7.524  0.0000E+00  0.8000E+01
     -7.508  0.0000E+00  0.8000E+01
     -7.493  0.0000E+00  0.8000E+01
     -7.477  0.0000E+00  0.8000E+01
     -7.462  0.0000E+00  0.8000E+01
     -7.446  0.0000E+00  0.8000E+01
     -7.431  0.0000E+00  0.8000E+01
     -7.415  0.0000E+00  0.8000E+01
     -7.400  0.0000E+00  0.8000E+01
     -7.384  0.0000E+00  0.8000E+01
     -7.368  0.0000E+00  0.8000E+01
     -7.353  0.0000E+00  0.8000E+01
     -7.337  0.0000E+00  0.8000E+01
     -7.322  0.0000E+00  0.8000E+01
     -7.306  0.0000E+00  0.8000E+01
     -7.291  0.0000E+00  0.8000E+01
     -7.275  0.0000E+00  0.8000E+01
     -7.260  0.0000E+00  0.8000E+01
     -7.244  0.0000E+00  0.8000E+01
     -7.229  0.0000E+00  0.8000E+01
     -7.213  0.0000E+00  0.8000E+01
     -7.198  0.0000E+00  0.8000E+01
     -7.182  0.0000E+00  0.8000E+01
     -7.167  0.0000E+00  0.8000E+01
     -7.151  0.0000E+00  0.8000E+01
     -7.135  0.0000E+00  0.8000E+01
     -7.120  0.0000E+00  0.8000E+01
     -7.104  0.0000E+00  0.8000E+01
     -7.089  0.0000E+00  0.8000E+01
     -7.073  0.0000E+00  0.8000E+01
     -7.058  0.0000E+00  0.8000E+01
     -7.042  0.0000E+00  0.8000E+01
     -7.027  0.0000E+00  0.8000E+01
     -7.011  0.8289E-12  0.8000E+01
     -6.996  0.2184E-06  0.8000E+01
     -6.980  0.6295E-03  0.8000E+01
     -6.965  0.3056E-01  0.8000E+01
     -6.949  0.7530E-01  0.8002E+01
     -6.934  0.1036E+00  0.8003E+01
     -6.918  0.1668E+00  0.8006E+01
     -6.902  0.1602E+00  0.8008E+01
     -6.887  0.2039E+00  0.8012E+01
     -6.871  0.2116E+00  0.8015E+01
     -6.856  0.2081E+00  0.8018E+01
     -6.840  0.2892E+00  0.8023E+01
     -6.825  0.3022E+00  0.8027E+01
     -6.809  0.3143E+00  0.8032E+01
     -6.794  0.3404E+00  0.8037E+01
     -6.778  0.3821E+00  0.8043E+01
     -6.763  0.3238E+00  0.8048E+01
     -6.747  0.3336E+00  0.8054E+01
     -6.732  0.4665E+00  0.8061E+01
     -6.716  0.5422E+00  0.8069E+01
     -6.701  0.5519E+00  0.8078E+01
     -6.685  0.5101E+00  0.8086E+01
     -6.670  0.5202E+00  0.8094E+01
     -6.654  0.5825E+00  0.8103E+01
     -6.638  0.5804E+00  0.8112E+01
     -6.623  0.6433E+00  0.8122E+01
     -6.607  0.8067E+00  0.8134E+01
     -6.592  0.8381E+00  0.8147E+01
     -6.576  0.8173E+00  0.8160E+01
     -6.561  0.7552E+00  0.8172E+01
     -6.545  0.7191E+00  0.8183E+01
     -6.530  0.8669E+00  0.8196E+01
     -6.514  0.8272E+00  0.8209E+01
     -6.499  0.8018E+00  0.8222E+01
     -6.483  0.8050E+00  0.8234E+01
     -6.468  0.8263E+00  0.8247E+01
     -6.452  0.1046E+01  0.8263E+01
     -6.437  0.1202E+01  0.8282E+01
     -6.421  0.1436E+01  0.8304E+01
     -6.405  0.1451E+01  0.8327E+01
     -6.390  0.1417E+01  0.8349E+01
     -6.374  0.1433E+01  0.8371E+01
     -6.359  0.1456E+01  0.8394E+01
     -6.343  0.1509E+01  0.8417E+01
     -6.328  0.1854E+01  0.8446E+01
     -6.312  0.2018E+01  0.8477E+01
     -6.297  0.2215E+01  0.8512E+01
     -6.281  0.2101E+01  0.8544E+01
     -6.266  0.2157E+01  0.8578E+01
     -6.250  0.2311E+01  0.8614E+01
     -6.235  0.2291E+01  0.8649E+01
     -6.219  0.2694E+01  0.8691E+01
     -6.204  0.2869E+01  0.8736E+01
     -6.188  0.2959E+01  0.8782E+01
     -6.172  0.3164E+01  0.8831E+01
     -6.157  0.3727E+01  0.8889E+01
     -6.141  0.3711E+01  0.8946E+01
     -6.126  0.3786E+01  0.9005E+01
     -6.110  0.4036E+01  0.9068E+01
     -6.095  0.3836E+01  0.9127E+01
     -6.079  0.3570E+01  0.9183E+01
     -6.064  0.3747E+01  0.9241E+01
     -6.048  0.4053E+01  0.9304E+01
     -6.033  0.4202E+01  0.9369E+01
     -6.017  0.4162E+01  0.9434E+01
     -6.002  0.4161E+01  0.9499E+01
     -5.986  0.4200E+01  0.9564E+01
     -5.971  0.3736E+01  0.9622E+01
     -5.955  0.4075E+01  0.9685E+01
     -5.940  0.4029E+01  0.9748E+01
     -5.924  0.4061E+01  0.9811E+01
     -5.908  0.4114E+01  0.9875E+01
     -5.893  0.3979E+01  0.9936E+01
     -5.877  0.3810E+01  0.9996E+01
     -5.862  0.3924E+01  0.1006E+02
     -5.846  0.4067E+01  0.1012E+02
     -5.831  0.4106E+01  0.1018E+02
     -5.815  0.3980E+01  0.1025E+02
     -5.800  0.4247E+01  0.1031E+02
     -5.784  0.4447E+01  0.1038E+02
     -5.769  0.4326E+01  0.1045E+02
     -5.753  0.4309E+01  0.1051E+02
     -5.738  0.4362E+01  0.1058E+02
     -5.722  0.4040E+01  0.1065E+02
     -5.707  0.3976E+01  0.1071E+02
     -5.691  0.4024E+01  0.1077E+02
     -5.675  0.3820E+01  0.1083E+02
     -5.660  0.3902E+01  0.1089E+02
     -5.644  0.3762E+01  0.1095E+02
     -5.629  0.3869E+01  0.1101E+02
     -5.613  0.4224E+01  0.1107E+02
     -5.598  0.4061E+01  0.1114E+02
     -5.582  0.4089E+01  0.1120E+02
     -5.567  0.4143E+01  0.1126E+02
     -5.551  0.4288E+01  0.1133E+02
     -5.536  0.3924E+01  0.1139E+02
     -5.520  0.4137E+01  0.1146E+02
     -5.505  0.4301E+01  0.1152E+02
     -5.489  0.4432E+01  0.1159E+02
     -5.474  0.4094E+01  0.1166E+02
     -5.458  0.4294E+01  0.1172E+02
     -5.442  0.4556E+01  0.1179E+02
     -5.427  0.4524E+01  0.1186E+02
     -5.411  0.4911E+01  0.1194E+02
     -5.396  0.5162E+01  0.1202E+02
     -5.380  0.5052E+01  0.1210E+02
     -5.365  0.4787E+01  0.1217E+02
     -5.349  0.4633E+01  0.1224E+02
     -5.334  0.4560E+01  0.1232E+02
     -5.318  0.4681E+01  0.1239E+02
     -5.303  0.4887E+01  0.1246E+02
     -5.287  0.4730E+01  0.1254E+02
     -5.272  0.4633E+01  0.1261E+02
     -5.256  0.4692E+01  0.1268E+02
     -5.241  0.4549E+01  0.1275E+02
     -5.225  0.4108E+01  0.1282E+02
     -5.210  0.4288E+01  0.1288E+02
     -5.194  0.4313E+01  0.1295E+02
     -5.178  0.4323E+01  0.1302E+02
     -5.163  0.3943E+01  0.1308E+02
     -5.147  0.3763E+01  0.1314E+02
     -5.132  0.4007E+01  0.1320E+02
     -5.116  0.3885E+01  0.1326E+02
     -5.101  0.3749E+01  0.1332E+02
     -5.085  0.3693E+01  0.1338E+02
     -5.070  0.3627E+01  0.1343E+02
     -5.054  0.3752E+01  0.1349E+02
     -5.039  0.3750E+01  0.1355E+02
     -5.023  0.3586E+01  0.1360E+02
     -5.008  0.3373E+01  0.1366E+02
     -4.992  0.3065E+01  0.1370E+02
     -4.977  0.2633E+01  0.1374E+02
     -4.961  0.2707E+01  0.1379E+02
     -4.945  0.2554E+01  0.1383E+02
     -4.930  0.2637E+01  0.1387E+02
     -4.914  0.2565E+01  0.1391E+02
     -4.899  0.2667E+01  0.1395E+02
     -4.883  0.2147E+01  0.1398E+02
     -4.868  0.1999E+01  0.1401E+02
     -4.852  0.2159E+01  0.1405E+02
     -4.837  0.2160E+01  0.1408E+02
     -4.821  0.2351E+01  0.1412E+02
     -4.806  0.2675E+01  0.1416E+02
     -4.790  0.3078E+01  0.1421E+02
     -4.775  0.2641E+01  0.1425E+02
     -4.759  0.2694E+01  0.1429E+02
     -4.744  0.3108E+01  0.1434E+02
     -4.728  0.3275E+01  0.1439E+02
     -4.712  0.2776E+01  0.1443E+02
     -4.697  0.2709E+01  0.1447E+02
     -4.681  0.2908E+01  0.1452E+02
     -4.666  0.3601E+01  0.1457E+02
     -4.650  0.3786E+01  0.1463E+02
     -4.635  0.3514E+01  0.1469E+02
     -4.619  0.3673E+01  0.1474E+02
     -4.604  0.4189E+01  0.1481E+02
     -4.588  0.3871E+01  0.1487E+02
     -4.573  0.3384E+01  0.1492E+02
     -4.557  0.3521E+01  0.1498E+02
     -4.542  0.3797E+01  0.1504E+02
     -4.526  0.3255E+01  0.1509E+02
     -4.511  0.3340E+01  0.1514E+02
     -4.495  0.3492E+01  0.1519E+02
     -4.480  0.3670E+01  0.1525E+02
     -4.464  0.3448E+01  0.1530E+02
     -4.448  0.3100E+01  0.1535E+02
     -4.433  0.3053E+01  0.1540E+02
     -4.417  0.2991E+01  0.1545E+02
     -4.402  0.3243E+01  0.1550E+02
     -4.386  0.3549E+01  0.1555E+02
     -4.371  0.3198E+01  0.1560E+02
     -4.355  0.2728E+01  0.1564E+02
     -4.340  0.2761E+01  0.1569E+02
     -4.324  0.2859E+01  0.1573E+02
     -4.309  0.2850E+01  0.1577E+02
     -4.293  0.2858E+01  0.1582E+02
     -4.278  0.3019E+01  0.1587E+02
     -4.262  0.3313E+01  0.1592E+02
     -4.247  0.2755E+01  0.1596E+02
     -4.231  0.2379E+01  0.1600E+02
     -4.215  0.2933E+01  0.1604E+02
     -4.200  0.3119E+01  0.1609E+02
     -4.184  0.2874E+01  0.1614E+02
     -4.169  0.2723E+01  0.1618E+02
     -4.153  0.3083E+01  0.1623E+02
     -4.138  0.3145E+01  0.1627E+02
     -4.122  0.2926E+01  0.1632E+02
     -4.107  0.2690E+01  0.1636E+02
     -4.091  0.2948E+01  0.1641E+02
     -4.076  0.2806E+01  0.1645E+02
     -4.060  0.2933E+01  0.1650E+02
     -4.045  0.2777E+01  0.1654E+02
     -4.029  0.2877E+01  0.1658E+02
     -4.014  0.3212E+01  0.1663E+02
     -3.998  0.3079E+01  0.1668E+02
     -3.982  0.3119E+01  0.1673E+02
     -3.967  0.2961E+01  0.1678E+02
     -3.951  0.2635E+01  0.1682E+02
     -3.936  0.2864E+01  0.1686E+02
     -3.920  0.3094E+01  0.1691E+02
     -3.905  0.3112E+01  0.1696E+02
     -3.889  0.3097E+01  0.1701E+02
     -3.874  0.3048E+01  0.1705E+02
     -3.858  0.3089E+01  0.1710E+02
     -3.843  0.3182E+01  0.1715E+02
     -3.827  0.2982E+01  0.1720E+02
     -3.812  0.2897E+01  0.1724E+02
     -3.796  0.2888E+01  0.1729E+02
     -3.781  0.2836E+01  0.1733E+02
     -3.765  0.2980E+01  0.1738E+02
     -3.749  0.2992E+01  0.1742E+02
     -3.734  0.3097E+01  0.1747E+02
     -3.718  0.3038E+01  0.1752E+02
     -3.703  0.3224E+01  0.1757E+02
     -3.687  0.3017E+01  0.1762E+02
     -3.672  0.2732E+01  0.1766E+02
     -3.656  0.2770E+01  0.1770E+02
     -3.641  0.2778E+01  0.1775E+02
     -3.625  0.2885E+01  0.1779E+02
     -3.610  0.2765E+01  0.1783E+02
     -3.594  0.2560E+01  0.1787E+02
     -3.579  0.2741E+01  0.1792E+02
     -3.563  0.2833E+01  0.1796E+02
     -3.548  0.2723E+01  0.1800E+02
     -3.532  0.2924E+01  0.1805E+02
     -3.517  0.2804E+01  0.1809E+02
     -3.501  0.2737E+01  0.1813E+02
     -3.485  0.2866E+01  0.1818E+02
     -3.470  0.2947E+01  0.1822E+02
     -3.454  0.2477E+01  0.1826E+02
     -3.439  0.2316E+01  0.1830E+02
     -3.423  0.2494E+01  0.1834E+02
     -3.408  0.2720E+01  0.1838E+02
     -3.392  0.2689E+01  0.1842E+02
     -3.377  0.2621E+01  0.1846E+02
     -3.361  0.2545E+01  0.1850E+02
     -3.346  0.2485E+01  0.1854E+02
     -3.330  0.2625E+01  0.1858E+02
     -3.315  0.2926E+01  0.1863E+02
     -3.299  0.2867E+01  0.1867E+02
     -3.284  0.2923E+01  0.1872E+02
     -3.268  0.2617E+01  0.1876E+02
     -3.252  0.2456E+01  0.1879E+02
     -3.237  0.2511E+01  0.1883E+02
     -3.221  0.2580E+01  0.1887E+02
     -3.206  0.2589E+01  0.1891E+02
     -3.190  0.2809E+01  0.1896E+02
     -3.175  0.2856E+01  0.1900E+02
     -3.159  0.2599E+01  0.1904E+02
     -3.144  0.2618E+01  0.1908E+02
     -3.128  0.2693E+01  0.1912E+02
     -3.113  0.3062E+01  0.1917E+02
     -3.097  0.2957E+01  0.1922E+02
     -3.082  0.3170E+01  0.1927E+02
     -3.066  0.2984E+01  0.1931E+02
     -3.051  0.3084E+01  0.1936E+02
     -3.035  0.2812E+01  0.1940E+02
     -3.019  0.2944E+01  0.1945E+02
     -3.004  0.3062E+01  0.1950E+02
     -2.988  0.2998E+01  0.1954E+02
     -2.973  0.3158E+01  0.1959E+02
     -2.957  0.3385E+01  0.1965E+02
     -2.942  0.3206E+01  0.1970E+02
     -2.926  0.3204E+01  0.1975E+02
     -2.911  0.2990E+01  0.1979E+02
     -2.895  0.2850E+01  0.1984E+02
     -2.880  0.2762E+01  0.1988E+02
     -2.864  0.2605E+01  0.1992E+02
     -2.849  0.2432E+01  0.1996E+02
     -2.833  0.2262E+01  0.1999E+02
     -2.818  0.2282E+01  0.2003E+02
     -2.802  0.2654E+01  0.2007E+02
     -2.787  0.2687E+01  0.2011E+02
     -2.771  0.2272E+01  0.2015E+02
     -2.755  0.2229E+01  0.2018E+02
     -2.740  0.2338E+01  0.2022E+02
     -2.724  0.2322E+01  0.2025E+02
     -2.709  0.2197E+01  0.2029E+02