Automatically generated mesh
    3640
Reciprocal lattice
    0.01785714285715    0.00000000000000    0.01923076923077             4
    0.05357142857143    0.00000000000000    0.01923076923077             4
    0.08928571428572    0.00000000000000    0.01923076923077             4
    0.12500000000000    0.00000000000000    0.01923076923077             4
    0.16071428571428    0.00000000000000    0.01923076923077             4
    0.19642857142857    0.00000000000000    0.01923076923077             4
    0.23214285714285    0.00000000000000    0.01923076923077             4
    0.26785714285715    0.00000000000000    0.01923076923077             4
    0.30357142857143    0.00000000000000    0.01923076923077             4
    0.33928571428572    0.00000000000000    0.01923076923077             4
    0.37500000000000    0.00000000000000    0.01923076923077             4
    0.41071428571428    0.00000000000000    0.01923076923077             4
    0.44642857142857    0.00000000000000    0.01923076923077             4
    0.48214285714285    0.00000000000000    0.01923076923077             4
    0.01785714285715    0.02564102564103    0.01923076923077             8
    0.05357142857143    0.02564102564103    0.01923076923077             8
    0.08928571428572    0.02564102564103    0.01923076923077             8
    0.12500000000000    0.02564102564103    0.01923076923077             8
    0.16071428571428    0.02564102564103    0.01923076923077             8
    0.19642857142857    0.02564102564103    0.01923076923077             8
    0.23214285714285    0.02564102564103    0.01923076923077             8
    0.26785714285715    0.02564102564103    0.01923076923077             8
    0.30357142857143    0.02564102564103    0.01923076923077             8
    0.33928571428572    0.02564102564103    0.01923076923077             8
    0.37500000000000    0.02564102564103    0.01923076923077             8
    0.41071428571428    0.02564102564103    0.01923076923077             8
    0.44642857142857    0.02564102564103    0.01923076923077             8
    0.48214285714285    0.02564102564103    0.01923076923077             8
    0.01785714285715    0.05128205128205    0.01923076923077             8
    0.05357142857143    0.05128205128205    0.01923076923077             8
    0.08928571428572    0.05128205128205    0.01923076923077             8
    0.12500000000000    0.05128205128205    0.01923076923077             8
    0.16071428571428    0.05128205128205    0.01923076923077             8
    0.19642857142857    0.05128205128205    0.01923076923077             8
    0.23214285714285    0.05128205128205    0.01923076923077             8
    0.26785714285715    0.05128205128205    0.01923076923077             8
    0.30357142857143    0.05128205128205    0.01923076923077             8
    0.33928571428572    0.05128205128205    0.01923076923077             8
    0.37500000000000    0.05128205128205    0.01923076923077             8
    0.41071428571428    0.05128205128205    0.01923076923077             8
    0.44642857142857    0.05128205128205    0.01923076923077             8
    0.48214285714285    0.05128205128205    0.01923076923077             8
    0.01785714285715    0.07692307692308    0.01923076923077             8
    0.05357142857143    0.07692307692308    0.01923076923077             8
    0.08928571428572    0.07692307692308    0.01923076923077             8
    0.12500000000000    0.07692307692308    0.01923076923077             8
    0.16071428571428    0.07692307692308    0.01923076923077             8
    0.19642857142857    0.07692307692308    0.01923076923077             8
    0.23214285714285    0.07692307692308    0.01923076923077             8
    0.26785714285715    0.07692307692308    0.01923076923077             8
    0.30357142857143    0.07692307692308    0.01923076923077             8
    0.33928571428572    0.07692307692308    0.01923076923077             8
    0.37500000000000    0.07692307692308    0.01923076923077             8
    0.41071428571428    0.07692307692308    0.01923076923077             8
    0.44642857142857    0.07692307692308    0.01923076923077             8
    0.48214285714285    0.07692307692308    0.01923076923077             8
    0.01785714285715    0.10256410256410    0.01923076923077             8
    0.05357142857143    0.10256410256410    0.01923076923077             8
    0.08928571428572    0.10256410256410    0.01923076923077             8
    0.12500000000000    0.10256410256410    0.01923076923077             8
    0.16071428571428    0.10256410256410    0.01923076923077             8
    0.19642857142857    0.10256410256410    0.01923076923077             8
    0.23214285714285    0.10256410256410    0.01923076923077             8
    0.26785714285715    0.10256410256410    0.01923076923077             8
    0.30357142857143    0.10256410256410    0.01923076923077             8
    0.33928571428572    0.10256410256410    0.01923076923077             8
    0.37500000000000    0.10256410256410    0.01923076923077             8
    0.41071428571428    0.10256410256410    0.01923076923077             8
    0.44642857142857    0.10256410256410    0.01923076923077             8
    0.48214285714285    0.10256410256410    0.01923076923077             8
    0.01785714285715    0.12820512820513    0.01923076923077             8
    0.05357142857143    0.12820512820513    0.01923076923077             8
    0.08928571428572    0.12820512820513    0.01923076923077             8
    0.12500000000000    0.12820512820513    0.01923076923077             8
    0.16071428571428    0.12820512820513    0.01923076923077             8
    0.19642857142857    0.12820512820513    0.01923076923077             8
    0.23214285714285    0.12820512820513    0.01923076923077             8
    0.26785714285715    0.12820512820513    0.01923076923077             8
    0.30357142857143    0.12820512820513    0.01923076923077             8
    0.33928571428572    0.12820512820513    0.01923076923077             8
    0.37500000000000    0.12820512820513    0.01923076923077             8
    0.41071428571428    0.12820512820513    0.01923076923077             8
    0.44642857142857    0.12820512820513    0.01923076923077             8
    0.48214285714285    0.12820512820513    0.01923076923077             8
    0.01785714285715    0.15384615384615    0.01923076923077             8
    0.05357142857143    0.15384615384615    0.01923076923077             8
    0.08928571428572    0.15384615384615    0.01923076923077             8
    0.12500000000000    0.15384615384615    0.01923076923077             8
    0.16071428571428    0.15384615384615    0.01923076923077             8
    0.19642857142857    0.15384615384615    0.01923076923077             8
    0.23214285714285    0.15384615384615    0.01923076923077             8
    0.26785714285715    0.15384615384615    0.01923076923077             8
    0.30357142857143    0.15384615384615    0.01923076923077             8
    0.33928571428572    0.15384615384615    0.01923076923077             8
    0.37500000000000    0.15384615384615    0.01923076923077             8
    0.41071428571428    0.15384615384615    0.01923076923077             8
    0.44642857142857    0.15384615384615    0.01923076923077             8
    0.48214285714285    0.15384615384615    0.01923076923077             8
    0.01785714285715    0.17948717948718    0.01923076923077             8
    0.05357142857143    0.17948717948718    0.01923076923077             8
    0.08928571428572    0.17948717948718    0.01923076923077             8
    0.12500000000000    0.17948717948718    0.01923076923077             8
    0.16071428571428    0.17948717948718    0.01923076923077             8
    0.19642857142857    0.17948717948718    0.01923076923077             8
    0.23214285714285    0.17948717948718    0.01923076923077             8
    0.26785714285715    0.17948717948718    0.01923076923077             8
    0.30357142857143    0.17948717948718    0.01923076923077             8
    0.33928571428572    0.17948717948718    0.01923076923077             8
    0.37500000000000    0.17948717948718    0.01923076923077             8
    0.41071428571428    0.17948717948718    0.01923076923077             8
    0.44642857142857    0.17948717948718    0.01923076923077             8
    0.48214285714285    0.17948717948718    0.01923076923077             8
    0.01785714285715    0.20512820512820    0.01923076923077             8
    0.05357142857143    0.20512820512820    0.01923076923077             8
    0.08928571428572    0.20512820512820    0.01923076923077             8
    0.12500000000000    0.20512820512820    0.01923076923077             8
    0.16071428571428    0.20512820512820    0.01923076923077             8
    0.19642857142857    0.20512820512820    0.01923076923077             8
    0.23214285714285    0.20512820512820    0.01923076923077             8
    0.26785714285715    0.20512820512820    0.01923076923077             8
    0.30357142857143    0.20512820512820    0.01923076923077             8
    0.33928571428572    0.20512820512820    0.01923076923077             8
    0.37500000000000    0.20512820512820    0.01923076923077             8
    0.41071428571428    0.20512820512820    0.01923076923077             8
    0.44642857142857    0.20512820512820    0.01923076923077             8
    0.48214285714285    0.20512820512820    0.01923076923077             8
    0.01785714285715    0.23076923076923    0.01923076923077             8
    0.05357142857143    0.23076923076923    0.01923076923077             8
    0.08928571428572    0.23076923076923    0.01923076923077             8
    0.12500000000000    0.23076923076923    0.01923076923077             8
    0.16071428571428    0.23076923076923    0.01923076923077             8
    0.19642857142857    0.23076923076923    0.01923076923077             8
    0.23214285714285    0.23076923076923    0.01923076923077             8
    0.26785714285715    0.23076923076923    0.01923076923077             8
    0.30357142857143    0.23076923076923    0.01923076923077             8
    0.33928571428572    0.23076923076923    0.01923076923077             8
    0.37500000000000    0.23076923076923    0.01923076923077             8
    0.41071428571428    0.23076923076923    0.01923076923077             8
    0.44642857142857    0.23076923076923    0.01923076923077             8
    0.48214285714285    0.23076923076923    0.01923076923077             8
    0.01785714285715    0.25641025641026    0.01923076923077             8
    0.05357142857143    0.25641025641026    0.01923076923077             8
    0.08928571428572    0.25641025641026    0.01923076923077             8
    0.12500000000000    0.25641025641026    0.01923076923077             8
    0.16071428571428    0.25641025641026    0.01923076923077             8
    0.19642857142857    0.25641025641026    0.01923076923077             8
    0.23214285714285    0.25641025641026    0.01923076923077             8
    0.26785714285715    0.25641025641026    0.01923076923077             8
    0.30357142857143    0.25641025641026    0.01923076923077             8
    0.33928571428572    0.25641025641026    0.01923076923077             8
    0.37500000000000    0.25641025641026    0.01923076923077             8
    0.41071428571428    0.25641025641026    0.01923076923077             8
    0.44642857142857    0.25641025641026    0.01923076923077             8
    0.48214285714285    0.25641025641026    0.01923076923077             8
    0.01785714285715    0.28205128205128    0.01923076923077             8
    0.05357142857143    0.28205128205128    0.01923076923077             8
    0.08928571428572    0.28205128205128    0.01923076923077             8
    0.12500000000000    0.28205128205128    0.01923076923077             8
    0.16071428571428    0.28205128205128    0.01923076923077             8
    0.19642857142857    0.28205128205128    0.01923076923077             8
    0.23214285714285    0.28205128205128    0.01923076923077             8
    0.26785714285715    0.28205128205128    0.01923076923077             8
    0.30357142857143    0.28205128205128    0.01923076923077             8
    0.33928571428572    0.28205128205128    0.01923076923077             8
    0.37500000000000    0.28205128205128    0.01923076923077             8
    0.41071428571428    0.28205128205128    0.01923076923077             8
    0.44642857142857    0.28205128205128    0.01923076923077             8
    0.48214285714285    0.28205128205128    0.01923076923077             8
    0.01785714285715    0.30769230769231    0.01923076923077             8
    0.05357142857143    0.30769230769231    0.01923076923077             8
    0.08928571428572    0.30769230769231    0.01923076923077             8
    0.12500000000000    0.30769230769231    0.01923076923077             8
    0.16071428571428    0.30769230769231    0.01923076923077             8
    0.19642857142857    0.30769230769231    0.01923076923077             8
    0.23214285714285    0.30769230769231    0.01923076923077             8
    0.26785714285715    0.30769230769231    0.01923076923077             8
    0.30357142857143    0.30769230769231    0.01923076923077             8
    0.33928571428572    0.30769230769231    0.01923076923077             8
    0.37500000000000    0.30769230769231    0.01923076923077             8
    0.41071428571428    0.30769230769231    0.01923076923077             8
    0.44642857142857    0.30769230769231    0.01923076923077             8
    0.48214285714285    0.30769230769231    0.01923076923077             8
    0.01785714285715    0.33333333333334    0.01923076923077             8
    0.05357142857143    0.33333333333334    0.01923076923077             8
    0.08928571428572    0.33333333333334    0.01923076923077             8
    0.12500000000000    0.33333333333334    0.01923076923077             8
    0.16071428571428    0.33333333333334    0.01923076923077             8
    0.19642857142857    0.33333333333334    0.01923076923077             8
    0.23214285714285    0.33333333333334    0.01923076923077             8
    0.26785714285715    0.33333333333334    0.01923076923077             8
    0.30357142857143    0.33333333333334    0.01923076923077             8
    0.33928571428572    0.33333333333334    0.01923076923077             8
    0.37500000000000    0.33333333333334    0.01923076923077             8
    0.41071428571428    0.33333333333334    0.01923076923077             8
    0.44642857142857    0.33333333333334    0.01923076923077             8
    0.48214285714285    0.33333333333334    0.01923076923077             8
    0.01785714285715    0.35897435897436    0.01923076923077             8
    0.05357142857143    0.35897435897436    0.01923076923077             8
    0.08928571428572    0.35897435897436    0.01923076923077             8
    0.12500000000000    0.35897435897436    0.01923076923077             8
    0.16071428571428    0.35897435897436    0.01923076923077             8
    0.19642857142857    0.35897435897436    0.01923076923077             8
    0.23214285714285    0.35897435897436    0.01923076923077             8
    0.26785714285715    0.35897435897436    0.01923076923077             8
    0.30357142857143    0.35897435897436    0.01923076923077             8
    0.33928571428572    0.35897435897436    0.01923076923077             8
    0.37500000000000    0.35897435897436    0.01923076923077             8
    0.41071428571428    0.35897435897436    0.01923076923077             8
    0.44642857142857    0.35897435897436    0.01923076923077             8
    0.48214285714285    0.35897435897436    0.01923076923077             8
    0.01785714285715    0.38461538461539    0.01923076923077             8
    0.05357142857143    0.38461538461539    0.01923076923077             8
    0.08928571428572    0.38461538461539    0.01923076923077             8
    0.12500000000000    0.38461538461539    0.01923076923077             8
    0.16071428571428    0.38461538461539    0.01923076923077             8
    0.19642857142857    0.38461538461539    0.01923076923077             8
    0.23214285714285    0.38461538461539    0.01923076923077             8
    0.26785714285715    0.38461538461539    0.01923076923077             8
    0.30357142857143    0.38461538461539    0.01923076923077             8
    0.33928571428572    0.38461538461539    0.01923076923077             8
    0.37500000000000    0.38461538461539    0.01923076923077             8
    0.41071428571428    0.38461538461539    0.01923076923077             8
    0.44642857142857    0.38461538461539    0.01923076923077             8
    0.48214285714285    0.38461538461539    0.01923076923077             8
    0.01785714285715    0.41025641025641    0.01923076923077             8
    0.05357142857143    0.41025641025641    0.01923076923077             8
    0.08928571428572    0.41025641025641    0.01923076923077             8
    0.12500000000000    0.41025641025641    0.01923076923077             8
    0.16071428571428    0.41025641025641    0.01923076923077             8
    0.19642857142857    0.41025641025641    0.01923076923077             8
    0.23214285714285    0.41025641025641    0.01923076923077             8
    0.26785714285715    0.41025641025641    0.01923076923077             8
    0.30357142857143    0.41025641025641    0.01923076923077             8
    0.33928571428572    0.41025641025641    0.01923076923077             8
    0.37500000000000    0.41025641025641    0.01923076923077             8
    0.41071428571428    0.41025641025641    0.01923076923077             8
    0.44642857142857    0.41025641025641    0.01923076923077             8
    0.48214285714285    0.41025641025641    0.01923076923077             8
    0.01785714285715    0.43589743589744    0.01923076923077             8
    0.05357142857143    0.43589743589744    0.01923076923077             8
    0.08928571428572    0.43589743589744    0.01923076923077             8
    0.12500000000000    0.43589743589744    0.01923076923077             8
    0.16071428571428    0.43589743589744    0.01923076923077             8
    0.19642857142857    0.43589743589744    0.01923076923077             8
    0.23214285714285    0.43589743589744    0.01923076923077             8
    0.26785714285715    0.43589743589744    0.01923076923077             8
    0.30357142857143    0.43589743589744    0.01923076923077             8
    0.33928571428572    0.43589743589744    0.01923076923077             8
    0.37500000000000    0.43589743589744    0.01923076923077             8
    0.41071428571428    0.43589743589744    0.01923076923077             8
    0.44642857142857    0.43589743589744    0.01923076923077             8
    0.48214285714285    0.43589743589744    0.01923076923077             8
    0.01785714285715    0.46153846153846    0.01923076923077             8
    0.05357142857143    0.46153846153846    0.01923076923077             8
    0.08928571428572    0.46153846153846    0.01923076923077             8
    0.12500000000000    0.46153846153846    0.01923076923077             8
    0.16071428571428    0.46153846153846    0.01923076923077             8
    0.19642857142857    0.46153846153846    0.01923076923077             8
    0.23214285714285    0.46153846153846    0.01923076923077             8
    0.26785714285715    0.46153846153846    0.01923076923077             8
    0.30357142857143    0.46153846153846    0.01923076923077             8
    0.33928571428572    0.46153846153846    0.01923076923077             8
    0.37500000000000    0.46153846153846    0.01923076923077             8
    0.41071428571428    0.46153846153846    0.01923076923077             8
    0.44642857142857    0.46153846153846    0.01923076923077             8
    0.48214285714285    0.46153846153846    0.01923076923077             8
    0.01785714285715    0.48717948717949    0.01923076923077             8
    0.05357142857143    0.48717948717949    0.01923076923077             8
    0.08928571428572    0.48717948717949    0.01923076923077             8
    0.12500000000000    0.48717948717949    0.01923076923077             8
    0.16071428571428    0.48717948717949    0.01923076923077             8
    0.19642857142857    0.48717948717949    0.01923076923077             8
    0.23214285714285    0.48717948717949    0.01923076923077             8
    0.26785714285715    0.48717948717949    0.01923076923077             8
    0.30357142857143    0.48717948717949    0.01923076923077             8
    0.33928571428572    0.48717948717949    0.01923076923077             8
    0.37500000000000    0.48717948717949    0.01923076923077             8
    0.41071428571428    0.48717948717949    0.01923076923077             8
    0.44642857142857    0.48717948717949    0.01923076923077             8
    0.48214285714285    0.48717948717949    0.01923076923077             8
    0.01785714285715    0.00000000000000    0.05769230769231             4
    0.05357142857143    0.00000000000000    0.05769230769231             4
    0.08928571428572    0.00000000000000    0.05769230769231             4
    0.12500000000000    0.00000000000000    0.05769230769231             4
    0.16071428571428    0.00000000000000    0.05769230769231             4
    0.19642857142857    0.00000000000000    0.05769230769231             4
    0.23214285714285    0.00000000000000    0.05769230769231             4
    0.26785714285715    0.00000000000000    0.05769230769231             4
    0.30357142857143    0.00000000000000    0.05769230769231             4
    0.33928571428572    0.00000000000000    0.05769230769231             4
    0.37500000000000    0.00000000000000    0.05769230769231             4
    0.41071428571428    0.00000000000000    0.05769230769231             4
    0.44642857142857    0.00000000000000    0.05769230769231             4
    0.48214285714285    0.00000000000000    0.05769230769231             4
    0.01785714285715    0.02564102564103    0.05769230769231             8
    0.05357142857143    0.02564102564103    0.05769230769231             8
    0.08928571428572    0.02564102564103    0.05769230769231             8
    0.12500000000000    0.02564102564103    0.05769230769231             8
    0.16071428571428    0.02564102564103    0.05769230769231             8
    0.19642857142857    0.02564102564103    0.05769230769231             8
    0.23214285714285    0.02564102564103    0.05769230769231             8
    0.26785714285715    0.02564102564103    0.05769230769231             8
    0.30357142857143    0.02564102564103    0.05769230769231             8
    0.33928571428572    0.02564102564103    0.05769230769231             8
    0.37500000000000    0.02564102564103    0.05769230769231             8
    0.41071428571428    0.02564102564103    0.05769230769231             8
    0.44642857142857    0.02564102564103    0.05769230769231             8
    0.48214285714285    0.02564102564103    0.05769230769231             8
    0.01785714285715    0.05128205128205    0.05769230769231             8
    0.05357142857143    0.05128205128205    0.05769230769231             8
    0.08928571428572    0.05128205128205    0.05769230769231             8
    0.12500000000000    0.05128205128205    0.05769230769231             8
    0.16071428571428    0.05128205128205    0.05769230769231             8
    0.19642857142857    0.05128205128205    0.05769230769231             8
    0.23214285714285    0.05128205128205    0.05769230769231             8
    0.26785714285715    0.05128205128205    0.05769230769231             8
    0.30357142857143    0.05128205128205    0.05769230769231             8
    0.33928571428572    0.05128205128205    0.05769230769231             8
    0.37500000000000    0.05128205128205    0.05769230769231             8
    0.41071428571428    0.05128205128205    0.05769230769231             8
    0.44642857142857    0.05128205128205    0.05769230769231             8
    0.48214285714285    0.05128205128205    0.05769230769231             8
    0.01785714285715    0.07692307692308    0.05769230769231             8
    0.05357142857143    0.07692307692308    0.05769230769231             8
    0.08928571428572    0.07692307692308    0.05769230769231             8
    0.12500000000000    0.07692307692308    0.05769230769231             8
    0.16071428571428    0.07692307692308    0.05769230769231             8
    0.19642857142857    0.07692307692308    0.05769230769231             8
    0.23214285714285    0.07692307692308    0.05769230769231             8
    0.26785714285715    0.07692307692308    0.05769230769231             8
    0.30357142857143    0.07692307692308    0.05769230769231             8
    0.33928571428572    0.07692307692308    0.05769230769231             8
    0.37500000000000    0.07692307692308    0.05769230769231             8
    0.41071428571428    0.07692307692308    0.05769230769231             8
    0.44642857142857    0.07692307692308    0.05769230769231             8
    0.48214285714285    0.07692307692308    0.05769230769231             8
    0.01785714285715    0.10256410256410    0.05769230769231             8
    0.05357142857143    0.10256410256410    0.05769230769231             8
    0.08928571428572    0.10256410256410    0.05769230769231             8
    0.12500000000000    0.10256410256410    0.05769230769231             8
    0.16071428571428    0.10256410256410    0.05769230769231             8
    0.19642857142857    0.10256410256410    0.05769230769231             8
    0.23214285714285    0.10256410256410    0.05769230769231             8
    0.26785714285715    0.10256410256410    0.05769230769231             8
    0.30357142857143    0.10256410256410    0.05769230769231             8
    0.33928571428572    0.10256410256410    0.05769230769231             8
    0.37500000000000    0.10256410256410    0.05769230769231             8
    0.41071428571428    0.10256410256410    0.05769230769231             8
    0.44642857142857    0.10256410256410    0.05769230769231             8
    0.48214285714285    0.10256410256410    0.05769230769231             8
    0.01785714285715    0.12820512820513    0.05769230769231             8
    0.05357142857143    0.12820512820513    0.05769230769231             8
    0.08928571428572    0.12820512820513    0.05769230769231             8
    0.12500000000000    0.12820512820513    0.05769230769231             8
    0.16071428571428    0.12820512820513    0.05769230769231             8
    0.19642857142857    0.12820512820513    0.05769230769231             8
    0.23214285714285    0.12820512820513    0.05769230769231             8
    0.26785714285715    0.12820512820513    0.05769230769231             8
    0.30357142857143    0.12820512820513    0.05769230769231             8
    0.33928571428572    0.12820512820513    0.05769230769231             8
    0.37500000000000    0.12820512820513    0.05769230769231             8
    0.41071428571428    0.12820512820513    0.05769230769231             8
    0.44642857142857    0.12820512820513    0.05769230769231             8
    0.48214285714285    0.12820512820513    0.05769230769231             8
    0.01785714285715    0.15384615384615    0.05769230769231             8
    0.05357142857143    0.15384615384615    0.05769230769231             8
    0.08928571428572    0.15384615384615    0.05769230769231             8
    0.12500000000000    0.15384615384615    0.05769230769231             8
    0.16071428571428    0.15384615384615    0.05769230769231             8
    0.19642857142857    0.15384615384615    0.05769230769231             8
    0.23214285714285    0.15384615384615    0.05769230769231             8
    0.26785714285715    0.15384615384615    0.05769230769231             8
    0.30357142857143    0.15384615384615    0.05769230769231             8
    0.33928571428572    0.15384615384615    0.05769230769231             8
    0.37500000000000    0.15384615384615    0.05769230769231             8
    0.41071428571428    0.15384615384615    0.05769230769231             8
    0.44642857142857    0.15384615384615    0.05769230769231             8
    0.48214285714285    0.15384615384615    0.05769230769231             8
    0.01785714285715    0.17948717948718    0.05769230769231             8
    0.05357142857143    0.17948717948718    0.05769230769231             8
    0.08928571428572    0.17948717948718    0.05769230769231             8
    0.12500000000000    0.17948717948718    0.05769230769231             8
    0.16071428571428    0.17948717948718    0.05769230769231             8
    0.19642857142857    0.17948717948718    0.05769230769231             8
    0.23214285714285    0.17948717948718    0.05769230769231             8
    0.26785714285715    0.17948717948718    0.05769230769231             8
    0.30357142857143    0.17948717948718    0.05769230769231             8
    0.33928571428572    0.17948717948718    0.05769230769231             8
    0.37500000000000    0.17948717948718    0.05769230769231             8
    0.41071428571428    0.17948717948718    0.05769230769231             8
    0.44642857142857    0.17948717948718    0.05769230769231             8
    0.48214285714285    0.17948717948718    0.05769230769231             8
    0.01785714285715    0.20512820512820    0.05769230769231             8
    0.05357142857143    0.20512820512820    0.05769230769231             8
    0.08928571428572    0.20512820512820    0.05769230769231             8
    0.12500000000000    0.20512820512820    0.05769230769231             8
    0.16071428571428    0.20512820512820    0.05769230769231             8
    0.19642857142857    0.20512820512820    0.05769230769231             8
    0.23214285714285    0.20512820512820    0.05769230769231             8