 running   48 mpi-ranks, with    1 threads/rank, on    1 nodes
 distrk:  each k-point on   48 cores,    1 groups
 distr:  one band on   16 cores,    3 groups
 vasp.6.4.3 19Mar24 (build May 31 2024 16:31:43) complex                        
  
 POSCAR found type information on POSCAR B 
 POSCAR found :  1 types and      14 ions
 Reading from existing POTCAR
 scaLAPACK will be used
 Reading from existing POTCAR
 LDA part: xc-table for (Slater+PW92), standard interpolation
 -----------------------------------------------------------------------------
|                                                                             |
|           W    W    AA    RRRRR   N    N  II  N    N   GGGG   !!!           |
|           W    W   A  A   R    R  NN   N  II  NN   N  G    G  !!!           |
|           W    W  A    A  R    R  N N  N  II  N N  N  G       !!!           |
|           W WW W  AAAAAA  RRRRR   N  N N  II  N  N N  G  GGG   !            |
|           WW  WW  A    A  R   R   N   NN  II  N   NN  G    G                |
|           W    W  A    A  R    R  N    N  II  N    N   GGGG   !!!           |
|                                                                             |
|     The number of bands has been changed from the values supplied in        |
|     the INCAR file. This is a result of running the parallel version.       |
|     The orbitals not found in the WAVECAR file will be initialized with     |
|     random numbers, which is usually adequate. For correlated               |
|     calculations, however, you should redo the groundstate calculation.     |
|     I found NBANDS = 128. Now, NBANDS = 129.                                |
|                                                                             |
 -----------------------------------------------------------------------------

 found WAVECAR, reading the header
  number of bands has changed, file:    48 present:   129
  trying to continue reading WAVECAR, but it might fail
 POSCAR, INCAR and KPOINTS ok, starting setup
 FFT: planning ... GRIDC
 FFT: planning ... GRID_SOFT
 FFT: planning ... GRID
 reading WAVECAR
 random initialization beyond band           48
 the WAVECAR file was read successfully
 entering main loop
       N       E                     dE             d eps       ncg     rms          rms(c)
DAV:   1    -0.971410878967E+02   -0.97141E+02   -0.33132E+00939120   0.443E+00    0.119E+01
DAV:   2    -0.924044571677E+02    0.47366E+01   -0.24968E+00******   0.437E+00    0.692E+00
DAV:   3    -0.905977779479E+02    0.18067E+01   -0.12562E+00******   0.290E+00    0.151E+00
DAV:   4    -0.906104621649E+02   -0.12684E-01   -0.26531E-01******   0.838E-01    0.950E-01
DAV:   5    -0.906265476644E+02   -0.16085E-01   -0.11099E-02******   0.216E-01    0.205E-01
DAV:   6    -0.906304750494E+02   -0.39274E-02   -0.18771E-03******   0.853E-02    0.102E-01
DAV:   7    -0.906322820920E+02   -0.18070E-02   -0.57265E-04******   0.485E-02    0.389E-02
DAV:   8    -0.906323036252E+02   -0.21533E-04   -0.38100E-05******   0.150E-02    0.885E-03
DAV:   9    -0.906323145842E+02   -0.10959E-04   -0.57296E-06******   0.474E-03    0.265E-03
DAV:  10    -0.906323148388E+02   -0.25468E-06   -0.18832E-07******   0.916E-04
   1 F= -.90632315E+02 E0= -.90632249E+02  d E =-.132500E-03
 writing wavefunctions
 optical routines
 imaginary and real dielectric function
 recalculating local potential from charge density
 direction            1
 direction            2
 direction            3
