  14  14   0   0
  0.1021318E+02  0.6201871E-09  0.5700971E-09  0.4044058E-09  0.5000000E-15
  1.000000000000000E-004
  CAR 
 SC                                      
     17.43510952    -15.79874169  301      2.49722407      1.00000000
    -15.799  0.0000E+00  0.0000E+00
    -15.688  0.0000E+00  0.0000E+00
    -15.577  0.0000E+00  0.0000E+00
    -15.466  0.0000E+00  0.0000E+00
    -15.356  0.0000E+00  0.0000E+00
    -15.245  0.0000E+00  0.0000E+00
    -15.134  0.0000E+00  0.0000E+00
    -15.023  0.0000E+00  0.0000E+00
    -14.913  0.0000E+00  0.0000E+00
    -14.802  0.6369E-13  0.7055E-14
    -14.691  0.2511E-08  0.2782E-09
    -14.580  0.9661E-05  0.1070E-05
    -14.469  0.3995E-02  0.4437E-03
    -14.359  0.2126E+00  0.2400E-01
    -14.248  0.1845E+01  0.2284E+00
    -14.137  0.3227E+01  0.5859E+00
    -14.026  0.2560E+01  0.8695E+00
    -13.915  0.1898E+01  0.1080E+01
    -13.805  0.9150E+00  0.1181E+01
    -13.694  0.2177E+01  0.1422E+01
    -13.583  0.1123E+01  0.1547E+01
    -13.472  0.2194E+00  0.1571E+01
    -13.362  0.1438E+01  0.1730E+01
    -13.251  0.2024E+01  0.1955E+01
    -13.140  0.4003E+00  0.1999E+01
    -13.029  0.5926E-01  0.2005E+01
    -12.918  0.9409E+00  0.2110E+01
    -12.808  0.2258E+01  0.2360E+01
    -12.697  0.7340E+00  0.2441E+01
    -12.586  0.3249E-01  0.2445E+01
    -12.475  0.1998E+00  0.2467E+01
    -12.365  0.1640E+01  0.2649E+01
    -12.254  0.1866E+01  0.2855E+01
    -12.143  0.3064E+00  0.2889E+01
    -12.032  0.2733E+00  0.2920E+01
    -11.921  0.1318E+01  0.3066E+01
    -11.811  0.2109E+01  0.3299E+01
    -11.700  0.2011E+01  0.3522E+01
    -11.589  0.1392E+01  0.3676E+01
    -11.478  0.1214E+01  0.3811E+01
    -11.368  0.1066E+01  0.3929E+01
    -11.257  0.5086E+00  0.3985E+01
    -11.146  0.1277E+00  0.3999E+01
    -11.035  0.7545E-02  0.4000E+01
    -10.924  0.5421E-04  0.4000E+01
    -10.814  0.4163E-07  0.4000E+01
    -10.703  0.9352E-05  0.4000E+01
    -10.592  0.3559E-02  0.4000E+01
    -10.481  0.1614E+00  0.4018E+01
    -10.371  0.1197E+01  0.4151E+01
    -10.260  0.2675E+01  0.4447E+01
    -10.149  0.3857E+01  0.4874E+01
    -10.038  0.4218E+01  0.5342E+01
     -9.927  0.2926E+01  0.5666E+01
     -9.817  0.1838E+01  0.5869E+01
     -9.706  0.2191E+01  0.6112E+01
     -9.595  0.3446E+01  0.6494E+01
     -9.484  0.3468E+01  0.6878E+01
     -9.374  0.2165E+01  0.7118E+01
     -9.263  0.2474E+01  0.7392E+01
     -9.152  0.1544E+01  0.7563E+01
     -9.041  0.1232E+01  0.7699E+01
     -8.930  0.1350E+01  0.7849E+01
     -8.820  0.8380E+00  0.7942E+01
     -8.709  0.4708E+00  0.7994E+01
     -8.598  0.5469E-01  0.8000E+01
     -8.487  0.8489E-03  0.8000E+01
     -8.377  0.1511E-05  0.8000E+01
     -8.266  0.2765E-09  0.8000E+01
     -8.155  0.5650E-14  0.8000E+01
     -8.044  0.4831E-10  0.8000E+01
     -7.933  0.2744E-06  0.8000E+01
     -7.823  0.1628E-03  0.8000E+01
     -7.712  0.1215E-01  0.8001E+01
     -7.601  0.1706E+00  0.8020E+01
     -7.490  0.7807E+00  0.8107E+01
     -7.379  0.1577E+01  0.8281E+01
     -7.269  0.2134E+01  0.8518E+01
     -7.158  0.2668E+01  0.8813E+01
     -7.047  0.2288E+01  0.9067E+01
     -6.936  0.2172E+01  0.9308E+01
     -6.826  0.2414E+01  0.9575E+01
     -6.715  0.3752E+01  0.9991E+01
     -6.604  0.4395E+01  0.1048E+02
     -6.493  0.4173E+01  0.1094E+02
     -6.382  0.3211E+01  0.1130E+02
     -6.272  0.2623E+01  0.1159E+02
     -6.161  0.2961E+01  0.1191E+02
     -6.050  0.2867E+01  0.1223E+02
     -5.939  0.2819E+01  0.1254E+02
     -5.829  0.3746E+01  0.1296E+02
     -5.718  0.3992E+01  0.1340E+02
     -5.607  0.3780E+01  0.1382E+02
     -5.496  0.4527E+01  0.1432E+02
     -5.385  0.3641E+01  0.1472E+02
     -5.275  0.3116E+01  0.1507E+02
     -5.164  0.2186E+01  0.1531E+02
     -5.053  0.1745E+01  0.1551E+02
     -4.942  0.2014E+01  0.1573E+02
     -4.832  0.2703E+01  0.1603E+02
     -4.721  0.2735E+01  0.1633E+02
     -4.610  0.2433E+01  0.1660E+02
     -4.499  0.3035E+01  0.1694E+02
     -4.388  0.2579E+01  0.1722E+02
     -4.278  0.1881E+01  0.1743E+02
     -4.167  0.2198E+01  0.1767E+02
     -4.056  0.2361E+01  0.1794E+02
     -3.945  0.1749E+01  0.1813E+02
     -3.835  0.1702E+01  0.1832E+02
     -3.724  0.1295E+01  0.1846E+02
     -3.613  0.2111E+01  0.1870E+02
     -3.502  0.2234E+01  0.1894E+02
     -3.391  0.2118E+01  0.1918E+02
     -3.281  0.2444E+01  0.1945E+02
     -3.170  0.1994E+01  0.1967E+02
     -3.059  0.1063E+01  0.1979E+02
     -2.948  0.9973E+00  0.1990E+02
     -2.838  0.8860E+00  0.2000E+02
     -2.727  0.8989E+00  0.2010E+02
     -2.616  0.2102E+01  0.2033E+02
     -2.505  0.3099E+01  0.2067E+02
     -2.394  0.4010E+01  0.2112E+02
     -2.284  0.4903E+01  0.2166E+02
     -2.173  0.4840E+01  0.2220E+02
     -2.062  0.5448E+01  0.2280E+02
     -1.951  0.6333E+01  0.2350E+02
     -1.841  0.5419E+01  0.2410E+02
     -1.730  0.5012E+01  0.2466E+02
     -1.619  0.4873E+01  0.2520E+02
     -1.508  0.5178E+01  0.2577E+02
     -1.397  0.5326E+01  0.2636E+02
     -1.287  0.5139E+01  0.2693E+02
     -1.176  0.5224E+01  0.2751E+02
     -1.065  0.4641E+01  0.2802E+02
     -0.954  0.4361E+01  0.2850E+02
     -0.844  0.5159E+01  0.2908E+02
     -0.733  0.4104E+01  0.2953E+02
     -0.622  0.3845E+01  0.2996E+02
     -0.511  0.3865E+01  0.3038E+02
     -0.400  0.4314E+01  0.3086E+02
     -0.290  0.4239E+01  0.3133E+02
     -0.179  0.3258E+01  0.3169E+02
     -0.068  0.2724E+01  0.3199E+02
      0.043  0.3584E+01  0.3239E+02
      0.154  0.3644E+01  0.3280E+02
      0.264  0.1951E+01  0.3301E+02
      0.375  0.1227E+01  0.3315E+02
      0.486  0.1766E+01  0.3334E+02
      0.597  0.1832E+01  0.3355E+02
      0.707  0.1896E+01  0.3376E+02
      0.818  0.2358E+01  0.3402E+02
      0.929  0.2558E+01  0.3430E+02
      1.040  0.2814E+01  0.3461E+02
      1.151  0.3464E+01  0.3500E+02
      1.261  0.3864E+01  0.3542E+02
      1.372  0.3937E+01  0.3586E+02
      1.483  0.3961E+01  0.3630E+02
      1.594  0.3746E+01  0.3671E+02
      1.704  0.4165E+01  0.3718E+02
      1.815  0.4980E+01  0.3773E+02
      1.926  0.5697E+01  0.3836E+02
      2.037  0.5909E+01  0.3901E+02
      2.148  0.6369E+01  0.3972E+02
      2.258  0.6913E+01  0.4048E+02
      2.369  0.6496E+01  0.4120E+02
      2.480  0.6299E+01  0.4190E+02
      2.591  0.4737E+01  0.4243E+02
      2.701  0.3235E+01  0.4279E+02
      2.812  0.2846E+01  0.4310E+02
      2.923  0.3268E+01  0.4346E+02
      3.034  0.3990E+01  0.4390E+02
      3.145  0.3000E+01  0.4424E+02
      3.255  0.2057E+01  0.4446E+02
      3.366  0.1980E+01  0.4468E+02
      3.477  0.2936E+01  0.4501E+02
      3.588  0.3435E+01  0.4539E+02
      3.698  0.3740E+01  0.4580E+02
      3.809  0.4496E+01  0.4630E+02
      3.920  0.4705E+01  0.4682E+02
      4.031  0.3748E+01  0.4724E+02
      4.142  0.3775E+01  0.4766E+02
      4.252  0.4430E+01  0.4815E+02
      4.363  0.3567E+01  0.4854E+02
      4.474  0.3314E+01  0.4891E+02
      4.585  0.3966E+01  0.4935E+02
      4.695  0.4832E+01  0.4988E+02
      4.806  0.4579E+01  0.5039E+02
      4.917  0.3863E+01  0.5082E+02
      5.028  0.3150E+01  0.5117E+02
      5.139  0.3174E+01  0.5152E+02
      5.249  0.3706E+01  0.5193E+02
      5.360  0.4201E+01  0.5240E+02
      5.471  0.4621E+01  0.5291E+02
      5.582  0.4178E+01  0.5337E+02
      5.692  0.4432E+01  0.5386E+02
      5.803  0.4570E+01  0.5437E+02
      5.914  0.3937E+01  0.5480E+02
      6.025  0.3870E+01  0.5523E+02
      6.136  0.3517E+01  0.5562E+02
      6.246  0.3329E+01  0.5599E+02
      6.357  0.3790E+01  0.5641E+02
      6.468  0.4125E+01  0.5687E+02
      6.579  0.4453E+01  0.5736E+02
      6.689  0.3774E+01  0.5778E+02
      6.800  0.3957E+01  0.5822E+02
      6.911  0.4255E+01  0.5869E+02
      7.022  0.4230E+01  0.5916E+02
      7.133  0.4108E+01  0.5961E+02
      7.243  0.3935E+01  0.6005E+02
      7.354  0.3707E+01  0.6046E+02
      7.465  0.3305E+01  0.6083E+02
      7.576  0.3491E+01  0.6121E+02
      7.687  0.3812E+01  0.6163E+02
      7.797  0.3817E+01  0.6206E+02
      7.908  0.3371E+01  0.6243E+02
      8.019  0.2741E+01  0.6273E+02
      8.130  0.2899E+01  0.6306E+02
      8.240  0.3537E+01  0.6345E+02
      8.351  0.3440E+01  0.6383E+02
      8.462  0.2495E+01  0.6411E+02
      8.573  0.2218E+01  0.6435E+02
      8.684  0.2367E+01  0.6461E+02
      8.794  0.2564E+01  0.6490E+02
      8.905  0.2842E+01  0.6521E+02
      9.016  0.3161E+01  0.6556E+02
      9.127  0.3175E+01  0.6591E+02
      9.237  0.2454E+01  0.6619E+02
      9.348  0.1942E+01  0.6640E+02
      9.459  0.1870E+01  0.6661E+02
      9.570  0.1693E+01  0.6680E+02
      9.681  0.1880E+01  0.6700E+02
      9.791  0.2388E+01  0.6727E+02
      9.902  0.2141E+01  0.6751E+02
     10.013  0.2576E+01  0.6779E+02
     10.124  0.3312E+01  0.6816E+02
     10.234  0.3966E+01  0.6860E+02
     10.345  0.4722E+01  0.6912E+02
     10.456  0.4779E+01  0.6965E+02
     10.567  0.4139E+01  0.7011E+02
     10.678  0.4456E+01  0.7060E+02
     10.788  0.5367E+01  0.7120E+02
     10.899  0.5925E+01  0.7185E+02
     11.010  0.5257E+01  0.7244E+02
     11.121  0.4574E+01  0.7294E+02
     11.231  0.4590E+01  0.7345E+02
     11.342  0.4342E+01  0.7393E+02
     11.453  0.4137E+01  0.7439E+02
     11.564  0.4179E+01  0.7485E+02
     11.675  0.4549E+01  0.7536E+02
     11.785  0.5078E+01  0.7592E+02
     11.896  0.4761E+01  0.7645E+02
     12.007  0.5241E+01  0.7703E+02
     12.118  0.5637E+01  0.7765E+02
     12.228  0.5426E+01  0.7825E+02
     12.339  0.5492E+01  0.7886E+02
     12.450  0.6173E+01  0.7955E+02
     12.561  0.6392E+01  0.8025E+02
     12.672  0.6028E+01  0.8092E+02
     12.782  0.4707E+01  0.8144E+02
     12.893  0.4122E+01  0.8190E+02
     13.004  0.4313E+01  0.8238E+02
     13.115  0.4352E+01  0.8286E+02
     13.225  0.4986E+01  0.8341E+02
     13.336  0.5901E+01  0.8407E+02
     13.447  0.6067E+01  0.8474E+02
     13.558  0.5698E+01  0.8537E+02
     13.669  0.5051E+01  0.8593E+02
     13.779  0.3910E+01  0.8636E+02
     13.890  0.3576E+01  0.8676E+02
     14.001  0.4104E+01  0.8721E+02
     14.112  0.4267E+01  0.8768E+02
     14.223  0.4666E+01  0.8820E+02
     14.333  0.5254E+01  0.8878E+02
     14.444  0.5158E+01  0.8936E+02
     14.555  0.5621E+01  0.8998E+02
     14.666  0.6460E+01  0.9069E+02
     14.776  0.6889E+01  0.9146E+02
     14.887  0.6841E+01  0.9221E+02
     14.998  0.5987E+01  0.9288E+02
     15.109  0.5547E+01  0.9349E+02
     15.220  0.5572E+01  0.9411E+02
     15.330  0.4978E+01  0.9466E+02
     15.441  0.4449E+01  0.9515E+02
     15.552  0.3675E+01  0.9556E+02
     15.663  0.2105E+01  0.9579E+02
     15.773  0.1121E+01  0.9592E+02
     15.884  0.5267E+00  0.9598E+02
     15.995  0.1870E+00  0.9600E+02
     16.106  0.2406E-01  0.9600E+02
     16.217  0.6338E-03  0.9600E+02
     16.327  0.2106E-05  0.9600E+02
     16.438  0.7011E-09  0.9600E+02
     16.549  0.2161E-13  0.9600E+02
     16.660  0.0000E+00  0.9600E+02
     16.770  0.0000E+00  0.9600E+02
     16.881  0.0000E+00  0.9600E+02
     16.992  0.0000E+00  0.9600E+02
     17.103  0.0000E+00  0.9600E+02
     17.214  0.0000E+00  0.9600E+02
     17.324  0.0000E+00  0.9600E+02
     17.435  0.0000E+00  0.9600E+02
