   14   14    1    1
  0.1021318E+02  0.6201871E-09  0.5700971E-09  0.4044058E-09  0.5000000E-15
  1.000000000000000E-004
  CAR 
 SC                                      
     42    175     48
 
  0.5000000E-01  0.3571429E-01  0.0000000E+00  0.3174603E-02
      1        -14.288112   1.000000
      2        -11.301555   1.000000
      3        -10.065866   1.000000
      4         -9.823016   1.000000
      5         -7.347650   1.000000
      6         -6.518390   1.000000
      7         -5.871610   1.000000
      8         -4.465951   1.000000
      9         -4.219277   1.000000
     10         -3.436693   1.000000
     11         -2.677448   1.000000
     12         -2.543117   1.000000
     13         -2.521019   1.000000
     14         -1.615941   1.000000
     15         -1.366247   1.000000
     16         -0.208917   1.000000
     17          0.726228   1.000000
     18          1.718941   1.000000
     19          2.117776   1.000000
     20          2.395957   0.923946
     21          3.022673   0.000000
     22          3.284172   0.000000
     23          4.113494   0.000000
     24          4.225883   0.000000
     25          4.462300   0.000000
     26          5.779150   0.000000
     27          5.779799   0.000000
     28          6.077234   0.000000
     29          6.372439   0.000000
     30          6.978028   0.000000
     31          7.033344   0.000000
     32          7.379766   0.000000
     33          7.685632   0.000000
     34          8.485231   0.000000
     35         10.576274   0.000000
     36         10.789188   0.000000
     37         10.895462   0.000000
     38         11.316666   0.000000
     39         11.953271   0.000000
     40         12.190132   0.000000
     41         12.594558   0.000000
     42         12.686434   0.000000
     43         13.459326   0.000000
     44         14.164101   0.000000
     45         14.213141   0.000000
     46         14.615203   0.000000
     47         14.957926   0.000000
     48         15.412101   0.000000
 
  0.1500000E+00  0.3571429E-01  0.0000000E+00  0.3174603E-02
      1        -14.278175   1.000000
      2        -11.411696   1.000000
      3        -10.065643   1.000000
      4         -9.639221   1.000000
      5         -7.314191   1.000000
      6         -6.659528   1.000000
      7         -5.862461   1.000000
      8         -4.682302   1.000000
      9         -4.091478   1.000000
     10         -3.499386   1.000000
     11         -2.653978   1.000000
     12         -2.560086   1.000000
     13         -2.231705   1.000000
     14         -1.677206   1.000000
     15         -1.295128   1.000000
     16         -0.383244   1.000000
     17          0.763592   1.000000
     18          1.989475   1.000000
     19          2.063832   1.000000
     20          2.122821   1.000000
     21          2.901222   0.000000
     22          3.409828   0.000000
     23          4.118257   0.000000
     24          4.215092   0.000000
     25          4.514955   0.000000
     26          5.601288   0.000000
     27          5.745919   0.000000
     28          5.988580   0.000000
     29          6.404849   0.000000
     30          7.098229   0.000000
     31          7.268191   0.000000
     32          7.499917   0.000000
     33          7.665131   0.000000
     34          8.635632   0.000000
     35         10.469091   0.000000
     36         10.805930   0.000000
     37         10.976424   0.000000
     38         11.370309   0.000000
     39         11.844394   0.000000
     40         12.280105   0.000000
     41         12.397358   0.000000
     42         12.662360   0.000000
     43         12.944733   0.000000
     44         14.335536   0.000000
     45         14.386407   0.000000
     46         14.621466   0.000000
     47         14.633096   0.000000
     48         15.510691   0.000000
 
  0.2500000E+00  0.3571429E-01  0.0000000E+00  0.3174603E-02
      1        -14.261673   1.000000
      2        -11.559208   1.000000
      3        -10.065277   1.000000
      4         -9.351276   1.000000
      5         -7.255188   1.000000
      6         -6.922875   1.000000
      7         -5.767337   1.000000
      8         -4.964527   1.000000
      9         -4.168321   1.000000
     10         -3.356077   1.000000
     11         -2.616338   1.000000
     12         -2.606030   1.000000
     13         -1.806930   1.000000
     14         -1.711497   1.000000
     15         -1.184472   1.000000
     16         -0.679748   1.000000
     17          0.830357   1.000000
     18          1.654714   1.000000
     19          1.974404   1.000000
     20          2.429582   0.830617
     21          2.711290   0.001234
     22          3.626288   0.000000
     23          4.126087   0.000000
     24          4.213128   0.000000
     25          4.589688   0.000000
     26          5.299092   0.000000
     27          5.699820   0.000000
     28          5.851978   0.000000
     29          6.448465   0.000000
     30          7.228223   0.000000
     31          7.598398   0.000000
     32          7.684168   0.000000
     33          7.750040   0.000000
     34          8.901428   0.000000
     35         10.239312   0.000000
     36         10.590010   0.000000
     37         11.095234   0.000000
     38         11.475063   0.000000
     39         11.653188   0.000000
     40         12.428979   0.000000
     41         12.472227   0.000000
     42         12.573315   0.000000
     43         12.642622   0.000000
     44         13.981605   0.000000
     45         14.305474   0.000000
     46         14.529682   0.000000
     47         14.644272   0.000000
     48         15.111052   0.000000
 
  0.3500000E+00  0.3571429E-01  0.0000000E+00  0.3174603E-02
      1        -14.244598   1.000000
      2        -11.683937   1.000000
      3        -10.064944   1.000000
      4         -9.042280   1.000000
      5         -7.224327   1.000000
      6         -7.188461   1.000000
      7         -5.587559   1.000000
      8         -5.206653   1.000000
      9         -4.467274   1.000000
     10         -3.016830   1.000000
     11         -2.666181   1.000000
     12         -2.519988   1.000000
     13         -1.922135   1.000000
     14         -1.158090   1.000000
     15         -1.076634   1.000000
     16         -1.031715   1.000000
     17          0.907607   1.000000
     18          1.095165   1.000000
     19          1.881764   1.000000
     20          2.523448   0.355369
     21          2.918132   0.000000
     22          3.853152   0.000000
     23          4.134170   0.000000
     24          4.219340   0.000000
     25          4.664421   0.000000
     26          4.953295   0.000000
     27          5.660230   0.000000
     28          5.715780   0.000000
     29          6.484139   0.000000
     30          7.319846   0.000000
     31          7.561308   0.000000
     32          7.966036   0.000000
     33          8.209286   0.000000
     34          9.214968   0.000000
     35          9.877022   0.000000
     36         10.132707   0.000000
     37         11.255708   0.000000
     38         11.459428   0.000000
     39         11.693623   0.000000
     40         12.373343   0.000000
     41         12.511626   0.000000
     42         12.725936   0.000000
     43         12.752181   0.000000
     44         13.464736   0.000000
     45         14.012927   0.000000
     46         14.593698   0.000000
     47         14.782504   0.000000
     48         14.798997   0.000000
 
  0.4500000E+00  0.3571429E-01  0.0000000E+00  0.3174603E-02
      1        -14.233751   1.000000
      2        -11.753468   1.000000
      3        -10.064745   1.000000
      4         -8.814478   1.000000
      5         -7.449919   1.000000
      6         -7.142137   1.000000
      7         -5.383392   1.000000
      8         -5.346495   1.000000
      9         -4.757097   1.000000
     10         -2.744262   1.000000
     11         -2.694502   1.000000
     12         -2.417090   1.000000
     13         -2.022972   1.000000
     14         -1.324879   1.000000
     15         -1.010385   1.000000
     16         -0.651818   1.000000
     17          0.588766   1.000000
     18          0.962783   1.000000
     19          1.822533   1.000000
     20          2.405073   0.903748
     21          3.314228   0.000000
     22          3.956118   0.000000
     23          4.139271   0.000000
     24          4.225057   0.000000
     25          4.683928   0.000000
     26          4.728543   0.000000
     27          5.628451   0.000000
     28          5.638123   0.000000
     29          6.503156   0.000000
     30          7.364116   0.000000
     31          7.537439   0.000000
     32          8.093353   0.000000
     33          8.758121   0.000000
     34          9.417552   0.000000
     35          9.448312   0.000000
     36          9.806832   0.000000
     37         11.253828   0.000000
     38         11.475312   0.000000
     39         11.887107   0.000000
     40         12.320123   0.000000
     41         12.511788   0.000000
     42         12.755994   0.000000
     43         12.854261   0.000000
     44         13.138507   0.000000
     45         14.197175   0.000000
     46         14.532614   0.000000
     47         14.675655   0.000000
     48         14.905231   0.000000
 
  0.5000000E-01  0.1071429E+00  0.0000000E+00  0.3174603E-02
      1        -14.286944   1.000000
      2        -11.299998   1.000000
      3        -10.065707   1.000000
      4         -9.820931   1.000000
      5         -7.376803   1.000000
      6         -6.517543   1.000000
      7         -5.871157   1.000000
      8         -4.522927   1.000000
      9         -4.217716   1.000000
     10         -3.418399   1.000000
     11         -2.719698   1.000000
     12         -2.516556   1.000000
     13         -2.435965   1.000000
     14         -1.476614   1.000000
     15         -1.359665   1.000000
     16         -0.207100   1.000000
     17          0.687127   1.000000
     18          1.749395   1.000000
     19          2.136577   1.000000
     20          2.352794   0.979451
     21          2.960488   0.000000
     22          3.350288   0.000000
     23          3.927052   0.000000
     24          4.121252   0.000000
     25          4.431361   0.000000
     26          5.485058   0.000000
     27          5.864419   0.000000
     28          5.924738   0.000000
     29          6.485311   0.000000
     30          6.740094   0.000000
     31          7.027815   0.000000
     32          7.891667   0.000000
     33          8.210300   0.000000
     34          8.338807   0.000000
     35         10.441012   0.000000
     36         10.820912   0.000000
     37         10.933113   0.000000
     38         11.361365   0.000000
     39         11.892499   0.000000
     40         12.102029   0.000000
     41         12.670895   0.000000
     42         12.678164   0.000000
     43         13.440235   0.000000
     44         14.108961   0.000000
     45         14.318075   0.000000
     46         14.637231   0.000000
     47         14.903016   0.000000
     48         15.411376   0.000000
 
  0.1500000E+00  0.1071429E+00  0.0000000E+00  0.3174603E-02
      1        -14.277022   1.000000
      2        -11.410011   1.000000
      3        -10.065460   1.000000
      4         -9.637265   1.000000
      5         -7.343129   1.000000
      6         -6.658620   1.000000
      7         -5.861884   1.000000
      8         -4.736244   1.000000
      9         -4.089148   1.000000
     10         -3.486327   1.000000
     11         -2.608918   1.000000
     12         -2.555681   1.000000
     13         -2.216069   1.000000
     14         -1.533359   1.000000
     15         -1.288279   1.000000
     16         -0.380759   1.000000
     17          0.724887   1.000000
     18          2.012193   1.000000
     19          2.080094   1.000000
     20          2.090157   1.000000
     21          2.841416   0.000001
     22          3.471771   0.000000
     23          3.984337   0.000000
     24          4.127475   0.000000
     25          4.402100   0.000000
     26          5.411661   0.000000
     27          5.740685   0.000000
     28          5.834795   0.000000
     29          6.515818   0.000000
     30          6.927848   0.000000
     31          7.258647   0.000000
     32          7.939480   0.000000
     33          8.177896   0.000000
     34          8.516274   0.000000
     35         10.347397   0.000000
     36         10.824778   0.000000
     37         10.969485   0.000000
     38         11.434854   0.000000
     39         11.821066   0.000000
     40         12.159046   0.000000
     41         12.437832   0.000000
     42         12.674609   0.000000
     43         12.936980   0.000000
     44         14.307129   0.000000
     45         14.430962   0.000000
     46         14.613532   0.000000
     47         14.639323   0.000000
     48         15.414908   0.000000
 
  0.2500000E+00  0.1071429E+00  0.0000000E+00  0.3174603E-02
      1        -14.260548   1.000000
      2        -11.557389   1.000000
      3        -10.065109   1.000000
      4         -9.349514   1.000000
      5         -7.283679   1.000000
      6         -6.921859   1.000000
      7         -5.766628   1.000000
      8         -5.015972   1.000000
      9         -4.164110   1.000000
     10         -3.348464   1.000000
     11         -2.612012   1.000000
     12         -2.529362   1.000000
     13         -1.806669   1.000000
     14         -1.585095   1.000000
     15         -1.177195   1.000000
     16         -0.676524   1.000000
     17          0.792533   1.000000
     18          1.613381   1.000000
     19          1.986222   1.000000
     20          2.469341   0.653330
     21          2.654892   0.012882
     22          3.676928   0.000000
     23          4.070783   0.000000
     24          4.137427   0.000000
     25          4.371245   0.000000
     26          5.287936   0.000000
     27          5.448112   0.000000
     28          5.793231   0.000000
     29          6.557318   0.000000
     30          7.172135   0.000000
     31          7.667781   0.000000
     32          7.993899   0.000000
     33          8.173513   0.000000
     34          8.803418   0.000000
     35         10.142322   0.000000
     36         10.621805   0.000000
     37         11.020623   0.000000
     38         11.484676   0.000000
     39         11.709145   0.000000
     40         12.228707   0.000000
     41         12.458866   0.000000
     42         12.610283   0.000000
     43         12.725997   0.000000
     44         13.789141   0.000000
     45         14.540892   0.000000
     46         14.543231   0.000000
     47         14.694693   0.000000
     48         15.000820   0.000000
 
  0.3500000E+00  0.1071429E+00  0.0000000E+00  0.3174603E-02
      1        -14.243505   1.000000
      2        -11.682014   1.000000
      3        -10.064779   1.000000
      4         -9.040694   1.000000
      5         -7.223584   1.000000
      6         -7.215937   1.000000
      7         -5.586769   1.000000
      8         -5.256914   1.000000
      9         -4.463521   1.000000
     10         -3.007793   1.000000
     11         -2.661930   1.000000
     12         -2.439305   1.000000
     13         -1.804877   1.000000
     14         -1.162434   1.000000
     15         -1.068903   1.000000
     16         -1.023154   1.000000
     17          0.871277   1.000000
     18          1.058252   1.000000
     19          1.888237   1.000000
     20          2.470422   0.647671
     21          2.964801   0.000000
     22          3.881732   0.000000
     23          4.147281   0.000000
     24          4.157707   0.000000
     25          4.354469   0.000000
     26          5.066481   0.000000
     27          5.215852   0.000000
     28          5.757333   0.000000
     29          6.591506   0.000000
     30          7.366907   0.000000
     31          8.005642   0.000000
     32          8.182736   0.000000
     33          8.204849   0.000000
     34          9.140204   0.000000
     35          9.810000   0.000000
     36         10.203083   0.000000
     37         11.066745   0.000000
     38         11.481327   0.000000
     39         11.716520   0.000000
     40         12.259473   0.000000
     41         12.411010   0.000000
     42         12.802877   0.000000
     43         12.854848   0.000000
     44         13.296891   0.000000
     45         14.281833   0.000000
     46         14.421959   0.000000
     47         14.773130   0.000000
     48         14.871991   0.000000
 
  0.4500000E+00  0.1071429E+00  0.0000000E+00  0.3174603E-02
      1        -14.232663   1.000000
      2        -11.751487   1.000000
      3        -10.064583   1.000000
      4         -8.813028   1.000000
      5         -7.448647   1.000000
      6         -7.169486   1.000000
      7         -5.396930   1.000000
      8         -5.382170   1.000000
      9         -4.753685   1.000000
     10         -2.725407   1.000000
     11         -2.690292   1.000000
     12         -2.348386   1.000000
     13         -1.893921   1.000000
     14         -1.323020   1.000000
     15         -1.002344   1.000000
     16         -0.659935   1.000000
     17          0.553829   1.000000
     18          0.927945   1.000000
     19          1.824723   1.000000
     20          2.354435   0.978274
     21          3.371051   0.000000
     22          3.948391   0.000000
     23          4.153371   0.000000
     24          4.209003   0.000000
     25          4.373227   0.000000
     26          4.812925   0.000000
     27          5.141516   0.000000
     28          5.737277   0.000000
     29          6.609787   0.000000
     30          7.468489   0.000000
     31          7.997501   0.000000
     32          8.227091   0.000000
     33          8.711251   0.000000
     34          9.383629   0.000000
     35          9.395402   0.000000
     36          9.898404   0.000000
     37         11.076460   0.000000
     38         11.430495   0.000000
     39         11.844480   0.000000
     40         12.262633   0.000000
     41         12.415350   0.000000
     42         12.686665   0.000000
     43         12.979200   0.000000
     44         13.243173   0.000000
     45         14.262077   0.000000
     46         14.338960   0.000000
     47         14.728126   0.000000
     48         14.995619   0.000000
 
  0.5000000E-01  0.1785714E+00  0.0000000E+00  0.3174603E-02
      1        -14.284835   1.000000
      2        -11.297178   1.000000
      3        -10.065355   1.000000
      4         -9.817127   1.000000
      5         -7.427746   1.000000
      6         -6.515965   1.000000
      7         -5.870325   1.000000
      8         -4.617128   1.000000
      9         -4.214952   1.000000
     10         -3.391748   1.000000
     11         -2.774312   1.000000
     12         -2.508402   1.000000
     13         -2.245375   1.000000
     14         -1.347642   1.000000
     15         -1.221584   1.000000
     16         -0.203491   1.000000
     17          0.620194   1.000000
     18          1.788092   1.000000
     19          2.167180   0.999998
     20          2.279280   0.998973
     21          2.856430   0.000000
     22          3.409245   0.000000
     23          3.526356   0.000000
     24          4.132338   0.000000
     25          4.397154   0.000000
     26          4.807227   0.000000
     27          6.024853   0.000000
     28          6.114742   0.000000
     29          6.572487   0.000000
     30          6.690824   0.000000
     31          7.022837   0.000000
     32          7.923607   0.000000
     33          8.612515   0.000000
     34          8.842522   0.000000
     35         10.189176   0.000000
     36         10.850876   0.000000
     37         10.993026   0.000000
     38         11.448118   0.000000
     39         11.820973   0.000000
     40         11.925516   0.000000
     41         12.653172   0.000000
     42         12.804465   0.000000
     43         13.441738   0.000000
     44         14.031563   0.000000
     45         14.515459   0.000000
     46         14.684001   0.000000
     47         14.783668   0.000000
     48         15.427137   0.000000
 
  0.1500000E+00  0.1785714E+00  0.0000000E+00  0.3174603E-02
      1        -14.274942   1.000000
      2        -11.406973   1.000000
      3        -10.065140   1.000000
      4         -9.633724   1.000000
      5         -7.393696   1.000000
      6         -6.656951   1.000000
      7         -5.860862   1.000000
      8         -4.826020   1.000000
      9         -4.085260   1.000000
     10         -3.467246   1.000000
     11         -2.573688   1.000000
     12         -2.547657   1.000000
     13         -2.117464   1.000000
     14         -1.276197   1.000000
     15         -1.275754   1.000000
     16         -0.376031   1.000000
     17          0.658446   1.000000
     18          1.976855   1.000000
     19          2.091946   1.000000
     20          2.106527   1.000000
     21          2.740765   0.000286
     22          3.500700   0.000000
     23          3.621636   0.000000
     24          4.140995   0.000000
     25          4.343627   0.000000
     26          4.745564   0.000000
     27          5.926381   0.000000
     28          6.003283   0.000000
     29          6.719718   0.000000
     30          6.777365   0.000000
     31          7.243427   0.000000
     32          8.041903   0.000000
     33          8.690691   0.000000
     34          8.839851   0.000000
     35         10.118301   0.000000
     36         10.844069   0.000000
     37         10.913927   0.000000
     38         11.552741   0.000000
     39         11.825076   0.000000
     40         11.941913   0.000000
     41         12.504671   0.000000
     42         12.689802   0.000000
     43         12.963771   0.000000
     44         14.191310   0.000000
     45         14.559539   0.000000
     46         14.570544   0.000000
     47         14.715882   0.000000
     48         15.263616   0.000000
 
  0.2500000E+00  0.1785714E+00  0.0000000E+00  0.3174603E-02
      1        -14.258521   1.000000
      2        -11.554106   1.000000
      3        -10.064782   1.000000
      4         -9.346297   1.000000
      5         -7.333496   1.000000
      6         -6.920003   1.000000
      7         -5.765374   1.000000
      8         -5.102175   1.000000
      9         -4.157350   1.000000
     10         -3.337504   1.000000
     11         -2.604154   1.000000
     12         -2.404755   1.000000
     13         -1.781555   1.000000
     14         -1.346306   1.000000
     15         -1.163813   1.000000
     16         -0.670251   1.000000
     17          0.727269   1.000000
     18          1.542721   1.000000
     19          2.005543   1.000000
     20          2.510804   0.423851
     21          2.559280   0.190079
     22          3.631759   0.000000
     23          3.784968   0.000000
     24          4.154520   0.000000
     25          4.279826   0.000000
     26          4.656364   0.000000
     27          5.628011   0.000000
     28          5.971127   0.000000
     29          6.759815   0.000000
     30          7.036131   0.000000
     31          7.636582   0.000000
     32          8.219967   0.000000
     33          8.754854   0.000000
     34          8.928260   0.000000
     35          9.956640   0.000000
     36         10.645584   0.000000
     37         10.856408   0.000000
     38         11.535423   0.000000
     39         11.812063   0.000000
     40         11.950427   0.000000
     41         12.458666   0.000000
     42         12.692776   0.000000
     43         12.789538   0.000000
     44         13.646205   0.000000
     45         14.458587   0.000000
     46         14.757670   0.000000
     47         14.851610   0.000000
     48         14.892011   0.000000
 
  0.3500000E+00  0.1785714E+00  0.0000000E+00  0.3174603E-02
      1        -14.241516   1.000000
      2        -11.678537   1.000000
      3        -10.064450   1.000000
      4         -9.037801   1.000000
      5         -7.265212   1.000000
      6         -7.220932   1.000000
      7         -5.585367   1.000000
      8         -5.341458   1.000000
      9         -4.457360   1.000000
     10         -2.996016   1.000000
     11         -2.654209   1.000000
     12         -2.292509   1.000000
     13         -1.598620   1.000000
     14         -1.144561   1.000000
     15         -1.054580   1.000000
     16         -1.004862   1.000000
     17          0.807888   1.000000
     18          0.995754   1.000000
     19          1.899139   1.000000
     20          2.379968   0.951366
     21          2.989716   0.000000
     22          3.779278   0.000000
     23          3.927962   0.000000
     24          4.167415   0.000000
     25          4.227026   0.000000
     26          4.593845   0.000000
     27          5.289005   0.000000
     28          5.942427   0.000000
     29          6.793251   0.000000
     30          7.244929   0.000000
     31          8.129013   0.000000
     32          8.371034   0.000000
     33          8.701558   0.000000
     34          9.183859   0.000000
     35          9.681171   0.000000
     36         10.293054   0.000000
     37         10.843597   0.000000
     38         11.386143   0.000000
     39         11.783337   0.000000
     40         11.939965   0.000000
     41         12.474159   0.000000
     42         12.889852   0.000000
     43         12.947985   0.000000
     44         13.245370   0.000000
     45         14.135607   0.000000
     46         14.596898   0.000000
     47         14.770459   0.000000
     48         15.021117   0.000000
 
  0.4500000E+00  0.1785714E+00  0.0000000E+00  0.3174603E-02
      1        -14.230717   1.000000
      2        -11.747916   1.000000
      3        -10.064253   1.000000
      4         -8.810374   1.000000
      5         -7.446323   1.000000
      6         -7.217324   1.000000
      7         -5.480872   1.000000
      8         -5.381169   1.000000
      9         -4.748043   1.000000
     10         -2.704087   1.000000
     11         -2.682635   1.000000
     12         -2.210403   1.000000
     13         -1.655277   1.000000
     14         -1.318882   1.000000
     15         -0.987385   1.000000
     16         -0.661987   1.000000
     17          0.494613   1.000000
     18          0.866424   1.000000
     19          1.828970   1.000000
     20          2.267775   0.999413
     21          3.347283   0.000000
     22          3.866576   0.000000
     23          4.014224   0.000000
     24          4.175170   0.000000
     25          4.196902   0.000000
     26          4.554156   0.000000
     27          5.042844   0.000000
     28          5.926215   0.000000
     29          6.811219   0.000000
     30          7.355613   0.000000
     31          8.456462   0.000000
     32          8.613768   0.000000
     33          8.628759   0.000000
     34          9.322237   0.000000
     35          9.399433   0.000000
     36         10.047056   0.000000
     37         10.888611   0.000000
     38         11.274054   0.000000
     39         11.681712   0.000000
     40         11.927013   0.000000
     41         12.563794   0.000000
     42         12.781713   0.000000
     43         13.085614   0.000000
     44         13.384963   0.000000
     45         13.910479   0.000000
     46         14.559981   0.000000
     47         14.747966   0.000000
     48         15.117571   0.000000
 
  0.5000000E-01  0.2500000E+00  0.0000000E+00  0.3174603E-02
      1        -14.282202   1.000000
      2        -11.293649   1.000000
      3        -10.064918   1.000000
      4         -9.812322   1.000000
      5         -7.488632   1.000000
      6         -6.513941   1.000000
      7         -5.869298   1.000000
      8         -4.722707   1.000000
      9         -4.211589   1.000000
     10         -3.366873   1.000000
     11         -2.832856   1.000000
     12         -2.498057   1.000000
     13         -1.979409   1.000000
     14         -1.332376   1.000000
     15         -0.885589   1.000000
     16         -0.197763   1.000000
     17          0.541937   1.000000
     18          1.786508   1.000000
     19          2.194574   0.999991
     20          2.200477   0.999986
     21          2.737833   0.000334
     22          2.922584   0.000000
     23          3.723377   0.000000
     24          4.121694   0.000000
     25          4.142576   0.000000
     26          4.362200   0.000000
     27          6.236452   0.000000
     28          6.341679   0.000000
     29          6.426965   0.000000
     30          6.954955   0.000000
     31          7.033370   0.000000
     32          7.569851   0.000000
     33          9.251120   0.000000
     34          9.388324   0.000000
     35          9.852675   0.000000
     36         10.796845   0.000000
     37         11.060072   0.000000
     38         11.565708   0.000000
     39         11.679193   0.000000
     40         11.847810   0.000000
     41         12.641290   0.000000
     42         12.926512   0.000000
     43         13.512873   0.000000
     44         13.970276   0.000000
     45         14.629995   0.000000
     46         14.677422   0.000000
     47         14.867102   0.000000
     48         15.408292   0.000000
 
  0.1500000E+00  0.2500000E+00  0.0000000E+00  0.3174603E-02
      1        -14.272347   1.000000
      2        -11.403170   1.000000
      3        -10.064709   1.000000
      4         -9.629236   1.000000
      5         -7.454149   1.000000
      6         -6.654822   1.000000
      7         -5.859594   1.000000
      8         -4.927388   1.000000