<?xml version="1.0" encoding="ISO-8859-1"?>
<modeling>
 <generator>
  <i name="program" type="string">vasp </i>
  <i name="version" type="string">6.4.3  </i>
  <i name="subversion" type="string">19Mar24 (build May 31 2024 16:31:43) complex                          parallel </i>
  <i name="platform" type="string">LinuxIFC </i>
  <i name="date" type="string">2024 11 21 </i>
  <i name="time" type="string">10:59:46 </i>
 </generator>
 <incar>
  <i type="string" name="SYSTEM">SC</i>
  <i type="int" name="ISTART">     0</i>
  <i type="string" name="PREC">Accurate</i>
  <i type="string" name="ALGO">Normal</i>
  <i type="int" name="ICHARG">     2</i>
  <i type="int" name="NELM">    64</i>
  <i type="int" name="IBRION">    -1</i>
  <i name="EDIFF">      0.00000100</i>
  <i name="EDIFFG">     -0.00100000</i>
  <i name="SYMPREC">      0.00000100</i>
  <i name="ENCUT">    600.00000000</i>
  <i type="int" name="ISMEAR">     0</i>
  <i name="SIGMA">      0.10000000</i>
  <i type="logical" name="LWAVE"> T  </i>
  <i type="logical" name="LCHARG"> T  </i>
  <i type="string" name="GGA">PE</i>
  <i type="int" name="IVDW">    12</i>
 </incar>
 <primitive_cell>
  <structure name="primitive_cell" >
   <crystal>
    <varray name="basis" >
     <v>       6.20187120       0.00000000       0.00000000 </v>
     <v>       0.00000000       5.70097069       0.00000000 </v>
     <v>       0.00000000       0.00000000       4.04405810 </v>
    </varray>
    <i name="volume">    142.98449202 </i>
    <varray name="rec_basis" >
     <v>       0.16124166       0.00000000       0.00000000 </v>
     <v>       0.00000000       0.17540872       0.00000000 </v>
     <v>       0.00000000       0.00000000       0.24727637 </v>
    </varray>
   </crystal>
   <varray name="positions" >
    <v>       0.63795770       0.50000000       0.52128988 </v>
    <v>       0.36204230       0.50000000       0.47871012 </v>
    <v>       0.63795770       0.50000000       0.97871012 </v>
    <v>       0.36204230       0.50000000       0.02128988 </v>
    <v>       0.89986832       0.50000000       0.59744966 </v>
    <v>       0.10013168       0.50000000       0.40255034 </v>
    <v>       0.89986832       0.50000000       0.90255034 </v>
    <v>       0.10013168       0.50000000       0.09744966 </v>
    <v>       0.72957940       0.79156493       0.75000000 </v>
    <v>       0.27042060       0.20843507       0.25000000 </v>
    <v>       0.72957940       0.20843507       0.75000000 </v>
    <v>       0.27042060       0.79156493       0.25000000 </v>
    <v>       0.52399303       0.50000000       0.25000000 </v>
    <v>       0.47600697       0.50000000       0.75000000 </v>
   </varray>
  </structure>
  <varray name="primitive_index" >
   <v type="int" >        1 </v>
   <v type="int" >        2 </v>
   <v type="int" >        3 </v>
   <v type="int" >        4 </v>
   <v type="int" >        5 </v>
   <v type="int" >        6 </v>
   <v type="int" >        7 </v>
   <v type="int" >        8 </v>
   <v type="int" >        9 </v>
   <v type="int" >       10 </v>
   <v type="int" >       11 </v>
   <v type="int" >       12 </v>
   <v type="int" >       13 </v>
   <v type="int" >       14 </v>
  </varray>
 </primitive_cell>
 <kpoints>
  <generation param="Monkhorst-Pack">
   <v type="int" name="divisions">      10       14        9 </v>
   <v name="usershift">      0.00000000       0.00000000       0.00000000 </v>
   <v name="genvec1">      0.10000000       0.00000000       0.00000000 </v>
   <v name="genvec2">      0.00000000       0.07142857       0.00000000 </v>
   <v name="genvec3">      0.00000000       0.00000000       0.11111111 </v>
   <v name="shift">      0.50000000       0.50000000       0.00000000 </v>
  </generation>
  <varray name="kpointlist" >
   <v>       0.05000000       0.03571429       0.00000000 </v>
   <v>       0.15000000       0.03571429       0.00000000 </v>
   <v>       0.25000000       0.03571429       0.00000000 </v>
   <v>       0.35000000       0.03571429       0.00000000 </v>
   <v>       0.45000000       0.03571429       0.00000000 </v>
   <v>       0.05000000       0.10714286       0.00000000 </v>
   <v>       0.15000000       0.10714286       0.00000000 </v>
   <v>       0.25000000       0.10714286       0.00000000 </v>
   <v>       0.35000000       0.10714286       0.00000000 </v>
   <v>       0.45000000       0.10714286       0.00000000 </v>
   <v>       0.05000000       0.17857143       0.00000000 </v>
   <v>       0.15000000       0.17857143       0.00000000 </v>
   <v>       0.25000000       0.17857143       0.00000000 </v>
   <v>       0.35000000       0.17857143       0.00000000 </v>
   <v>       0.45000000       0.17857143       0.00000000 </v>
   <v>       0.05000000       0.25000000       0.00000000 </v>
   <v>       0.15000000       0.25000000       0.00000000 </v>
   <v>       0.25000000       0.25000000       0.00000000 </v>
   <v>       0.35000000       0.25000000       0.00000000 </v>
   <v>       0.45000000       0.25000000       0.00000000 </v>
   <v>       0.05000000       0.32142857       0.00000000 </v>
   <v>       0.15000000       0.32142857       0.00000000 </v>
   <v>       0.25000000       0.32142857       0.00000000 </v>
   <v>       0.35000000       0.32142857       0.00000000 </v>
   <v>       0.45000000       0.32142857       0.00000000 </v>
   <v>       0.05000000       0.39285714       0.00000000 </v>
   <v>       0.15000000       0.39285714       0.00000000 </v>
   <v>       0.25000000       0.39285714       0.00000000 </v>
   <v>       0.35000000       0.39285714       0.00000000 </v>
   <v>       0.45000000       0.39285714       0.00000000 </v>
   <v>       0.05000000       0.46428571       0.00000000 </v>
   <v>       0.15000000       0.46428571       0.00000000 </v>
   <v>       0.25000000       0.46428571       0.00000000 </v>
   <v>       0.35000000       0.46428571       0.00000000 </v>
   <v>       0.45000000       0.46428571       0.00000000 </v>
   <v>       0.05000000       0.03571429       0.11111111 </v>
   <v>       0.15000000       0.03571429       0.11111111 </v>
   <v>       0.25000000       0.03571429       0.11111111 </v>
   <v>       0.35000000       0.03571429       0.11111111 </v>
   <v>       0.45000000       0.03571429       0.11111111 </v>
   <v>       0.05000000       0.10714286       0.11111111 </v>
   <v>       0.15000000       0.10714286       0.11111111 </v>
   <v>       0.25000000       0.10714286       0.11111111 </v>
   <v>       0.35000000       0.10714286       0.11111111 </v>
   <v>       0.45000000       0.10714286       0.11111111 </v>
   <v>       0.05000000       0.17857143       0.11111111 </v>
   <v>       0.15000000       0.17857143       0.11111111 </v>
   <v>       0.25000000       0.17857143       0.11111111 </v>
   <v>       0.35000000       0.17857143       0.11111111 </v>
   <v>       0.45000000       0.17857143       0.11111111 </v>
   <v>       0.05000000       0.25000000       0.11111111 </v>
   <v>       0.15000000       0.25000000       0.11111111 </v>
   <v>       0.25000000       0.25000000       0.11111111 </v>
   <v>       0.35000000       0.25000000       0.11111111 </v>
   <v>       0.45000000       0.25000000       0.11111111 </v>
   <v>       0.05000000       0.32142857       0.11111111 </v>
   <v>       0.15000000       0.32142857       0.11111111 </v>
   <v>       0.25000000       0.32142857       0.11111111 </v>
   <v>       0.35000000       0.32142857       0.11111111 </v>
   <v>       0.45000000       0.32142857       0.11111111 </v>
   <v>       0.05000000       0.39285714       0.11111111 </v>
   <v>       0.15000000       0.39285714       0.11111111 </v>
   <v>       0.25000000       0.39285714       0.11111111 </v>
   <v>       0.35000000       0.39285714       0.11111111 </v>
   <v>       0.45000000       0.39285714       0.11111111 </v>
   <v>       0.05000000       0.46428571       0.11111111 </v>
   <v>       0.15000000       0.46428571       0.11111111 </v>
   <v>       0.25000000       0.46428571       0.11111111 </v>
   <v>       0.35000000       0.46428571       0.11111111 </v>
   <v>       0.45000000       0.46428571       0.11111111 </v>
   <v>       0.05000000       0.03571429       0.22222222 </v>
   <v>       0.15000000       0.03571429       0.22222222 </v>
   <v>       0.25000000       0.03571429       0.22222222 </v>
   <v>       0.35000000       0.03571429       0.22222222 </v>
   <v>       0.45000000       0.03571429       0.22222222 </v>
   <v>       0.05000000       0.10714286       0.22222222 </v>
   <v>       0.15000000       0.10714286       0.22222222 </v>
   <v>       0.25000000       0.10714286       0.22222222 </v>
   <v>       0.35000000       0.10714286       0.22222222 </v>
   <v>       0.45000000       0.10714286       0.22222222 </v>
   <v>       0.05000000       0.17857143       0.22222222 </v>
   <v>       0.15000000       0.17857143       0.22222222 </v>
   <v>       0.25000000       0.17857143       0.22222222 </v>
   <v>       0.35000000       0.17857143       0.22222222 </v>
   <v>       0.45000000       0.17857143       0.22222222 </v>
   <v>       0.05000000       0.25000000       0.22222222 </v>
   <v>       0.15000000       0.25000000       0.22222222 </v>
   <v>       0.25000000       0.25000000       0.22222222 </v>
   <v>       0.35000000       0.25000000       0.22222222 </v>
   <v>       0.45000000       0.25000000       0.22222222 </v>
   <v>       0.05000000       0.32142857       0.22222222 </v>
   <v>       0.15000000       0.32142857       0.22222222 </v>
   <v>       0.25000000       0.32142857       0.22222222 </v>
   <v>       0.35000000       0.32142857       0.22222222 </v>
   <v>       0.45000000       0.32142857       0.22222222 </v>
   <v>       0.05000000       0.39285714       0.22222222 </v>
   <v>       0.15000000       0.39285714       0.22222222 </v>
   <v>       0.25000000       0.39285714       0.22222222 </v>
   <v>       0.35000000       0.39285714       0.22222222 </v>
   <v>       0.45000000       0.39285714       0.22222222 </v>
   <v>       0.05000000       0.46428571       0.22222222 </v>
   <v>       0.15000000       0.46428571       0.22222222 </v>
   <v>       0.25000000       0.46428571       0.22222222 </v>
   <v>       0.35000000       0.46428571       0.22222222 </v>
   <v>       0.45000000       0.46428571       0.22222222 </v>
   <v>       0.05000000       0.03571429       0.33333333 </v>
   <v>       0.15000000       0.03571429       0.33333333 </v>
   <v>       0.25000000       0.03571429       0.33333333 </v>
   <v>       0.35000000       0.03571429       0.33333333 </v>
   <v>       0.45000000       0.03571429       0.33333333 </v>
   <v>       0.05000000       0.10714286       0.33333333 </v>
   <v>       0.15000000       0.10714286       0.33333333 </v>
   <v>       0.25000000       0.10714286       0.33333333 </v>
   <v>       0.35000000       0.10714286       0.33333333 </v>
   <v>       0.45000000       0.10714286       0.33333333 </v>
   <v>       0.05000000       0.17857143       0.33333333 </v>
   <v>       0.15000000       0.17857143       0.33333333 </v>
   <v>       0.25000000       0.17857143       0.33333333 </v>
   <v>       0.35000000       0.17857143       0.33333333 </v>
   <v>       0.45000000       0.17857143       0.33333333 </v>
   <v>       0.05000000       0.25000000       0.33333333 </v>
   <v>       0.15000000       0.25000000       0.33333333 </v>
   <v>       0.25000000       0.25000000       0.33333333 </v>
   <v>       0.35000000       0.25000000       0.33333333 </v>
   <v>       0.45000000       0.25000000       0.33333333 </v>
   <v>       0.05000000       0.32142857       0.33333333 </v>
   <v>       0.15000000       0.32142857       0.33333333 </v>
   <v>       0.25000000       0.32142857       0.33333333 </v>
   <v>       0.35000000       0.32142857       0.33333333 </v>
   <v>       0.45000000       0.32142857       0.33333333 </v>
   <v>       0.05000000       0.39285714       0.33333333 </v>
   <v>       0.15000000       0.39285714       0.33333333 </v>
   <v>       0.25000000       0.39285714       0.33333333 </v>
   <v>       0.35000000       0.39285714       0.33333333 </v>
   <v>       0.45000000       0.39285714       0.33333333 </v>
   <v>       0.05000000       0.46428571       0.33333333 </v>
   <v>       0.15000000       0.46428571       0.33333333 </v>
   <v>       0.25000000       0.46428571       0.33333333 </v>
   <v>       0.35000000       0.46428571       0.33333333 </v>
   <v>       0.45000000       0.46428571       0.33333333 </v>
   <v>       0.05000000       0.03571429       0.44444444 </v>
   <v>       0.15000000       0.03571429       0.44444444 </v>
   <v>       0.25000000       0.03571429       0.44444444 </v>
   <v>       0.35000000       0.03571429       0.44444444 </v>
   <v>       0.45000000       0.03571429       0.44444444 </v>
   <v>       0.05000000       0.10714286       0.44444444 </v>
   <v>       0.15000000       0.10714286       0.44444444 </v>
   <v>       0.25000000       0.10714286       0.44444444 </v>
   <v>       0.35000000       0.10714286       0.44444444 </v>
   <v>       0.45000000       0.10714286       0.44444444 </v>
   <v>       0.05000000       0.17857143       0.44444444 </v>
   <v>       0.15000000       0.17857143       0.44444444 </v>
   <v>       0.25000000       0.17857143       0.44444444 </v>
   <v>       0.35000000       0.17857143       0.44444444 </v>
   <v>       0.45000000       0.17857143       0.44444444 </v>
   <v>       0.05000000       0.25000000       0.44444444 </v>
   <v>       0.15000000       0.25000000       0.44444444 </v>
   <v>       0.25000000       0.25000000       0.44444444 </v>
   <v>       0.35000000       0.25000000       0.44444444 </v>
   <v>       0.45000000       0.25000000       0.44444444 </v>
   <v>       0.05000000       0.32142857       0.44444444 </v>
   <v>       0.15000000       0.32142857       0.44444444 </v>
   <v>       0.25000000       0.32142857       0.44444444 </v>
   <v>       0.35000000       0.32142857       0.44444444 </v>
   <v>       0.45000000       0.32142857       0.44444444 </v>
   <v>       0.05000000       0.39285714       0.44444444 </v>
   <v>       0.15000000       0.39285714       0.44444444 </v>
   <v>       0.25000000       0.39285714       0.44444444 </v>
   <v>       0.35000000       0.39285714       0.44444444 </v>
   <v>       0.45000000       0.39285714       0.44444444 </v>
   <v>       0.05000000       0.46428571       0.44444444 </v>
   <v>       0.15000000       0.46428571       0.44444444 </v>
   <v>       0.25000000       0.46428571       0.44444444 </v>
   <v>       0.35000000       0.46428571       0.44444444 </v>
   <v>       0.45000000       0.46428571       0.44444444 </v>
  </varray>
  <varray name="weights" >
   <v>       0.00317460 </v>
   <v>       0.00317460 </v>
   <v>       0.00317460 </v>
   <v>       0.00317460 </v>
   <v>       0.00317460 </v>
   <v>       0.00317460 </v>
   <v>       0.00317460 </v>
   <v>       0.00317460 </v>
   <v>       0.00317460 </v>
   <v>       0.00317460 </v>
   <v>       0.00317460 </v>
   <v>       0.00317460 </v>
   <v>       0.00317460 </v>
   <v>       0.00317460 </v>
   <v>       0.00317460 </v>
   <v>       0.00317460 </v>
   <v>       0.00317460 </v>
   <v>       0.00317460 </v>
   <v>       0.00317460 </v>
   <v>       0.00317460 </v>
   <v>       0.00317460 </v>
   <v>       0.00317460 </v>
   <v>       0.00317460 </v>
   <v>       0.00317460 </v>
   <v>       0.00317460 </v>
   <v>       0.00317460 </v>
   <v>       0.00317460 </v>
   <v>       0.00317460 </v>
   <v>       0.00317460 </v>
   <v>       0.00317460 </v>
   <v>       0.00317460 </v>
   <v>       0.00317460 </v>
   <v>       0.00317460 </v>
   <v>       0.00317460 </v>
   <v>       0.00317460 </v>
   <v>       0.00634921 </v>
   <v>       0.00634921 </v>
   <v>       0.00634921 </v>
   <v>       0.00634921 </v>
   <v>       0.00634921 </v>
   <v>       0.00634921 </v>
   <v>       0.00634921 </v>
   <v>       0.00634921 </v>
   <v>       0.00634921 </v>
   <v>       0.00634921 </v>
   <v>       0.00634921 </v>
   <v>       0.00634921 </v>
   <v>       0.00634921 </v>
   <v>       0.00634921 </v>
   <v>       0.00634921 </v>
   <v>       0.00634921 </v>
   <v>       0.00634921 </v>
   <v>       0.00634921 </v>
   <v>       0.00634921 </v>
   <v>       0.00634921 </v>
   <v>       0.00634921 </v>
   <v>       0.00634921 </v>
   <v>       0.00634921 </v>
   <v>       0.00634921 </v>
   <v>       0.00634921 </v>
   <v>       0.00634921 </v>
   <v>       0.00634921 </v>
   <v>       0.00634921 </v>
   <v>       0.00634921 </v>
   <v>       0.00634921 </v>
   <v>       0.00634921 </v>
   <v>       0.00634921 </v>
   <v>       0.00634921 </v>
   <v>       0.00634921 </v>
   <v>       0.00634921 </v>
   <v>       0.00634921 </v>
   <v>       0.00634921 </v>
   <v>       0.00634921 </v>
   <v>       0.00634921 </v>
   <v>       0.00634921 </v>
   <v>       0.00634921 </v>
   <v>       0.00634921 </v>
   <v>       0.00634921 </v>
   <v>       0.00634921 </v>
   <v>       0.00634921 </v>
   <v>       0.00634921 </v>
   <v>       0.00634921 </v>
   <v>       0.00634921 </v>
   <v>       0.00634921 </v>
   <v>       0.00634921 </v>
   <v>       0.00634921 </v>
   <v>       0.00634921 </v>
   <v>       0.00634921 </v>
   <v>       0.00634921 </v>
   <v>       0.00634921 </v>
   <v>       0.00634921 </v>
   <v>       0.00634921 </v>
   <v>       0.00634921 </v>
   <v>       0.00634921 </v>
   <v>       0.00634921 </v>
   <v>       0.00634921 </v>
   <v>       0.00634921 </v>
   <v>       0.00634921 </v>
   <v>       0.00634921 </v>
   <v>       0.00634921 </v>
   <v>       0.00634921 </v>
   <v>       0.00634921 </v>
   <v>       0.00634921 </v>
   <v>       0.00634921 </v>
   <v>       0.00634921 </v>
   <v>       0.00634921 </v>
   <v>       0.00634921 </v>
   <v>       0.00634921 </v>
   <v>       0.00634921 </v>
   <v>       0.00634921 </v>
   <v>       0.00634921 </v>
   <v>       0.00634921 </v>
   <v>       0.00634921 </v>
   <v>       0.00634921 </v>
   <v>       0.00634921 </v>
   <v>       0.00634921 </v>
   <v>       0.00634921 </v>
   <v>       0.00634921 </v>
   <v>       0.00634921 </v>
   <v>       0.00634921 </v>
   <v>       0.00634921 </v>
   <v>       0.00634921 </v>
   <v>       0.00634921 </v>
   <v>       0.00634921 </v>
   <v>       0.00634921 </v>
   <v>       0.00634921 </v>
   <v>       0.00634921 </v>
   <v>       0.00634921 </v>
   <v>       0.00634921 </v>
   <v>       0.00634921 </v>
   <v>       0.00634921 </v>
   <v>       0.00634921 </v>
   <v>       0.00634921 </v>
   <v>       0.00634921 </v>
   <v>       0.00634921 </v>
   <v>       0.00634921 </v>
   <v>       0.00634921 </v>
   <v>       0.00634921 </v>
   <v>       0.00634921 </v>
   <v>       0.00634921 </v>
   <v>       0.00634921 </v>
   <v>       0.00634921 </v>
   <v>       0.00634921 </v>
   <v>       0.00634921 </v>
   <v>       0.00634921 </v>
   <v>       0.00634921 </v>
   <v>       0.00634921 </v>
   <v>       0.00634921 </v>
   <v>       0.00634921 </v>
   <v>       0.00634921 </v>
   <v>       0.00634921 </v>
   <v>       0.00634921 </v>
   <v>       0.00634921 </v>
   <v>       0.00634921 </v>
   <v>       0.00634921 </v>
   <v>       0.00634921 </v>
   <v>       0.00634921 </v>
   <v>       0.00634921 </v>
   <v>       0.00634921 </v>
   <v>       0.00634921 </v>
   <v>       0.00634921 </v>
   <v>       0.00634921 </v>
   <v>       0.00634921 </v>
   <v>       0.00634921 </v>
   <v>       0.00634921 </v>
   <v>       0.00634921 </v>
   <v>       0.00634921 </v>
   <v>       0.00634921 </v>
   <v>       0.00634921 </v>
   <v>       0.00634921 </v>
   <v>       0.00634921 </v>
   <v>       0.00634921 </v>
   <v>       0.00634921 </v>
   <v>       0.00634921 </v>
   <v>       0.00634921 </v>
  </varray>
 </kpoints>
 <parameters>
  <separator name="general" >
   <i type="string" name="SYSTEM">SC</i>
   <i type="logical" name="LCOMPAT"> F  </i>
  </separator>
  <separator name="electronic" >
   <i type="string" name="PREC">accura</i>
   <i name="ENMAX">    600.00000000</i>
   <i name="ENAUG">    535.51400000</i>
   <i name="EDIFF">      0.00000100</i>
   <i type="int" name="IALGO">    38</i>
   <i type="int" name="IWAVPR">    10</i>
   <i type="int" name="NBANDS">    48</i>
   <i type="int" name="NBANDSLOW">    -1</i>
   <i type="int" name="NBANDSHIGH">    -1</i>
   <i name="NELECT">     42.00000000</i>
   <i type="int" name="TURBO">     0</i>
   <i type="int" name="IRESTART">     0</i>
   <i type="int" name="NREBOOT">     0</i>
   <i type="int" name="NMIN">     0</i>
   <i name="EREF">      0.00000000</i>
   <separator name="electronic smearing" >
    <i type="int" name="ISMEAR">     0</i>
    <i name="SIGMA">      0.10000000</i>
    <i name="KSPACING">      0.50000000</i>
    <i type="logical" name="KGAMMA"> T  </i>
    <i type="logical" name="KBLOWUP"> T  </i>
   </separator>
   <separator name="electronic projectors" >
    <i type="logical" name="LREAL"> F  </i>
    <v name="ROPT">      0.00000000</v>
    <i type="int" name="LMAXPAW">  -100</i>
    <i type="int" name="LMAXMIX">     2</i>
    <i type="logical" name="NLSPLINE"> F  </i>
   </separator>
   <separator name="electronic startup" >
    <i type="int" name="ISTART">     0</i>
    <i type="int" name="ICHARG">     2</i>
    <i type="int" name="INIWAV">     1</i>
   </separator>
   <separator name="electronic spin" >
    <i type="int" name="ISPIN">     1</i>
    <i type="logical" name="LNONCOLLINEAR"> F  </i>
    <v name="MAGMOM">      1.00000000      1.00000000      1.00000000      1.00000000      1.00000000      1.00000000      1.00000000      1.00000000      1.00000000      1.00000000      1.00000000      1.00000000      1.00000000      1.00000000</v>
    <i name="NUPDOWN">     -1.00000000</i>
    <i type="logical" name="LSORBIT"> F  </i>
    <v name="SAXIS">      0.00000000      0.00000000      1.00000000</v>
    <i type="logical" name="LSPIRAL"> F  </i>
    <v name="QSPIRAL">      0.00000000      0.00000000      0.00000000</v>
    <i type="logical" name="LZEROZ"> F  </i>
   </separator>
   <separator name="electronic exchange-correlation" >
    <i type="logical" name="LASPH"> F  </i>
   </separator>
   <separator name="electronic convergence" >
    <i type="int" name="NELM">    64</i>
    <i type="int" name="NELMDL">    -5</i>
    <i type="int" name="NELMIN">     2</i>
    <i name="ENINI">    600.00000000</i>
    <separator name="electronic convergence detail" >
     <i type="logical" name="LDIAG"> T  </i>
     <i type="logical" name="LSUBROT"> F  </i>
     <i name="WEIMIN">      0.00000000</i>
     <i name="EBREAK">      0.00000001</i>
     <i name="DEPER">      0.30000000</i>
     <i type="int" name="NRMM">     4</i>
     <i name="TIME">      0.40000000</i>
    </separator>
   </separator>
   <separator name="electronic mixer" >
    <i name="AMIX">      0.40000000</i>
    <i name="BMIX">      1.00000000</i>
    <i name="AMIN">      0.10000000</i>
    <i name="AMIX_MAG">      1.60000000</i>
    <i name="BMIX_MAG">      1.00000000</i>
    <separator name="electronic mixer details" >
     <i type="int" name="IMIX">     4</i>
     <i type="logical" name="MIXFIRST"> F  </i>
     <i type="int" name="MAXMIX">   -45</i>
     <i name="WC">    100.00000000</i>
     <i type="int" name="INIMIX">     1</i>
     <i type="int" name="MIXPRE">     1</i>
     <i type="int" name="MREMOVE">     5</i>
    </separator>
   </separator>
   <separator name="electronic dipolcorrection" >
    <i type="logical" name="LDIPOL"> F  </i>
    <i type="logical" name="LMONO"> F  </i>
    <i type="int" name="IDIPOL">     0</i>
    <i name="EPSILON">      1.00000000</i>
    <v name="DIPOL">   -100.00000000   -100.00000000   -100.00000000</v>
    <i name="EFIELD">      0.00000000</i>
    <i type="logical" name="LVACPOTAV"> F  </i>
   </separator>
  </separator>
  <separator name="grids" >
   <i type="int" name="NGX">    50</i>
   <i type="int" name="NGY">    48</i>
   <i type="int" name="NGZ">    32</i>
   <i type="int" name="NGXF">   100</i>
   <i type="int" name="NGYF">    96</i>
   <i type="int" name="NGZF">    64</i>
   <i type="logical" name="ADDGRID"> F  </i>
  </separator>
  <separator name="ionic" >
   <i type="int" name="NSW">     0</i>
   <i type="int" name="IBRION">    -1</i>
   <i type="int" name="MDALGO">     0</i>
   <i type="int" name="ISIF">     2</i>
   <i name="PSTRESS">      0.00000000</i>
   <i name="EDIFFG">     -0.00100000</i>
   <i type="int" name="NFREE">     0</i>
   <i name="POTIM">      0.50000000</i>
   <i name="SMASS">     -3.00000000</i>
   <i name="SCALEE">      1.00000000</i>
  </separator>
  <separator name="ionic md" >
   <i name="TEBEG">      0.00010000</i>
   <i name="TEEND">      0.00010000</i>
   <i type="int" name="NBLOCK">     1</i>
   <i type="int" name="KBLOCK">     1</i>
   <i type="int" name="NPACO">   256</i>
   <i name="APACO">     10.00000000</i>
  </separator>
  <separator name="symmetry" >
   <i type="int" name="ISYM">     2</i>
   <i name="SYMPREC">      0.00000100</i>
  </separator>
  <separator name="dos" >
   <i type="int" name="LORBIT">     0</i>
   <v name="RWIGS">     -1.00000000</v>
   <i type="int" name="NEDOS">   301</i>
   <i name="EMIN">     10.00000000</i>
   <i name="EMAX">    -10.00000000</i>
   <i name="EFERMI">      0.00000000</i>
  </separator>
  <separator name="writing" >
   <i type="int" name="NWRITE">     2</i>
   <i type="logical" name="LWAVE"> T  </i>
   <i type="logical" name="LDOWNSAMPLE"> F  </i>
   <i type="logical" name="LCHARG"> T  </i>
   <i type="logical" name="LPARD"> F  </i>
   <i type="logical" name="LVTOT"> F  </i>
   <i type="logical" name="LVHAR"> F  </i>
   <i type="logical" name="LELF"> F  </i>
   <i type="logical" name="LOPTICS"> F  </i>
   <v name="STM">      0.00000000      0.00000000      0.00000000      0.00000000      0.00000000      0.00000000      0.00000000</v>
  </separator>
  <separator name="performance" >
   <i type="int" name="NPAR">    24</i>
   <i type="int" name="NSIM">     4</i>
   <i type="int" name="NBLK">    -1</i>
   <i type="logical" name="LPLANE"> T  </i>
   <i type="logical" name="LSCALAPACK"> T  </i>
   <i type="logical" name="LSCAAWARE"> F  </i>
   <i type="logical" name="LSCALU"> F  </i>
   <i type="logical" name="LASYNC"> F  </i>
   <i type="logical" name="LORBITALREAL"> F  </i>
  </separator>
  <separator name="miscellaneous" >
   <i type="int" name="IDIOT">     3</i>
   <i type="int" name="PHON_NSTRUCT">    -1</i>
   <i type="logical" name="LMUSIC"> F  </i>
   <v name="POMASS">     10.81100000</v>
   <v name="DARWINR">      0.00000000</v>
   <v name="DARWINV">      1.00000000</v>
   <i type="logical" name="LCORR"> T  </i>
  </separator>
  <i type="logical" name="GGA_COMPAT"> T  </i>
  <i type="logical" name="LBERRY"> F  </i>
  <i type="int" name="ICORELEVEL">     0</i>
  <i type="logical" name="LDAU"> F  </i>
  <i type="int" name="I_CONSTRAINED_M">     0</i>
  <separator name="electronic exchange-correlation" >
   <i type="string" name="GGA    ">PE</i>
   <i type="string" name="XC_C">1</i>
   <i type="int" name="VOSKOWN">     0</i>
   <i type="logical" name="LHFCALC"> F  </i>
   <i type="string" name="PRECFOCK"></i>
   <i type="logical" name="LSYMGRAD"> F  </i>
   <i type="logical" name="LHFONE"> F  </i>
   <i type="logical" name="LRHFCALC"> F  </i>
   <i type="logical" name="LTHOMAS"> F  </i>
   <i type="logical" name="LMODELHF"> F  </i>
   <i type="logical" name="LFOCKACE"> F  </i>
   <i name="ENCUT4O">     -1.00000000</i>
   <i type="int" name="EXXOEP">     0</i>
   <i type="int" name="FOURORBIT">     0</i>
   <i name="AEXX">      0.00000000</i>
   <i name="HFALPHA">      0.00000000</i>
   <i name="MCALPHA">      0.00000000</i>
   <i name="ALDAX">      1.00000000</i>
   <i name="AGGAX">      1.00000000</i>
   <i name="AMGGAX">      1.00000000</i>
   <i name="ALDAC">      1.00000000</i>
   <i name="AGGAC">      1.00000000</i>
   <i name="AMGGAC">      1.00000000</i>
   <i type="int" name="NKREDX">     1</i>
   <i type="int" name="NKREDY">     1</i>
   <i type="int" name="NKREDZ">     1</i>
   <i type="logical" name="SHIFTRED"> F  </i>
   <i type="logical" name="ODDONLY"> F  </i>
   <i type="logical" name="EVENONLY"> F  </i>
   <i type="int" name="LMAXFOCK">     0</i>
   <i type="int" name="NMAXFOCKAE">     0</i>
   <i type="logical" name="LFOCKAEDFT"> F  </i>
   <i name="HFSCREEN">      0.00000000</i>
   <i name="HFSCREENC">      0.00000000</i>
   <i type="int" name="NBANDSGWLOW">     0</i>
  </separator>
  <separator name="vdW DFT" >
   <i type="logical" name="LUSE_VDW"> F  </i>
   <i type="int" name="IVDW_NL">    -1</i>
   <i type="logical" name="LSPIN_VDW"> F  </i>
   <i name="ZAB_VDW">     -0.84910000</i>
   <i name="GAMMA_VDW">      1.39626340</i>
   <i name="ALPHA_VDW">      0.00000000</i>
   <i name="PARAM1">      0.12340000</i>
   <i name="PARAM2">      1.00000000</i>
   <i name="BPARAM">      6.30000000</i>
   <i name="CPARAM">      0.00930000</i>
  </separator>
  <separator name="model GW" >
   <i type="int" name="MODEL_GW">     0</i>
   <i name="MODEL_EPS0">      6.12790680</i>
   <i name="MODEL_ALPHA">      1.00000000</i>
  </separator>
  <separator name="linear response parameters" >
   <i type="logical" name="LEPSILON"> F  </i>
   <i type="logical" name="LRPA"> F  </i>
   <i type="logical" name="LNABLA"> F  </i>
   <i type="logical" name="LVEL"> F  </i>
   <i name="CSHIFT">      0.10000000</i>
   <i name="OMEGAMAX">     -1.00000000</i>
   <i name="DEG_THRESHOLD">      0.00200000</i>
   <i name="RTIME">     -0.10000000</i>
   <i name="WPLASMAI">      0.00000000</i>
   <v name="DFIELD">      0.00000000      0.00000000      0.00000000</v>
   <v name="WPLASMA">      0.00000000      0.00000000      0.00000000      0.00000000      0.00000000      0.00000000      0.00000000      0.00000000      0.00000000</v>
  </separator>
  <separator name="orbital magnetization" >
   <i type="logical" name="NUCIND"> F  </i>
   <v name="MAGPOS">      0.00000000      0.00000000      0.00000000</v>
   <i type="logical" name="LNICSALL"> T  </i>
   <i type="logical" name="ORBITALMAG"> F  </i>
   <i type="logical" name="LMAGBLOCH"> F  </i>
   <i type="logical" name="LCHIMAG"> F  </i>
   <i type="logical" name="LGAUGE"> T  </i>
   <i type="int" name="MAGATOM">     0</i>
   <v name="MAGDIPOL">      0.00000000      0.00000000      0.00000000</v>
   <v name="AVECCONST">      0.00000000      0.00000000      0.00000000</v>
  </separator>
  <separator name="response functions" >
   <i type="logical" name="LALL_IN_ONE"> F  </i>
   <i type="int" name="IALL_IN_ONE">    -1</i>
   <i type="int" name="NBANDS_WAVE">    -1</i>
   <i type="logical" name="LFINITE_TEMPERATURE"> F  </i>
   <i type="logical" name="LADDER"> F  </i>
   <i type="logical" name="LRPAFORCE"> F  </i>
   <i type="logical" name="LFXC"> F  </i>
   <i type="logical" name="LHARTREE"> T  </i>
   <i type="int" name="IBSE">     0</i>
   <v type="int" name="KPOINT">    -1     0     0     0</v>
   <i type="logical" name="LTCTC"> F  </i>
   <i type="logical" name="LTCTE"> F  </i>
   <i type="logical" name="LTETE"> F  </i>
   <i type="logical" name="LTRIPLET"> F  </i>
   <i type="logical" name="LFXCEPS"> F  </i>
   <i type="logical" name="LFXHEG"> F  </i>
   <i type="int" name="NATURALO">     2</i>
   <i type="logical" name="LHOLEGF"> F  </i>
   <i type="logical" name="L2ORDER"> F  </i>
   <i type="logical" name="LDMP1"> F  </i>
   <i type="logical" name="LMP2LT"> F  </i>
   <i type="logical" name="LSMP2LT"> F  </i>
   <i type="logical" name="LGWLF"> F  </i>
   <i name="ENCUTGW">     -1.60000002</i>
   <i name="ENCUTGWSOFT">     -1.60000002</i>
   <i name="ENCUTLF">     -1.00000000</i>
   <i type="logical" name="ESF_SPLINES"> F  </i>
   <i name="ESF_CONV">      0.01000000</i>
   <i type="int" name="ESF_NINTER">    15</i>
   <i type="int" name="LMAXMP2">    -1</i>
   <i name="SCISSOR">      0.00000000</i>
   <i type="int" name="NOMEGA">     0</i>
   <i type="int" name="NOMEGAR">     0</i>
   <i type="int" name="NBANDSGW">    -1</i>
   <i type="int" name="NBANDSO">    -1</i>
   <i type="int" name="NBANDSV">    -1</i>
   <i type="int" name="NELMGW">     1</i>
   <i type="int" name="NELMHF">     1</i>
   <i type="int" name="DIM">     3</i>
   <i type="int" name="IESPILON">     4</i>
   <i type="int" name="ANTIRES">     0</i>
   <i name="OMEGAMAX">    -30.00000000</i>
   <i name="OMEGAMIN">    -30.00000000</i>
   <i name="OMEGATL">   -200.00000000</i>
   <i type="int" name="OMEGAGRID">     0</i>
   <i name="CSHIFT">     -0.10000000</i>
   <i type="logical" name="LSELFENERGY"> F  </i>
   <i type="logical" name="LSPECTRAL"> F  </i>
   <i type="logical" name="LSPECTRALGW"> F  </i>
   <i type="logical" name="LSINGLES"> F  </i>
   <i type="logical" name="LFERMIGW"> F  </i>
   <i type="logical" name="ODDONLYGW"> F  </i>
   <i type="logical" name="EVENONLYGW"> F  </i>
   <i type="int" name="NKREDLFX">     1</i>
   <i type="int" name="NKREDLFY">     1</i>
   <i type="int" name="NKREDLFZ">     1</i>
   <i type="int" name="MAXMEM">  2800</i>
   <i type="int" name="TELESCOPE">     0</i>
   <i type="int" name="NTAUPAR">    -1</i>
   <i type="int" name="NOMEGAPAR">    -1</i>
   <i name="DAMP_NEWTON">      0.80000001</i>
   <i name="LAMBDA">      1.00000000</i>
  </separator>
  <separator name="External order field" >
   <i name="OFIELD_KAPPA">      0.00000000</i>
   <v name="OFIELD_K">      0.00000000      0.00000000      0.00000000</v>
   <i name="OFIELD_Q6_NEAR">      0.00000000</i>
   <i name="OFIELD_Q6_FAR">      0.00000000</i>
   <i name="OFIELD_A">      0.00000000</i>
  </separator>
  <separator name="optional k-points parameters" >
   <i type="int" name="KPOINTS_OPT_MODE">     1</i>
   <i type="logical" name="LKPOINTS_OPT"> F  </i>
  </separator>
 </parameters>
 <atominfo>
  <atoms>      14 </atoms>
  <types>       1 </types>
  <array name="atoms" >
   <dimension dim="1">ion</dimension>
   <field type="string">element</field>
   <field type="int">atomtype</field>
   <set>
    <rc><c>B </c><c>   1</c></rc>
    <rc><c>B </c><c>   1</c></rc>
    <rc><c>B </c><c>   1</c></rc>
    <rc><c>B </c><c>   1</c></rc>
    <rc><c>B </c><c>   1</c></rc>
    <rc><c>B </c><c>   1</c></rc>
    <rc><c>B </c><c>   1</c></rc>
    <rc><c>B </c><c>   1</c></rc>
    <rc><c>B </c><c>   1</c></rc>
    <rc><c>B </c><c>   1</c></rc>
    <rc><c>B </c><c>   1</c></rc>
    <rc><c>B </c><c>   1</c></rc>
    <rc><c>B </c><c>   1</c></rc>
    <rc><c>B </c><c>   1</c></rc>
   </set>
  </array>
  <array name="atomtypes" >
   <dimension dim="1">type</dimension>
   <field type="int">atomspertype</field>
   <field type="string">element</field>
   <field>mass</field>
   <field>valence</field>
   <field type="string">pseudopotential</field>
   <set>
    <rc><c>  14</c><c>B </c><c>     10.81100000</c><c>      3.00000000</c><c>  PAW_PBE B 06Sep2000                   </c></rc>
   </set>
  </array>
 </atominfo>
 <structure name="initialpos" >
  <crystal>
   <varray name="basis" >
    <v>       6.20187120       0.00000000       0.00000000 </v>
    <v>       0.00000000       5.70097069       0.00000000 </v>
    <v>       0.00000000       0.00000000       4.04405810 </v>
   </varray>
   <i name="volume">    142.98449202 </i>
   <varray name="rec_basis" >
    <v>       0.16124166       0.00000000       0.00000000 </v>
    <v>       0.00000000       0.17540872       0.00000000 </v>
    <v>       0.00000000       0.00000000       0.24727637 </v>
   </varray>
  </crystal>
  <varray name="positions" >
   <v>       0.63795770       0.50000000       0.52128988 </v>
   <v>       0.36204230       0.50000000       0.47871012 </v>
   <v>       0.63795770       0.50000000       0.97871012 </v>
   <v>       0.36204230       0.50000000       0.02128988 </v>
   <v>       0.89986832       0.50000000       0.59744966 </v>
   <v>       0.10013168       0.50000000       0.40255034 </v>
   <v>       0.89986832       0.50000000       0.90255034 </v>
   <v>       0.10013168       0.50000000       0.09744966 </v>
   <v>       0.72957940       0.79156493       0.75000000 </v>
   <v>       0.27042060       0.20843507       0.25000000 </v>
   <v>       0.72957940       0.20843507       0.75000000 </v>
   <v>       0.27042060       0.79156493       0.25000000 </v>
   <v>       0.52399303       0.50000000       0.25000000 </v>
   <v>       0.47600697       0.50000000       0.75000000 </v>
  </varray>
 </structure>
 <calculation>
  <scstep>
   <time name="dav">    5.12    5.13</time>
   <time name="total">    5.14    5.15</time>
   <energy>
    <i name="alphaZ">     94.30280740 </i>
    <i name="ewald">   -447.83269088 </i>
    <i name="hartreedc">   -520.53836427 </i>
    <i name="XCdc">    100.30805199 </i>
    <i name="pawpsdc">    608.99811708 </i>
    <i name="pawaedc">   -597.02363782 </i>
    <i name="eentropy">     -0.01339785 </i>
    <i name="bandstr">   -101.59548029 </i>
    <i name="atom">    996.37441054 </i>
    <i name="e_fr_energy">    132.97981589 </i>
    <i name="e_wo_entrp">    132.99321375 </i>
    <i name="e_0_energy">    132.98651482 </i>
   </energy>
  </scstep>
  <scstep>
   <time name="dav">    7.06    7.06</time>
   <time name="total">    7.06    7.06</time>
   <energy>
    <i name="e_fr_energy">    -79.55447152 </i>
    <i name="e_wo_entrp">    -79.54177635 </i>
    <i name="e_0_energy">    -79.54812394 </i>
   </energy>
  </scstep>
  <scstep>
   <time name="dav">    6.65    6.65</time>
   <time name="total">    6.65    6.65</time>
   <energy>
    <i name="e_fr_energy">    -87.61122261 </i>
    <i name="e_wo_entrp">    -87.59779029 </i>
    <i name="e_0_energy">    -87.60450645 </i>
   </energy>
  </scstep>
  <scstep>
   <time name="dav">    6.42    6.42</time>
   <time name="total">    6.42    6.42</time>
   <energy>
    <i name="e_fr_energy">    -87.65979328 </i>
    <i name="e_wo_entrp">    -87.64636465 </i>
    <i name="e_0_energy">    -87.65307896 </i>
   </energy>
  </scstep>
  <scstep>
   <time name="dav">    6.47    6.47</time>
   <time name="total">    6.59    6.60</time>
   <energy>
    <i name="e_fr_energy">    -87.66034051 </i>
    <i name="e_wo_entrp">    -87.64691188 </i>
    <i name="e_0_energy">    -87.65362620 </i>
   </energy>
  </scstep>
  <scstep>
   <time name="dav">    7.20    7.20</time>
   <time name="total">    7.33    7.34</time>
   <energy>
    <i name="e_fr_energy">    -53.25747649 </i>
    <i name="e_wo_entrp">    -53.23453382 </i>
    <i name="e_0_energy">    -53.24600516 </i>
   </energy>
  </scstep>
  <scstep>
   <time name="dav">    5.49    5.49</time>
   <time name="total">    5.62    5.62</time>
   <energy>
    <i name="e_fr_energy">    -52.66340109 </i>
    <i name="e_wo_entrp">    -52.64245602 </i>
    <i name="e_0_energy">    -52.65292856 </i>
   </energy>
  </scstep>
  <scstep>
   <time name="dav">    6.95    6.95</time>
   <time name="total">    7.07    7.08</time>
   <energy>
    <i name="e_fr_energy">    -52.26618535 </i>
    <i name="e_wo_entrp">    -52.24151904 </i>
    <i name="e_0_energy">    -52.25385220 </i>
   </energy>
  </scstep>
  <scstep>
   <time name="dav">    6.73    6.73</time>
   <time name="total">    6.85    6.85</time>
   <energy>
    <i name="e_fr_energy">    -52.09675497 </i>
    <i name="e_wo_entrp">    -52.06914197 </i>
    <i name="e_0_energy">    -52.08294847 </i>
   </energy>
  </scstep>
  <scstep>
   <time name="dav">    6.41    6.41</time>
   <time name="total">    6.54    6.54</time>
   <energy>
    <i name="e_fr_energy">    -52.10545521 </i>
    <i name="e_wo_entrp">    -52.07855295 </i>
    <i name="e_0_energy">    -52.09200408 </i>
   </energy>
  </scstep>
  <scstep>
   <time name="dav">    6.19    6.19</time>
   <time name="total">    6.32    6.32</time>
   <energy>
    <i name="e_fr_energy">    -52.10781485 </i>
    <i name="e_wo_entrp">    -52.08025890 </i>
    <i name="e_0_energy">    -52.09403688 </i>
   </energy>
  </scstep>
  <scstep>
   <time name="dav">    6.47    6.47</time>
   <time name="total">    6.60    6.60</time>
   <energy>
    <i name="e_fr_energy">    -52.10898282 </i>
    <i name="e_wo_entrp">    -52.08167956 </i>
    <i name="e_0_energy">    -52.09533119 </i>
   </energy>
  </scstep>
  <scstep>
   <time name="dav">    6.06    6.06</time>
   <time name="total">    6.18    6.18</time>
   <energy>
    <i name="e_fr_energy">    -52.10918210 </i>
    <i name="e_wo_entrp">    -52.08168257 </i>
    <i name="e_0_energy">    -52.09543234 </i>
   </energy>
  </scstep>
  <scstep>
   <time name="dav">    6.78    6.78</time>
   <time name="total">    6.90    6.91</time>
   <energy>
    <i name="e_fr_energy">    -52.10919702 </i>
    <i name="e_wo_entrp">    -52.08181989 </i>
    <i name="e_0_energy">    -52.09550846 </i>
   </energy>
  </scstep>
  <scstep>
   <time name="dav">    6.15    6.15</time>
   <time name="total">    6.27    6.27</time>
   <energy>
    <i name="e_fr_energy">    -52.10919138 </i>
    <i name="e_wo_entrp">    -52.08176632 </i>
    <i name="e_0_energy">    -52.09547885 </i>
   </energy>
  </scstep>
  <scstep>
   <time name="dav">    6.46    6.46</time>
   <time name="total">    6.48    6.48</time>
   <energy>
    <i name="alphaZ">     94.30280740 </i>
    <i name="ewald">   -447.83269088 </i>
    <i name="hartreedc">   -651.40567390 </i>
    <i name="XCdc">    104.99753342 </i>
    <i name="pawpsdc">   5412.36240532 </i>
    <i name="pawaedc">  -5402.59796954 </i>
    <i name="eentropy">     -0.02742151 </i>
    <i name="bandstr">   -158.28259265 </i>
    <i name="atom">    996.37441054 </i>
    <i name="e_fr_energy">    -52.10919179 </i>
    <i name="e_wo_entrp">    -52.08177028 </i>
    <i name="e_0_energy">    -52.09548104 </i>
   </energy>
  </scstep>
  <structure>
   <crystal>
    <varray name="basis" >
     <v>       6.20187120       0.00000000       0.00000000 </v>
     <v>       0.00000000       5.70097069       0.00000000 </v>
     <v>       0.00000000       0.00000000       4.04405810 </v>
    </varray>
    <i name="volume">    142.98449202 </i>
    <varray name="rec_basis" >
     <v>       0.16124166       0.00000000       0.00000000 </v>
     <v>       0.00000000       0.17540872       0.00000000 </v>
     <v>       0.00000000       0.00000000       0.24727637 </v>
    </varray>
   </crystal>
   <varray name="positions" >
    <v>       0.63795770       0.50000000       0.52128988 </v>
    <v>       0.36204230       0.50000000       0.47871012 </v>
    <v>       0.63795770       0.50000000       0.97871012 </v>
    <v>       0.36204230       0.50000000       0.02128988 </v>
    <v>       0.89986832       0.50000000       0.59744966 </v>
    <v>       0.10013168       0.50000000       0.40255034 </v>
    <v>       0.89986832       0.50000000       0.90255034 </v>
    <v>       0.10013168       0.50000000       0.09744966 </v>
    <v>       0.72957940       0.79156493       0.75000000 </v>
    <v>       0.27042060       0.20843507       0.25000000 </v>
    <v>       0.72957940       0.20843507       0.75000000 </v>
    <v>       0.27042060       0.79156493       0.25000000 </v>
    <v>       0.52399303       0.50000000       0.25000000 </v>
    <v>       0.47600697       0.50000000       0.75000000 </v>
   </varray>
  </structure>
  <varray name="forces" >
   <v>      12.83857908       0.00000000       5.16901184 </v>
   <v>     -12.83857908      -0.00000000      -5.16901184 </v>
   <v>      12.83857908       0.00000000      -5.16901184 </v>
   <v>     -12.83857908      -0.00000000       5.16901184 </v>
   <v>      -1.62736809       0.00000000     -18.17944736 </v>
   <v>       1.62736809       0.00000000      18.17944736 </v>
   <v>      -1.62736809       0.00000000      18.17944736 </v>
   <v>       1.62736809      -0.00000000     -18.17944736 </v>
   <v>       0.77429051      -2.15411203       0.00000000 </v>
   <v>      -0.77429051       2.15411203       0.00000000 </v>
   <v>       0.77429051       2.15411203       0.00000000 </v>
   <v>      -0.77429051      -2.15411203       0.00000000 </v>
   <v>      -1.85894239       0.00000000       0.00000000 </v>
   <v>       1.85894239      -0.00000000       0.00000000 </v>
  </varray>
  <varray name="stress" >
   <v>     880.95005220       0.00000000      -0.00000000 </v>
   <v>       0.00000000    -487.05439837       0.00000000 </v>
   <v>       0.00000000       0.00000000    1673.53268300 </v>
  </varray>
  <energy>
   <i name="e_fr_energy">    -54.31291195 </i>
   <i name="e_wo_entrp">    -54.28549044 </i>
   <i name="e_0_energy">    -54.29920119 </i>
  </energy>
  <time name="totalsc">  110.72  110.77</time>
  <eigenvalues>
   <array>
    <dimension dim="1">band</dimension>
    <dimension dim="2">kpoint</dimension>
    <dimension dim="3">spin</dimension>
    <field>eigene</field>
    <field>occ</field>
    <set>
     <set comment="spin 1">
      <set comment="kpoint 1">
       <r>  -14.2881    1.0000 </r>
       <r>  -11.3016    1.0000 </r>
       <r>  -10.0659    1.0000 </r>
       <r>   -9.8230    1.0000 </r>
       <r>   -7.3477    1.0000 </r>
       <r>   -6.5184    1.0000 </r>
       <r>   -5.8716    1.0000 </r>
       <r>   -4.4660    1.0000 </r>
       <r>   -4.2193    1.0000 </r>
       <r>   -3.4367    1.0000 </r>
       <r>   -2.6774    1.0000 </r>
       <r>   -2.5431    1.0000 </r>
       <r>   -2.5210    1.0000 </r>
       <r>   -1.6159    1.0000 </r>
       <r>   -1.3662    1.0000 </r>
       <r>   -0.2089    1.0000 </r>
       <r>    0.7262    1.0000 </r>
       <r>    1.7189    1.0000 </r>
       <r>    2.1178    1.0000 </r>
       <r>    2.3960    0.9239 </r>
       <r>    3.0227    0.0000 </r>
       <r>    3.2842    0.0000 </r>
       <r>    4.1135    0.0000 </r>
       <r>    4.2259    0.0000 </r>
       <r>    4.4623    0.0000 </r>
       <r>    5.7792    0.0000 </r>
       <r>    5.7798    0.0000 </r>
       <r>    6.0772    0.0000 </r>
       <r>    6.3724    0.0000 </r>
       <r>    6.9780    0.0000 </r>
       <r>    7.0333    0.0000 </r>
       <r>    7.3798    0.0000 </r>
       <r>    7.6856    0.0000 </r>
       <r>    8.4852    0.0000 </r>
       <r>   10.5763    0.0000 </r>
       <r>   10.7892    0.0000 </r>
       <r>   10.8955    0.0000 </r>
       <r>   11.3167    0.0000 </r>
       <r>   11.9533    0.0000 </r>
       <r>   12.1901    0.0000 </r>
       <r>   12.5946    0.0000 </r>
       <r>   12.6864    0.0000 </r>
       <r>   13.4593    0.0000 </r>
       <r>   14.1641    0.0000 </r>
       <r>   14.2131    0.0000 </r>
       <r>   14.6152    0.0000 </r>
       <r>   14.9579    0.0000 </r>
       <r>   15.4121    0.0000 </r>
      </set>
      <set comment="kpoint 2">
       <r>  -14.2782    1.0000 </r>
       <r>  -11.4117    1.0000 </r>
       <r>  -10.0656    1.0000 </r>
       <r>   -9.6392    1.0000 </r>
       <r>   -7.3142    1.0000 </r>
       <r>   -6.6595    1.0000 </r>
       <r>   -5.8625    1.0000 </r>
       <r>   -4.6823    1.0000 </r>
       <r>   -4.0915    1.0000 </r>
       <r>   -3.4994    1.0000 </r>
       <r>   -2.6540    1.0000 </r>
       <r>   -2.5601    1.0000 </r>
       <r>   -2.2317    1.0000 </r>
       <r>   -1.6772    1.0000 </r>
       <r>   -1.2951    1.0000 </r>
       <r>   -0.3832    1.0000 </r>
       <r>    0.7636    1.0000 </r>
       <r>    1.9895    1.0000 </r>
       <r>    2.0638    1.0000 </r>
       <r>    2.1228    1.0000 </r>
       <r>    2.9012    0.0000 </r>
       <r>    3.4098    0.0000 </r>
       <r>    4.1183    0.0000 </r>
       <r>    4.2151    0.0000 </r>
       <r>    4.5150    0.0000 </r>
       <r>    5.6013    0.0000 </r>
       <r>    5.7459    0.0000 </r>
       <r>    5.9886    0.0000 </r>
       <r>    6.4048    0.0000 </r>
       <r>    7.0982    0.0000 </r>
       <r>    7.2682    0.0000 </r>
       <r>    7.4999    0.0000 </r>
       <r>    7.6651    0.0000 </r>
       <r>    8.6356    0.0000 </r>
       <r>   10.4691    0.0000 </r>
       <r>   10.8059    0.0000 </r>
       <r>   10.9764    0.0000 </r>
       <r>   11.3703    0.0000 </r>
       <r>   11.8444    0.0000 </r>
       <r>   12.2801    0.0000 </r>
       <r>   12.3974    0.0000 </r>
       <r>   12.6624    0.0000 </r>
       <r>   12.9447    0.0000 </r>
       <r>   14.3355    0.0000 </r>
       <r>   14.3864    0.0000 </r>
       <r>   14.6215    0.0000 </r>
       <r>   14.6331    0.0000 </r>
       <r>   15.5107    0.0000 </r>
      </set>
      <set comment="kpoint 3">
       <r>  -14.2617    1.0000 </r>
       <r>  -11.5592    1.0000 </r>
       <r>  -10.0653    1.0000 </r>
       <r>   -9.3513    1.0000 </r>
       <r>   -7.2552    1.0000 </r>
       <r>   -6.9229    1.0000 </r>
       <r>   -5.7673    1.0000 </r>
       <r>   -4.9645    1.0000 </r>
       <r>   -4.1683    1.0000 </r>
       <r>   -3.3561    1.0000 </r>
       <r>   -2.6163    1.0000 </r>
       <r>   -2.6060    1.0000 </r>
       <r>   -1.8069    1.0000 </r>
       <r>   -1.7115    1.0000 </r>
       <r>   -1.1845    1.0000 </r>
       <r>   -0.6797    1.0000 </r>
       <r>    0.8304    1.0000 </r>
       <r>    1.6547    1.0000 </r>
       <r>    1.9744    1.0000 </r>
       <r>    2.4296    0.8306 </r>
       <r>    2.7113    0.0012 </r>
       <r>    3.6263    0.0000 </r>
       <r>    4.1261    0.0000 </r>
       <r>    4.2131    0.0000 </r>
       <r>    4.5897    0.0000 </r>
       <r>    5.2991    0.0000 </r>
       <r>    5.6998    0.0000 </r>
       <r>    5.8520    0.0000 </r>
       <r>    6.4485    0.0000 </r>
       <r>    7.2282    0.0000 </r>
       <r>    7.5984    0.0000 </r>
       <r>    7.6842    0.0000 </r>
       <r>    7.7500    0.0000 </r>
       <r>    8.9014    0.0000 </r>
       <r>   10.2393    0.0000 </r>
       <r>   10.5900    0.0000 </r>
       <r>   11.0952    0.0000 </r>
       <r>   11.4751    0.0000 </r>
       <r>   11.6532    0.0000 </r>
       <r>   12.4290    0.0000 </r>
       <r>   12.4722    0.0000 </r>
       <r>   12.5733    0.0000 </r>
       <r>   12.6426    0.0000 </r>
       <r>   13.9816    0.0000 </r>
       <r>   14.3055    0.0000 </r>
       <r>   14.5297    0.0000 </r>
       <r>   14.6443    0.0000 </r>
       <r>   15.1111    0.0000 </r>
      </set>
      <set comment="kpoint 4">
       <r>  -14.2446    1.0000 </r>
       <r>  -11.6839    1.0000 </r>
       <r>  -10.0649    1.0000 </r>
       <r>   -9.0423    1.0000 </r>
       <r>   -7.2243    1.0000 </r>
       <r>   -7.1885    1.0000 </r>
       <r>   -5.5876    1.0000 </r>
       <r>   -5.2067    1.0000 </r>
       <r>   -4.4673    1.0000 </r>
       <r>   -3.0168    1.0000 </r>
       <r>   -2.6662    1.0000 </r>
       <r>   -2.5200    1.0000 </r>
       <r>   -1.9221    1.0000 </r>
       <r>   -1.1581    1.0000 </r>
       <r>   -1.0766    1.0000 </r>
       <r>   -1.0317    1.0000 </r>
       <r>    0.9076    1.0000 </r>
       <r>    1.0952    1.0000 </r>
       <r>    1.8818    1.0000 </r>
       <r>    2.5234    0.3554 </r>
       <r>    2.9181    0.0000 </r>
       <r>    3.8532    0.0000 </r>
       <r>    4.1342    0.0000 </r>
       <r>    4.2193    0.0000 </r>
       <r>    4.6644    0.0000 </r>
       <r>    4.9533    0.0000 </r>
       <r>    5.6602    0.0000 </r>
       <r>    5.7158    0.0000 </r>
       <r>    6.4841    0.0000 </r>
       <r>    7.3198    0.0000 </r>
       <r>    7.5613    0.0000 </r>
       <r>    7.9660    0.0000 </r>
       <r>    8.2093    0.0000 </r>
       <r>    9.2150    0.0000 </r>
       <r>    9.8770    0.0000 </r>
       <r>   10.1327    0.0000 </r>
       <r>   11.2557    0.0000 </r>
       <r>   11.4594    0.0000 </r>
       <r>   11.6936    0.0000 </r>
       <r>   12.3733    0.0000 </r>
       <r>   12.5116    0.0000 </r>
       <r>   12.7259    0.0000 </r>
       <r>   12.7522    0.0000 </r>
       <r>   13.4647    0.0000 </r>
       <r>   14.0129    0.0000 </r>
       <r>   14.5937    0.0000 </r>
       <r>   14.7825    0.0000 </r>
       <r>   14.7990    0.0000 </r>
      </set>
      <set comment="kpoint 5">
       <r>  -14.2338    1.0000 </r>
       <r>  -11.7535    1.0000 </r>
       <r>  -10.0647    1.0000 </r>
       <r>   -8.8145    1.0000 </r>
       <r>   -7.4499    1.0000 </r>
       <r>   -7.1421    1.0000 </r>
       <r>   -5.3834    1.0000 </r>
       <r>   -5.3465    1.0000 </r>
       <r>   -4.7571    1.0000 </r>
       <r>   -2.7443    1.0000 </r>
       <r>   -2.6945    1.0000 </r>
       <r>   -2.4171    1.0000 </r>
       <r>   -2.0230    1.0000 </r>
       <r>   -1.3249    1.0000 </r>
       <r>   -1.0104    1.0000 </r>
       <r>   -0.6518    1.0000 </r>
       <r>    0.5888    1.0000 </r>
       <r>    0.9628    1.0000 </r>
       <r>    1.8225    1.0000 </r>
       <r>    2.4051    0.9037 </r>
       <r>    3.3142    0.0000 </r>
       <r>    3.9561    0.0000 </r>
       <r>    4.1393    0.0000 </r>
       <r>    4.2251    0.0000 </r>
       <r>    4.6839    0.0000 </r>
       <r>    4.7285    0.0000 </r>
       <r>    5.6285    0.0000 </r>
       <r>    5.6381    0.0000 </r>
       <r>    6.5032    0.0000 </r>
       <r>    7.3641    0.0000 </r>
       <r>    7.5374    0.0000 </r>
       <r>    8.0934    0.0000 </r>
       <r>    8.7581    0.0000 </r>
       <r>    9.4176    0.0000 </r>
       <r>    9.4483    0.0000 </r>
       <r>    9.8068    0.0000 </r>
       <r>   11.2538    0.0000 </r>
       <r>   11.4753    0.0000 </r>
       <r>   11.8871    0.0000 </r>
       <r>   12.3201    0.0000 </r>
       <r>   12.5118    0.0000 </r>
       <r>   12.7560    0.0000 </r>
       <r>   12.8543    0.0000 </r>
       <r>   13.1385    0.0000 </r>
       <r>   14.1972    0.0000 </r>
       <r>   14.5326    0.0000 </r>
       <r>   14.6757    0.0000 </r>
       <r>   14.9052    0.0000 </r>
      </set>
      <set comment="kpoint 6">
       <r>  -14.2869    1.0000 </r>
       <r>  -11.3000    1.0000 </r>
       <r>  -10.0657    1.0000 </r>
       <r>   -9.8209    1.0000 </r>
       <r>   -7.3768    1.0000 </r>
       <r>   -6.5175    1.0000 </r>
       <r>   -5.8712    1.0000 </r>
       <r>   -4.5229    1.0000 </r>
       <r>   -4.2177    1.0000 </r>
       <r>   -3.4184    1.0000 </r>
       <r>   -2.7197    1.0000 </r>
       <r>   -2.5166    1.0000 </r>
       <r>   -2.4360    1.0000 </r>
       <r>   -1.4766    1.0000 </r>
       <r>   -1.3597    1.0000 </r>
       <r>   -0.2071    1.0000 </r>
       <r>    0.6871    1.0000 </r>
       <r>    1.7494    1.0000 </r>
       <r>    2.1366    1.0000 </r>
       <r>    2.3528    0.9795 </r>
       <r>    2.9605    0.0000 </r>
       <r>    3.3503    0.0000 </r>
       <r>    3.9271    0.0000 </r>
       <r>    4.1213    0.0000 </r>
       <r>    4.4314    0.0000 </r>
       <r>    5.4851    0.0000 </r>
       <r>    5.8644    0.0000 </r>
       <r>    5.9247    0.0000 </r>
       <r>    6.4853    0.0000 </r>
       <r>    6.7401    0.0000 </r>
       <r>    7.0278    0.0000 </r>
       <r>    7.8917    0.0000 </r>
       <r>    8.2103    0.0000 </r>
       <r>    8.3388    0.0000 </r>
       <r>   10.4410    0.0000 </r>
       <r>   10.8209    0.0000 </r>
       <r>   10.9331    0.0000 </r>
       <r>   11.3614    0.0000 </r>
       <r>   11.8925    0.0000 </r>
       <r>   12.1020    0.0000 </r>
       <r>   12.6709    0.0000 </r>
       <r>   12.6782    0.0000 </r>
       <r>   13.4402    0.0000 </r>
       <r>   14.1090    0.0000 </r>
       <r>   14.3181    0.0000 </r>
       <r>   14.6372    0.0000 </r>
       <r>   14.9030    0.0000 </r>
       <r>   15.4114    0.0000 </r>
      </set>
      <set comment="kpoint 7">
       <r>  -14.2770    1.0000 </r>
       <r>  -11.4100    1.0000 </r>
       <r>  -10.0655    1.0000 </r>
       <r>   -9.6373    1.0000 </r>
       <r>   -7.3431    1.0000 </r>
       <r>   -6.6586    1.0000 </r>
       <r>   -5.8619    1.0000 </r>
       <r>   -4.7362    1.0000 </r>
       <r>   -4.0891    1.0000 </r>
       <r>   -3.4863    1.0000 </r>
       <r>   -2.6089    1.0000 </r>
       <r>   -2.5557    1.0000 </r>
       <r>   -2.2161    1.0000 </r>
       <r>   -1.5334    1.0000 </r>
       <r>   -1.2883    1.0000 </r>
       <r>   -0.3808    1.0000 </r>
       <r>    0.7249    1.0000 </r>
       <r>    2.0122    1.0000 </r>
       <r>    2.0801    1.0000 </r>
       <r>    2.0902    1.0000 </r>
       <r>    2.8414    0.0000 </r>
       <r>    3.4718    0.0000 </r>
       <r>    3.9843    0.0000 </r>
       <r>    4.1275    0.0000 </r>
       <r>    4.4021    0.0000 </r>
       <r>    5.4117    0.0000 </r>
       <r>    5.7407    0.0000 </r>
       <r>    5.8348    0.0000 </r>
       <r>    6.5158    0.0000 </r>
       <r>    6.9278    0.0000 </r>
       <r>    7.2586    0.0000 </r>
       <r>    7.9395    0.0000 </r>
       <r>    8.1779    0.0000 </r>
       <r>    8.5163    0.0000 </r>
       <r>   10.3474    0.0000 </r>
       <r>   10.8248    0.0000 </r>
       <r>   10.9695    0.0000 </r>
       <r>   11.4349    0.0000 </r>
       <r>   11.8211    0.0000 </r>
       <r>   12.1590    0.0000 </r>
       <r>   12.4378    0.0000 </r>
       <r>   12.6746    0.0000 </r>
       <r>   12.9370    0.0000 </r>
       <r>   14.3071    0.0000 </r>
       <r>   14.4310    0.0000 </r>
       <r>   14.6135    0.0000 </r>
       <r>   14.6393    0.0000 </r>
       <r>   15.4149    0.0000 </r>
      </set>
      <set comment="kpoint 8">
       <r>  -14.2605    1.0000 </r>
       <r>  -11.5574    1.0000 </r>
       <r>  -10.0651    1.0000 </r>
       <r>   -9.3495    1.0000 </r>
       <r>   -7.2837    1.0000 </r>
       <r>   -6.9219    1.0000 </r>
       <r>   -5.7666    1.0000 </r>
       <r>   -5.0160    1.0000 </r>
       <r>   -4.1641    1.0000 </r>
       <r>   -3.3485    1.0000 </r>
       <r>   -2.6120    1.0000 </r>
       <r>   -2.5294    1.0000 </r>
       <r>   -1.8067    1.0000 </r>
       <r>   -1.5851    1.0000 </r>
       <r>   -1.1772    1.0000 </r>
       <r>   -0.6765    1.0000 </r>
       <r>    0.7925    1.0000 </r>
       <r>    1.6134    1.0000 </r>
       <r>    1.9862    1.0000 </r>
       <r>    2.4693    0.6533 </r>
       <r>    2.6549    0.0129 </r>
       <r>    3.6769    0.0000 </r>
       <r>    4.0708    0.0000 </r>
       <r>    4.1374    0.0000 </r>
       <r>    4.3712    0.0000 </r>
       <r>    5.2879    0.0000 </r>
       <r>    5.4481    0.0000 </r>
       <r>    5.7932    0.0000 </r>
       <r>    6.5573    0.0000 </r>
       <r>    7.1721    0.0000 </r>
       <r>    7.6678    0.0000 </r>
       <r>    7.9939    0.0000 </r>
       <r>    8.1735    0.0000 </r>
       <r>    8.8034    0.0000 </r>
       <r>   10.1423    0.0000 </r>
       <r>   10.6218    0.0000 </r>
       <r>   11.0206    0.0000 </r>
       <r>   11.4847    0.0000 </r>
       <r>   11.7091    0.0000 </r>
       <r>   12.2287    0.0000 </r>
       <r>   12.4589    0.0000 </r>
       <r>   12.6103    0.0000 </r>
       <r>   12.7260    0.0000 </r>
       <r>   13.7891    0.0000 </r>
       <r>   14.5409    0.0000 </r>
       <r>   14.5432    0.0000 </r>
       <r>   14.6947    0.0000 </r>
       <r>   15.0008    0.0000 </r>
      </set>
      <set comment="kpoint 9">
       <r>  -14.2435    1.0000 </r>
       <r>  -11.6820    1.0000 </r>
       <r>  -10.0648    1.0000 </r>
       <r>   -9.0407    1.0000 </r>
       <r>   -7.2236    1.0000 </r>
       <r>   -7.2159    1.0000 </r>
       <r>   -5.5868    1.0000 </r>
       <r>   -5.2569    1.0000 </r>
       <r>   -4.4635    1.0000 </r>
       <r>   -3.0078    1.0000 </r>
       <r>   -2.6619    1.0000 </r>
       <r>   -2.4393    1.0000 </r>
       <r>   -1.8049    1.0000 </r>
       <r>   -1.1624    1.0000 </r>
       <r>   -1.0689    1.0000 </r>
       <r>   -1.0232    1.0000 </r>
       <r>    0.8713    1.0000 </r>
       <r>    1.0583    1.0000 </r>
       <r>    1.8882    1.0000 </r>
       <r>    2.4704    0.6477 </r>
       <r>    2.9648    0.0000 </r>
       <r>    3.8817    0.0000 </r>
       <r>    4.1473    0.0000 </r>
       <r>    4.1577    0.0000 </r>
       <r>    4.3545    0.0000 </r>
       <r>    5.0665    0.0000 </r>
       <r>    5.2159    0.0000 </r>
       <r>    5.7573    0.0000 </r>
       <r>    6.5915    0.0000 </r>
       <r>    7.3669    0.0000 </r>
       <r>    8.0056    0.0000 </r>
       <r>    8.1827    0.0000 </r>
       <r>    8.2048    0.0000 </r>
       <r>    9.1402    0.0000 </r>
       <r>    9.8100    0.0000 </r>
       <r>   10.2031    0.0000 </r>
       <r>   11.0667    0.0000 </r>
       <r>   11.4813    0.0000 </r>
       <r>   11.7165    0.0000 </r>
       <r>   12.2595    0.0000 </r>
       <r>   12.4110    0.0000 </r>
       <r>   12.8029    0.0000 </r>
       <r>   12.8548    0.0000 </r>
       <r>   13.2969    0.0000 </r>
       <r>   14.2818    0.0000 </r>
       <r>   14.4220    0.0000 </r>
       <r>   14.7731    0.0000 </r>
       <r>   14.8720    0.0000 </r>
      </set>
      <set comment="kpoint 10">
       <r>  -14.2327    1.0000 </r>
       <r>  -11.7515    1.0000 </r>
       <r>  -10.0646    1.0000 </r>
       <r>   -8.8130    1.0000 </r>
       <r>   -7.4486    1.0000 </r>
       <r>   -7.1695    1.0000 </r>
       <r>   -5.3969    1.0000 </r>
       <r>   -5.3822    1.0000 </r>
       <r>   -4.7537    1.0000 </r>
       <r>   -2.7254    1.0000 </r>
       <r>   -2.6903    1.0000 </r>
       <r>   -2.3484    1.0000 </r>
       <r>   -1.8939    1.0000 </r>
       <r>   -1.3230    1.0000 </r>
       <r>   -1.0023    1.0000 </r>
       <r>   -0.6599    1.0000 </r>
       <r>    0.5538    1.0000 </r>
       <r>    0.9279    1.0000 </r>
       <r>    1.8247    1.0000 </r>
       <r>    2.3544    0.9783 </r>
       <r>    3.3711    0.0000 </r>
       <r>    3.9484    0.0000 </r>
       <r>    4.1534    0.0000 </r>
       <r>    4.2090    0.0000 </r>
       <r>    4.3732    0.0000 </r>
       <r>    4.8129    0.0000 </r>
       <r>    5.1415    0.0000 </r>
       <r>    5.7373    0.0000 </r>
       <r>    6.6098    0.0000 </r>
       <r>    7.4685    0.0000 </r>
       <r>    7.9975    0.0000 </r>
       <r>    8.2271    0.0000 </r>
       <r>    8.7113    0.0000 </r>
       <r>    9.3836    0.0000 </r>
       <r>    9.3954    0.0000 </r>
       <r>    9.8984    0.0000 </r>
       <r>   11.0765    0.0000 </r>
       <r>   11.4305    0.0000 </r>
       <r>   11.8445    0.0000 </r>
       <r>   12.2626    0.0000 </r>
       <r>   12.4153    0.0000 </r>
       <r>   12.6867    0.0000 </r>
       <r>   12.9792    0.0000 </r>
       <r>   13.2432    0.0000 </r>
       <r>   14.2621    0.0000 </r>
       <r>   14.3390    0.0000 </r>
       <r>   14.7281    0.0000 </r>
       <r>   14.9956    0.0000 </r>
      </set>
      <set comment="kpoint 11">
       <r>  -14.2848    1.0000 </r>
       <r>  -11.2972    1.0000 </r>
       <r>  -10.0654    1.0000 </r>
       <r>   -9.8171    1.0000 </r>
       <r>   -7.4277    1.0000 </r>
       <r>   -6.5160    1.0000 </r>
       <r>   -5.8703    1.0000 </r>
       <r>   -4.6171    1.0000 </r>
       <r>   -4.2150    1.0000 </r>
       <r>   -3.3917    1.0000 </r>
       <r>   -2.7743    1.0000 </r>
       <r>   -2.5084    1.0000 </r>
       <r>   -2.2454    1.0000 </r>
       <r>   -1.3476    1.0000 </r>
       <r>   -1.2216    1.0000 </r>
       <r>   -0.2035    1.0000 </r>
       <r>    0.6202    1.0000 </r>
       <r>    1.7881    1.0000 </r>
       <r>    2.1672    1.0000 </r>
       <r>    2.2793    0.9990 </r>
       <r>    2.8564    0.0000 </r>
       <r>    3.4092    0.0000 </r>
       <r>    3.5264    0.0000 </r>
       <r>    4.1323    0.0000 </r>
       <r>    4.3972    0.0000 </r>
       <r>    4.8072    0.0000 </r>
       <r>    6.0249    0.0000 </r>
       <r>    6.1147    0.0000 </r>
       <r>    6.5725    0.0000 </r>
       <r>    6.6908    0.0000 </r>
       <r>    7.0228    0.0000 </r>
       <r>    7.9236    0.0000 </r>
       <r>    8.6125    0.0000 </r>
       <r>    8.8425    0.0000 </r>
       <r>   10.1892    0.0000 </r>
       <r>   10.8509    0.0000 </r>
       <r>   10.9930    0.0000 </r>
       <r>   11.4481    0.0000 </r>
       <r>   11.8210    0.0000 </r>
       <r>   11.9255    0.0000 </r>
       <r>   12.6532    0.0000 </r>
       <r>   12.8045    0.0000 </r>
       <r>   13.4417    0.0000 </r>
       <r>   14.0316    0.0000 </r>
       <r>   14.5155    0.0000 </r>
       <r>   14.6840    0.0000 </r>
       <r>   14.7837    0.0000 </r>
       <r>   15.4271    0.0000 </r>
      </set>
      <set comment="kpoint 12">
       <r>  -14.2749    1.0000 </r>
       <r>  -11.4070    1.0000 </r>
       <r>  -10.0651    1.0000 </r>
       <r>   -9.6337    1.0000 </r>
       <r>   -7.3937    1.0000 </r>
       <r>   -6.6570    1.0000 </r>
       <r>   -5.8609    1.0000 </r>
       <r>   -4.8260    1.0000 </r>
       <r>   -4.0853    1.0000 </r>
       <r>   -3.4672    1.0000 </r>
       <r>   -2.5737    1.0000 </r>
       <r>   -2.5477    1.0000 </r>
       <r>   -2.1175    1.0000 </r>
       <r>   -1.2762    1.0000 </r>
       <r>   -1.2758    1.0000 </r>
       <r>   -0.3760    1.0000 </r>
       <r>    0.6584    1.0000 </r>
       <r>    1.9769    1.0000 </r>
       <r>    2.0919    1.0000 </r>
       <r>    2.1065    1.0000 </r>
       <r>    2.7408    0.0003 </r>
       <r>    3.5007    0.0000 </r>
       <r>    3.6216    0.0000 </r>
       <r>    4.1410    0.0000 </r>
       <r>    4.3436    0.0000 </r>
       <r>    4.7456    0.0000 </r>
       <r>    5.9264    0.0000 </r>
       <r>    6.0033    0.0000 </r>
       <r>    6.7197    0.0000 </r>
       <r>    6.7774    0.0000 </r>
       <r>    7.2434    0.0000 </r>
       <r>    8.0419    0.0000 </r>
       <r>    8.6907    0.0000 </r>
       <r>    8.8399    0.0000 </r>
       <r>   10.1183    0.0000 </r>
       <r>   10.8441    0.0000 </r>
       <r>   10.9139    0.0000 </r>
       <r>   11.5527    0.0000 </r>
       <r>   11.8251    0.0000 </r>
       <r>   11.9419    0.0000 </r>
       <r>   12.5047    0.0000 </r>
       <r>   12.6898    0.0000 </r>
       <r>   12.9638    0.0000 </r>
       <r>   14.1913    0.0000 </r>
       <r>   14.5595    0.0000 </r>
       <r>   14.5705    0.0000 </r>
       <r>   14.7159    0.0000 </r>
       <r>   15.2636    0.0000 </r>
      </set>
      <set comment="kpoint 13">
       <r>  -14.2585    1.0000 </r>
       <r>  -11.5541    1.0000 </r>
       <r>  -10.0648    1.0000 </r>
       <r>   -9.3463    1.0000 </r>
       <r>   -7.3335    1.0000 </r>
       <r>   -6.9200    1.0000 </r>
       <r>   -5.7654    1.0000 </r>
       <r>   -5.1022    1.0000 </r>
       <r>   -4.1573    1.0000 </r>
       <r>   -3.3375    1.0000 </r>
       <r>   -2.6042    1.0000 </r>
       <r>   -2.4048    1.0000 </r>
       <r>   -1.7816    1.0000 </r>
       <r>   -1.3463    1.0000 </r>
       <r>   -1.1638    1.0000 </r>
       <r>   -0.6703    1.0000 </r>
       <r>    0.7273    1.0000 </r>
       <r>    1.5427    1.0000 </r>
       <r>    2.0055    1.0000 </r>
       <r>    2.5108    0.4239 </r>
       <r>    2.5593    0.1901 </r>
       <r>    3.6318    0.0000 </r>
       <r>    3.7850    0.0000 </r>
       <r>    4.1545    0.0000 </r>
       <r>    4.2798    0.0000 </r>
       <r>    4.6564    0.0000 </r>
       <r>    5.6280    0.0000 </r>
       <r>    5.9711    0.0000 </r>
       <r>    6.7598    0.0000 </r>
       <r>    7.0361    0.0000 </r>
       <r>    7.6366    0.0000 </r>
       <r>    8.2200    0.0000 </r>
       <r>    8.7549    0.0000 </r>
       <r>    8.9283    0.0000 </r>
       <r>    9.9566    0.0000 </r>
       <r>   10.6456    0.0000 </r>
       <r>   10.8564    0.0000 </r>
       <r>   11.5354    0.0000 </r>
       <r>   11.8121    0.0000 </r>
       <r>   11.9504    0.0000 </r>
       <r>   12.4587    0.0000 </r>
       <r>   12.6928    0.0000 </r>
       <r>   12.7895    0.0000 </r>
       <r>   13.6462    0.0000 </r>
       <r>   14.4586    0.0000 </r>
       <r>   14.7577    0.0000 </r>
       <r>   14.8516    0.0000 </r>
       <r>   14.8920    0.0000 </r>
      </set>
      <set comment="kpoint 14">
       <r>  -14.2415    1.0000 </r>
       <r>  -11.6785    1.0000 </r>
       <r>  -10.0644    1.0000 </r>
       <r>   -9.0378    1.0000 </r>
       <r>   -7.2652    1.0000 </r>
       <r>   -7.2209    1.0000 </r>
       <r>   -5.5854    1.0000 </r>
       <r>   -5.3415    1.0000 </r>
       <r>   -4.4574    1.0000 </r>
       <r>   -2.9960    1.0000 </r>
       <r>   -2.6542    1.0000 </r>
       <r>   -2.2925    1.0000 </r>
       <r>   -1.5986    1.0000 </r>
       <r>   -1.1446    1.0000 </r>
       <r>   -1.0546    1.0000 </r>
       <r>   -1.0049    1.0000 </r>
       <r>    0.8079    1.0000 </r>
       <r>    0.9958    1.0000 </r>
       <r>    1.8991    1.0000 </r>
       <r>    2.3800    0.9514 </r>
       <r>    2.9897    0.0000 </r>
       <r>    3.7793    0.0000 </r>
       <r>    3.9280    0.0000 </r>
       <r>    4.1674    0.0000 </r>
       <r>    4.2270    0.0000 </r>
       <r>    4.5938    0.0000 </r>
       <r>    5.2890    0.0000 </r>
       <r>    5.9424    0.0000 </r>
       <r>    6.7933    0.0000 </r>
       <r>    7.2449    0.0000 </r>
       <r>    8.1290    0.0000 </r>
       <r>    8.3710    0.0000 </r>
       <r>    8.7016    0.0000 </r>
       <r>    9.1839    0.0000 </r>
       <r>    9.6812    0.0000 </r>
       <r>   10.2931    0.0000 </r>
       <r>   10.8436    0.0000 </r>
       <r>   11.3861    0.0000 </r>
       <r>   11.7833    0.0000 </r>
       <r>   11.9400    0.0000 </r>
       <r>   12.4742    0.0000 </r>
       <r>   12.8899    0.0000 </r>
       <r>   12.9480    0.0000 </r>
       <r>   13.2454    0.0000 </r>
       <r>   14.1356    0.0000 </r>
       <r>   14.5969    0.0000 </r>
       <r>   14.7705    0.0000 </r>
       <r>   15.0211    0.0000 </r>
      </set>
      <set comment="kpoint 15">
       <r>  -14.2307    1.0000 </r>
       <r>  -11.7479    1.0000 </r>
       <r>  -10.0643    1.0000 </r>
       <r>   -8.8104    1.0000 </r>
       <r>   -7.4463    1.0000 </r>
       <r>   -7.2173    1.0000 </r>
       <r>   -5.4809    1.0000 </r>
       <r>   -5.3812    1.0000 </r>
       <r>   -4.7480    1.0000 </r>
       <r>   -2.7041    1.0000 </r>
       <r>   -2.6826    1.0000 </r>
       <r>   -2.2104    1.0000 </r>
       <r>   -1.6553    1.0000 </r>
       <r>   -1.3189    1.0000 </r>
       <r>   -0.9874    1.0000 </r>
       <r>   -0.6620    1.0000 </r>
       <r>    0.4946    1.0000 </r>
       <r>    0.8664    1.0000 </r>
       <r>    1.8290    1.0000 </r>
       <r>    2.2678    0.9994 </r>
       <r>    3.3473    0.0000 </r>
       <r>    3.8666    0.0000 </r>
       <r>    4.0142    0.0000 </r>
       <r>    4.1752    0.0000 </r>
       <r>    4.1969    0.0000 </r>
       <r>    4.5542    0.0000 </r>
       <r>    5.0428    0.0000 </r>
       <r>    5.9262    0.0000 </r>
       <r>    6.8112    0.0000 </r>
       <r>    7.3556    0.0000 </r>
       <r>    8.4565    0.0000 </r>
       <r>    8.6138    0.0000 </r>
       <r>    8.6288    0.0000 </r>
       <r>    9.3222    0.0000 </r>
       <r>    9.3994    0.0000 </r>
       <r>   10.0471    0.0000 </r>
       <r>   10.8886    0.0000 </r>
       <r>   11.2741    0.0000 </r>
       <r>   11.6817    0.0000 </r>
       <r>   11.9270    0.0000 </r>
       <r>   12.5638    0.0000 </r>
       <r>   12.7817    0.0000 </r>
       <r>   13.0856    0.0000 </r>
       <r>   13.3850    0.0000 </r>
       <r>   13.9105    0.0000 </r>
       <r>   14.5600    0.0000 </r>
       <r>   14.7480    0.0000 </r>
       <r>   15.1176    0.0000 </r>
      </set>
      <set comment="kpoint 16">
       <r>  -14.2822    1.0000 </r>
       <r>  -11.2936    1.0000 </r>
       <r>  -10.0649    1.0000 </r>
       <r>   -9.8123    1.0000 </r>
       <r>   -7.4886    1.0000 </r>
       <r>   -6.5139    1.0000 </r>
       <r>   -5.8693    1.0000 </r>
       <r>   -4.7227    1.0000 </r>
       <r>   -4.2116    1.0000 </r>
       <r>   -3.3669    1.0000 </r>
       <r>   -2.8329    1.0000 </r>
       <r>   -2.4981    1.0000 </r>
       <r>   -1.9794    1.0000 </r>
       <r>   -1.3324    1.0000 </r>
       <r>   -0.8856    1.0000 </r>
       <r>   -0.1978    1.0000 </r>
       <r>    0.5419    1.0000 </r>
       <r>    1.7865    1.0000 </r>
       <r>    2.1946    1.0000 </r>
       <r>    2.2005    1.0000 </r>
       <r>    2.7378    0.0003 </r>
       <r>    2.9226    0.0000 </r>
       <r>    3.7234    0.0000 </r>
       <r>    4.1217    0.0000 </r>
       <r>    4.1426    0.0000 </r>
       <r>    4.3622    0.0000 </r>
       <r>    6.2365    0.0000 </r>
       <r>    6.3417    0.0000 </r>
       <r>    6.4270    0.0000 </r>
       <r>    6.9550    0.0000 </r>
       <r>    7.0334    0.0000 </r>
       <r>    7.5699    0.0000 </r>
       <r>    9.2511    0.0000 </r>
       <r>    9.3883    0.0000 </r>
       <r>    9.8527    0.0000 </r>
       <r>   10.7968    0.0000 </r>
       <r>   11.0601    0.0000 </r>
       <r>   11.5657    0.0000 </r>
       <r>   11.6792    0.0000 </r>
       <r>   11.8478    0.0000 </r>
       <r>   12.6413    0.0000 </r>
       <r>   12.9265    0.0000 </r>
       <r>   13.5129    0.0000 </r>
       <r>   13.9703    0.0000 </r>
       <r>   14.6300    0.0000 </r>
       <r>   14.6774    0.0000 </r>
       <r>   14.8671    0.0000 </r>
       <r>   15.4083    0.0000 </r>
      </set>
      <set comment="kpoint 17">
       <r>  -14.2723    1.0000 </r>
       <r>  -11.4032    1.0000 </r>
       <r>  -10.0647    1.0000 </r>
       <r>   -9.6292    1.0000 </r>
       <r>   -7.4541    1.0000 </r>
       <r>   -6.6548    1.0000 </r>
       <r>   -5.8596    1.0000 </r>
       <r>   -4.9274    1.0000 </r>
       <r>   -4.0808    1.0000 </r>
       <r>   -3.4492    1.0000 </r>
       <r>   -2.5866    1.0000 </r>
       <r>   -2.5375    1.0000 </r>
       <r>   -1.8972    1.0000 </r>
       <r>   -1.2598    1.0000 </r>
       <r>   -0.9413    1.0000 </r>
       <r>   -0.3686    1.0000 </r>
       <r>    0.5805    1.0000 </r>
       <r>    1.8811    1.0000 </r>
       <r>    2.0869    1.0000 </r>
       <r>    2.1355    1.0000 </r>
       <r>    2.6253    0.0351 </r>
       <r>    3.0208    0.0000 </r>
       <r>    3.7892    0.0000 </r>
       <r>    4.0980    0.0000 </r>
       <r>    4.1540    0.0000 </r>
       <r>    4.3048    0.0000 </r>
       <r>    6.1790    0.0000 </r>
       <r>    6.2321    0.0000 </r>
       <r>    6.5911    0.0000 </r>
       <r>    6.9856    0.0000 </r>
       <r>    7.2305    0.0000 </r>
       <r>    7.7487    0.0000 </r>
       <r>    9.3059    0.0000 </r>
       <r>    9.3786    0.0000 </r>
       <r>    9.8082    0.0000 </r>
       <r>   10.7264    0.0000 </r>
       <r>   10.8958    0.0000 </r>
       <r>   11.6622    0.0000 </r>
       <r>   11.7156    0.0000 </r>
       <r>   11.9026    0.0000 </r>
       <r>   12.6057    0.0000 </r>
       <r>   12.7034    0.0000 </r>
       <r>   13.0550    0.0000 </r>
       <r>   14.0723    0.0000 </r>
       <r>   14.4889    0.0000 </r>
       <r>   14.6255    0.0000 </r>
       <r>   14.9407    0.0000 </r>
       <r>   15.1298    0.0000 </r>
      </set>
      <set comment="kpoint 18">
       <r>  -14.2560    1.0000 </r>
       <r>  -11.5500    1.0000 </r>
       <r>  -10.0644    1.0000 </r>
       <r>   -9.3422    1.0000 </r>
       <r>   -7.3931    1.0000 </r>
       <r>   -6.9176    1.0000 </r>
       <r>   -5.7638    1.0000 </r>
       <r>   -5.2002    1.0000 </r>
       <r>   -4.1501    1.0000 </r>
       <r>   -3.3272    1.0000 </r>
       <r>   -2.5942    1.0000 </r>
       <r>   -2.2993    1.0000 </r>
       <r>   -1.6694    1.0000 </r>
       <r>   -1.1466    1.0000 </r>
       <r>   -1.0272    1.0000 </r>
       <r>   -0.6587    1.0000 </r>
       <r>    0.6501    1.0000 </r>
       <r>    1.4603    1.0000 </r>
       <r>    2.0271    1.0000 </r>
       <r>    2.4419    0.7831 </r>
       <r>    2.4484    0.7550 </r>
       <r>    3.2020    0.0000 </r>
       <r>    3.7958    0.0000 </r>
       <r>    4.1529    0.0000 </r>
       <r>    4.1715    0.0000 </r>
       <r>    4.2511    0.0000 </r>
       <r>    5.9007    0.0000 </r>
       <r>    6.2170    0.0000 </r>
       <r>    6.8084    0.0000 </r>
       <r>    7.0290    0.0000 </r>
       <r>    7.5922    0.0000 </r>
       <r>    8.0447    0.0000 </r>
       <r>    9.3202    0.0000 </r>
       <r>    9.4307    0.0000 </r>
       <r>    9.7001    0.0000 </r>
       <r>   10.5858    0.0000 </r>
       <r>   10.6785    0.0000 </r>
       <r>   11.6254    0.0000 </r>
       <r>   11.6619    0.0000 </r>
       <r>   11.9065    0.0000 </r>
       <r>   12.5259    0.0000 </r>
       <r>   12.8248    0.0000 </r>
       <r>   12.8349    0.0000 </r>
       <r>   13.5880    0.0000 </r>
       <r>   14.2880    0.0000 </r>
       <r>   14.8115    0.0000 </r>
       <r>   14.8716    0.0000 </r>
       <r>   15.1311    0.0000 </r>
      </set>
      <set comment="kpoint 19">
       <r>  -14.2390    1.0000 </r>
       <r>  -11.6742    1.0000 </r>
       <r>  -10.0640    1.0000 </r>
       <r>   -9.0341    1.0000 </r>
       <r>   -7.3235    1.0000 </r>
       <r>   -7.2183    1.0000 </r>
       <r>   -5.5837    1.0000 </r>
       <r>   -5.4381    1.0000 </r>
       <r>   -4.4506    1.0000 </r>
       <r>   -2.9860    1.0000 </r>
       <r>   -2.6445    1.0000 </r>
       <r>   -2.1193    1.0000 </r>
       <r>   -1.3684    1.0000 </r>
       <r>   -1.0751    1.0000 </r>
       <r>   -1.0360    1.0000 </r>
       <r>   -0.9345    1.0000 </r>
       <r>    0.7319    1.0000 </r>
       <r>    0.9254    1.0000 </r>
       <r>    1.9122    1.0000 </r>
       <r>    2.2741    0.9992 </r>
       <r>    2.7643    0.0001 </r>
       <r>    3.4823    0.0000 </r>
       <r>    3.7344    0.0000 </r>
       <r>    4.1877    0.0000 </r>
       <r>    4.1950    0.0000 </r>
       <r>    4.3029    0.0000 </r>
       <r>    5.5814    0.0000 </r>
       <r>    6.1994    0.0000 </r>
       <r>    6.9861    0.0000 </r>
       <r>    7.0653    0.0000 </r>
       <r>    8.0447    0.0000 </r>
       <r>    8.3407    0.0000 </r>
       <r>    9.2133    0.0000 </r>
       <r>    9.5026    0.0000 </r>
       <r>    9.5904    0.0000 </r>
       <r>   10.3493    0.0000 </r>
       <r>   10.6037    0.0000 </r>
       <r>   11.3633    0.0000 </r>
       <r>   11.5797    0.0000 </r>
       <r>   11.7530    0.0000 </r>
       <r>   12.6189    0.0000 </r>
       <r>   13.0114    0.0000 </r>
       <r>   13.0139    0.0000 </r>
       <r>   13.3507    0.0000 </r>
       <r>   13.8295    0.0000 </r>
       <r>   14.7711    0.0000 </r>
       <r>   14.8849    0.0000 </r>
       <r>   15.2226    0.0000 </r>
      </set>
      <set comment="kpoint 20">
       <r>  -14.2283    1.0000 </r>
       <r>  -11.7434    1.0000 </r>
       <r>  -10.0638    1.0000 </r>
       <r>   -8.8070    1.0000 </r>
       <r>   -7.4434    1.0000 </r>
       <r>   -7.2746    1.0000 </r>
       <r>   -5.5773    1.0000 </r>
       <r>   -5.3796    1.0000 </r>
       <r>   -4.7418    1.0000 </r>
       <r>   -2.6891    1.0000 </r>
       <r>   -2.6730    1.0000 </r>
       <r>   -2.0268    1.0000 </r>
       <r>   -1.3590    1.0000 </r>
       <r>   -1.2930    1.0000 </r>
       <r>   -0.9679    1.0000 </r>
       <r>   -0.6298    1.0000 </r>
       <r>    0.4283    1.0000 </r>
       <r>    0.7916    1.0000 </r>
       <r>    1.8354    1.0000 </r>
       <r>    2.1659    1.0000 </r>
       <r>    2.9342    0.0000 </r>
       <r>    3.5468    0.0000 </r>
       <r>    3.9783    0.0000 </r>
       <r>    4.1822    0.0000 </r>
       <r>    4.1973    0.0000 </r>
       <r>    4.2806    0.0000 </r>
       <r>    5.3547    0.0000 </r>
       <r>    6.1886    0.0000 </r>
       <r>    7.0795    0.0000 </r>
       <r>    7.0850    0.0000 </r>
       <r>    8.4597    0.0000 </r>
       <r>    8.5201    0.0000 </r>
       <r>    9.0953    0.0000 </r>
       <r>    9.2435    0.0000 </r>
       <r>    9.7133    0.0000 </r>
       <r>   10.1892    0.0000 </r>
       <r>   10.7460    0.0000 </r>
[...]
       <r>   -2.4914    1.0000 </r>
       <r>   -2.2659    1.0000 </r>
       <r>   -1.6294    1.0000 </r>
       <r>   -0.6040    1.0000 </r>
       <r>   -0.3654    1.0000 </r>
       <r>   -0.2462    1.0000 </r>
       <r>    0.9998    1.0000 </r>
       <r>    1.3847    1.0000 </r>
       <r>    1.5278    1.0000 </r>
       <r>    1.7485    1.0000 </r>
       <r>    1.8782    1.0000 </r>
       <r>    2.1232    1.0000 </r>
       <r>    2.7853    0.0000 </r>
       <r>    3.1031    0.0000 </r>
       <r>    4.6597    0.0000 </r>
       <r>    4.9121    0.0000 </r>
       <r>    5.3512    0.0000 </r>
       <r>    5.5304    0.0000 </r>
       <r>    6.7731    0.0000 </r>
       <r>    6.8592    0.0000 </r>
       <r>    6.9446    0.0000 </r>
       <r>    7.0087    0.0000 </r>
       <r>   10.2426    0.0000 </r>
       <r>   10.6310    0.0000 </r>
       <r>   11.0862    0.0000 </r>
       <r>   11.2124    0.0000 </r>
       <r>   11.2890    0.0000 </r>
       <r>   11.7487    0.0000 </r>
       <r>   12.1807    0.0000 </r>
       <r>   12.2400    0.0000 </r>
       <r>   12.9591    0.0000 </r>
       <r>   13.2642    0.0000 </r>
       <r>   13.4281    0.0000 </r>
       <r>   13.7297    0.0000 </r>
       <r>   14.6197    0.0000 </r>
       <r>   14.7543    0.0000 </r>
       <r>   15.1211    0.0000 </r>
       <r>   15.2867    0.0000 </r>
      </set>
      <set comment="kpoint 175">
       <r>  -13.3202    1.0000 </r>
       <r>  -12.8586    1.0000 </r>
       <r>  -10.0331    1.0000 </r>
       <r>   -9.6485    1.0000 </r>
       <r>   -6.2124    1.0000 </r>
       <r>   -5.8082    1.0000 </r>
       <r>   -5.7608    1.0000 </r>
       <r>   -5.5474    1.0000 </r>
       <r>   -4.7735    1.0000 </r>
       <r>   -4.5053    1.0000 </r>
       <r>   -2.5353    1.0000 </r>
       <r>   -2.3894    1.0000 </r>
       <r>   -1.6500    1.0000 </r>
       <r>   -0.5479    1.0000 </r>
       <r>   -0.3505    1.0000 </r>
       <r>   -0.2633    1.0000 </r>
       <r>    1.1511    1.0000 </r>
       <r>    1.5848    1.0000 </r>
       <r>    1.7528    1.0000 </r>
       <r>    1.9144    1.0000 </r>
       <r>    1.9572    1.0000 </r>
       <r>    2.0490    1.0000 </r>
       <r>    2.8044    0.0000 </r>
       <r>    3.1170    0.0000 </r>
       <r>    4.4933    0.0000 </r>
       <r>    4.6696    0.0000 </r>
       <r>    5.3361    0.0000 </r>
       <r>    5.4066    0.0000 </r>
       <r>    6.6789    0.0000 </r>
       <r>    6.7645    0.0000 </r>
       <r>    6.9879    0.0000 </r>
       <r>    7.0321    0.0000 </r>
       <r>   10.5673    0.0000 </r>
       <r>   10.7629    0.0000 </r>
       <r>   11.0694    0.0000 </r>
       <r>   11.2073    0.0000 </r>
       <r>   11.4237    0.0000 </r>
       <r>   11.8145    0.0000 </r>
       <r>   12.2806    0.0000 </r>
       <r>   12.3350    0.0000 </r>
       <r>   12.7668    0.0000 </r>
       <r>   12.9781    0.0000 </r>
       <r>   13.3166    0.0000 </r>
       <r>   13.4816    0.0000 </r>
       <r>   14.6618    0.0000 </r>
       <r>   14.7892    0.0000 </r>
       <r>   15.0063    0.0000 </r>
       <r>   15.1875    0.0000 </r>
      </set>
     </set>
    </set>
   </array>
  </eigenvalues>
  <separator name="orbital magnetization" >
   <v name="MAGDIPOLOUT">      0.00000000      0.00000000      0.00000000</v>
  </separator>
  <dos>
   <i name="efermi">      2.49722407 </i>
   <total>
    <array>
     <dimension dim="1">gridpoints</dimension>
     <dimension dim="2">spin</dimension>
     <field>energy</field>
     <field>total</field>
     <field>integrated</field>
     <set>
      <set comment="spin 1">
       <r>   -15.7987     0.0000     0.0000 </r>
       <r>   -15.6880     0.0000     0.0000 </r>
       <r>   -15.5772     0.0000     0.0000 </r>
       <r>   -15.4664     0.0000     0.0000 </r>
       <r>   -15.3556     0.0000     0.0000 </r>
       <r>   -15.2448     0.0000     0.0000 </r>
       <r>   -15.1341     0.0000     0.0000 </r>
       <r>   -15.0233     0.0000     0.0000 </r>
       <r>   -14.9125     0.0000     0.0000 </r>
       <r>   -14.8017     0.0000     0.0000 </r>
       <r>   -14.6909     0.0000     0.0000 </r>
       <r>   -14.5802     0.0000     0.0000 </r>
       <r>   -14.4694     0.0040     0.0004 </r>
       <r>   -14.3586     0.2126     0.0240 </r>
       <r>   -14.2478     1.8449     0.2284 </r>
       <r>   -14.1370     3.2271     0.5859 </r>
       <r>   -14.0263     2.5599     0.8695 </r>
       <r>   -13.9155     1.8979     1.0797 </r>
       <r>   -13.8047     0.9150     1.1811 </r>
       <r>   -13.6939     2.1775     1.4223 </r>
       <r>   -13.5832     1.1235     1.5467 </r>
       <r>   -13.4724     0.2194     1.5711 </r>
       <r>   -13.3616     1.4377     1.7303 </r>
       <r>   -13.2508     2.0245     1.9546 </r>
       <r>   -13.1400     0.4003     1.9989 </r>
       <r>   -13.0293     0.0593     2.0055 </r>
       <r>   -12.9185     0.9409     2.1097 </r>
       <r>   -12.8077     2.2578     2.3599 </r>
       <r>   -12.6969     0.7340     2.4412 </r>
       <r>   -12.5861     0.0325     2.4448 </r>
       <r>   -12.4754     0.1998     2.4669 </r>
       <r>   -12.3646     1.6398     2.6485 </r>
       <r>   -12.2538     1.8664     2.8553 </r>
       <r>   -12.1430     0.3064     2.8893 </r>
       <r>   -12.0322     0.2733     2.9195 </r>
       <r>   -11.9215     1.3181     3.0655 </r>
       <r>   -11.8107     2.1089     3.2992 </r>
       <r>   -11.6999     2.0113     3.5220 </r>
       <r>   -11.5891     1.3919     3.6762 </r>
       <r>   -11.4783     1.2135     3.8106 </r>
       <r>   -11.3676     1.0657     3.9287 </r>
       <r>   -11.2568     0.5086     3.9850 </r>
       <r>   -11.1460     0.1277     3.9992 </r>
       <r>   -11.0352     0.0075     4.0000 </r>
       <r>   -10.9244     0.0001     4.0000 </r>
       <r>   -10.8137     0.0000     4.0000 </r>
       <r>   -10.7029     0.0000     4.0000 </r>
       <r>   -10.5921     0.0036     4.0004 </r>
       <r>   -10.4813     0.1614     4.0183 </r>
       <r>   -10.3705     1.1966     4.1508 </r>
       <r>   -10.2598     2.6748     4.4471 </r>
       <r>   -10.1490     3.8565     4.8744 </r>
       <r>   -10.0382     4.2180     5.3416 </r>
       <r>    -9.9274     2.9259     5.6658 </r>
       <r>    -9.8166     1.8377     5.8694 </r>
       <r>    -9.7059     2.1906     6.1120 </r>
       <r>    -9.5951     3.4463     6.4938 </r>
       <r>    -9.4843     3.4675     6.8779 </r>
       <r>    -9.3735     2.1645     7.1177 </r>
       <r>    -9.2628     2.4738     7.3918 </r>
       <r>    -9.1520     1.5442     7.5628 </r>
       <r>    -9.0412     1.2317     7.6993 </r>
       <r>    -8.9304     1.3502     7.8489 </r>
       <r>    -8.8196     0.8380     7.9417 </r>
       <r>    -8.7089     0.4708     7.9938 </r>
       <r>    -8.5981     0.0547     7.9999 </r>
       <r>    -8.4873     0.0008     8.0000 </r>
       <r>    -8.3765     0.0000     8.0000 </r>
       <r>    -8.2657     0.0000     8.0000 </r>
       <r>    -8.1550     0.0000     8.0000 </r>
       <r>    -8.0442     0.0000     8.0000 </r>
       <r>    -7.9334     0.0000     8.0000 </r>
       <r>    -7.8226     0.0002     8.0000 </r>
       <r>    -7.7118     0.0122     8.0014 </r>
       <r>    -7.6011     0.1706     8.0203 </r>
       <r>    -7.4903     0.7807     8.1067 </r>
       <r>    -7.3795     1.5771     8.2815 </r>
       <r>    -7.2687     2.1339     8.5178 </r>
       <r>    -7.1579     2.6683     8.8134 </r>
       <r>    -7.0472     2.2880     9.0669 </r>
       <r>    -6.9364     2.1719     9.3075 </r>
       <r>    -6.8256     2.4137     9.5749 </r>
       <r>    -6.7148     3.7521     9.9906 </r>
       <r>    -6.6040     4.3951    10.4774 </r>
       <r>    -6.4933     4.1728    10.9397 </r>
       <r>    -6.3825     3.2108    11.2954 </r>
       <r>    -6.2717     2.6233    11.5860 </r>
       <r>    -6.1609     2.9615    11.9141 </r>
       <r>    -6.0501     2.8668    12.2317 </r>
       <r>    -5.9394     2.8193    12.5440 </r>
       <r>    -5.8286     3.7462    12.9590 </r>
       <r>    -5.7178     3.9922    13.4012 </r>
       <r>    -5.6070     3.7804    13.8200 </r>
       <r>    -5.4962     4.5271    14.3215 </r>
       <r>    -5.3855     3.6408    14.7249 </r>
       <r>    -5.2747     3.1161    15.0701 </r>
       <r>    -5.1639     2.1857    15.3122 </r>
       <r>    -5.0531     1.7454    15.5056 </r>
       <r>    -4.9424     2.0143    15.7287 </r>
       <r>    -4.8316     2.7026    16.0281 </r>
       <r>    -4.7208     2.7353    16.3311 </r>
       <r>    -4.6100     2.4334    16.6007 </r>
       <r>    -4.4992     3.0345    16.9368 </r>
       <r>    -4.3885     2.5794    17.2226 </r>
       <r>    -4.2777     1.8812    17.4310 </r>
       <r>    -4.1669     2.1976    17.6744 </r>
       <r>    -4.0561     2.3608    17.9360 </r>
       <r>    -3.9453     1.7486    18.1297 </r>
       <r>    -3.8346     1.7023    18.3182 </r>
       <r>    -3.7238     1.2946    18.4617 </r>
       <r>    -3.6130     2.1110    18.6955 </r>
       <r>    -3.5022     2.2343    18.9430 </r>
       <r>    -3.3914     2.1183    19.1777 </r>
       <r>    -3.2807     2.4444    19.4485 </r>
       <r>    -3.1699     1.9939    19.6694 </r>
       <r>    -3.0591     1.0633    19.7872 </r>
       <r>    -2.9483     0.9973    19.8977 </r>
       <r>    -2.8375     0.8860    19.9958 </r>
       <r>    -2.7268     0.8989    20.0954 </r>
       <r>    -2.6160     2.1016    20.3282 </r>
       <r>    -2.5052     3.0989    20.6715 </r>
       <r>    -2.3944     4.0099    21.1157 </r>
       <r>    -2.2836     4.9030    21.6589 </r>
       <r>    -2.1729     4.8404    22.1951 </r>
       <r>    -2.0621     5.4485    22.7987 </r>
       <r>    -1.9513     6.3334    23.5003 </r>
       <r>    -1.8405     5.4194    24.1006 </r>
       <r>    -1.7297     5.0122    24.6559 </r>
       <r>    -1.6190     4.8726    25.1957 </r>
       <r>    -1.5082     5.1780    25.7693 </r>
       <r>    -1.3974     5.3262    26.3593 </r>
       <r>    -1.2866     5.1389    26.9286 </r>
       <r>    -1.1758     5.2240    27.5073 </r>
       <r>    -1.0651     4.6411    28.0215 </r>
       <r>    -0.9543     4.3610    28.5046 </r>
       <r>    -0.8435     5.1588    29.0761 </r>
       <r>    -0.7327     4.1039    29.5307 </r>
       <r>    -0.6219     3.8446    29.9566 </r>
       <r>    -0.5112     3.8648    30.3847 </r>
       <r>    -0.4004     4.3143    30.8627 </r>
       <r>    -0.2896     4.2390    31.3323 </r>
       <r>    -0.1788     3.2579    31.6932 </r>
       <r>    -0.0681     2.7238    31.9949 </r>
       <r>     0.0427     3.5837    32.3919 </r>
       <r>     0.1535     3.6442    32.7956 </r>
       <r>     0.2643     1.9506    33.0117 </r>
       <r>     0.3751     1.2272    33.1477 </r>
       <r>     0.4858     1.7660    33.3433 </r>
       <r>     0.5966     1.8320    33.5462 </r>
       <r>     0.7074     1.8963    33.7563 </r>
       <r>     0.8182     2.3582    34.0175 </r>
       <r>     0.9290     2.5585    34.3010 </r>
       <r>     1.0397     2.8142    34.6127 </r>
       <r>     1.1505     3.4637    34.9964 </r>
       <r>     1.2613     3.8641    35.4245 </r>
       <r>     1.3721     3.9365    35.8606 </r>
       <r>     1.4829     3.9614    36.2994 </r>
       <r>     1.5936     3.7463    36.7144 </r>
       <r>     1.7044     4.1653    37.1759 </r>
       <r>     1.8152     4.9802    37.7276 </r>
       <r>     1.9260     5.6973    38.3587 </r>
       <r>     2.0368     5.9093    39.0133 </r>
       <r>     2.1475     6.3690    39.7189 </r>
       <r>     2.2583     6.9129    40.4847 </r>
       <r>     2.3691     6.4957    41.2043 </r>
       <r>     2.4799     6.2990    41.9021 </r>
       <r>     2.5907     4.7369    42.4268 </r>
       <r>     2.7014     3.2352    42.7852 </r>
       <r>     2.8122     2.8462    43.1005 </r>
       <r>     2.9230     3.2679    43.4626 </r>
       <r>     3.0338     3.9896    43.9045 </r>
       <r>     3.1446     2.9996    44.2368 </r>
       <r>     3.2553     2.0572    44.4647 </r>
       <r>     3.3661     1.9804    44.6841 </r>
       <r>     3.4769     2.9360    45.0093 </r>
       <r>     3.5877     3.4346    45.3898 </r>
       <r>     3.6985     3.7404    45.8042 </r>
       <r>     3.8092     4.4959    46.3022 </r>
       <r>     3.9200     4.7051    46.8235 </r>
       <r>     4.0308     3.7477    47.2386 </r>
       <r>     4.1416     3.7747    47.6568 </r>
       <r>     4.2523     4.4303    48.1476 </r>
       <r>     4.3631     3.5669    48.5427 </r>
       <r>     4.4739     3.3140    48.9098 </r>
       <r>     4.5847     3.9662    49.3492 </r>
       <r>     4.6955     4.8316    49.8845 </r>
       <r>     4.8062     4.5792    50.3917 </r>
       <r>     4.9170     3.8629    50.8197 </r>
       <r>     5.0278     3.1504    51.1687 </r>
       <r>     5.1386     3.1737    51.5202 </r>
       <r>     5.2494     3.7062    51.9308 </r>
       <r>     5.3601     4.2014    52.3962 </r>
       <r>     5.4709     4.6213    52.9082 </r>
       <r>     5.5817     4.1778    53.3710 </r>
       <r>     5.6925     4.4324    53.8620 </r>
       <r>     5.8033     4.5696    54.3682 </r>
       <r>     5.9140     3.9372    54.8044 </r>
       <r>     6.0248     3.8700    55.2331 </r>
       <r>     6.1356     3.5165    55.6227 </r>
       <r>     6.2464     3.3294    55.9915 </r>
       <r>     6.3572     3.7896    56.4113 </r>
       <r>     6.4679     4.1253    56.8683 </r>
       <r>     6.5787     4.4534    57.3616 </r>
       <r>     6.6895     3.7736    57.7797 </r>
       <r>     6.8003     3.9571    58.2180 </r>
       <r>     6.9111     4.2551    58.6894 </r>
       <r>     7.0218     4.2303    59.1580 </r>
       <r>     7.1326     4.1081    59.6131 </r>
       <r>     7.2434     3.9347    60.0490 </r>
       <r>     7.3542     3.7065    60.4596 </r>
       <r>     7.4650     3.3049    60.8257 </r>
       <r>     7.5757     3.4909    61.2125 </r>
       <r>     7.6865     3.8121    61.6348 </r>
       <r>     7.7973     3.8171    62.0576 </r>
       <r>     7.9081     3.3709    62.4311 </r>
       <r>     8.0189     2.7409    62.7347 </r>
       <r>     8.1296     2.8992    63.0559 </r>
       <r>     8.2404     3.5368    63.4477 </r>
       <r>     8.3512     3.4404    63.8288 </r>
       <r>     8.4620     2.4949    64.1052 </r>
       <r>     8.5727     2.2183    64.3509 </r>
       <r>     8.6835     2.3674    64.6132 </r>
       <r>     8.7943     2.5637    64.8972 </r>
       <r>     8.9051     2.8424    65.2121 </r>
       <r>     9.0159     3.1612    65.5623 </r>
       <r>     9.1266     3.1751    65.9140 </r>
       <r>     9.2374     2.4540    66.1859 </r>
       <r>     9.3482     1.9422    66.4010 </r>
       <r>     9.4590     1.8704    66.6082 </r>
       <r>     9.5698     1.6933    66.7958 </r>
       <r>     9.6805     1.8803    67.0041 </r>
       <r>     9.7913     2.3881    67.2687 </r>
       <r>     9.9021     2.1413    67.5059 </r>
       <r>    10.0129     2.5760    67.7912 </r>
       <r>    10.1237     3.3119    68.1581 </r>
       <r>    10.2344     3.9662    68.5975 </r>
       <r>    10.3452     4.7224    69.1207 </r>
       <r>    10.4560     4.7792    69.6501 </r>
       <r>    10.5668     4.1395    70.1087 </r>
       <r>    10.6776     4.4557    70.6023 </r>
       <r>    10.7883     5.3672    71.1968 </r>
       <r>    10.8991     5.9248    71.8532 </r>
       <r>    11.0099     5.2571    72.4356 </r>
       <r>    11.1207     4.5740    72.9423 </r>
       <r>    11.2315     4.5896    73.4507 </r>
       <r>    11.3422     4.3423    73.9317 </r>
       <r>    11.4530     4.1374    74.3901 </r>
       <r>    11.5638     4.1794    74.8531 </r>
       <r>    11.6746     4.5487    75.3570 </r>
       <r>    11.7854     5.0779    75.9195 </r>
       <r>    11.8961     4.7610    76.4469 </r>
       <r>    12.0069     5.2409    77.0275 </r>
       <r>    12.1177     5.6373    77.6520 </r>
       <r>    12.2285     5.4262    78.2531 </r>
       <r>    12.3393     5.4916    78.8615 </r>
       <r>    12.4500     6.1726    79.5452 </r>
       <r>    12.5608     6.3919    80.2533 </r>
       <r>    12.6716     6.0282    80.9211 </r>
       <r>    12.7824     4.7073    81.4426 </r>
       <r>    12.8931     4.1216    81.8992 </r>
       <r>    13.0039     4.3129    82.3770 </r>
       <r>    13.1147     4.3523    82.8591 </r>
       <r>    13.2255     4.9862    83.4115 </r>
       <r>    13.3363     5.9010    84.0652 </r>
       <r>    13.4470     6.0668    84.7373 </r>
       <r>    13.5578     5.6984    85.3686 </r>
       <r>    13.6686     5.0512    85.9281 </r>
       <r>    13.7794     3.9104    86.3613 </r>
       <r>    13.8902     3.5757    86.7574 </r>
       <r>    14.0009     4.1036    87.2120 </r>
       <r>    14.1117     4.2667    87.6847 </r>
       <r>    14.2225     4.6665    88.2016 </r>
       <r>    14.3333     5.2540    88.7837 </r>
       <r>    14.4441     5.1577    89.3550 </r>
       <r>    14.5548     5.6209    89.9777 </r>
       <r>    14.6656     6.4597    90.6933 </r>
       <r>    14.7764     6.8892    91.4565 </r>
       <r>    14.8872     6.8414    92.2144 </r>
       <r>    14.9980     5.9871    92.8776 </r>
       <r>    15.1087     5.5473    93.4922 </r>
       <r>    15.2195     5.5715    94.1094 </r>
       <r>    15.3303     4.9778    94.6608 </r>
       <r>    15.4411     4.4488    95.1536 </r>
       <r>    15.5519     3.6752    95.5608 </r>
       <r>    15.6626     2.1052    95.7940 </r>
       <r>    15.7734     1.1213    95.9182 </r>
       <r>    15.8842     0.5267    95.9766 </r>
       <r>    15.9950     0.1870    95.9973 </r>
       <r>    16.1058     0.0241    95.9999 </r>
       <r>    16.2165     0.0006    96.0000 </r>
       <r>    16.3273     0.0000    96.0000 </r>
       <r>    16.4381     0.0000    96.0000 </r>
       <r>    16.5489     0.0000    96.0000 </r>
       <r>    16.6597     0.0000    96.0000 </r>
       <r>    16.7704     0.0000    96.0000 </r>
       <r>    16.8812     0.0000    96.0000 </r>
       <r>    16.9920     0.0000    96.0000 </r>
       <r>    17.1028     0.0000    96.0000 </r>
       <r>    17.2136     0.0000    96.0000 </r>
       <r>    17.3243     0.0000    96.0000 </r>
       <r>    17.4351     0.0000    96.0000 </r>
      </set>
     </set>
    </array>
   </total>
  </dos>
 </calculation>
 <structure name="finalpos" >
  <crystal>
   <varray name="basis" >
    <v>       6.20187120       0.00000000       0.00000000 </v>
    <v>       0.00000000       5.70097069       0.00000000 </v>
    <v>       0.00000000       0.00000000       4.04405810 </v>
   </varray>
   <i name="volume">    142.98449202 </i>
   <varray name="rec_basis" >
    <v>       0.16124166       0.00000000       0.00000000 </v>
    <v>       0.00000000       0.17540872       0.00000000 </v>
    <v>       0.00000000       0.00000000       0.24727637 </v>
   </varray>
  </crystal>
  <varray name="positions" >
   <v>       0.63795770       0.50000000       0.52128988 </v>
   <v>       0.36204230       0.50000000       0.47871012 </v>
   <v>       0.63795770       0.50000000       0.97871012 </v>
   <v>       0.36204230       0.50000000       0.02128988 </v>
   <v>       0.89986832       0.50000000       0.59744966 </v>
   <v>       0.10013168       0.50000000       0.40255034 </v>
   <v>       0.89986832       0.50000000       0.90255034 </v>
   <v>       0.10013168       0.50000000       0.09744966 </v>
   <v>       0.72957940       0.79156493       0.75000000 </v>
   <v>       0.27042060       0.20843507       0.25000000 </v>
   <v>       0.72957940       0.20843507       0.75000000 </v>
   <v>       0.27042060       0.79156493       0.25000000 </v>
   <v>       0.52399303       0.50000000       0.25000000 </v>
   <v>       0.47600697       0.50000000       0.75000000 </v>
  </varray>
 </structure>
</modeling>
