 running   24 mpi-ranks, with    1 threads/rank, on    1 nodes
 distrk:  each k-point on   24 cores,    1 groups
 distr:  one band on    1 cores,   24 groups
 vasp.6.4.3 19Mar24 (build May 31 2024 16:31:43) complex                        
  
 POSCAR found type information on POSCAR B 
 POSCAR found :  1 types and      14 ions
 Reading from existing POTCAR
 scaLAPACK will be used
 Reading from existing POTCAR
 LDA part: xc-table for (Slater+PW92), standard interpolation
 POSCAR, INCAR and KPOINTS ok, starting setup
 FFT: planning ... GRIDC
 FFT: planning ... GRID_SOFT
 FFT: planning ... GRID
 WAVECAR not read
 entering main loop
       N       E                     dE             d eps       ncg     rms          rms(c)
DAV:   1     0.737872512733E+02    0.73787E+02   -0.19538E+04 16800   0.834E+02
DAV:   2    -0.920572168438E+02   -0.16584E+03   -0.15556E+03 23256   0.164E+02
DAV:   3    -0.976061736167E+02   -0.55490E+01   -0.55182E+01 24840   0.267E+01
DAV:   4    -0.976386500606E+02   -0.32476E-01   -0.32475E-01 19944   0.236E+00
DAV:   5    -0.976390148855E+02   -0.36482E-03   -0.36482E-03 24792   0.239E-01    0.123E+01
DAV:   6    -0.922233770514E+02    0.54156E+01   -0.39487E+00 24312   0.659E+00    0.680E+00
DAV:   7    -0.905719864310E+02    0.16514E+01   -0.32216E+00 25128   0.586E+00    0.171E+00
DAV:   8    -0.905843535634E+02   -0.12367E-01   -0.23450E-01 18648   0.167E+00    0.705E-01
DAV:   9    -0.905985183308E+02   -0.14165E-01   -0.16923E-02 23208   0.438E-01    0.198E-01
DAV:  10    -0.906025684293E+02   -0.40501E-02   -0.20959E-03 19296   0.161E-01    0.609E-02
DAV:  11    -0.906036328122E+02   -0.10644E-02   -0.62408E-04 21648   0.864E-02    0.321E-02
DAV:  12    -0.906037479135E+02   -0.11510E-03   -0.92187E-05 20736   0.368E-02    0.428E-03
DAV:  13    -0.906037527265E+02   -0.48131E-05   -0.40767E-06 23448   0.872E-03    0.182E-03
DAV:  14    -0.906037534073E+02   -0.68077E-06   -0.28577E-07 20640   0.228E-03
   1 F= -.90603753E+02 E0= -.90602147E+02  d E =-.321351E-02
