 vasp.6.4.3 19Mar24 (build May 31 2024 16:31:43) complex                        
  
 executed on             LinuxIFC date 2024.11.11  15:25:25
 running   24 mpi-ranks, with    1 threads/rank, on    1 nodes
 distrk:  each k-point on   24 cores,    1 groups
 distr:  one band on NCORE=   1 cores,   24 groups


--------------------------------------------------------------------------------------------------------


 INCAR:
   SYSTEM = BS
   ISTART = 0
   ICHARG = 11
   PREC = Accurate
   LORBIT = 11
   ENCUT = 600
   ALGO = Normal
   NELM = 64
   EDIFF = 1E-6
   EDIFFG = -1E-3
   SIGMA = 0.1
   ISMEAR = 0
   GGA = PE
   IVDW = 12

 POTCAR:    PAW_PBE B 06Sep2000                   
 POTCAR:    PAW_PBE B 06Sep2000                   
   SHA256 =  a32ced30f5ae56fd4d10b4325ff17eb3e4e38ee0f4288bc219fb012fddfa6e97 B/POTCAR              
   COPYR  = (c) Copyright 06Sep2000 Georg Kresse                                                    
   COPYR  = This file is part of the software VASP. Any use, copying, and all other rights are regul
   COPYR  = If you do not have a valid VASP license, you may not use, copy or distribute this file. 
   VRHFIN =B: s2p1                                                                                  
   LEXCH  = PE                                                                                      
   EATOM  =    71.1703 eV,    5.2309 Ry                                                             
                                                                                                    
   TITEL  = PAW_PBE B 06Sep2000                                                                     
   LULTRA =        F    use ultrasoft PP ?                                                          
   IUNSCR =        1    unscreen: 0-lin 1-nonlin 2-no                                               
   RPACOR =    1.200    partial core radius                                                         
   POMASS =   10.811; ZVAL   =    3.000    mass and valenz                                          
   RCORE  =    1.700    outmost cutoff radius                                                       
   RWIGS  =    1.710; RWIGS  =    0.905    wigner-seitz radius (au A)                               
   ENMAX  =  318.614; ENMIN  =  238.960 eV                                                          
   ICORE  =        2    local potential                                                             
   LCOR   =        T    correct aug charges                                                         
   LPAW   =        T    paw PP                                                                      
   EAUG   =  535.514                                                                                
   DEXC   =    0.000                                                                                
   RMAX   =    1.732    core radius for proj-oper                                                   
   RAUG   =    1.300    factor for augmentation sphere                                              
   RDEP   =    1.757    radius for radial grids                                                     
   RDEPT  =    1.436    core radius for aug-charge                                                  
                                                                                                    
   Atomic configuration                                                                             
    4 entries                                                                                       
     n  l   j            E        occ.                                                              
     1  0  0.50      -180.5896   2.0000                                                             
     2  0  0.50        -9.4431   2.0000                                                             
     2  1  0.50        -3.6068   1.0000                                                             
     3  2  1.50        -4.0817   0.0000                                                             
   Description                                                                                      
     l       E           TYP  RCUT    TYP  RCUT                                                     
     0     -9.4430752     23  1.500                                                                 
     0      0.8675899     23  1.500                                                                 
     1     -3.6067955     23  1.700                                                                 
     1      6.1086146     23  1.700                                                                 
     2     -4.0817478      7  1.700                                                                 
  local pseudopotential read in
  partial core-charges read in
  partial kinetic energy density read in
  atomic valenz-charges read in
  non local Contribution for L=           0  read in
    real space projection operators read in
  non local Contribution for L=           0  read in
    real space projection operators read in
  non local Contribution for L=           1  read in
    real space projection operators read in
  non local Contribution for L=           1  read in
    real space projection operators read in
    PAW grid and wavefunctions read in
 
   number of l-projection  operators is LMAX  =           4
   number of lm-projection operators is LMMAX =           8
 
  PAW_PBE B 06Sep2000                   :
 energy of atom  1       EATOM=  -71.1703
 kinetic energy error for atom=    0.0007 (will be added to EATOM!!)
 
 
 POSCAR: o-B14
  positions in direct lattice
  No initial velocities read in
 IVDW         = 12
 VDW_S6       =    1.0000
 VDW_S8       =    0.7875
 VDW_A1       =    0.4289
 VDW_A2       =    4.4407
 VDW_RADIUS   =   50.2022 A
 VDW_CNRADIUS =   21.1671 A


 exchange-correlation table for PE
   RHO(1)=    0.500       N(1)  =     2000
   RHO(2)=  100.500       N(2)  =     4000
 


--------------------------------------------------------------------------------------------------------


 ion  position               nearest neighbor table
   1  0.521  0.500  0.638-  14 1.65   5 1.68  13 1.70   2 1.73   9 1.85  11 1.85
   2  0.479  0.500  0.362-  13 1.65   6 1.68  14 1.70   1 1.73  10 1.85  12 1.85
   3  0.979  0.500  0.638-  14 1.65   7 1.68  13 1.70   4 1.73   9 1.85  11 1.85
   4  0.021  0.500  0.362-  13 1.65   8 1.68  14 1.70   3 1.73  10 1.85  12 1.85
   5  0.597  0.500  0.900-   6 1.67   1 1.68   7 1.74   9 1.81  11 1.81
   6  0.403  0.500  0.100-   5 1.67   2 1.68   8 1.74  10 1.81  12 1.81
   7  0.903  0.500  0.900-   8 1.67   3 1.68   5 1.74   9 1.81  11 1.81
   8  0.097  0.500  0.100-   7 1.67   4 1.68   6 1.74  10 1.81  12 1.81
   9  0.750  0.792  0.730-  11 1.69   7 1.81   5 1.81   3 1.85   1 1.85  14 1.97
  10  0.250  0.208  0.270-  12 1.69   8 1.81   6 1.81   4 1.85   2 1.85  13 1.97
  11  0.750  0.208  0.730-   9 1.69   7 1.81   5 1.81   3 1.85   1 1.85  14 1.97
  12  0.250  0.792  0.270-  10 1.69   8 1.81   6 1.81   4 1.85   2 1.85  13 1.97
  13  0.250  0.500  0.524-   2 1.65   4 1.65   3 1.70   1 1.70  10 1.97  12 1.97
  14  0.750  0.500  0.476-   1 1.65   3 1.65   2 1.70   4 1.70   9 1.97  11 1.97
 
  LATTYP: Found a simple orthorhombic cell.
 ALAT       =     4.0440580961
 B/A-ratio  =     1.4097153303
 C/A-ratio  =     1.5335761871
  
  Lattice vectors:
  
 A1 = (   0.0000000000,  -4.0440580961,   0.0000000000)
 A2 = (   5.7009706948,   0.0000000000,   0.0000000000)
 A3 = (   0.0000000000,   0.0000000000,   6.2018711955)


Analysis of symmetry for initial positions (statically):
=====================================================================
 Subroutine PRICEL returns:
 Original cell was already a primitive cell.
 

 Routine SETGRP: Setting up the symmetry group for a 
 simple orthorhombic supercell.


 Subroutine GETGRP returns: Found  8 space group operations
 (whereof  4 operations were pure point group operations)
 out of a pool of  8 trial point group operations.


The static configuration has the point symmetry C_2h.
 The point group associated with its full space group is D_2h.


Analysis of symmetry for dynamics (positions and initial velocities):
=====================================================================
 Subroutine PRICEL returns:
 Original cell was already a primitive cell.
 

 Routine SETGRP: Setting up the symmetry group for a 
 simple orthorhombic supercell.


 Subroutine GETGRP returns: Found  8 space group operations
 (whereof  4 operations were pure point group operations)
 out of a pool of  8 trial point group operations.


The dynamic configuration has the point symmetry C_2h.
 The point group associated with its full space group is D_2h.


 Subroutine INISYM returns: Found  8 space group operations
 (whereof  4 operations are pure point group operations),
 and found     1 'primitive' translations


----------------------------------------------------------------------------------------

                                     Primitive cell                                     

  volume of cell :     142.9845

  direct lattice vectors                    reciprocal lattice vectors
     5.700970695  0.000000000  0.000000000     0.175408725  0.000000000  0.000000000
     0.000000000  4.044058096  0.000000000     0.000000000  0.247276368  0.000000000
     0.000000000  0.000000000  6.201871195     0.000000000  0.000000000  0.161241659

  length of vectors
     5.700970695  4.044058096  6.201871195     0.175408725  0.247276368  0.161241659

  position of ions in fractional coordinates (direct lattice)
     0.521289885  0.500000000  0.637957702
     0.478710115  0.500000000  0.362042298
     0.978710115  0.500000000  0.637957702
     0.021289885  0.500000000  0.362042298
     0.597449662  0.500000000  0.899868316
     0.402550338  0.500000000  0.100131684
     0.902550338  0.500000000  0.899868316
     0.097449662  0.500000000  0.100131684
     0.750000000  0.791564932  0.729579396
     0.250000000  0.208435068  0.270420604
     0.750000000  0.208435068  0.729579396
     0.250000000  0.791564932  0.270420604
     0.250000000  0.500000000  0.523993035
     0.750000000  0.500000000  0.476006965

  ion indices of the primitive-cell ions
   primitive index   ion index
                 1           1
                 2           2
                 3           3
                 4           4
                 5           5
                 6           6
                 7           7
                 8           8
                 9           9
                10          10
                11          11
                12          12
                13          13
                14          14

----------------------------------------------------------------------------------------

 
 
 KPOINTS: K-points                                

Interpolating k-points between supplied coordinates.

 Line segments in fractional coordinates (reciprocal lattice):
    0.000000  0.000000  0.000000  ...  0.000000  0.000000  0.500000
    0.000000  0.000000  0.500000  ...  0.000000  0.500000  0.500000
    0.000000  0.500000  0.500000  ...  0.000000  0.500000  0.000000
    0.000000  0.500000  0.000000  ...  0.500000  0.500000  0.000000
    0.500000  0.500000  0.000000  ...  0.500000  0.000000  0.000000
    0.500000  0.000000  0.000000  ...  0.500000  0.000000  0.500000
    0.500000  0.000000  0.500000  ...  0.500000  0.500000  0.500000

 Generated    16 points on each line segment, for a total of    112 k-points:

 Following reciprocal coordinates:
            Coordinates               Weight
  0.000000  0.000000  0.000000      0.008929
  0.000000  0.000000  0.033333      0.008929
  0.000000  0.000000  0.066667      0.008929
  0.000000  0.000000  0.100000      0.008929
  0.000000  0.000000  0.133333      0.008929
  0.000000  0.000000  0.166667      0.008929
  0.000000  0.000000  0.200000      0.008929
  0.000000  0.000000  0.233333      0.008929
  0.000000  0.000000  0.266667      0.008929
  0.000000  0.000000  0.300000      0.008929
  0.000000  0.000000  0.333333      0.008929
  0.000000  0.000000  0.366667      0.008929
  0.000000  0.000000  0.400000      0.008929
  0.000000  0.000000  0.433333      0.008929
  0.000000  0.000000  0.466667      0.008929
  0.000000  0.000000  0.500000      0.008929
  0.000000  0.000000  0.500000      0.008929
  0.000000  0.033333  0.500000      0.008929
  0.000000  0.066667  0.500000      0.008929
  0.000000  0.100000  0.500000      0.008929
  0.000000  0.133333  0.500000      0.008929
  0.000000  0.166667  0.500000      0.008929
  0.000000  0.200000  0.500000      0.008929
  0.000000  0.233333  0.500000      0.008929
  0.000000  0.266667  0.500000      0.008929
  0.000000  0.300000  0.500000      0.008929
  0.000000  0.333333  0.500000      0.008929
  0.000000  0.366667  0.500000      0.008929
  0.000000  0.400000  0.500000      0.008929
  0.000000  0.433333  0.500000      0.008929
  0.000000  0.466667  0.500000      0.008929
  0.000000  0.500000  0.500000      0.008929
  0.000000  0.500000  0.500000      0.008929
  0.000000  0.500000  0.466667      0.008929
  0.000000  0.500000  0.433333      0.008929
  0.000000  0.500000  0.400000      0.008929
  0.000000  0.500000  0.366667      0.008929
  0.000000  0.500000  0.333333      0.008929
  0.000000  0.500000  0.300000      0.008929
  0.000000  0.500000  0.266667      0.008929
  0.000000  0.500000  0.233333      0.008929
  0.000000  0.500000  0.200000      0.008929
  0.000000  0.500000  0.166667      0.008929
  0.000000  0.500000  0.133333      0.008929
  0.000000  0.500000  0.100000      0.008929
  0.000000  0.500000  0.066667      0.008929
  0.000000  0.500000  0.033333      0.008929
  0.000000  0.500000  0.000000      0.008929
  0.000000  0.500000  0.000000      0.008929
  0.033333  0.500000  0.000000      0.008929
  0.066667  0.500000  0.000000      0.008929
  0.100000  0.500000  0.000000      0.008929
  0.133333  0.500000  0.000000      0.008929
  0.166667  0.500000  0.000000      0.008929
  0.200000  0.500000  0.000000      0.008929
  0.233333  0.500000  0.000000      0.008929
  0.266667  0.500000  0.000000      0.008929
  0.300000  0.500000  0.000000      0.008929
  0.333333  0.500000  0.000000      0.008929
  0.366667  0.500000  0.000000      0.008929
  0.400000  0.500000  0.000000      0.008929
  0.433333  0.500000  0.000000      0.008929
  0.466667  0.500000  0.000000      0.008929
  0.500000  0.500000  0.000000      0.008929
  0.500000  0.500000  0.000000      0.008929
  0.500000  0.466667  0.000000      0.008929
  0.500000  0.433333  0.000000      0.008929
  0.500000  0.400000  0.000000      0.008929
  0.500000  0.366667  0.000000      0.008929
  0.500000  0.333333  0.000000      0.008929
  0.500000  0.300000  0.000000      0.008929
  0.500000  0.266667  0.000000      0.008929
  0.500000  0.233333  0.000000      0.008929
  0.500000  0.200000  0.000000      0.008929
  0.500000  0.166667  0.000000      0.008929
  0.500000  0.133333  0.000000      0.008929
  0.500000  0.100000  0.000000      0.008929
  0.500000  0.066667  0.000000      0.008929
  0.500000  0.033333  0.000000      0.008929
  0.500000  0.000000  0.000000      0.008929
  0.500000  0.000000  0.000000      0.008929
  0.500000  0.000000  0.033333      0.008929
  0.500000  0.000000  0.066667      0.008929
  0.500000  0.000000  0.100000      0.008929
  0.500000  0.000000  0.133333      0.008929
  0.500000  0.000000  0.166667      0.008929
  0.500000  0.000000  0.200000      0.008929
  0.500000  0.000000  0.233333      0.008929
  0.500000  0.000000  0.266667      0.008929
  0.500000  0.000000  0.300000      0.008929
  0.500000  0.000000  0.333333      0.008929
  0.500000  0.000000  0.366667      0.008929
  0.500000  0.000000  0.400000      0.008929
  0.500000  0.000000  0.433333      0.008929
  0.500000  0.000000  0.466667      0.008929
  0.500000  0.000000  0.500000      0.008929
  0.500000  0.000000  0.500000      0.008929
  0.500000  0.033333  0.500000      0.008929
  0.500000  0.066667  0.500000      0.008929
  0.500000  0.100000  0.500000      0.008929
  0.500000  0.133333  0.500000      0.008929
  0.500000  0.166667  0.500000      0.008929
  0.500000  0.200000  0.500000      0.008929
  0.500000  0.233333  0.500000      0.008929
  0.500000  0.266667  0.500000      0.008929
  0.500000  0.300000  0.500000      0.008929
  0.500000  0.333333  0.500000      0.008929
  0.500000  0.366667  0.500000      0.008929
  0.500000  0.400000  0.500000      0.008929
  0.500000  0.433333  0.500000      0.008929
  0.500000  0.466667  0.500000      0.008929
  0.500000  0.500000  0.500000      0.008929

 Following cartesian coordinates:
            Coordinates               Weight
  0.000000  0.000000  0.000000      0.008929
  0.000000  0.000000  0.005375      0.008929
  0.000000  0.000000  0.010749      0.008929
  0.000000  0.000000  0.016124      0.008929
  0.000000  0.000000  0.021499      0.008929
  0.000000  0.000000  0.026874      0.008929
  0.000000  0.000000  0.032248      0.008929
  0.000000  0.000000  0.037623      0.008929
  0.000000  0.000000  0.042998      0.008929
  0.000000  0.000000  0.048372      0.008929
  0.000000  0.000000  0.053747      0.008929
  0.000000  0.000000  0.059122      0.008929
  0.000000  0.000000  0.064497      0.008929
  0.000000  0.000000  0.069871      0.008929
  0.000000  0.000000  0.075246      0.008929
  0.000000  0.000000  0.080621      0.008929
  0.000000  0.000000  0.080621      0.008929
  0.000000  0.008243  0.080621      0.008929
  0.000000  0.016485  0.080621      0.008929
  0.000000  0.024728  0.080621      0.008929
  0.000000  0.032970  0.080621      0.008929
  0.000000  0.041213  0.080621      0.008929
  0.000000  0.049455  0.080621      0.008929
  0.000000  0.057698  0.080621      0.008929
  0.000000  0.065940  0.080621      0.008929
  0.000000  0.074183  0.080621      0.008929
  0.000000  0.082425  0.080621      0.008929
  0.000000  0.090668  0.080621      0.008929
  0.000000  0.098911  0.080621      0.008929
  0.000000  0.107153  0.080621      0.008929
  0.000000  0.115396  0.080621      0.008929
  0.000000  0.123638  0.080621      0.008929
  0.000000  0.123638  0.080621      0.008929
  0.000000  0.123638  0.075246      0.008929
  0.000000  0.123638  0.069871      0.008929
  0.000000  0.123638  0.064497      0.008929
  0.000000  0.123638  0.059122      0.008929
  0.000000  0.123638  0.053747      0.008929
  0.000000  0.123638  0.048372      0.008929
  0.000000  0.123638  0.042998      0.008929
  0.000000  0.123638  0.037623      0.008929
  0.000000  0.123638  0.032248      0.008929
  0.000000  0.123638  0.026874      0.008929
  0.000000  0.123638  0.021499      0.008929
  0.000000  0.123638  0.016124      0.008929
  0.000000  0.123638  0.010749      0.008929
  0.000000  0.123638  0.005375      0.008929
  0.000000  0.123638  0.000000      0.008929
  0.000000  0.123638  0.000000      0.008929
  0.005847  0.123638  0.000000      0.008929
  0.011694  0.123638  0.000000      0.008929
  0.017541  0.123638  0.000000      0.008929
  0.023388  0.123638  0.000000      0.008929
  0.029235  0.123638  0.000000      0.008929
  0.035082  0.123638  0.000000      0.008929
  0.040929  0.123638  0.000000      0.008929
  0.046776  0.123638  0.000000      0.008929
  0.052623  0.123638  0.000000      0.008929
  0.058470  0.123638  0.000000      0.008929
  0.064317  0.123638  0.000000      0.008929
  0.070163  0.123638  0.000000      0.008929
  0.076010  0.123638  0.000000      0.008929
  0.081857  0.123638  0.000000      0.008929
  0.087704  0.123638  0.000000      0.008929
  0.087704  0.123638  0.000000      0.008929
  0.087704  0.115396  0.000000      0.008929
  0.087704  0.107153  0.000000      0.008929
  0.087704  0.098911  0.000000      0.008929
  0.087704  0.090668  0.000000      0.008929
  0.087704  0.082425  0.000000      0.008929
  0.087704  0.074183  0.000000      0.008929
  0.087704  0.065940  0.000000      0.008929
  0.087704  0.057698  0.000000      0.008929
  0.087704  0.049455  0.000000      0.008929
  0.087704  0.041213  0.000000      0.008929
  0.087704  0.032970  0.000000      0.008929
  0.087704  0.024728  0.000000      0.008929
  0.087704  0.016485  0.000000      0.008929
  0.087704  0.008243  0.000000      0.008929
  0.087704  0.000000  0.000000      0.008929
  0.087704  0.000000  0.000000      0.008929
  0.087704  0.000000  0.005375      0.008929
  0.087704  0.000000  0.010749      0.008929
  0.087704  0.000000  0.016124      0.008929
  0.087704  0.000000  0.021499      0.008929
  0.087704  0.000000  0.026874      0.008929
  0.087704  0.000000  0.032248      0.008929
  0.087704  0.000000  0.037623      0.008929
  0.087704  0.000000  0.042998      0.008929
  0.087704  0.000000  0.048372      0.008929
  0.087704  0.000000  0.053747      0.008929
  0.087704  0.000000  0.059122      0.008929
  0.087704  0.000000  0.064497      0.008929
  0.087704  0.000000  0.069871      0.008929
  0.087704  0.000000  0.075246      0.008929
  0.087704  0.000000  0.080621      0.008929
  0.087704  0.000000  0.080621      0.008929
  0.087704  0.008243  0.080621      0.008929
  0.087704  0.016485  0.080621      0.008929
  0.087704  0.024728  0.080621      0.008929
  0.087704  0.032970  0.080621      0.008929
  0.087704  0.041213  0.080621      0.008929
  0.087704  0.049455  0.080621      0.008929
  0.087704  0.057698  0.080621      0.008929
  0.087704  0.065940  0.080621      0.008929
  0.087704  0.074183  0.080621      0.008929
  0.087704  0.082425  0.080621      0.008929
  0.087704  0.090668  0.080621      0.008929
  0.087704  0.098911  0.080621      0.008929
  0.087704  0.107153  0.080621      0.008929
  0.087704  0.115396  0.080621      0.008929
  0.087704  0.123638  0.080621      0.008929
 


--------------------------------------------------------------------------------------------------------




 Dimension of arrays:
   k-points           NKPTS =    112   k-points in BZ     NKDIM =    112   number of bands    NBANDS=     48
   number of dos      NEDOS =    301   number of ions     NIONS =     14
   non local maximal  LDIM  =      4   non local SUM 2l+1 LMDIM =      8
   total plane-waves  NPLWV =  76800
   max r-space proj   IRMAX =      1   max aug-charges    IRDMAX=   8575
   dimension x,y,z NGX =    48 NGY =   32 NGZ =   50
   dimension x,y,z NGXF=    96 NGYF=   64 NGZF=  100
   support grid    NGXF=    96 NGYF=   64 NGZF=  100
   ions per type =              14
   NGX,Y,Z   is equivalent  to a cutoff of  14.00, 13.15, 13.40 a.u.
   NGXF,Y,Z  is equivalent  to a cutoff of  27.99, 26.31, 26.81 a.u.

 SYSTEM =  BS                                      
 POSCAR =  o-B14

 Startparameter for this run:
   NWRITE =      2    write-flag & timer
   PREC   = accura    normal or accurate (medium, high low for compatibility)
   ISTART =      0    job   : 0-new  1-cont  2-samecut
   ICHARG =     11    charge: 1-file 2-atom 10-const
   ISPIN  =      1    spin polarized calculation?
   LNONCOLLINEAR =      F non collinear calculations
   LSORBIT =      F    spin-orbit coupling
   INIWAV =      1    electr: 0-lowe 1-rand  2-diag
   LASPH  =      F    aspherical Exc in radial PAW
 Electronic Relaxation 1
   ENCUT  =  600.0 eV  44.10 Ry    6.64 a.u.  11.39  8.08 12.39*2*pi/ulx,y,z
   ENINI  =  600.0     initial cutoff
   ENAUG  =  535.5 eV  augmentation charge cutoff
   NELM   =     64;   NELMIN=  2; NELMDL= -5     # of ELM steps 
   EDIFF  = 0.1E-05   stopping-criterion for ELM
   LREAL  =      F    real-space projection
   NLSPLINE    = F    spline interpolate recip. space projectors
   LCOMPAT=      F    compatible to vasp.4.4
   GGA_COMPAT  = T    GGA compatible to vasp.4.4-vasp.4.6
   LMAXPAW     = -100 max onsite density
   LMAXMIX     =    2 max onsite mixed and CHGCAR
   VOSKOWN=      0    Vosko Wilk Nusair interpolation
   ROPT   =    0.00000
 Ionic relaxation
   EDIFFG = -.1E-02   stopping-criterion for IOM
   NSW    =      0    number of steps for IOM
   NBLOCK =      1;   KBLOCK =      1    inner block; outer block 
   IBRION =     -1    ionic relax: 0-MD 1-quasi-New 2-CG
   NFREE  =      0    steps in history (QN), initial steepest desc. (CG)
   ISIF   =      2    stress and relaxation
   IWAVPR =     10    prediction:  0-non 1-charg 2-wave 3-comb
   ISYM   =      2    0-nonsym 1-usesym 2-fastsym
   LCORR  =      T    Harris-Foulkes like correction to forces

   POTIM  = 0.5000    time-step for ionic-motion
   TEIN   =    0.0    initial temperature
   TEBEG  =    0.0;   TEEND  =   0.0 temperature during run
   SMASS  =  -3.00    Nose mass-parameter (am)
   estimated Nose-frequenzy (Omega)   =  0.10E-29 period in steps = 0.13E+47 mass=  -0.743E-27a.u.
   SCALEE = 1.0000    scale energy and forces
   NPACO  =    256;   APACO  = 10.0  distance and # of slots for P.C.
   PSTRESS=    0.0 pullay stress

  Mass of Ions in am
   POMASS =  10.81
  Ionic Valenz
   ZVAL   =   3.00
  Atomic Wigner-Seitz radii
   RWIGS  =  -1.00
  virtual crystal weights 
   VCA    =   1.00
   NELECT =      42.0000    total number of electrons
   NUPDOWN=      -1.0000    fix difference up-down

 DOS related values:
   EMIN   =  10.00;   EMAX   =-10.00  energy-range for DOS
   EFERMI =   0.00;   METHOD = LEGACY      
   ISMEAR =     0;   SIGMA  =   0.10  broadening in eV -4-tet -1-fermi 0-gaus

 Electronic relaxation 2 (details)
   IALGO  =     38    algorithm
   LDIAG  =      T    sub-space diagonalisation (order eigenvalues)
   LSUBROT=      F    optimize rotation matrix (better conditioning)
   TURBO    =      0    0=normal 1=particle mesh
   IRESTART =      0    0=no restart 2=restart with 2 vectors
   NREBOOT  =      0    no. of reboots
   NMIN     =      0    reboot dimension
   EREF     =   0.00    reference energy to select bands
   IMIX   =      4    mixing-type and parameters
     AMIX     =   0.40;   BMIX     =  1.00
     AMIX_MAG =   1.60;   BMIX_MAG =  1.00
     AMIN     =   0.10
     WC   =   100.;   INIMIX=   1;  MIXPRE=   1;  MAXMIX= -45

 Intra band minimization:
   WEIMIN = 0.0000     energy-eigenvalue tresh-hold
   EBREAK =  0.52E-08  absolut break condition
   DEPER  =   0.30     relativ break condition  

   TIME   =   0.40     timestep for ELM

  volume/ion in A,a.u.               =      10.21        68.92
  Fermi-wavevector in a.u.,A,eV,Ry     =   1.088249  2.056492 16.113188  1.184286
  Thomas-Fermi vector in A             =   2.224426
 
 Write flags
   LWAVE        =      T    write WAVECAR
   LDOWNSAMPLE  =      F    k-point downsampling of WAVECAR
   LCHARG       =      T    write CHGCAR
   LVTOT        =      F    write LOCPOT, total local potential
   LVHAR        =      F    write LOCPOT, Hartree potential only
   WRT_POTENTIAL= false  ! write potential to hdf5 file
   LELF         =      F    write electronic localiz. function (ELF)
   LORBIT       =     11    0 simple, 1 ext, 2 COOP (PROOUT), +10 PAW based schemes


 Dipole corrections
   LMONO      =      F    monopole corrections only (constant potential shift)
   LDIPOL     =      F    correct potential (dipole corrections)
   IDIPOL     =      0    1-x, 2-y, 3-z, 4-all directions 
   EPSILON    =  1.0000000 bulk dielectric constant
   LVACPOTAV  =      F  vacuum potentials using an averaging scheme for the charge density
   VACPOTFLAT =  0.1000000 required flatness to determine vacuum potential
 Exchange correlation treatment:
   GGA     = PE    functional components
   XC_C    = 1    coefficients multiplying the functional components
   LIBXC   =     F    Libxc                    
   VOSKOWN =     0    Vosko Wilk Nusair interpolation
   LHFCALC =     F    Hartree Fock is set to
   LHFONE  =     F    Hartree Fock one center treatment
   AEXX    =    0.0000 exact exchange contribution

 Parameters of functionals:
   PE:
     No parameter
 
 Van der Waals corrections
   IVDW    =    12    specifies the selected vdW correction

 Linear response parameters
   LEPSILON=     F    determine dielectric tensor
   LRPA    =     F    only Hartree local field effects (RPA)
   LNABLA  =     F    use nabla operator in PAW spheres
   LVEL    =     F    velocity operator in full k-point grid
   CSHIFT  =0.1000    complex shift for real part using Kramers Kronig
   OMEGAMAX=  -1.0    maximum frequency
   DEG_THRESHOLD= 0.2000000E-02 threshold for treating states as degnerate
   RTIME   =   -0.100 relaxation time in fs
  (WPLASMAI=    0.000 imaginary part of plasma frequency in eV, 0.658/RTIME)
   DFIELD  = 0.0000000 0.0000000 0.0000000 field for delta impulse in time
 
  Optional k-point grid parameters
   LKPOINTS_OPT  =     F    use optional k-point grid
   KPOINTS_OPT_MODE=     1    mode for optional k-point grid
 
 Orbital magnetization related:
   ORBITALMAG=     F  switch on orbital magnetization
   LCHIMAG   =     F  perturbation theory with respect to B field
   DQ        =  0.001000  dq finite difference perturbation B field
   LLRAUG    =     F  two centre corrections for induced B field
   LBONE     =     F  B-component reconstruction in AE one-centre
   LVGVCALC  =     T  calculate vGv susceptibility
   LVGVAPPL  =     F  apply vGv susceptibility instead of pGv for G=0

 Random number generation:
   RANDOM_GENERATOR = DEFAULT
   PCG_SEED         = not used


--------------------------------------------------------------------------------------------------------


 Static calculation
 charge density and potential remain constant during run
 non-spin polarized calculation
 Variant of blocked Davidson
 Davidson routine will perform the subspace rotation
 perform sub-space diagonalisation
    after iterative eigenvector-optimisation
 no mixing
 using additional bands           27
 reciprocal scheme for non local part
 use partial core corrections
 calculate Harris-corrections to forces 
   (improved forces if not selfconsistent)
 use gradient corrections 
 WARNING: stress and forces are not correct
  (second derivative of E(xc) not defined)
 use of overlap-Matrix (Vanderbilt PP)
 Gauss-broadening in eV      SIGMA  =   0.10


--------------------------------------------------------------------------------------------------------


  energy-cutoff  :      600.00
  volume of cell :      142.98
      direct lattice vectors                 reciprocal lattice vectors
     5.700970695  0.000000000  0.000000000     0.175408725  0.000000000  0.000000000
     0.000000000  4.044058096  0.000000000     0.000000000  0.247276368  0.000000000
     0.000000000  0.000000000  6.201871195     0.000000000  0.000000000  0.161241659

  length of vectors
     5.700970695  4.044058096  6.201871195     0.175408725  0.247276368  0.161241659


 
 k-points in units of 2pi/SCALE and weight: K-points                                
   0.00000000  0.00000000  0.00000000       0.009
   0.00000000  0.00000000  0.00537472       0.009
   0.00000000  0.00000000  0.01074944       0.009
   0.00000000  0.00000000  0.01612417       0.009
   0.00000000  0.00000000  0.02149889       0.009
   0.00000000  0.00000000  0.02687361       0.009
   0.00000000  0.00000000  0.03224833       0.009
   0.00000000  0.00000000  0.03762305       0.009
   0.00000000  0.00000000  0.04299778       0.009
   0.00000000  0.00000000  0.04837250       0.009
   0.00000000  0.00000000  0.05374722       0.009
   0.00000000  0.00000000  0.05912194       0.009
   0.00000000  0.00000000  0.06449666       0.009
   0.00000000  0.00000000  0.06987139       0.009
   0.00000000  0.00000000  0.07524611       0.009
   0.00000000  0.00000000  0.08062083       0.009
   0.00000000  0.00000000  0.08062083       0.009
   0.00000000  0.00824255  0.08062083       0.009
   0.00000000  0.01648509  0.08062083       0.009
   0.00000000  0.02472764  0.08062083       0.009
   0.00000000  0.03297018  0.08062083       0.009
   0.00000000  0.04121273  0.08062083       0.009
   0.00000000  0.04945527  0.08062083       0.009
   0.00000000  0.05769782  0.08062083       0.009
   0.00000000  0.06594036  0.08062083       0.009
   0.00000000  0.07418291  0.08062083       0.009
   0.00000000  0.08242546  0.08062083       0.009
   0.00000000  0.09066800  0.08062083       0.009
   0.00000000  0.09891055  0.08062083       0.009
   0.00000000  0.10715309  0.08062083       0.009
   0.00000000  0.11539564  0.08062083       0.009
   0.00000000  0.12363818  0.08062083       0.009
   0.00000000  0.12363818  0.08062083       0.009
   0.00000000  0.12363818  0.07524611       0.009
   0.00000000  0.12363818  0.06987139       0.009
   0.00000000  0.12363818  0.06449666       0.009
   0.00000000  0.12363818  0.05912194       0.009
   0.00000000  0.12363818  0.05374722       0.009
   0.00000000  0.12363818  0.04837250       0.009
   0.00000000  0.12363818  0.04299778       0.009
   0.00000000  0.12363818  0.03762305       0.009
   0.00000000  0.12363818  0.03224833       0.009
   0.00000000  0.12363818  0.02687361       0.009
   0.00000000  0.12363818  0.02149889       0.009
   0.00000000  0.12363818  0.01612417       0.009
   0.00000000  0.12363818  0.01074944       0.009
   0.00000000  0.12363818  0.00537472       0.009
   0.00000000  0.12363818  0.00000000       0.009
   0.00000000  0.12363818  0.00000000       0.009
   0.00584696  0.12363818  0.00000000       0.009
   0.01169391  0.12363818  0.00000000       0.009
   0.01754087  0.12363818  0.00000000       0.009
   0.02338783  0.12363818  0.00000000       0.009
   0.02923479  0.12363818  0.00000000       0.009
   0.03508174  0.12363818  0.00000000       0.009
   0.04092870  0.12363818  0.00000000       0.009
   0.04677566  0.12363818  0.00000000       0.009
   0.05262262  0.12363818  0.00000000       0.009
   0.05846957  0.12363818  0.00000000       0.009
   0.06431653  0.12363818  0.00000000       0.009
   0.07016349  0.12363818  0.00000000       0.009
   0.07601045  0.12363818  0.00000000       0.009
   0.08185740  0.12363818  0.00000000       0.009
   0.08770436  0.12363818  0.00000000       0.009
   0.08770436  0.12363818  0.00000000       0.009
   0.08770436  0.11539564  0.00000000       0.009
   0.08770436  0.10715309  0.00000000       0.009
   0.08770436  0.09891055  0.00000000       0.009
   0.08770436  0.09066800  0.00000000       0.009
   0.08770436  0.08242546  0.00000000       0.009
   0.08770436  0.07418291  0.00000000       0.009
   0.08770436  0.06594036  0.00000000       0.009
   0.08770436  0.05769782  0.00000000       0.009
   0.08770436  0.04945527  0.00000000       0.009
   0.08770436  0.04121273  0.00000000       0.009
   0.08770436  0.03297018  0.00000000       0.009
   0.08770436  0.02472764  0.00000000       0.009
   0.08770436  0.01648509  0.00000000       0.009
   0.08770436  0.00824255  0.00000000       0.009
   0.08770436  0.00000000  0.00000000       0.009
   0.08770436  0.00000000  0.00000000       0.009
   0.08770436  0.00000000  0.00537472       0.009
   0.08770436  0.00000000  0.01074944       0.009
   0.08770436  0.00000000  0.01612417       0.009
   0.08770436  0.00000000  0.02149889       0.009
   0.08770436  0.00000000  0.02687361       0.009
   0.08770436  0.00000000  0.03224833       0.009
   0.08770436  0.00000000  0.03762305       0.009
   0.08770436  0.00000000  0.04299778       0.009
   0.08770436  0.00000000  0.04837250       0.009
   0.08770436  0.00000000  0.05374722       0.009
   0.08770436  0.00000000  0.05912194       0.009
   0.08770436  0.00000000  0.06449666       0.009
   0.08770436  0.00000000  0.06987139       0.009
   0.08770436  0.00000000  0.07524611       0.009
   0.08770436  0.00000000  0.08062083       0.009
   0.08770436  0.00000000  0.08062083       0.009
   0.08770436  0.00824255  0.08062083       0.009
   0.08770436  0.01648509  0.08062083       0.009
   0.08770436  0.02472764  0.08062083       0.009
   0.08770436  0.03297018  0.08062083       0.009
   0.08770436  0.04121273  0.08062083       0.009
   0.08770436  0.04945527  0.08062083       0.009
   0.08770436  0.05769782  0.08062083       0.009
   0.08770436  0.06594036  0.08062083       0.009
   0.08770436  0.07418291  0.08062083       0.009
   0.08770436  0.08242546  0.08062083       0.009
   0.08770436  0.09066800  0.08062083       0.009
   0.08770436  0.09891055  0.08062083       0.009
   0.08770436  0.10715309  0.08062083       0.009
   0.08770436  0.11539564  0.08062083       0.009
   0.08770436  0.12363818  0.08062083       0.009
 
 k-points in reciprocal lattice and weights: K-points                                
   0.00000000  0.00000000  0.00000000       0.009
   0.00000000  0.00000000  0.03333333       0.009
   0.00000000  0.00000000  0.06666667       0.009
   0.00000000  0.00000000  0.10000000       0.009
   0.00000000  0.00000000  0.13333333       0.009
   0.00000000  0.00000000  0.16666667       0.009
   0.00000000  0.00000000  0.20000000       0.009
   0.00000000  0.00000000  0.23333333       0.009
   0.00000000  0.00000000  0.26666667       0.009
   0.00000000  0.00000000  0.30000000       0.009
   0.00000000  0.00000000  0.33333333       0.009
   0.00000000  0.00000000  0.36666667       0.009
   0.00000000  0.00000000  0.40000000       0.009
   0.00000000  0.00000000  0.43333333       0.009
   0.00000000  0.00000000  0.46666667       0.009
   0.00000000  0.00000000  0.50000000       0.009
   0.00000000  0.00000000  0.50000000       0.009
   0.00000000  0.03333333  0.50000000       0.009
   0.00000000  0.06666667  0.50000000       0.009
   0.00000000  0.10000000  0.50000000       0.009
   0.00000000  0.13333333  0.50000000       0.009
   0.00000000  0.16666667  0.50000000       0.009
   0.00000000  0.20000000  0.50000000       0.009
   0.00000000  0.23333333  0.50000000       0.009
   0.00000000  0.26666667  0.50000000       0.009
   0.00000000  0.30000000  0.50000000       0.009
   0.00000000  0.33333333  0.50000000       0.009
   0.00000000  0.36666667  0.50000000       0.009
   0.00000000  0.40000000  0.50000000       0.009
   0.00000000  0.43333333  0.50000000       0.009
   0.00000000  0.46666667  0.50000000       0.009
   0.00000000  0.50000000  0.50000000       0.009
   0.00000000  0.50000000  0.50000000       0.009
   0.00000000  0.50000000  0.46666667       0.009
   0.00000000  0.50000000  0.43333333       0.009
   0.00000000  0.50000000  0.40000000       0.009
   0.00000000  0.50000000  0.36666667       0.009
   0.00000000  0.50000000  0.33333333       0.009
   0.00000000  0.50000000  0.30000000       0.009
   0.00000000  0.50000000  0.26666667       0.009
   0.00000000  0.50000000  0.23333333       0.009
   0.00000000  0.50000000  0.20000000       0.009
   0.00000000  0.50000000  0.16666667       0.009
   0.00000000  0.50000000  0.13333333       0.009
   0.00000000  0.50000000  0.10000000       0.009
   0.00000000  0.50000000  0.06666667       0.009
   0.00000000  0.50000000  0.03333333       0.009
   0.00000000  0.50000000  0.00000000       0.009
   0.00000000  0.50000000  0.00000000       0.009
   0.03333333  0.50000000  0.00000000       0.009
   0.06666667  0.50000000  0.00000000       0.009
   0.10000000  0.50000000  0.00000000       0.009
   0.13333333  0.50000000  0.00000000       0.009
   0.16666667  0.50000000  0.00000000       0.009
   0.20000000  0.50000000  0.00000000       0.009
   0.23333333  0.50000000  0.00000000       0.009
   0.26666667  0.50000000  0.00000000       0.009
   0.30000000  0.50000000  0.00000000       0.009
   0.33333333  0.50000000  0.00000000       0.009
   0.36666667  0.50000000  0.00000000       0.009
   0.40000000  0.50000000  0.00000000       0.009
   0.43333333  0.50000000  0.00000000       0.009
   0.46666667  0.50000000  0.00000000       0.009
   0.50000000  0.50000000  0.00000000       0.009
   0.50000000  0.50000000  0.00000000       0.009
   0.50000000  0.46666667  0.00000000       0.009
   0.50000000  0.43333333  0.00000000       0.009
   0.50000000  0.40000000  0.00000000       0.009
   0.50000000  0.36666667  0.00000000       0.009
   0.50000000  0.33333333  0.00000000       0.009
   0.50000000  0.30000000  0.00000000       0.009
   0.50000000  0.26666667  0.00000000       0.009
   0.50000000  0.23333333  0.00000000       0.009
   0.50000000  0.20000000  0.00000000       0.009
   0.50000000  0.16666667  0.00000000       0.009
   0.50000000  0.13333333  0.00000000       0.009
   0.50000000  0.10000000  0.00000000       0.009
   0.50000000  0.06666667  0.00000000       0.009
   0.50000000  0.03333333  0.00000000       0.009
   0.50000000  0.00000000  0.00000000       0.009
   0.50000000  0.00000000  0.00000000       0.009
   0.50000000  0.00000000  0.03333333       0.009
   0.50000000  0.00000000  0.06666667       0.009
   0.50000000  0.00000000  0.10000000       0.009
   0.50000000  0.00000000  0.13333333       0.009
   0.50000000  0.00000000  0.16666667       0.009
   0.50000000  0.00000000  0.20000000       0.009
   0.50000000  0.00000000  0.23333333       0.009
   0.50000000  0.00000000  0.26666667       0.009
   0.50000000  0.00000000  0.30000000       0.009
   0.50000000  0.00000000  0.33333333       0.009
   0.50000000  0.00000000  0.36666667       0.009
   0.50000000  0.00000000  0.40000000       0.009
   0.50000000  0.00000000  0.43333333       0.009
   0.50000000  0.00000000  0.46666667       0.009
   0.50000000  0.00000000  0.50000000       0.009
   0.50000000  0.00000000  0.50000000       0.009
   0.50000000  0.03333333  0.50000000       0.009
   0.50000000  0.06666667  0.50000000       0.009
   0.50000000  0.10000000  0.50000000       0.009
   0.50000000  0.13333333  0.50000000       0.009
   0.50000000  0.16666667  0.50000000       0.009
   0.50000000  0.20000000  0.50000000       0.009
   0.50000000  0.23333333  0.50000000       0.009
   0.50000000  0.26666667  0.50000000       0.009
   0.50000000  0.30000000  0.50000000       0.009
   0.50000000  0.33333333  0.50000000       0.009
   0.50000000  0.36666667  0.50000000       0.009
   0.50000000  0.40000000  0.50000000       0.009
   0.50000000  0.43333333  0.50000000       0.009
   0.50000000  0.46666667  0.50000000       0.009
   0.50000000  0.50000000  0.50000000       0.009
 
 position of ions in fractional coordinates (direct lattice) 
   0.52128988  0.50000000  0.63795770
   0.47871012  0.50000000  0.36204230
   0.97871012  0.50000000  0.63795770
   0.02128988  0.50000000  0.36204230
   0.59744966  0.50000000  0.89986832
   0.40255034  0.50000000  0.10013168
   0.90255034  0.50000000  0.89986832
   0.09744966  0.50000000  0.10013168
   0.75000000  0.79156493  0.72957940
   0.25000000  0.20843507  0.27042060
   0.75000000  0.20843507  0.72957940
   0.25000000  0.79156493  0.27042060
   0.25000000  0.50000000  0.52399303
   0.75000000  0.50000000  0.47600697
 
 position of ions in cartesian coordinates  (Angst):
   2.97185836  2.02202905  3.95653149
   2.72911234  2.02202905  2.24533970
   5.57959769  2.02202905  3.95653149
   0.12137301  2.02202905  2.24533970
   3.40604302  2.02202905  5.58086739
   2.29492768  2.02202905  0.62100381
   5.14541303  2.02202905  5.58086739
   0.55555767  2.02202905  0.62100381
   4.27572802  3.20113457  4.52475744
   1.42524267  0.84292352  1.67711376
   4.27572802  0.84292352  4.52475744
   1.42524267  3.20113457  1.67711376
   1.42524267  2.02202905  3.24973731
   4.27572802  2.02202905  2.95213389
 


--------------------------------------------------------------------------------------------------------


 k-point     1 :   0.0000 0.0000 0.0000  plane waves:    4791
 k-point     2 :   0.0000 0.0000 0.0333  plane waves:    4777
 k-point     3 :   0.0000 0.0000 0.0667  plane waves:    4771
 k-point     4 :   0.0000 0.0000 0.1000  plane waves:    4765
 k-point     5 :   0.0000 0.0000 0.1333  plane waves:    4755
 k-point     6 :   0.0000 0.0000 0.1667  plane waves:    4759
 k-point     7 :   0.0000 0.0000 0.2000  plane waves:    4759
 k-point     8 :   0.0000 0.0000 0.2333  plane waves:    4757
 k-point     9 :   0.0000 0.0000 0.2667  plane waves:    4739
 k-point    10 :   0.0000 0.0000 0.3000  plane waves:    4739
 k-point    11 :   0.0000 0.0000 0.3333  plane waves:    4743
 k-point    12 :   0.0000 0.0000 0.3667  plane waves:    4745
 k-point    13 :   0.0000 0.0000 0.4000  plane waves:    4752
 k-point    14 :   0.0000 0.0000 0.4333  plane waves:    4748
 k-point    15 :   0.0000 0.0000 0.4667  plane waves:    4752
 k-point    16 :   0.0000 0.0000 0.5000  plane waves:    4748
 k-point    17 :   0.0000 0.0000 0.5000  plane waves:    4748
 k-point    18 :   0.0000 0.0333 0.5000  plane waves:    4760
 k-point    19 :   0.0000 0.0667 0.5000  plane waves:    4760
 k-point    20 :   0.0000 0.1000 0.5000  plane waves:    4756
 k-point    21 :   0.0000 0.1333 0.5000  plane waves:    4772
 k-point    22 :   0.0000 0.1667 0.5000  plane waves:    4780
 k-point    23 :   0.0000 0.2000 0.5000  plane waves:    4782
 k-point    24 :   0.0000 0.2333 0.5000  plane waves:    4778
 k-point    25 :   0.0000 0.2667 0.5000  plane waves:    4782
 k-point    26 :   0.0000 0.3000 0.5000  plane waves:    4792
 k-point    27 :   0.0000 0.3333 0.5000  plane waves:    4796
 k-point    28 :   0.0000 0.3667 0.5000  plane waves:    4804
 k-point    29 :   0.0000 0.4000 0.5000  plane waves:    4792
 k-point    30 :   0.0000 0.4333 0.5000  plane waves:    4782
 k-point    31 :   0.0000 0.4667 0.5000  plane waves:    4786
 k-point    32 :   0.0000 0.5000 0.5000  plane waves:    4776
 k-point    33 :   0.0000 0.5000 0.5000  plane waves:    4776
 k-point    34 :   0.0000 0.5000 0.4667  plane waves:    4784
 k-point    35 :   0.0000 0.5000 0.4333  plane waves:    4784
 k-point    36 :   0.0000 0.5000 0.4000  plane waves:    4770
 k-point    37 :   0.0000 0.5000 0.3667  plane waves:    4778
 k-point    38 :   0.0000 0.5000 0.3333  plane waves:    4786
 k-point    39 :   0.0000 0.5000 0.3000  plane waves:    4794
 k-point    40 :   0.0000 0.5000 0.2667  plane waves:    4800
 k-point    41 :   0.0000 0.5000 0.2333  plane waves:    4796
 k-point    42 :   0.0000 0.5000 0.2000  plane waves:    4802
 k-point    43 :   0.0000 0.5000 0.1667  plane waves:    4800
 k-point    44 :   0.0000 0.5000 0.1333  plane waves:    4810
 k-point    45 :   0.0000 0.5000 0.1000  plane waves:    4818
 k-point    46 :   0.0000 0.5000 0.0667  plane waves:    4804
 k-point    47 :   0.0000 0.5000 0.0333  plane waves:    4792
 k-point    48 :   0.0000 0.5000 0.0000  plane waves:    4788
 k-point    49 :   0.0000 0.5000 0.0000  plane waves:    4788
 k-point    50 :   0.0333 0.5000 0.0000  plane waves:    4792
 k-point    51 :   0.0667 0.5000 0.0000  plane waves:    4800
 k-point    52 :   0.1000 0.5000 0.0000  plane waves:    4796
 k-point    53 :   0.1333 0.5000 0.0000  plane waves:    4808
 k-point    54 :   0.1667 0.5000 0.0000  plane waves:    4796
 k-point    55 :   0.2000 0.5000 0.0000  plane waves:    4788
 k-point    56 :   0.2333 0.5000 0.0000  plane waves:    4778
 k-point    57 :   0.2667 0.5000 0.0000  plane waves:    4786
 k-point    58 :   0.3000 0.5000 0.0000  plane waves:    4790
 k-point    59 :   0.3333 0.5000 0.0000  plane waves:    4798
 k-point    60 :   0.3667 0.5000 0.0000  plane waves:    4802
 k-point    61 :   0.4000 0.5000 0.0000  plane waves:    4790
 k-point    62 :   0.4333 0.5000 0.0000  plane waves:    4794
 k-point    63 :   0.4667 0.5000 0.0000  plane waves:    4796
 k-point    64 :   0.5000 0.5000 0.0000  plane waves:    4796
 k-point    65 :   0.5000 0.5000 0.0000  plane waves:    4796
 k-point    66 :   0.5000 0.4667 0.0000  plane waves:    4796
 k-point    67 :   0.5000 0.4333 0.0000  plane waves:    4794
 k-point    68 :   0.5000 0.4000 0.0000  plane waves:    4792
 k-point    69 :   0.5000 0.3667 0.0000  plane waves:    4788
 k-point    70 :   0.5000 0.3333 0.0000  plane waves:    4772
 k-point    71 :   0.5000 0.3000 0.0000  plane waves:    4766
 k-point    72 :   0.5000 0.2667 0.0000  plane waves:    4778
 k-point    73 :   0.5000 0.2333 0.0000  plane waves:    4770
 k-point    74 :   0.5000 0.2000 0.0000  plane waves:    4766
 k-point    75 :   0.5000 0.1667 0.0000  plane waves:    4766
 k-point    76 :   0.5000 0.1333 0.0000  plane waves:    4754
 k-point    77 :   0.5000 0.1000 0.0000  plane waves:    4754
 k-point    78 :   0.5000 0.0667 0.0000  plane waves:    4772
 k-point    79 :   0.5000 0.0333 0.0000  plane waves:    4764
 k-point    80 :   0.5000 0.0000 0.0000  plane waves:    4762
 k-point    81 :   0.5000 0.0000 0.0000  plane waves:    4762
 k-point    82 :   0.5000 0.0000 0.0333  plane waves:    4766
 k-point    83 :   0.5000 0.0000 0.0667  plane waves:    4770
 k-point    84 :   0.5000 0.0000 0.1000  plane waves:    4760
 k-point    85 :   0.5000 0.0000 0.1333  plane waves:    4752
 k-point    86 :   0.5000 0.0000 0.1667  plane waves:    4762
 k-point    87 :   0.5000 0.0000 0.2000  plane waves:    4758
 k-point    88 :   0.5000 0.0000 0.2333  plane waves:    4766
 k-point    89 :   0.5000 0.0000 0.2667  plane waves:    4776
 k-point    90 :   0.5000 0.0000 0.3000  plane waves:    4762
 k-point    91 :   0.5000 0.0000 0.3333  plane waves:    4784
 k-point    92 :   0.5000 0.0000 0.3667  plane waves:    4784
 k-point    93 :   0.5000 0.0000 0.4000  plane waves:    4776
 k-point    94 :   0.5000 0.0000 0.4333  plane waves:    4768
 k-point    95 :   0.5000 0.0000 0.4667  plane waves:    4780
 k-point    96 :   0.5000 0.0000 0.5000  plane waves:    4772
 k-point    97 :   0.5000 0.0000 0.5000  plane waves:    4772
 k-point    98 :   0.5000 0.0333 0.5000  plane waves:    4772
 k-point    99 :   0.5000 0.0667 0.5000  plane waves:    4768
 k-point   100 :   0.5000 0.1000 0.5000  plane waves:    4764
 k-point   101 :   0.5000 0.1333 0.5000  plane waves:    4756
 k-point   102 :   0.5000 0.1667 0.5000  plane waves:    4764
 k-point   103 :   0.5000 0.2000 0.5000  plane waves:    4772
 k-point   104 :   0.5000 0.2333 0.5000  plane waves:    4776
 k-point   105 :   0.5000 0.2667 0.5000  plane waves:    4776
 k-point   106 :   0.5000 0.3000 0.5000  plane waves:    4772
 k-point   107 :   0.5000 0.3333 0.5000  plane waves:    4772
 k-point   108 :   0.5000 0.3667 0.5000  plane waves:    4760
 k-point   109 :   0.5000 0.4000 0.5000  plane waves:    4772
 k-point   110 :   0.5000 0.4333 0.5000  plane waves:    4756
 k-point   111 :   0.5000 0.4667 0.5000  plane waves:    4756
 k-point   112 :   0.5000 0.5000 0.5000  plane waves:    4752

 maximum and minimum number of plane-waves per node :      4818     4739

 maximum number of plane-waves:      4818
 maximum index in each direction: 
   IXMAX=   11   IYMAX=    8   IZMAX=   12
   IXMIN=  -11   IYMIN=   -8   IZMIN=  -12


 serial   3D FFT for wavefunctions
 parallel 3D FFT for charge:
    minimum data exchange during FFTs selected (reduces bandwidth)


 total amount of memory used by VASP MPI-rank0    88962. kBytes
=======================================================================

   base      :      30000. kBytes
   nonl-proj :      35659. kBytes
   fftplans  :       1200. kBytes
   grid      :       4341. kBytes
   one-center:         43. kBytes
   wavefun   :      17719. kBytes
 
     INWAV:  cpu time      0.0001: real time      0.0002
 initial charge density was supplied:
 number of electron      41.9999999 magnetization 
 keeping initial charge density in first step


--------------------------------------------------------------------------------------------------------


 Maximum index for augmentation-charges          471 (set IRDMAX)


--------------------------------------------------------------------------------------------------------


 First call to EWALD:  gamma=   0.339
 Maximum number of real-space cells 3x 3x 2
 Maximum number of reciprocal cells 3x 2x 3

    FEWALD:  cpu time      0.0012: real time      0.0012


--------------------------------------- Ionic step        1  -------------------------------------------




--------------------------------------- Iteration      1(   1)  ---------------------------------------


    POTLOK:  cpu time      0.0133: real time      0.0145
    SETDIJ:  cpu time      0.0034: real time      0.0034
     EDDAV:  cpu time      3.4647: real time      3.6036
       DOS:  cpu time      0.0012: real time      0.0012
    --------------------------------------------
      LOOP:  cpu time      3.4827: real time      3.6227

 eigenvalue-minimisations  : 10752
 total energy-change (2. order) : 0.7387952E+02  (-0.1958236E+04)
 number of electron      41.9999999 magnetization 
 augmentation part       41.9999999 magnetization 

 Free energy of the ion-electron system (eV)
  ---------------------------------------------------
  alpha Z        PSCENC =        94.30280740
  Ewald energy   TEWEN  =      -798.79353645
  -Hartree energ DENC   =      -346.67325013
  -exchange      EXHF   =         0.00000000
  -V(xc)+E(xc)   XCENC  =       101.54544795
  PAW double counting   =      3725.05048951    -3714.23337423
  entropy T*S    EENTRO =        -0.00762407
  eigenvalues    EBANDS =        16.31415239
  atomic energy  EATOM  =       996.37441054
  Solvation  Ediel_sol  =         0.00000000
  ---------------------------------------------------
  free energy    TOTEN  =        73.87952292 eV

  energy without entropy =       73.88714699  energy(sigma->0) =       73.88333495


--------------------------------------------------------------------------------------------------------




--------------------------------------- Iteration      1(   2)  ---------------------------------------


     EDDAV:  cpu time      4.6014: real time      4.6411
       DOS:  cpu time      0.0008: real time      0.0008
    --------------------------------------------
      LOOP:  cpu time      4.6023: real time      4.6419

 eigenvalue-minimisations  : 14904
 total energy-change (2. order) :-0.1593384E+03  (-0.1477806E+03)
 number of electron      41.9999999 magnetization 
 augmentation part       41.9999999 magnetization 

 Free energy of the ion-electron system (eV)
  ---------------------------------------------------
  alpha Z        PSCENC =        94.30280740
  Ewald energy   TEWEN  =      -798.79353645
  -Hartree energ DENC   =      -346.67325013
  -exchange      EXHF   =         0.00000000
  -V(xc)+E(xc)   XCENC  =       101.54544795
  PAW double counting   =      3725.05048951    -3714.23337423
  entropy T*S    EENTRO =        -0.01141730
  eigenvalues    EBANDS =      -143.02045025
  atomic energy  EATOM  =       996.37441054
  Solvation  Ediel_sol  =         0.00000000
  ---------------------------------------------------
  free energy    TOTEN  =       -85.45887295 eV

  energy without entropy =      -85.44745566  energy(sigma->0) =      -85.45316431


--------------------------------------------------------------------------------------------------------




--------------------------------------- Iteration      1(   3)  ---------------------------------------


     EDDAV:  cpu time      4.8119: real time      4.9279
       DOS:  cpu time      0.0009: real time      0.0009
    --------------------------------------------
      LOOP:  cpu time      4.8128: real time      4.9288

 eigenvalue-minimisations  : 15576
 total energy-change (2. order) :-0.5304640E+01  (-0.5276828E+01)
 number of electron      41.9999999 magnetization 
 augmentation part       41.9999999 magnetization 

 Free energy of the ion-electron system (eV)
  ---------------------------------------------------
  alpha Z        PSCENC =        94.30280740
  Ewald energy   TEWEN  =      -798.79353645
  -Hartree energ DENC   =      -346.67325013
  -exchange      EXHF   =         0.00000000
  -V(xc)+E(xc)   XCENC  =       101.54544795
  PAW double counting   =      3725.05048951    -3714.23337423
  entropy T*S    EENTRO =        -0.01282306
  eigenvalues    EBANDS =      -148.32368427
  atomic energy  EATOM  =       996.37441054
  Solvation  Ediel_sol  =         0.00000000
  ---------------------------------------------------
  free energy    TOTEN  =       -90.76351274 eV

  energy without entropy =      -90.75068968  energy(sigma->0) =      -90.75710121


--------------------------------------------------------------------------------------------------------




--------------------------------------- Iteration      1(   4)  ---------------------------------------


     EDDAV:  cpu time      4.0581: real time      4.1852
       DOS:  cpu time      0.0009: real time      0.0009
    --------------------------------------------
      LOOP:  cpu time      4.0590: real time      4.1861

 eigenvalue-minimisations  : 13080
 total energy-change (2. order) :-0.2599250E-01  (-0.2599121E-01)
 number of electron      41.9999999 magnetization 
 augmentation part       41.9999999 magnetization 

 Free energy of the ion-electron system (eV)
  ---------------------------------------------------
  alpha Z        PSCENC =        94.30280740
  Ewald energy   TEWEN  =      -798.79353645
  -Hartree energ DENC   =      -346.67325013
  -exchange      EXHF   =         0.00000000
  -V(xc)+E(xc)   XCENC  =       101.54544795
  PAW double counting   =      3725.05048951    -3714.23337423
  entropy T*S    EENTRO =        -0.01283493
  eigenvalues    EBANDS =      -148.34966490
  atomic energy  EATOM  =       996.37441054
  Solvation  Ediel_sol  =         0.00000000
  ---------------------------------------------------
  free energy    TOTEN  =       -90.78950524 eV

  energy without entropy =      -90.77667031  energy(sigma->0) =      -90.78308778


--------------------------------------------------------------------------------------------------------




--------------------------------------- Iteration      1(   5)  ---------------------------------------


     EDDAV:  cpu time      4.8413: real time      4.9861
       DOS:  cpu time      0.0009: real time      0.0009
    --------------------------------------------
      LOOP:  cpu time      4.8422: real time      4.9870

 eigenvalue-minimisations  : 15744
 total energy-change (2. order) :-0.2303610E-03  (-0.2303560E-03)
 number of electron      41.9999999 magnetization 
 augmentation part       41.9999999 magnetization 

 Free energy of the ion-electron system (eV)
  ---------------------------------------------------
  alpha Z        PSCENC =        94.30280740
  Ewald energy   TEWEN  =      -798.79353645
  -Hartree energ DENC   =      -346.67325013
  -exchange      EXHF   =         0.00000000
  -V(xc)+E(xc)   XCENC  =       101.54544795
  PAW double counting   =      3725.05048951    -3714.23337423
  entropy T*S    EENTRO =        -0.01283508
  eigenvalues    EBANDS =      -148.34989512
  atomic energy  EATOM  =       996.37441054
  Solvation  Ediel_sol  =         0.00000000
  ---------------------------------------------------
  free energy    TOTEN  =       -90.78973560 eV

  energy without entropy =      -90.77690052  energy(sigma->0) =      -90.78331806


--------------------------------------------------------------------------------------------------------




--------------------------------------- Iteration      1(   6)  ---------------------------------------


     EDDAV:  cpu time      3.9720: real time      4.0033
       DOS:  cpu time      0.0009: real time      0.0009
    --------------------------------------------
      LOOP:  cpu time      3.9729: real time      4.0042

 eigenvalue-minimisations  : 12600
 total energy-change (2. order) :-0.2784415E-05  (-0.2784681E-05)
 number of electron      41.9999999 magnetization 
 augmentation part       41.9999999 magnetization 

 Free energy of the ion-electron system (eV)
  ---------------------------------------------------
  alpha Z        PSCENC =        94.30280740
  Ewald energy   TEWEN  =      -798.79353645
  -Hartree energ DENC   =      -346.67325013
  -exchange      EXHF   =         0.00000000
  -V(xc)+E(xc)   XCENC  =       101.54544795
  PAW double counting   =      3725.05048951    -3714.23337423
  entropy T*S    EENTRO =        -0.01283509
  eigenvalues    EBANDS =      -148.34989790
  atomic energy  EATOM  =       996.37441054
  Solvation  Ediel_sol  =         0.00000000
  ---------------------------------------------------
  free energy    TOTEN  =       -90.78973839 eV

  energy without entropy =      -90.77690330  energy(sigma->0) =      -90.78332084


--------------------------------------------------------------------------------------------------------




--------------------------------------- Iteration      1(   7)  ---------------------------------------


     EDDAV:  cpu time      4.8042: real time      4.8413
       DOS:  cpu time      0.0008: real time      0.0008
    --------------------------------------------
      LOOP:  cpu time      4.8050: real time      4.8421

 eigenvalue-minimisations  : 15480
 total energy-change (2. order) :-0.3766172E-07  (-0.3770931E-07)
 number of electron      41.9999999 magnetization 
 augmentation part       41.9999999 magnetization 

 Free energy of the ion-electron system (eV)
  ---------------------------------------------------
  alpha Z        PSCENC =        94.30280740
  Ewald energy   TEWEN  =      -798.79353645
  -Hartree energ DENC   =      -346.67325013
  -exchange      EXHF   =         0.00000000
  -V(xc)+E(xc)   XCENC  =       101.54544795
  PAW double counting   =      3725.05048951    -3714.23337423
  entropy T*S    EENTRO =        -0.01283509
  eigenvalues    EBANDS =      -148.34989793
  atomic energy  EATOM  =       996.37441054
  Solvation  Ediel_sol  =         0.00000000
  ---------------------------------------------------
  free energy    TOTEN  =       -90.78973843 eV

  energy without entropy =      -90.77690334  energy(sigma->0) =      -90.78332088


--------------------------------------------------------------------------------------------------------




 average (electrostatic) potential at core
  the test charge radii are     0.7672
  (the norm of the test charge is              1.0000)
       1 -29.9630       2 -29.9630       3 -29.9630       4 -29.9630       5 -28.9397
       6 -28.9397       7 -28.9397       8 -28.9397       9 -29.3446      10 -29.3446
      11 -29.3446      12 -29.3446      13 -29.9130      14 -29.9130
 
 
 
 E-fermi :   2.1508     XC(G=0):  -9.4486     alpha+bet :-10.8673

 val. band max:        2.1488827317   @ k =   0.0000   0.0000   0.0333
 cond. band min:       2.1535032232   @ k =   0.0000   0.0000   0.0000
 fundamental gap:      0.0046204915
 Fermi energy:         2.1508097855

 k-point     1 :       0.0000    0.0000    0.0000
  band No.  band energies     occupation 
      1     -12.7000      2.00000
      2     -11.5183      2.00000
      3      -8.6601      2.00000
      4      -8.3673      2.00000
      5      -6.0546      2.00000
      6      -5.0925      2.00000
      7      -4.6807      2.00000
      8      -4.3777      2.00000
      9      -3.9348      2.00000
     10      -3.5278      2.00000
     11      -2.4046      2.00000
     12      -2.2222      2.00000
     13      -2.1044      2.00000
     14      -1.0664      2.00000
     15      -0.0203      2.00000
     16       0.0137      2.00000
     17       0.0412      2.00000
     18       0.0897      2.00000
     19       0.6731      2.00000
     20       2.1196      1.34125
     21       2.1535      0.96962
     22       2.2423      0.19577
     23       5.5052      0.00000
     24       5.7269      0.00000
     25       5.7350      0.00000
     26       5.9715      0.00000
     27       6.7246      0.00000
     28       7.6982      0.00000
     29       7.7191      0.00000
     30       8.6219      0.00000
     31       8.8502      0.00000
     32       8.8550      0.00000
     33       9.0513      0.00000
     34      10.0266      0.00000
     35      11.1920      0.00000
     36      11.4065      0.00000
     37      11.5179      0.00000
     38      11.7820      0.00000
     39      11.9586      0.00000
     40      12.2948      0.00000
     41      12.9215      0.00000
     42      13.3422      0.00000
     43      13.5277      0.00000
     44      15.5237      0.00000
     45      15.5817      0.00000
     46      15.9209      0.00000
     47      16.3103      0.00000
     48      16.5383      0.00000

 k-point     2 :       0.0000    0.0000    0.0333
  band No.  band energies     occupation 
      1     -12.6990      2.00000
      2     -11.5203      2.00000
      3      -8.6596      2.00000
      4      -8.3642      2.00000
      5      -6.0671      2.00000
      6      -5.1177      2.00000
      7      -4.6523      2.00000
      8      -4.3641      2.00000
      9      -3.9329      2.00000
     10      -3.5174      2.00000
     11      -2.4038      2.00000
     12      -2.2228      2.00000
     13      -2.1111      2.00000
     14      -1.0715      2.00000
     15      -0.0177      2.00000
     16       0.0157      2.00000
     17       0.0501      2.00000
     18       0.0695      2.00000
     19       0.6470      2.00000
     20       2.1108      1.42806
     21       2.1489      1.02174
     22       2.2753      0.07821
     23       5.5040      0.00000
     24       5.7175      0.00000
     25       5.7424      0.00000
     26       5.9707      0.00000
     27       6.7369      0.00000
     28       7.6863      0.00000
     29       7.7212      0.00000
     30       8.6325      0.00000
     31       8.8036      0.00000
     32       8.9236      0.00000
     33       9.0563      0.00000
     34      10.0357      0.00000
     35      11.1933      0.00000
     36      11.4023      0.00000
     37      11.5230      0.00000
     38      11.7350      0.00000
     39      11.9504      0.00000
     40      12.3005      0.00000
     41      12.9390      0.00000
     42      13.3231      0.00000
     43      13.5690      0.00000
     44      15.5320      0.00000
     45      15.5556      0.00000
     46      15.8746      0.00000
     47      16.3153      0.00000
     48      16.5103      0.00000

 k-point     3 :       0.0000    0.0000    0.0667
  band No.  band energies     occupation 
      1     -12.6960      2.00000
      2     -11.5261      2.00000
      3      -8.6579      2.00000
      4      -8.3552      2.00000
      5      -6.1032      2.00000
      6      -5.1787      2.00000
      7      -4.5819      2.00000
      8      -4.3247      2.00000
      9      -3.9272      2.00000
     10      -3.4862      2.00000
     11      -2.4013      2.00000
     12      -2.2247      2.00000
     13      -2.1307      2.00000
     14      -1.0868      2.00000
     15      -0.0102      2.00000
     16       0.0092      2.00000
     17       0.0216      2.00000
     18       0.0761      2.00000
     19       0.5759      2.00000
     20       2.0852      1.64680
     21       2.1351      1.17596
     22       2.3669      0.00224
     23       5.5001      0.00000
     24       5.6684      0.00000
     25       5.7885      0.00000
     26       5.9681      0.00000
     27       6.7707      0.00000
     28       7.6523      0.00000
     29       7.7273      0.00000
     30       8.6638      0.00000
     31       8.7760      0.00000
     32       9.0149      0.00000
     33       9.0713      0.00000
     34      10.0631      0.00000
     35      11.1963      0.00000
     36      11.3897      0.00000
     37      11.5380      0.00000
     38      11.6059      0.00000
     39      11.9297      0.00000
     40      12.3174      0.00000
     41      12.9880      0.00000
     42      13.2675      0.00000
     43      13.6809      0.00000
     44      15.4847      0.00000
     45      15.5541      0.00000
     46      15.7493      0.00000
     47      16.3032      0.00000
     48      16.3396      0.00000

 k-point     4 :       0.0000    0.0000    0.1000
  band No.  band energies     occupation 
      1     -12.6911      2.00000
      2     -11.5355      2.00000
      3      -8.6552      2.00000
      4      -8.3402      2.00000
      5      -6.1592      2.00000
      6      -5.2549      2.00000
      7      -4.4903      2.00000
      8      -4.2628      2.00000
      9      -3.9178      2.00000
     10      -3.4348      2.00000
     11      -2.3972      2.00000
     12      -2.2279      2.00000
     13      -2.1622      2.00000
     14      -1.1117      2.00000
     15      -0.0897      2.00000
     16       0.0023      2.00000
     17       0.0308      2.00000
     18       0.1181      2.00000
     19       0.4755      2.00000
     20       2.0441      1.86879
     21       2.1122      1.41515
     22       2.5005      0.00000
     23       5.4934      0.00000
     24       5.5958      0.00000
     25       5.8637      0.00000
     26       5.9644      0.00000
     27       6.8183      0.00000
     28       7.6009      0.00000
     29       7.7366      0.00000
     30       8.7150      0.00000
     31       8.7668      0.00000
     32       9.0960      0.00000
     33       9.1235      0.00000
     34      10.1092      0.00000
     35      11.1978      0.00000
     36      11.3694      0.00000
     37      11.4189      0.00000
     38      11.5628      0.00000
     39      11.9066      0.00000
     40      12.3454      0.00000
     41      13.0600      0.00000
     42      13.1795      0.00000
     43      13.8385      0.00000
     44      15.3846      0.00000
     45      15.5710      0.00000
     46      15.5827      0.00000
     47      16.1075      0.00000
     48      16.3293      0.00000

 k-point     5 :       0.0000    0.0000    0.1333
  band No.  band energies     occupation 
      1     -12.6845      2.00000
      2     -11.5481      2.00000
      3      -8.6515      2.00000
      4      -8.3197      2.00000
      5      -6.2304      2.00000
      6      -5.3352      2.00000
      7      -4.3888      2.00000
      8      -4.1827      2.00000
      9      -3.9050      2.00000
     10      -3.3644      2.00000
     11      -2.3914      2.00000
     12      -2.2323      2.00000
     13      -2.2034      2.00000
     14      -1.1451      2.00000
     15      -0.2228      2.00000
     16       0.0196      2.00000
     17       0.0429      2.00000
     18       0.1743      2.00000
     19       0.3588      2.00000
     20       1.9899      1.97712
     21       2.0804      1.68069
     22       2.6597      0.00000
     23       5.4839      0.00000
     24       5.5086      0.00000
     25       5.9600      0.00000
     26       5.9657      0.00000
     27       6.8720      0.00000
     28       7.5377      0.00000
     29       7.7481      0.00000
     30       8.7721      0.00000
     31       8.7846      0.00000
     32       9.1298      0.00000
     33       9.2460      0.00000
     34      10.1743      0.00000
     35      11.1937      0.00000
     36      11.1954      0.00000
     37      11.3421      0.00000
     38      11.5966      0.00000
     39      11.8922      0.00000
     40      12.3845      0.00000
     41      13.0648      0.00000
     42      13.1453      0.00000
     43      14.0200      0.00000
     44      15.2695      0.00000
     45      15.3610      0.00000
     46      15.6073      0.00000
     47      15.9005      0.00000
     48      16.3443      0.00000

 k-point     6 :       0.0000    0.0000    0.1667
  band No.  band energies     occupation 
      1     -12.6764      2.00000
      2     -11.5635      2.00000
      3      -8.6470      2.00000
      4      -8.2941      2.00000
      5      -6.3120      2.00000
      6      -5.4145      2.00000
      7      -4.2829      2.00000
      8      -4.0882      2.00000
      9      -3.8890      2.00000
     10      -3.2765      2.00000
     11      -2.3838      2.00000
     12      -2.2523      2.00000
     13      -2.2377      2.00000
     14      -1.1859      2.00000
     15      -0.3828      2.00000
     16       0.0413      2.00000
     17       0.0568      2.00000
     18       0.2320      2.00000
     19       0.2426      2.00000
     20       1.9254      1.99857
     21       2.0400      1.88292
     22       2.8324      0.00000
     23       5.4141      0.00000
     24       5.4713      0.00000
     25       5.9555      0.00000
     26       6.0919      0.00000
     27       6.9261      0.00000
     28       7.4681      0.00000
     29       7.7605      0.00000
     30       8.7875      0.00000
     31       8.8707      0.00000
     32       9.1717      0.00000
     33       9.3788      0.00000
     34      10.2584      0.00000
     35      10.9493      0.00000
     36      11.1800      0.00000
     37      11.3092      0.00000
     38      11.6377      0.00000
     39      11.8953      0.00000
     40      12.4349      0.00000
     41      12.9290      0.00000
     42      13.2348      0.00000
     43      14.2101      0.00000
     44      15.1324      0.00000
     45      15.1498      0.00000
     46      15.6165      0.00000
     47      15.6863      0.00000
     48      16.3618      0.00000

 k-point     7 :       0.0000    0.0000    0.2000
  band No.  band energies     occupation 
      1     -12.6669      2.00000
      2     -11.5811      2.00000
      3      -8.6419      2.00000
      4      -8.2638      2.00000
      5      -6.3999      2.00000
      6      -5.4902      2.00000
      7      -4.1759      2.00000
      8      -3.9823      2.00000
      9      -3.8701      2.00000
     10      -3.1736      2.00000
     11      -2.3744      2.00000
     12      -2.3066      2.00000
     13      -2.2438      2.00000
     14      -1.2327      2.00000
     15      -0.5614      2.00000
     16       0.0670      2.00000
     17       0.0720      2.00000
     18       0.0968      2.00000
     19       0.3209      2.00000
     20       1.8534      1.99997
     21       1.9914      1.97583
     22       3.0100      0.00000
     23       5.3179      0.00000
     24       5.4556      0.00000
     25       5.9516      0.00000
     26       6.2397      0.00000
     27       6.9773      0.00000
     28       7.3964      0.00000
     29       7.7724      0.00000
     30       8.8092      0.00000
     31       8.9711      0.00000
     32       9.2205      0.00000
     33       9.5192      0.00000
     34      10.3610      0.00000
     35      10.6895      0.00000
     36      11.1556      0.00000
     37      11.2723      0.00000
     38      11.6840      0.00000
     39      11.9202      0.00000
     40      12.4975      0.00000
     41      12.7775      0.00000
     42      13.3208      0.00000
     43      14.3990      0.00000
     44      14.8940      0.00000
     45      15.0323      0.00000
     46      15.4693      0.00000
     47      15.6030      0.00000
     48      16.3850      0.00000

 k-point     8 :       0.0000    0.0000    0.2333
  band No.  band energies     occupation 
      1     -12.6565      2.00000
      2     -11.6001      2.00000
      3      -8.6364      2.00000
      4      -8.2297      2.00000
      5      -6.4905      2.00000
      6      -5.5607      2.00000
      7      -4.0701      2.00000
      8      -3.8672      2.00000
      9      -3.8489      2.00000
     10      -3.0587      2.00000
     11      -2.3639      2.00000
     12      -2.3629      2.00000
     13      -2.2501      2.00000
     14      -1.2840      2.00000
     15      -0.7507      2.00000
     16      -0.0463      2.00000
     17       0.0877      2.00000
     18       0.0962      2.00000
     19       0.4072      2.00000
     20       1.7769      2.00000
     21       1.9351      1.99772
     22       3.1863      0.00000
     23       5.2239      0.00000
     24       5.4365      0.00000
     25       5.9485      0.00000
     26       6.4064      0.00000
     27       7.0238      0.00000
     28       7.3260      0.00000
     29       7.7827      0.00000
     30       8.8341      0.00000
     31       9.0830      0.00000
     32       9.2740      0.00000
     33       9.6645      0.00000
     34      10.4213      0.00000
     35      10.4806      0.00000
     36      11.1226      0.00000
     37      11.2334      0.00000
     38      11.7320      0.00000
     39      11.9655      0.00000
     40      12.5735      0.00000
     41      12.6149      0.00000
     42      13.3959      0.00000
     43      14.5796      0.00000
     44      14.6529      0.00000
     45      14.9210      0.00000
     46      15.2534      0.00000
     47      15.5670      0.00000
     48      16.4126      0.00000

 k-point     9 :       0.0000    0.0000    0.2667
  band No.  band energies     occupation 
      1     -12.6455      2.00000
      2     -11.6198      2.00000
      3      -8.6307      2.00000
      4      -8.1925      2.00000
      5      -6.5808      2.00000
      6      -5.6250      2.00000
      7      -3.9677      2.00000
      8      -3.8259      2.00000
      9      -3.7443      2.00000
     10      -2.9364      2.00000
     11      -2.4219      2.00000
     12      -2.3498      2.00000
     13      -2.2548      2.00000
     14      -1.3379      2.00000
     15      -0.9442      2.00000
     16      -0.1969      2.00000
     17       0.1031      2.00000
     18       0.1282      2.00000
     19       0.4995      2.00000
     20       1.6988      2.00000
     21       1.8716      1.99992
     22       3.3567      0.00000
     23       5.1354      0.00000
     24       5.4140      0.00000
     25       5.9467      0.00000
     26       6.5895      0.00000
     27       7.0648      0.00000
     28       7.2596      0.00000
     29       7.7905      0.00000
     30       8.8598      0.00000
     31       9.2036      0.00000
     32       9.3301      0.00000
     33       9.8119      0.00000
     34      10.1486      0.00000
     35      10.6143      0.00000
     36      11.0858      0.00000
     37      11.1949      0.00000
     38      11.7779      0.00000
     39      12.0264      0.00000
     40      12.4451      0.00000
     41      12.6645      0.00000
     42      13.4530      0.00000
     43      14.4167      0.00000
     44      14.7469      0.00000
     45      14.8182      0.00000
     46      15.0421      0.00000
     47      15.5159      0.00000
     48      16.4409      0.00000

 k-point    10 :       0.0000    0.0000    0.3000
  band No.  band energies     occupation 
      1     -12.6344      2.00000
      2     -11.6394      2.00000
      3      -8.6250      2.00000
      4      -8.1534      2.00000
      5      -6.6680      2.00000
      6      -5.6823      2.00000
      7      -3.8709      2.00000
      8      -3.8021      2.00000
      9      -3.6148      2.00000
     10      -2.8132      2.00000
     11      -2.4785      2.00000
     12      -2.3369      2.00000
     13      -2.2536      2.00000
     14      -1.3925      2.00000
     15      -1.1360      2.00000
     16      -0.3540      2.00000
     17       0.1177      2.00000
     18       0.1619      2.00000
     19       0.5960      2.00000
     20       1.6218      2.00000
     21       1.8017      2.00000
     22       3.5171      0.00000
     23       5.0547      0.00000
     24       5.3885      0.00000
     25       5.9460      0.00000
     26       6.7868      0.00000
     27       7.1004      0.00000
     28       7.1989      0.00000
     29       7.7956      0.00000
     30       8.8845      0.00000
     31       9.3291      0.00000
     32       9.3862      0.00000
     33       9.8739      0.00000
     34       9.9585      0.00000
     35      10.7550      0.00000
     36      11.0534      0.00000
     37      11.1594      0.00000
     38      11.8181      0.00000
     39      12.0956      0.00000
     40      12.2722      0.00000
     41      12.7708      0.00000
     42      13.4841      0.00000
     43      14.1954      0.00000
     44      14.7244      0.00000
     45      14.8393      0.00000
     46      14.8968      0.00000
     47      15.4587      0.00000
     48      16.4722      0.00000

 k-point    11 :       0.0000    0.0000    0.3333
  band No.  band energies     occupation 
      1     -12.6237      2.00000
      2     -11.6580      2.00000
      3      -8.6197      2.00000
      4      -8.1140      2.00000
      5      -6.7496      2.00000
      6      -5.7318      2.00000
      7      -3.7820      2.00000
      8      -3.7785      2.00000
      9      -3.4800      2.00000
     10      -2.6991      2.00000
[...]
      1     -11.9486      2.00000
      2     -11.9486      2.00000
      3      -8.5116      2.00000
      4      -8.5116      2.00000
      5      -5.6093      2.00000
      6      -5.6093      2.00000
      7      -4.6139      2.00000
      8      -4.6139      2.00000
      9      -4.4348      2.00000
     10      -4.4348      2.00000
     11      -2.0113      2.00000
     12      -2.0113      2.00000
     13      -1.8841      2.00000
     14      -1.8841      2.00000
     15      -0.0632      2.00000
     16      -0.0632      2.00000
     17       0.5394      2.00000
     18       0.5394      2.00000
     19       0.7840      2.00000
     20       0.7840      2.00000
     21       1.2519      2.00000
     22       1.2519      2.00000
     23       6.0193      0.00000
     24       6.0193      0.00000
     25       7.2611      0.00000
     26       7.2611      0.00000
     27       7.5884      0.00000
     28       7.5884      0.00000
     29       8.9119      0.00000
     30       8.9119      0.00000
     31      10.1028      0.00000
     32      10.1028      0.00000
     33      10.1909      0.00000
     34      10.1909      0.00000
     35      11.2348      0.00000
     36      11.2348      0.00000
     37      12.0420      0.00000
     38      12.0420      0.00000
     39      13.2464      0.00000
     40      13.2464      0.00000
     41      13.5873      0.00000
     42      13.5873      0.00000
     43      13.9294      0.00000
     44      13.9294      0.00000
     45      14.3771      0.00000
     46      14.3771      0.00000
     47      15.1417      0.00000
     48      15.1417      0.00000

 k-point   109 :       0.5000    0.4000    0.5000
  band No.  band energies     occupation 
      1     -11.9290      2.00000
      2     -11.9290      2.00000
      3      -8.4920      2.00000
      4      -8.4920      2.00000
      5      -5.7207      2.00000
      6      -5.7207      2.00000
      7      -4.5812      2.00000
      8      -4.5812      2.00000
      9      -4.4207      2.00000
     10      -4.4207      2.00000
     11      -2.0747      2.00000
     12      -2.0747      2.00000
     13      -1.9094      2.00000
     14      -1.9094      2.00000
     15      -0.0498      2.00000
     16      -0.0498      2.00000
     17       0.5559      2.00000
     18       0.5559      2.00000
     19       0.6660      2.00000
     20       0.6660      2.00000
     21       1.4506      2.00000
     22       1.4506      2.00000
     23       5.9790      0.00000
     24       5.9790      0.00000
     25       7.2079      0.00000
     26       7.2079      0.00000
     27       7.5897      0.00000
     28       7.5897      0.00000
     29       9.1743      0.00000
     30       9.1743      0.00000
     31      10.0715      0.00000
     32      10.0715      0.00000
     33      10.2723      0.00000
     34      10.2723      0.00000
     35      11.2927      0.00000
     36      11.2927      0.00000
     37      11.8412      0.00000
     38      11.8412      0.00000
     39      13.2272      0.00000
     40      13.2272      0.00000
     41      13.7415      0.00000
     42      13.7415      0.00000
     43      13.9646      0.00000
     44      13.9646      0.00000
     45      14.4246      0.00000
     46      14.4246      0.00000
     47      15.1787      0.00000
     48      15.1787      0.00000

 k-point   110 :       0.5000    0.4333    0.5000
  band No.  band energies     occupation 
      1     -11.9142      2.00000
      2     -11.9142      2.00000
      3      -8.4771      2.00000
      4      -8.4771      2.00000
      5      -5.8013      2.00000
      6      -5.8013      2.00000
      7      -4.5561      2.00000
      8      -4.5561      2.00000
      9      -4.4096      2.00000
     10      -4.4096      2.00000
     11      -2.1395      2.00000
     12      -2.1395      2.00000
     13      -1.9101      2.00000
     14      -1.9101      2.00000
     15      -0.0397      2.00000
     16      -0.0397      2.00000
     17       0.5577      2.00000
     18       0.5577      2.00000
     19       0.5874      2.00000
     20       0.5874      2.00000
     21       1.6006      2.00000
     22       1.6006      2.00000
     23       5.9535      0.00000
     24       5.9535      0.00000
     25       7.1705      0.00000
     26       7.1705      0.00000
     27       7.5885      0.00000
     28       7.5885      0.00000
     29       9.3789      0.00000
     30       9.3789      0.00000
     31       9.9713      0.00000
     32       9.9713      0.00000
     33      10.4057      0.00000
     34      10.4057      0.00000
     35      11.3296      0.00000
     36      11.3296      0.00000
     37      11.6758      0.00000
     38      11.6758      0.00000
     39      13.2019      0.00000
     40      13.2019      0.00000
     41      13.9474      0.00000
     42      13.9474      0.00000
     43      14.0231      0.00000
     44      14.0231      0.00000
     45      14.5175      0.00000
     46      14.5175      0.00000
     47      15.0885      0.00000
     48      15.0886      0.00000

 k-point   111 :       0.5000    0.4667    0.5000
  band No.  band energies     occupation 
      1     -11.9050      2.00000
      2     -11.9050      2.00000
      3      -8.4678      2.00000
      4      -8.4678      2.00000
      5      -5.8502      2.00000
      6      -5.8502      2.00000
      7      -4.5403      2.00000
      8      -4.5403      2.00000
      9      -4.4025      2.00000
     10      -4.4025      2.00000
     11      -2.1822      2.00000
     12      -2.1822      2.00000
     13      -1.9075      2.00000
     14      -1.9075      2.00000
     15      -0.0333      2.00000
     16      -0.0333      2.00000
     17       0.5151      2.00000
     18       0.5151      2.00000
     19       0.5822      2.00000
     20       0.5822      2.00000
     21       1.6936      2.00000
     22       1.6936      2.00000
     23       5.9400      0.00000
     24       5.9400      0.00000
     25       7.1490      0.00000
     26       7.1490      0.00000
     27       7.5863      0.00000
     28       7.5863      0.00000
     29       9.5187      0.00000
     30       9.5187      0.00000
     31       9.8932      0.00000
     32       9.8932      0.00000
     33      10.4940      0.00000
     34      10.4940      0.00000
     35      11.3466      0.00000
     36      11.3466      0.00000
     37      11.5687      0.00000
     38      11.5687      0.00000
     39      13.1870      0.00000
     40      13.1870      0.00000
     41      14.0350      0.00000
     42      14.0350      0.00000
     43      14.2068      0.00000
     44      14.2068      0.00000
     45      14.6546      0.00000
     46      14.6547      0.00000
     47      14.9276      0.00000
     48      14.9315      0.00000

 k-point   112 :       0.5000    0.5000    0.5000
  band No.  band energies     occupation 
      1     -11.9018      2.00000
      2     -11.9018      2.00000
      3      -8.4646      2.00000
      4      -8.4646      2.00000
      5      -5.8666      2.00000
      6      -5.8666      2.00000
      7      -4.5349      2.00000
      8      -4.5349      2.00000
      9      -4.4001      2.00000
     10      -4.4001      2.00000
     11      -2.1969      2.00000
     12      -2.1969      2.00000
     13      -1.9063      2.00000
     14      -1.9063      2.00000
     15      -0.0311      2.00000
     16      -0.0311      2.00000
     17       0.4971      2.00000
     18       0.4971      2.00000
     19       0.5840      2.00000
     20       0.5840      2.00000
     21       1.7251      2.00000
     22       1.7251      2.00000
     23       5.9359      0.00000
     24       5.9359      0.00000
     25       7.1420      0.00000
     26       7.1420      0.00000
     27       7.5853      0.00000
     28       7.5853      0.00000
     29       9.5741      0.00000
     30       9.5741      0.00000
     31       9.8580      0.00000
     32       9.8580      0.00000
     33      10.5251      0.00000
     34      10.5251      0.00000
     35      11.3513      0.00000
     36      11.3513      0.00000
     37      11.5315      0.00000
     38      11.5315      0.00000
     39      13.1822      0.00000
     40      13.1822      0.00000
     41      14.0523      0.00000
     42      14.0523      0.00000
     43      14.3373      0.00000
     44      14.3374      0.00000
     45      14.7579      0.00000
     46      14.7580      0.00000
     47      14.8173      0.00000
     48      14.8183      0.00000


--------------------------------------------------------------------------------------------------------


 soft charge-density along one line, spin component           1
         0         1         2         3         4         5         6         7         8         9
 total charge-density along one line
 
 pseudopotential strength for first ion, spin component:           1
  6.445   9.813  -0.000  -0.009   0.005  -0.000  -0.014   0.008
  9.813  14.936  -0.000  -0.013   0.008  -0.000  -0.021   0.011
 -0.000  -0.000  -2.174  -0.000  -0.000  -3.694  -0.000  -0.000
 -0.009  -0.013  -0.000  -2.178  -0.001  -0.000  -3.704  -0.002
  0.005   0.008  -0.000  -0.001  -2.177  -0.000  -0.002  -3.702
 -0.000  -0.000  -3.694  -0.000  -0.000  -6.079  -0.000  -0.000
 -0.014  -0.021  -0.000  -3.704  -0.002  -0.000  -6.101  -0.004
  0.008   0.011  -0.000  -0.002  -3.702  -0.000  -0.004  -6.096
 total augmentation occupancy for first ion, spin component:           1
  2.000   0.000   0.000   0.000   0.000   0.000   0.000   0.000
  0.000   0.000   0.000   0.000   0.000   0.000   0.000   0.000
  0.000   0.000   0.333   0.000   0.000   0.000   0.000   0.000
  0.000   0.000   0.000   0.333   0.000   0.000   0.000   0.000
  0.000   0.000   0.000   0.000   0.333   0.000   0.000   0.000
  0.000   0.000   0.000   0.000   0.000   0.000   0.000   0.000
  0.000   0.000   0.000   0.000   0.000   0.000   0.000   0.000
  0.000   0.000   0.000   0.000   0.000   0.000   0.000   0.000


------------------------ aborting loop because EDIFF is reached ----------------------------------------





 total charge

# of ion       s       p       d       tot
------------------------------------------
    1        0.709   1.381   0.000   2.090
    2        0.709   1.381   0.000   2.090
    3        0.709   1.381   0.000   2.090
    4        0.709   1.381   0.000   2.090
    5        0.716   1.308   0.000   2.024
    6        0.716   1.308   0.000   2.024
    7        0.716   1.308   0.000   2.024
    8        0.716   1.308   0.000   2.024
    9        0.700   1.203   0.000   1.903
   10        0.700   1.203   0.000   1.903
   11        0.700   1.203   0.000   1.903
   12        0.700   1.203   0.000   1.903
   13        0.713   1.399   0.000   2.112
   14        0.713   1.399   0.000   2.112
--------------------------------------------------
tot          9.929  18.363   0.000  28.292
 
    CHARGE:  cpu time      0.0632: real time      0.0669
    FORLOC:  cpu time      0.0023: real time      0.0024
    FORNL :  cpu time      0.5337: real time      0.5402
    STRESS:  cpu time      2.4276: real time      2.5246
    FORCOR:  cpu time      0.0110: real time      0.0113
    FORHAR:  cpu time      0.0033: real time      0.0033
    OFIELD:  cpu time      0.0000: real time      0.0000

 ---------------------------------------------------------------------------------------------

         DFTD3 V3.0 Rev 1        
 DF pbe       
 parameters
 k1-k3        =   16.0000    1.3333   -4.0000
 Edisp (eV)   -1.96230

 E6    (eV) :    -1.3220
 E8    (eV) :    -0.6403
 % E8        : 32.63
    FORVDW:  cpu time      0.0587: real time      0.0590

  FORCE on cell =-STRESS in cart. coord.  units (eV):
  Direction    XX          YY          ZZ          XY          YZ          ZX
  --------------------------------------------------------------------------------------
  Alpha Z    94.30281    94.30281    94.30281
  Ewald     -93.12989  -561.95728  -143.70902    -0.00000    -0.00000     0.00000
  Hartree   191.30791    -4.25946   159.73953    -0.00000    -0.00000    -0.00000
  E(xc)    -134.85784  -135.81372  -134.84344     0.00000    -0.00000     0.00000
  Local    -498.42773   145.30132  -415.37852     0.00000     0.00000    -0.00000
  n-local    -9.29046   -10.39781    -9.99222    -0.00000     0.00000    -0.00000
  augment     1.32439     1.38789     1.33860    -0.00000     0.00000    -0.00000
  Kinetic   446.22996   475.04095   447.39235     0.00000    -0.00000     0.00000
  Fock        0.00000     0.00000     0.00000     0.00000     0.00000     0.00000
  vdW        -2.04354    -2.13134    -2.01285     0.00000     0.00000     0.00000
  -------------------------------------------------------------------------------------
  Total      -4.58439     1.47335    -3.16276     0.00000     0.00000    -0.00000
  in kB     -51.36920    16.50929   -35.43950     0.00000     0.00000    -0.00000
  external pressure =      -23.43 kB  Pullay stress =        0.00 kB


 VOLUME and BASIS-vectors are now :
 -----------------------------------------------------------------------------
  energy-cutoff  :      600.00
  volume of cell :      142.98
      direct lattice vectors                 reciprocal lattice vectors
     5.700970695  0.000000000  0.000000000     0.175408725  0.000000000  0.000000000
     0.000000000  4.044058096  0.000000000     0.000000000  0.247276368  0.000000000
     0.000000000  0.000000000  6.201871195     0.000000000  0.000000000  0.161241659

  length of vectors
     5.700970695  4.044058096  6.201871195     0.175408725  0.247276368  0.161241659


 FORCES acting on ions
    electron-ion (+dipol)            ewald-force                    non-local-force                 convergence-correction
 -----------------------------------------------------------------------------------------------
   0.482E+02 0.909E-12 -.247E+02   -.511E+02 0.185E-14 0.280E+02   0.199E+01 -.195E-23 -.348E+01   0.511E+00 -.163E-12 0.156E+00
   -.482E+02 -.203E-12 0.247E+02   0.511E+02 0.687E-16 -.280E+02   -.199E+01 0.595E-24 0.348E+01   -.511E+00 -.760E-13 -.156E+00
   -.482E+02 0.883E-12 -.247E+02   0.511E+02 -.149E-14 0.280E+02   -.199E+01 -.104E-23 -.348E+01   -.511E+00 0.754E-13 0.156E+00
   0.482E+02 0.437E-13 0.247E+02   -.511E+02 -.171E-14 -.280E+02   0.199E+01 -.606E-24 0.348E+01   0.511E+00 -.921E-13 -.156E+00
   0.285E+02 -.272E-12 -.504E+02   -.315E+02 0.387E-14 0.550E+02   0.247E+01 -.732E-23 -.429E+01   0.336E+00 -.270E-12 -.281E+00
   -.285E+02 0.344E-12 0.504E+02   0.315E+02 0.345E-14 -.550E+02   -.247E+01 -.786E-23 0.429E+01   -.336E+00 -.231E-12 0.281E+00
   -.285E+02 -.129E-11 -.504E+02   0.315E+02 0.431E-14 0.550E+02   -.247E+01 -.772E-23 -.429E+01   -.336E+00 -.166E-12 -.281E+00
   0.285E+02 -.170E-13 0.504E+02   -.315E+02 0.344E-14 -.550E+02   0.247E+01 0.245E-23 0.429E+01   0.336E+00 -.257E-12 0.281E+00
   0.292E-13 -.566E+02 -.162E+02   0.938E-14 0.606E+02 0.172E+02   -.691E-23 -.539E+01 -.109E+01   0.240E-13 0.679E+00 0.653E-01
   0.120E-13 0.566E+02 0.162E+02   0.312E-14 -.606E+02 -.172E+02   -.216E-22 0.539E+01 0.109E+01   0.222E-12 -.679E+00 -.653E-01
   0.291E-13 0.566E+02 -.162E+02   0.561E-14 -.606E+02 0.172E+02   -.802E-23 0.539E+01 -.109E+01   -.163E-12 -.679E+00 0.653E-01
   0.122E-13 -.566E+02 0.162E+02   -.935E-15 0.606E+02 -.172E+02   -.122E-23 -.539E+01 0.109E+01   0.261E-12 0.679E+00 -.653E-01
   -.178E-14 0.343E-12 -.611E+02   -.559E-13 0.564E-16 0.647E+02   0.113E-23 -.113E-23 -.269E+01   0.330E-12 -.476E-13 -.562E+00
   0.214E-14 -.731E-13 0.611E+02   -.571E-13 -.472E-15 -.647E+02   0.370E-24 0.492E-24 0.269E+01   -.541E-12 0.401E-14 0.562E+00
 -----------------------------------------------------------------------------------------------
   -.121E-11 0.639E-12 0.272E-10   -.389E-13 -.415E-15 -.142E-13   -.363E-22 0.888E-15 0.888E-15   0.668E-12 -.108E-11 0.224E-11
 
 
 POSITION                                       TOTAL-FORCE (eV/Angst)
 -----------------------------------------------------------------------------------
      2.97186      2.02203      3.95653        -0.342214      0.000000     -0.024598
      2.72911      2.02203      2.24534         0.342214     -0.000000      0.024598
      5.57960      2.02203      3.95653         0.342214     -0.000000     -0.024598
      0.12137      2.02203      2.24534        -0.342214      0.000000      0.024598
      3.40604      2.02203      5.58087        -0.201283      0.000000      0.102192
      2.29493      2.02203      0.62100         0.201283      0.000000     -0.102192
      5.14541      2.02203      5.58087         0.201283     -0.000000      0.102192
      0.55556      2.02203      0.62100        -0.201283     -0.000000     -0.102192
      4.27573      3.20113      4.52476        -0.000000     -0.751878     -0.021640
      1.42524      0.84292      1.67711        -0.000000      0.751878      0.021640
      4.27573      0.84292      4.52476         0.000000      0.751878     -0.021640
      1.42524      3.20113      1.67711        -0.000000     -0.751878      0.021640
      1.42524      2.02203      3.24974         0.000000     -0.000000      0.351486
      4.27573      2.02203      2.95213         0.000000      0.000000     -0.351486
 -----------------------------------------------------------------------------------
    total drift:                               -0.000000     -0.000000      0.000000


--------------------------------------------------------------------------------------------------------



  FREE ENERGIE OF THE ION-ELECTRON SYSTEM (eV)
  ---------------------------------------------------
  free  energy   TOTEN  =       -92.75203469 eV

  energy  without entropy=      -92.73919960  energy(sigma->0) =      -92.74561715
 


--------------------------------------------------------------------------------------------------------


    POTLOK:  cpu time      0.0174: real time      0.0174


--------------------------------------------------------------------------------------------------------


 writing wavefunctions
     LOOP+:  cpu time     34.8911: real time     35.6440
    4ORBIT:  cpu time      0.0000: real time      0.0000



 total charge

# of ion       s       p       d       tot
------------------------------------------
    1        0.709   1.381   0.000   2.090
    2        0.709   1.381   0.000   2.090
    3        0.709   1.381   0.000   2.090
    4        0.709   1.381   0.000   2.090
    5        0.716   1.308   0.000   2.024
    6        0.716   1.308   0.000   2.024
    7        0.716   1.308   0.000   2.024
    8        0.716   1.308   0.000   2.024
    9        0.700   1.203   0.000   1.903
   10        0.700   1.203   0.000   1.903
   11        0.700   1.203   0.000   1.903
   12        0.700   1.203   0.000   1.903
   13        0.713   1.399   0.000   2.112
   14        0.713   1.399   0.000   2.112
--------------------------------------------------
tot          9.929  18.363   0.000  28.292
 

 total amount of memory used by VASP MPI-rank0    88962. kBytes
=======================================================================

   base      :      30000. kBytes
   nonl-proj :      35659. kBytes
   fftplans  :       1200. kBytes
   grid      :       4341. kBytes
   one-center:         43. kBytes
   wavefun   :      17719. kBytes
 
  
  
 General timing and accounting informations for this job:
 ========================================================
  
                  Total CPU time used (sec):       38.678
                            User time (sec):       37.147
                          System time (sec):        1.531
                         Elapsed time (sec):       40.241
  
                   Maximum memory used (kb):      440228.
                   Average memory used (kb):          N/A
  
                          Minor page faults:       143070
                          Major page faults:         1423
                 Voluntary context switches:         4138
