  14  14   0   0
  0.4809534E+02  0.5700971E-09  0.6201871E-09  0.1904406E-08  0.5000000E-15
  1.000000000000000E-004
  CAR 
 Convergence                             
      6.72876499    -20.08010785  301     -4.25480831      1.00000000
    -20.080  0.0000E+00  0.0000E+00
    -19.991  0.0000E+00  0.0000E+00
    -19.901  0.0000E+00  0.0000E+00
    -19.812  0.0000E+00  0.0000E+00
    -19.723  0.0000E+00  0.0000E+00
    -19.633  0.0000E+00  0.0000E+00
    -19.544  0.0000E+00  0.0000E+00
    -19.455  0.0000E+00  0.0000E+00
    -19.365  0.0000E+00  0.0000E+00
    -19.276  0.0000E+00  0.0000E+00
    -19.186  0.0000E+00  0.0000E+00
    -19.097  0.8369E-11  0.7478E-12
    -19.008  0.1359E-04  0.1214E-05
    -18.918  0.6114E-01  0.5465E-02
    -18.829  0.2258E+01  0.2073E+00
    -18.740  0.5887E+01  0.7334E+00
    -18.650  0.4660E+01  0.1150E+01
    -18.561  0.3665E+01  0.1477E+01
    -18.472  0.2512E+01  0.1702E+01
    -18.382  0.3146E+01  0.1983E+01
    -18.293  0.2515E+01  0.2208E+01
    -18.203  0.2369E+01  0.2419E+01
    -18.114  0.3298E+01  0.2714E+01
    -18.025  0.2689E+01  0.2954E+01
    -17.935  0.4611E+01  0.3366E+01
    -17.846  0.4143E+01  0.3737E+01
    -17.757  0.2548E+01  0.3964E+01
    -17.667  0.3966E+00  0.4000E+01
    -17.578  0.1405E-02  0.4000E+01
    -17.489  0.1948E-07  0.4000E+01
    -17.399  0.6074E-15  0.4000E+01
    -17.310  0.0000E+00  0.4000E+01
    -17.220  0.0000E+00  0.4000E+01
    -17.131  0.0000E+00  0.4000E+01
    -17.042  0.0000E+00  0.4000E+01
    -16.952  0.0000E+00  0.4000E+01
    -16.863  0.0000E+00  0.4000E+01
    -16.774  0.0000E+00  0.4000E+01
    -16.684  0.0000E+00  0.4000E+01
    -16.595  0.0000E+00  0.4000E+01
    -16.506  0.0000E+00  0.4000E+01
    -16.416  0.0000E+00  0.4000E+01
    -16.327  0.0000E+00  0.4000E+01
    -16.238  0.0000E+00  0.4000E+01
    -16.148  0.0000E+00  0.4000E+01
    -16.059  0.0000E+00  0.4000E+01
    -15.969  0.0000E+00  0.4000E+01
    -15.880  0.0000E+00  0.4000E+01
    -15.791  0.0000E+00  0.4000E+01
    -15.701  0.0000E+00  0.4000E+01
    -15.612  0.0000E+00  0.4000E+01
    -15.523  0.0000E+00  0.4000E+01
    -15.433  0.0000E+00  0.4000E+01
    -15.344  0.0000E+00  0.4000E+01
    -15.255  0.0000E+00  0.4000E+01
    -15.165  0.1969E-08  0.4000E+01
    -15.076  0.4075E-03  0.4000E+01
    -14.986  0.2996E+00  0.4027E+01
    -14.897  0.3797E+01  0.4366E+01
    -14.808  0.7728E+01  0.5057E+01
    -14.718  0.9251E+01  0.5883E+01
    -14.629  0.4117E+01  0.6251E+01
    -14.540  0.4445E+01  0.6649E+01
    -14.450  0.7315E+01  0.7302E+01
    -14.361  0.4108E+01  0.7669E+01
    -14.272  0.2513E+01  0.7894E+01
    -14.182  0.1073E+01  0.7990E+01
    -14.093  0.1128E+00  0.8000E+01
    -14.003  0.9245E-04  0.8000E+01
    -13.914  0.1854E-09  0.8000E+01
    -13.825  0.0000E+00  0.8000E+01
    -13.735  0.0000E+00  0.8000E+01
    -13.646  0.0000E+00  0.8000E+01
    -13.557  0.0000E+00  0.8000E+01
    -13.467  0.0000E+00  0.8000E+01
    -13.378  0.0000E+00  0.8000E+01
    -13.289  0.2761E-15  0.8000E+01
    -13.199  0.1243E-07  0.8000E+01
    -13.110  0.1154E-02  0.8000E+01
    -13.020  0.2994E+00  0.8027E+01
    -12.931  0.6743E+00  0.8087E+01
    -12.842  0.4044E+00  0.8123E+01
    -12.752  0.1062E+01  0.8218E+01
    -12.663  0.1104E+01  0.8317E+01
    -12.574  0.7938E+00  0.8388E+01
    -12.484  0.1267E+01  0.8501E+01
    -12.395  0.1234E+01  0.8611E+01
    -12.306  0.2709E+01  0.8853E+01
    -12.216  0.5527E+01  0.9347E+01
    -12.127  0.2277E+01  0.9551E+01
    -12.037  0.2998E+01  0.9819E+01
    -11.948  0.1447E+01  0.9948E+01
    -11.859  0.2125E+01  0.1014E+02
    -11.769  0.3447E+01  0.1045E+02
    -11.680  0.2497E+01  0.1067E+02
    -11.591  0.3185E+01  0.1095E+02
    -11.501  0.2640E+01  0.1119E+02
    -11.412  0.2765E+01  0.1144E+02
    -11.323  0.3499E+01  0.1175E+02
    -11.233  0.1748E+01  0.1191E+02
    -11.144  0.3617E+01  0.1223E+02
    -11.054  0.4056E+01  0.1259E+02
    -10.965  0.5307E+01  0.1307E+02
    -10.876  0.6892E+01  0.1368E+02
    -10.786  0.4476E+01  0.1408E+02
    -10.697  0.3198E+01  0.1437E+02
    -10.608  0.5844E+01  0.1489E+02
    -10.518  0.3976E+01  0.1524E+02
    -10.429  0.3615E+01  0.1557E+02
    -10.340  0.3181E+01  0.1585E+02
    -10.250  0.5784E+01  0.1637E+02
    -10.161  0.5470E+01  0.1686E+02
    -10.071  0.3732E+01  0.1719E+02
     -9.982  0.5442E+01  0.1768E+02
     -9.893  0.4538E+01  0.1808E+02
     -9.803  0.2286E+01  0.1829E+02
     -9.714  0.4043E+01  0.1865E+02
     -9.625  0.1924E+01  0.1882E+02
     -9.535  0.1832E+01  0.1898E+02
     -9.446  0.3439E+01  0.1929E+02
     -9.357  0.2630E+01  0.1953E+02
     -9.267  0.8228E+00  0.1960E+02
     -9.178  0.3201E+01  0.1989E+02
     -9.088  0.3400E+01  0.2019E+02
     -8.999  0.1753E+01  0.2035E+02
     -8.910  0.3688E+00  0.2038E+02
     -8.820  0.2665E+01  0.2062E+02
     -8.731  0.3221E+01  0.2091E+02
     -8.642  0.4779E+01  0.2133E+02
     -8.552  0.1776E+01  0.2149E+02
     -8.463  0.6918E+00  0.2155E+02
     -8.374  0.3170E+01  0.2184E+02
     -8.284  0.1659E+01  0.2198E+02
     -8.195  0.8186E+00  0.2206E+02
     -8.105  0.2837E+01  0.2231E+02
     -8.016  0.3909E+01  0.2266E+02
     -7.927  0.2847E+01  0.2292E+02
     -7.837  0.2884E+01  0.2317E+02
     -7.748  0.3699E+01  0.2350E+02
     -7.659  0.2762E+01  0.2375E+02
     -7.569  0.2503E+01  0.2397E+02
     -7.480  0.4890E+01  0.2441E+02
     -7.391  0.5451E+01  0.2490E+02
     -7.301  0.5426E+01  0.2538E+02
     -7.212  0.5996E+01  0.2592E+02
     -7.122  0.7256E+01  0.2657E+02
     -7.033  0.7266E+01  0.2722E+02
     -6.944  0.6127E+01  0.2776E+02
     -6.854  0.9095E+01  0.2858E+02
     -6.765  0.9110E+01  0.2939E+02
     -6.676  0.5321E+01  0.2987E+02
     -6.586  0.5216E+01  0.3033E+02
     -6.497  0.4456E+01  0.3073E+02
     -6.408  0.3671E+01  0.3106E+02
     -6.318  0.4032E+01  0.3142E+02
     -6.229  0.1555E+01  0.3156E+02
     -6.139  0.2813E+01  0.3181E+02
     -6.050  0.8682E+01  0.3258E+02
     -5.961  0.7468E+01  0.3325E+02
     -5.871  0.2371E+01  0.3346E+02
     -5.782  0.5084E+01  0.3392E+02
     -5.693  0.6524E+01  0.3450E+02
     -5.603  0.5242E+01  0.3497E+02
     -5.514  0.4606E+01  0.3538E+02
     -5.425  0.4514E+01  0.3578E+02
     -5.335  0.4434E+01  0.3618E+02
     -5.246  0.4388E+01  0.3657E+02
     -5.157  0.3959E+01  0.3693E+02
     -5.067  0.5926E+01  0.3746E+02
     -4.978  0.4210E+01  0.3783E+02
     -4.888  0.2829E+01  0.3809E+02
     -4.799  0.3660E+01  0.3841E+02
     -4.710  0.2090E+01  0.3860E+02
     -4.620  0.5323E+01  0.3908E+02
     -4.531  0.8183E+01  0.3981E+02
     -4.442  0.6270E+01  0.4037E+02
     -4.352  0.6692E+01  0.4096E+02
     -4.263  0.1042E+02  0.4190E+02
     -4.174  0.1021E+02  0.4281E+02
     -4.084  0.1518E+01  0.4294E+02
     -3.995  0.1078E+01  0.4304E+02
     -3.905  0.2204E+01  0.4324E+02
     -3.816  0.1215E+01  0.4335E+02
     -3.727  0.3576E+00  0.4338E+02
     -3.637  0.3637E+00  0.4341E+02
     -3.548  0.6187E+00  0.4347E+02
     -3.459  0.3878E+00  0.4350E+02
     -3.369  0.6057E+00  0.4355E+02
     -3.280  0.2091E-01  0.4356E+02
     -3.191  0.5365E+00  0.4360E+02
     -3.101  0.1236E+01  0.4371E+02
     -3.012  0.1179E+01  0.4382E+02
     -2.922  0.2521E-01  0.4382E+02
     -2.833  0.2160E-05  0.4382E+02
     -2.744  0.2659E-03  0.4382E+02
     -2.654  0.1736E+00  0.4384E+02
     -2.565  0.7654E+00  0.4391E+02
     -2.476  0.5670E-01  0.4391E+02
     -2.386  0.3168E+00  0.4394E+02
     -2.297  0.6570E+00  0.4400E+02
     -2.208  0.4602E-01  0.4400E+02
     -2.118  0.1172E+01  0.4411E+02
     -2.029  0.3217E+01  0.4439E+02
     -1.939  0.4179E+01  0.4477E+02
     -1.850  0.5779E+01  0.4528E+02
     -1.761  0.5145E+01  0.4574E+02
     -1.671  0.3909E+01  0.4609E+02
     -1.582  0.3627E+01  0.4642E+02
     -1.493  0.4712E+01  0.4684E+02
     -1.403  0.4788E+01  0.4727E+02
     -1.314  0.3674E+01  0.4760E+02
     -1.225  0.3258E+01  0.4789E+02
     -1.135  0.2125E+01  0.4808E+02
     -1.046  0.1993E+01  0.4825E+02
     -0.956  0.2393E+01  0.4847E+02
     -0.867  0.3270E+01  0.4876E+02
     -0.778  0.2352E+01  0.4897E+02
     -0.688  0.3109E+01  0.4925E+02
     -0.599  0.1825E+01  0.4941E+02
     -0.510  0.2521E+01  0.4964E+02
     -0.420  0.2924E+01  0.4990E+02
     -0.331  0.2064E+01  0.5008E+02
     -0.242  0.2421E+01  0.5030E+02
     -0.152  0.5751E+01  0.5081E+02
     -0.063  0.4378E+01  0.5120E+02
      0.027  0.4606E+01  0.5162E+02
      0.116  0.4567E+01  0.5202E+02
      0.205  0.4029E+01  0.5238E+02
      0.295  0.5593E+01  0.5288E+02
      0.384  0.6425E+01  0.5346E+02
      0.473  0.7297E+01  0.5411E+02
      0.563  0.3271E+01  0.5440E+02
      0.652  0.3157E+01  0.5468E+02
      0.741  0.4702E+01  0.5510E+02
      0.831  0.2576E+01  0.5533E+02
      0.920  0.4120E+01  0.5570E+02
      1.010  0.4421E+01  0.5610E+02
      1.099  0.2805E+01  0.5635E+02
      1.188  0.4049E+01  0.5671E+02
      1.278  0.4282E+01  0.5709E+02
      1.367  0.4767E+01  0.5752E+02
      1.456  0.1021E+02  0.5843E+02
      1.546  0.6004E+01  0.5897E+02
      1.635  0.8504E+01  0.5973E+02
      1.724  0.1012E+02  0.6063E+02
      1.814  0.7749E+01  0.6132E+02
      1.903  0.4046E+01  0.6169E+02
      1.993  0.2969E+01  0.6195E+02
      2.082  0.5145E+01  0.6241E+02
      2.171  0.7394E+01  0.6307E+02
      2.261  0.7385E+01  0.6373E+02
      2.350  0.9885E+01  0.6462E+02
      2.439  0.6660E+01  0.6521E+02
      2.529  0.9674E+01  0.6608E+02
      2.618  0.1103E+02  0.6706E+02
      2.707  0.9694E+01  0.6793E+02
      2.797  0.1250E+02  0.6904E+02
      2.886  0.1138E+02  0.7006E+02
      2.976  0.9773E+01  0.7093E+02
      3.065  0.1334E+02  0.7213E+02
      3.154  0.1079E+02  0.7309E+02
      3.244  0.1216E+02  0.7418E+02
      3.333  0.1098E+02  0.7516E+02
      3.422  0.8460E+01  0.7592E+02
      3.512  0.9087E+01  0.7673E+02
      3.601  0.1136E+02  0.7774E+02
      3.690  0.9774E+01  0.7862E+02
      3.780  0.9396E+01  0.7946E+02
      3.869  0.1266E+02  0.8059E+02
      3.959  0.1453E+02  0.8189E+02
      4.048  0.8775E+01  0.8267E+02
      4.137  0.1540E+02  0.8405E+02
      4.227  0.1415E+02  0.8531E+02
      4.316  0.1089E+02  0.8628E+02
      4.405  0.1295E+02  0.8744E+02
      4.495  0.1395E+02  0.8869E+02
      4.584  0.9831E+01  0.8956E+02
      4.673  0.9850E+01  0.9045E+02
      4.763  0.9928E+01  0.9133E+02
      4.852  0.1334E+02  0.9252E+02
      4.942  0.8554E+01  0.9329E+02
      5.031  0.6076E+01  0.9383E+02
      5.120  0.6543E+01  0.9442E+02
      5.210  0.5309E+01  0.9489E+02
      5.299  0.6220E+01  0.9545E+02
      5.388  0.2477E+01  0.9567E+02
      5.478  0.1854E+01  0.9583E+02
      5.567  0.1772E+01  0.9599E+02
      5.656  0.8987E-01  0.9600E+02
      5.746  0.2505E-04  0.9600E+02
      5.835  0.1682E-10  0.9600E+02
      5.924  0.0000E+00  0.9600E+02
      6.014  0.0000E+00  0.9600E+02
      6.103  0.0000E+00  0.9600E+02
      6.193  0.0000E+00  0.9600E+02
      6.282  0.0000E+00  0.9600E+02
      6.371  0.0000E+00  0.9600E+02
      6.461  0.0000E+00  0.9600E+02
      6.550  0.0000E+00  0.9600E+02
      6.639  0.0000E+00  0.9600E+02
      6.729  0.0000E+00  0.9600E+02
