   14   14    1    1
  0.4809534E+02  0.5700971E-09  0.6201871E-09  0.1904406E-08  0.5000000E-15
  1.000000000000000E-004
  CAR 
 Convergence                             
     42     25     48
 
  0.5000000E-01  0.0000000E+00  0.0000000E+00  0.2222222E-01
      1        -18.861523   1.000000
      2        -17.768387   1.000000
      3        -14.789265   1.000000
      4        -14.531133   1.000000
      5        -12.143327   1.000000
      6        -11.266698   1.000000
      7        -11.246284   1.000000
      8        -10.860553   1.000000
      9        -10.457071   1.000000
     10         -9.665238   1.000000
     11         -9.609539   1.000000
     12         -7.322513   1.000000
     13         -7.176628   1.000000
     14         -7.161016   1.000000
     15         -6.190010   1.000000
     16         -6.129474   1.000000
     17         -5.540411   1.000000
     18         -5.208026   1.000000
     19         -5.128411   1.000000
     20         -4.639024   1.000000
     21         -4.206054   0.083951
     22         -3.914728   0.000000
     23         -2.144653   0.000000
     24         -1.199330   0.000000
     25         -1.180507   0.000000
     26         -1.040528   0.000000
     27         -0.022374   0.000000
     28          0.336889   0.000000
     29          0.860532   0.000000
     30          1.455977   0.000000
     31          1.534920   0.000000
     32          2.063157   0.000000
     33          2.342873   0.000000
     34          2.489943   0.000000
     35          2.697851   0.000000
     36          3.084846   0.000000
     37          3.204199   0.000000
     38          3.224702   0.000000
     39          3.756756   0.000000
     40          4.278575   0.000000
     41          4.384625   0.000000
     42          4.688167   0.000000
     43          4.706240   0.000000
     44          4.785845   0.000000
     45          4.944202   0.000000
     46          5.190014   0.000000
     47          5.433454   0.000000
     48          5.455941   0.000000
 
  0.1500000E+00  0.0000000E+00  0.0000000E+00  0.2222222E-01
      1        -18.819230   1.000000
      2        -17.838044   1.000000
      3        -14.768890   1.000000
      4        -14.521474   1.000000
      5        -12.074916   1.000000
      6        -11.617029   1.000000
      7        -11.188442   1.000000
      8        -10.974959   1.000000
      9         -9.990472   1.000000
     10         -9.775855   1.000000
     11         -9.278538   1.000000
     12         -7.618452   1.000000
     13         -7.130817   1.000000
     14         -7.106493   1.000000
     15         -6.331279   1.000000
     16         -6.083664   1.000000
     17         -5.653688   1.000000
     18         -5.296746   1.000000
     19         -5.231529   1.000000
     20         -4.615563   1.000000
     21         -4.215126   0.130846
     22         -4.057005   0.000000
     23         -2.092711   0.000000
     24         -1.245607   0.000000
     25         -1.085625   0.000000
     26         -0.694629   0.000000
     27         -0.065257   0.000000
     28          0.451728   0.000000
     29          1.008793   0.000000
     30          1.428879   0.000000
     31          1.598248   0.000000
     32          2.143579   0.000000
     33          2.253996   0.000000
     34          2.422281   0.000000
     35          2.884317   0.000000
     36          3.260715   0.000000
     37          3.355118   0.000000
     38          3.359172   0.000000
     39          3.751431   0.000000
     40          3.941984   0.000000
     41          4.260389   0.000000
     42          4.365481   0.000000
     43          4.379230   0.000000
     44          4.653807   0.000000
     45          4.777828   0.000000
     46          5.031401   0.000000
     47          5.222458   0.000000
     48          5.375254   0.000000
 
  0.2500000E+00  0.0000000E+00  0.0000000E+00  0.2222222E-01
      1        -18.736512   1.000000
      2        -17.964024   1.000000
      3        -14.726162   1.000000
      4        -14.510454   1.000000
      5        -12.061227   1.000000
      6        -11.941042   1.000000
      7        -11.074909   1.000000
      8        -10.921827   1.000000
      9         -9.970101   1.000000
     10         -9.444280   1.000000
     11         -8.804522   1.000000
     12         -8.111905   1.000000
     13         -7.046660   1.000000
     14         -7.013777   1.000000
     15         -6.590986   1.000000
     16         -6.111880   1.000000
     17         -5.764130   1.000000
     18         -5.445191   1.000000
     19         -5.403844   1.000000
     20         -4.568965   1.000000
     21         -4.327900   0.980649
     22         -4.235612   0.293580
     23         -1.997257   0.000000
     24         -1.325074   0.000000
     25         -0.756429   0.000000
     26         -0.206021   0.000000
     27         -0.085629   0.000000
     28          0.529206   0.000000
     29          1.253660   0.000000
     30          1.433569   0.000000
     31          1.762394   0.000000
     32          2.047289   0.000000
     33          2.272557   0.000000
     34          2.566706   0.000000
     35          3.102192   0.000000
     36          3.240397   0.000000
     37          3.391265   0.000000
     38          3.441041   0.000000
     39          3.551275   0.000000
     40          3.690567   0.000000
     41          3.786528   0.000000
     42          4.102701   0.000000
     43          4.268570   0.000000
     44          4.449959   0.000000
     45          4.786553   0.000000
     46          4.839176   0.000000
     47          5.066059   0.000000
     48          5.262364   0.000000
 
  0.3500000E+00  0.0000000E+00  0.0000000E+00  0.2222222E-01
      1        -18.617367   1.000000
      2        -18.125239   1.000000
      3        -14.664279   1.000000
      4        -14.512511   1.000000
      5        -12.166429   1.000000
      6        -12.156724   1.000000
      7        -10.910294   1.000000
      8        -10.587203   1.000000
      9        -10.210479   1.000000
     10         -9.039527   1.000000
     11         -8.559614   1.000000
     12         -8.309422   1.000000
     13         -6.943306   1.000000
     14         -6.919353   1.000000
     15         -6.912119   1.000000
     16         -6.433283   1.000000
     17         -5.627244   1.000000
     18         -5.605103   1.000000
     19         -5.587365   1.000000
     20         -4.671365   1.000000
     21         -4.502999   1.000000
     22         -4.283448   0.791046
     23         -1.870562   0.000000
     24         -1.439197   0.000000
     25         -0.225713   0.000000
     26         -0.033304   0.000000
     27          0.379829   0.000000
     28          0.446860   0.000000
     29          1.420554   0.000000
     30          1.541968   0.000000
     31          1.895087   0.000000
     32          2.013007   0.000000
     33          2.332406   0.000000
     34          2.489283   0.000000
     35          2.757327   0.000000
     36          3.040742   0.000000
     37          3.270104   0.000000
     38          3.309823   0.000000
     39          3.418295   0.000000
     40          3.515249   0.000000
     41          3.891810   0.000000
     42          4.148298   0.000000
     43          4.189947   0.000000
     44          4.483932   0.000000
     45          4.672869   0.000000
     46          4.783195   0.000000
     47          4.854512   0.000000
     48          5.036939   0.000000
 
  0.4500000E+00  0.0000000E+00  0.0000000E+00  0.2222222E-01
      1        -18.468401   1.000000
      2        -18.299616   1.000000
      3        -14.596122   1.000000
      4        -14.540784   1.000000
      5        -12.269945   1.000000
      6        -12.254511   1.000000
      7        -10.702351   1.000000
      8        -10.463099   1.000000
      9        -10.071397   1.000000
     10         -9.476446   1.000000
     11         -8.246617   1.000000
     12         -8.005138   1.000000
     13         -7.126896   1.000000
     14         -6.860484   1.000000
     15         -6.859476   1.000000
     16         -6.845997   1.000000
     17         -5.714389   1.000000
     18         -5.710842   1.000000
     19         -5.364640   1.000000
     20         -5.034464   1.000000
     21         -4.426055   0.999999
     22         -4.349176   0.996198
     23         -1.725889   0.000000
     24         -1.577268   0.000000
     25          0.095139   0.000000
     26          0.272227   0.000000
     27          0.436510   0.000000
     28          1.031385   0.000000
     29          1.099435   0.000000
     30          1.673696   0.000000
     31          1.734550   0.000000
     32          1.782844   0.000000
     33          2.337771   0.000000
     34          2.483156   0.000000
     35          2.706861   0.000000
     36          2.858532   0.000000
     37          2.978059   0.000000
     38          3.227777   0.000000
     39          3.500054   0.000000
     40          3.624131   0.000000
     41          3.794620   0.000000
     42          3.982346   0.000000
     43          4.335423   0.000000
     44          4.500703   0.000000
     45          4.524308   0.000000
     46          4.569048   0.000000
     47          5.342523   0.000000
     48          5.446950   0.000000
 
  0.5000000E-01  0.1111111E+00  0.0000000E+00  0.4444444E-01
      1        -18.851115   1.000000
      2        -17.787196   1.000000
      3        -14.787579   1.000000
      4        -14.498979   1.000000
      5        -12.280040   1.000000
      6        -11.404958   1.000000
      7        -11.224461   1.000000
      8        -10.678095   1.000000
      9        -10.313468   1.000000
     10         -9.722985   1.000000
     11         -9.492291   1.000000
     12         -7.376242   1.000000
     13         -7.181225   1.000000
     14         -7.051987   1.000000
     15         -6.351718   1.000000
     16         -6.168075   1.000000
     17         -5.767007   1.000000
     18         -5.329865   1.000000
     19         -5.141455   1.000000
     20         -4.647281   1.000000
     21         -4.194573   0.044217
     22         -3.625206   0.000000
     23         -2.121144   0.000000
     24         -1.214228   0.000000
     25         -1.125483   0.000000
     26         -0.936847   0.000000
     27         -0.206608   0.000000
     28          0.334348   0.000000
     29          0.964453   0.000000
     30          1.497016   0.000000
     31          1.729496   0.000000
     32          2.113596   0.000000
     33          2.341258   0.000000
     34          2.528648   0.000000
     35          2.723077   0.000000
     36          2.963872   0.000000
     37          3.268913   0.000000
     38          3.383214   0.000000
     39          3.780143   0.000000
     40          4.122839   0.000000
     41          4.209945   0.000000
     42          4.433558   0.000000
     43          4.474991   0.000000
     44          4.594955   0.000000
     45          4.916710   0.000000
     46          5.063002   0.000000
     47          5.239783   0.000000
     48          5.510180   0.000000
 
  0.1500000E+00  0.1111111E+00  0.0000000E+00  0.4444444E-01
      1        -18.809272   1.000000
      2        -17.853093   1.000000
      3        -14.791666   1.000000
      4        -14.481001   1.000000
      5        -12.251060   1.000000
      6        -11.511125   1.000000
      7        -11.167331   1.000000
      8        -10.924570   1.000000
      9         -9.930155   1.000000
     10         -9.819416   1.000000
     11         -9.152222   1.000000
     12         -7.668546   1.000000
     13         -7.248161   1.000000
     14         -6.909225   1.000000
     15         -6.412505   1.000000
     16         -6.190289   1.000000
     17         -5.841811   1.000000
     18         -5.522734   1.000000
     19         -5.092571   1.000000
     20         -4.620163   1.000000
     21         -4.208852   0.096828
     22         -3.828984   0.000000
     23         -2.078206   0.000000
     24         -1.259219   0.000000
     25         -1.025008   0.000000
     26         -0.651930   0.000000
     27         -0.216194   0.000000
     28          0.523217   0.000000
     29          1.131452   0.000000
     30          1.497039   0.000000
     31          1.693528   0.000000
     32          2.195158   0.000000
     33          2.211107   0.000000
     34          2.477900   0.000000
     35          2.783009   0.000000
     36          3.163161   0.000000
     37          3.464109   0.000000
     38          3.619060   0.000000
     39          3.622154   0.000000
     40          3.833612   0.000000
     41          4.046457   0.000000
     42          4.260304   0.000000
     43          4.421218   0.000000
     44          4.574917   0.000000
     45          4.668831   0.000000
     46          4.844211   0.000000
     47          5.267250   0.000000
     48          5.277701   0.000000
 
  0.2500000E+00  0.1111111E+00  0.0000000E+00  0.4444444E-01
      1        -18.727523   1.000000
      2        -17.973303   1.000000
      3        -14.775618   1.000000
      4        -14.474564   1.000000
      5        -12.265781   1.000000
      6        -11.652436   1.000000
      7        -11.055389   1.000000
      8        -10.957829   1.000000
      9         -9.994343   1.000000
     10         -9.447456   1.000000
     11         -8.707961   1.000000
     12         -8.132158   1.000000
     13         -7.243224   1.000000
     14         -6.797222   1.000000
     15         -6.665610   1.000000
     16         -6.079832   1.000000
     17         -6.009137   1.000000
     18         -5.695399   1.000000
     19         -5.151525   1.000000
     20         -4.572446   1.000000
     21         -4.239816   0.335761
     22         -4.187464   0.028403
     23         -1.991945   0.000000
     24         -1.339709   0.000000
     25         -0.708060   0.000000
     26         -0.236667   0.000000
     27         -0.159675   0.000000
     28          0.689924   0.000000
     29          1.407349   0.000000
     30          1.427192   0.000000
     31          1.790930   0.000000
     32          2.025673   0.000000
     33          2.318613   0.000000
     34          2.626625   0.000000
     35          2.931385   0.000000
     36          3.016029   0.000000
     37          3.202407   0.000000
     38          3.530765   0.000000
     39          3.738146   0.000000
     40          3.776055   0.000000
     41          3.856430   0.000000
     42          4.089576   0.000000
     43          4.327448   0.000000
     44          4.452159   0.000000
     45          4.482783   0.000000
     46          4.870482   0.000000
     47          5.088628   0.000000
     48          5.120666   0.000000
 
  0.3500000E+00  0.1111111E+00  0.0000000E+00  0.4444444E-01
      1        -18.609989   1.000000
      2        -18.128689   1.000000
      3        -14.726374   1.000000
      4        -14.502644   1.000000
      5        -12.287978   1.000000
      6        -11.881078   1.000000
      7        -10.893605   1.000000
      8        -10.638709   1.000000
      9        -10.217997   1.000000
     10         -9.081032   1.000000
     11         -8.669315   1.000000
     12         -8.156601   1.000000
     13         -7.166867   1.000000
     14         -6.971689   1.000000
     15         -6.785192   1.000000
     16         -6.357767   1.000000
     17         -5.811247   1.000000
     18         -5.752754   1.000000
     19         -5.299611   1.000000
     20         -4.653485   1.000000
     21         -4.484979   1.000000
     22         -4.284925   0.802847
     23         -1.870667   0.000000
     24         -1.450545   0.000000
     25         -0.196659   0.000000
     26         -0.022217   0.000000
     27          0.259018   0.000000
     28          0.630504   0.000000
     29          1.474079   0.000000
     30          1.606092   0.000000
     31          1.793520   0.000000
     32          2.112891   0.000000
     33          2.288469   0.000000
     34          2.393611   0.000000
     35          2.806465   0.000000
     36          3.085563   0.000000
     37          3.160111   0.000000
     38          3.280938   0.000000
     39          3.325826   0.000000
     40          3.599415   0.000000
     41          3.909791   0.000000
     42          4.172710   0.000000
     43          4.308849   0.000000
     44          4.402828   0.000000
     45          4.704804   0.000000
     46          4.727557   0.000000
     47          4.819683   0.000000
     48          5.171834   0.000000
 
  0.4500000E+00  0.1111111E+00  0.0000000E+00  0.4444444E-01
      1        -18.463484   1.000000
      2        -18.298258   1.000000
      3        -14.650195   1.000000
      4        -14.567134   1.000000
      5        -12.238375   1.000000
      6        -12.096172   1.000000
      7        -10.690389   1.000000
      8        -10.458783   1.000000
      9        -10.126544   1.000000
     10         -9.535478   1.000000
     11         -8.325149   1.000000
     12         -8.007519   1.000000
     13         -7.065092   1.000000
     14         -7.036793   1.000000
     15         -6.888272   1.000000
     16         -6.749739   1.000000
     17         -5.663050   1.000000
     18         -5.489409   1.000000
     19         -5.488763   1.000000
     20         -5.091133   1.000000
     21         -4.420627   0.999999
     22         -4.347961   0.995790
     23         -1.729548   0.000000
     24         -1.584562   0.000000
     25          0.180039   0.000000
     26          0.416520   0.000000
     27          0.426937   0.000000
     28          0.721025   0.000000
     29          1.371956   0.000000
     30          1.590878   0.000000
     31          1.643332   0.000000
     32          1.696517   0.000000
     33          2.414301   0.000000
     34          2.525034   0.000000
     35          2.750784   0.000000
     36          2.903274   0.000000
     37          3.062436   0.000000
     38          3.257829   0.000000
     39          3.489543   0.000000
     40          3.573366   0.000000
     41          3.750710   0.000000
     42          4.087434   0.000000
     43          4.279286   0.000000
     44          4.282133   0.000000
     45          4.385965   0.000000
     46          4.505440   0.000000
     47          5.230240   0.000000
     48          5.342451   0.000000
 
  0.5000000E-01  0.2222222E+00  0.0000000E+00  0.4444444E-01
      1        -18.823237   1.000000
      2        -17.836047   1.000000
      3        -14.779893   1.000000
      4        -14.414648   1.000000
      5        -12.559994   1.000000
      6        -11.630585   1.000000
      7        -11.163269   1.000000
      8        -10.324509   1.000000
      9         -9.995595   1.000000
     10         -9.868249   1.000000
     11         -9.168247   1.000000
     12         -7.517803   1.000000
     13         -7.113549   1.000000
     14         -6.893347   1.000000
     15         -6.837830   1.000000
     16         -6.255702   1.000000
     17         -6.085712   1.000000
     18         -5.564810   1.000000
     19         -5.262946   1.000000
     20         -4.632206   1.000000
     21         -4.201539   0.065945
     22         -3.086257   0.000000
     23         -2.052892   0.000000
     24         -1.289705   0.000000
     25         -1.040051   0.000000
     26         -0.546363   0.000000
     27         -0.527532   0.000000
     28          0.300730   0.000000
     29          1.246472   0.000000
     30          1.594686   0.000000
     31          2.100671   0.000000
     32          2.265156   0.000000
     33          2.283612   0.000000
     34          2.623658   0.000000
     35          2.765423   0.000000
     36          2.992731   0.000000
     37          3.409738   0.000000
     38          3.452791   0.000000
     39          3.522254   0.000000
     40          3.605940   0.000000
     41          3.883699   0.000000
     42          4.061927   0.000000
     43          4.202089   0.000000
     44          4.608773   0.000000
     45          4.796144   0.000000
     46          4.815236   0.000000
     47          5.140380   0.000000
     48          5.273257   0.000000
 
  0.1500000E+00  0.2222222E+00  0.0000000E+00  0.4444444E-01
      1        -18.782634   1.000000
      2        -17.892646   1.000000
      3        -14.824376   1.000000
      4        -14.404788   1.000000
      5        -12.497390   1.000000
      6        -11.553960   1.000000
      7        -11.108226   1.000000
      8        -10.644324   1.000000
      9         -9.933706   1.000000
     10         -9.738764   1.000000
     11         -8.864416   1.000000
     12         -7.792622   1.000000
     13         -7.279365   1.000000
     14         -6.816208   1.000000
     15         -6.678855   1.000000
     16         -6.440149   1.000000
     17         -6.018293   1.000000
     18         -5.773545   1.000000
     19         -5.065328   1.000000
     20         -4.605153   1.000000
     21         -4.218379   0.151418
     22         -3.447593   0.000000
     23         -2.027464   0.000000
     24         -1.320261   0.000000
     25         -0.897456   0.000000
     26         -0.443655   0.000000
     27         -0.386824   0.000000
     28          0.551783   0.000000
     29          1.450073   0.000000
     30          1.588883   0.000000
     31          1.972116   0.000000
     32          2.114096   0.000000
     33          2.346151   0.000000
     34          2.617312   0.000000
     35          2.727528   0.000000
     36          2.978657   0.000000
     37          3.087300   0.000000
     38          3.597935   0.000000
     39          3.638656   0.000000
     40          3.902076   0.000000
     41          3.953945   0.000000
     42          4.112412   0.000000
     43          4.166650   0.000000
     44          4.527960   0.000000
     45          4.594604   0.000000
     46          4.789085   0.000000
     47          4.979842   0.000000
     48          5.118743   0.000000
 
  0.2500000E+00  0.2222222E+00  0.0000000E+00  0.4444444E-01
      1        -18.703536   1.000000
      2        -17.998202   1.000000
      3        -14.852632   1.000000
      4        -14.439761   1.000000
      5        -12.389981   1.000000
      6        -11.396994   1.000000
      7        -11.000946   1.000000
      8        -10.939512   1.000000
      9        -10.062149   1.000000
     10         -9.375355   1.000000
     11         -8.652203   1.000000
     12         -8.067875   1.000000
     13         -7.374745   1.000000
     14         -6.817805   1.000000
     15         -6.692977   1.000000
     16         -6.532316   1.000000
     17         -6.027471   1.000000
     18         -5.794321   1.000000
     19         -4.976361   1.000000
     20         -4.558391   1.000000
     21         -4.253379   0.483871
     22         -4.005970   0.000000
     23         -1.967471   0.000000
     24         -1.387980   0.000000
     25         -0.586146   0.000000
     26         -0.228312   0.000000
     27         -0.156245   0.000000
     28          0.857266   0.000000
     29          1.443443   0.000000
     30          1.761395   0.000000
     31          1.846737   0.000000
     32          2.062986   0.000000
     33          2.313835   0.000000
     34          2.640503   0.000000
     35          2.665356   0.000000
     36          2.802866   0.000000
     37          3.201809   0.000000
     38          3.458072   0.000000
     39          3.578603   0.000000
     40          3.888759   0.000000
     41          4.082941   0.000000
     42          4.105225   0.000000
     43          4.268195   0.000000
     44          4.405613   0.000000
     45          4.429984   0.000000
     46          4.628143   0.000000
     47          5.006191   0.000000
     48          5.075483   0.000000
 
  0.3500000E+00  0.2222222E+00  0.0000000E+00  0.4444444E-01
      1        -18.590421   1.000000
      2        -18.138356   1.000000
      3        -14.831275   1.000000
      4        -14.530245   1.000000
      5        -12.240038   1.000000
      6        -11.504321   1.000000
      7        -10.847508   1.000000
      8        -10.786573   1.000000
      9        -10.241505   1.000000
     10         -9.197840   1.000000
     11         -8.789253   1.000000
     12         -7.952990   1.000000
     13         -7.370788   1.000000
     14         -6.980340   1.000000
     15         -6.879726   1.000000
     16         -6.401224   1.000000
     17         -6.055472   1.000000
     18         -5.621163   1.000000
     19         -5.021701   1.000000
     20         -4.675249   1.000000
     21         -4.461420   1.000000
     22         -4.286897   0.817954
     23         -1.868242   0.000000
     24         -1.486926   0.000000
     25         -0.116360   0.000000
     26          0.084715   0.000000
     27          0.117214   0.000000
     28          0.947342   0.000000
     29          1.327142   0.000000
     30          1.684077   0.000000
     31          1.759804   0.000000
     32          2.117076   0.000000
     33          2.271748   0.000000
     34          2.465213   0.000000
     35          2.764489   0.000000
     36          3.006473   0.000000
     37          3.192184   0.000000
     38          3.291633   0.000000
     39          3.372369   0.000000
     40          3.653425   0.000000
     41          4.026366   0.000000
     42          4.101898   0.000000
     43          4.198461   0.000000
     44          4.308757   0.000000
     45          4.396533   0.000000
     46          4.845772   0.000000
     47          4.857413   0.000000
     48          5.015658   0.000000
 
  0.4500000E+00  0.2222222E+00  0.0000000E+00  0.4444444E-01
      1        -18.450650   1.000000
      2        -18.295073   1.000000
      3        -14.757851   1.000000
      4        -14.648146   1.000000
      5        -12.038170   1.000000
      6        -11.784703   1.000000
      7        -10.658216   1.000000
      8        -10.448878   1.000000
      9        -10.296643   1.000000
     10         -9.718879   1.000000
     11         -8.415431   1.000000
     12         -8.055353   1.000000
     13         -7.271328   1.000000
     14         -7.096380   1.000000
     15         -6.863096   1.000000
     16         -6.569685   1.000000
     17         -5.754782   1.000000
     18         -5.390515   1.000000
     19         -5.252859   1.000000
     20         -5.174908   1.000000
     21         -4.409073   0.999994
     22         -4.344866   0.994571
     23         -1.742016   0.000000
     24         -1.609018   0.000000
     25          0.385913   0.000000
     26          0.414353   0.000000
     27          0.418254   0.000000
     28          0.715002   0.000000
     29          1.409923   0.000000
     30          1.416636   0.000000
     31          1.541747   0.000000
     32          1.641549   0.000000
     33          2.579222   0.000000
     34          2.638811   0.000000
     35          2.827468   0.000000
     36          2.978910   0.000000
     37          3.105606   0.000000
     38          3.254876   0.000000
     39          3.353783   0.000000
     40          3.731386   0.000000
     41          3.780155   0.000000
     42          4.108533   0.000000
     43          4.149771   0.000000
     44          4.224097   0.000000
     45          4.368702   0.000000
     46          4.369697   0.000000
     47          4.952629   0.000000
     48          5.059166   0.000000
 
  0.5000000E-01  0.3333333E+00  0.0000000E+00  0.4444444E-01
      1        -18.788320   1.000000
      2        -17.894308   1.000000
      3        -14.767077   1.000000
      4        -14.307371   1.000000
      5        -12.831138   1.000000
      6        -11.815060   1.000000
      7        -11.078797   1.000000
      8        -10.038697   1.000000
      9         -9.977421   1.000000
     10         -9.584776   1.000000
     11         -8.722264   1.000000
     12         -7.690906   1.000000
     13         -7.529313   1.000000
     14         -6.998740   1.000000
     15         -6.756533   1.000000
     16         -6.573880   1.000000
     17         -6.073068   1.000000
     18         -5.806445   1.000000
     19         -5.480816   1.000000
     20         -4.595007   1.000000
     21         -4.229680   0.238626
     22         -2.621276   0.000000
     23         -1.952796   0.000000
     24         -1.397166   0.000000
     25         -0.951004   0.000000
     26         -0.769372   0.000000
     27          0.058446   0.000000
     28          0.245358   0.000000
     29          1.635318   0.000000
     30          1.707977   0.000000
     31          2.216930   0.000000
     32          2.385585   0.000000
     33          2.470286   0.000000
     34          2.578912   0.000000
     35          2.780516   0.000000
     36          2.819716   0.000000
     37          3.076357   0.000000
     38          3.108615   0.000000
     39          3.387813   0.000000
     40          3.590947   0.000000
     41          3.921796   0.000000
     42          3.929086   0.000000
     43          3.939735   0.000000
     44          4.398833   0.000000
     45          4.603556   0.000000
     46          4.775814   0.000000
     47          4.853523   0.000000
     48          5.231171   0.000000
 
  0.1500000E+00  0.3333333E+00  0.0000000E+00  0.4444444E-01
      1        -18.749337   1.000000
      2        -17.940646   1.000000
      3        -14.839576   1.000000
      4        -14.343617   1.000000
      5        -12.669213   1.000000
      6        -11.705667   1.000000
      7        -11.026860   1.000000
      8        -10.252722   1.000000