<?xml version="1.0" encoding="ISO-8859-1"?>
<modeling>
 <generator>
  <i name="program" type="string">vasp </i>
  <i name="version" type="string">6.4.3  </i>
  <i name="subversion" type="string">19Mar24 (build May 31 2024 16:31:43) complex                          parallel </i>
  <i name="platform" type="string">LinuxIFC </i>
  <i name="date" type="string">2025 02 13 </i>
  <i name="time" type="string">15:48:57 </i>
 </generator>
 <incar>
  <i type="string" name="SYSTEM">Convergence</i>
  <i type="int" name="ISTART">     0</i>
  <i type="string" name="PREC">Accurate</i>
  <i type="string" name="ALGO">Normal</i>
  <i type="int" name="ISPIN">     1</i>
  <i type="int" name="ICHARG">     2</i>
  <i type="int" name="NELM">   200</i>
  <i type="int" name="IBRION">    -1</i>
  <i name="EDIFF">      0.00000100</i>
  <i name="EDIFFG">     -0.00100000</i>
  <i type="int" name="NSW">     0</i>
  <i type="int" name="ISIF">     2</i>
  <i name="ENCUT">    600.00000000</i>
  <i name="POTIM">      0.50000000</i>
  <i type="int" name="ISMEAR">     0</i>
  <i name="SIGMA">      0.05000000</i>
  <i type="logical" name="LWAVE"> F  </i>
  <i type="logical" name="LCHARG"> F  </i>
  <i type="string" name="GGA">PE</i>
  <i type="logical" name="LDIPOL"> T  </i>
  <i type="int" name="IDIPOL">     3</i>
  <v name="DIPOL">      0.50000000      0.50000000      0.10600000</v>
 </incar>
 <primitive_cell>
  <structure name="primitive_cell" >
   <crystal>
    <varray name="basis" >
     <v>       5.70097065       0.00000000       0.00000000 </v>
     <v>       0.00000000       6.20187140       0.00000000 </v>
     <v>       0.00000000       0.00000000      19.04405832 </v>
    </varray>
    <i name="volume">    673.33480546 </i>
    <varray name="rec_basis" >
     <v>       0.17540873       0.00000000       0.00000000 </v>
     <v>       0.00000000       0.16124165       0.00000000 </v>
     <v>       0.00000000       0.00000000       0.05250982 </v>
    </varray>
   </crystal>
   <varray name="positions" >
    <v>       0.52128989       0.63795769       0.10617638 </v>
    <v>       0.47871011       0.36204231       0.10617638 </v>
    <v>       0.97871011       0.63795769       0.10617638 </v>
    <v>       0.02128989       0.36204231       0.10617638 </v>
    <v>       0.59744966       0.89986831       0.10617638 </v>
    <v>       0.40255034       0.10013168       0.10617638 </v>
    <v>       0.90255034       0.89986831       0.10617638 </v>
    <v>       0.09744966       0.10013168       0.10617638 </v>
    <v>       0.75000000       0.72957939       0.16809100 </v>
    <v>       0.25000000       0.27042061       0.04426176 </v>
    <v>       0.75000000       0.72957939       0.04426176 </v>
    <v>       0.25000000       0.27042061       0.16809100 </v>
    <v>       0.25000000       0.52399302       0.10617638 </v>
    <v>       0.75000000       0.47600695       0.10617638 </v>
   </varray>
  </structure>
  <varray name="primitive_index" >
   <v type="int" >        1 </v>
   <v type="int" >        2 </v>
   <v type="int" >        3 </v>
   <v type="int" >        4 </v>
   <v type="int" >        5 </v>
   <v type="int" >        6 </v>
   <v type="int" >        7 </v>
   <v type="int" >        8 </v>
   <v type="int" >        9 </v>
   <v type="int" >       10 </v>
   <v type="int" >       11 </v>
   <v type="int" >       12 </v>
   <v type="int" >       13 </v>
   <v type="int" >       14 </v>
  </varray>
 </primitive_cell>
 <kpoints>
  <generation param="Monkhorst-Pack">
   <v type="int" name="divisions">      10        9        1 </v>
   <v name="usershift">      0.00000000       0.00000000       0.00000000 </v>
   <v name="genvec1">      0.10000000       0.00000000       0.00000000 </v>
   <v name="genvec2">      0.00000000       0.11111111       0.00000000 </v>
   <v name="genvec3">      0.00000000       0.00000000       1.00000000 </v>
   <v name="shift">      0.50000000       0.00000000       0.00000000 </v>
  </generation>
  <varray name="kpointlist" >
   <v>       0.05000000       0.00000000       0.00000000 </v>
   <v>       0.15000000       0.00000000       0.00000000 </v>
   <v>       0.25000000       0.00000000       0.00000000 </v>
   <v>       0.35000000       0.00000000       0.00000000 </v>
   <v>       0.45000000       0.00000000       0.00000000 </v>
   <v>       0.05000000       0.11111111       0.00000000 </v>
   <v>       0.15000000       0.11111111       0.00000000 </v>
   <v>       0.25000000       0.11111111       0.00000000 </v>
   <v>       0.35000000       0.11111111       0.00000000 </v>
   <v>       0.45000000       0.11111111       0.00000000 </v>
   <v>       0.05000000       0.22222222       0.00000000 </v>
   <v>       0.15000000       0.22222222       0.00000000 </v>
   <v>       0.25000000       0.22222222       0.00000000 </v>
   <v>       0.35000000       0.22222222       0.00000000 </v>
   <v>       0.45000000       0.22222222       0.00000000 </v>
   <v>       0.05000000       0.33333333       0.00000000 </v>
   <v>       0.15000000       0.33333333       0.00000000 </v>
   <v>       0.25000000       0.33333333       0.00000000 </v>
   <v>       0.35000000       0.33333333       0.00000000 </v>
   <v>       0.45000000       0.33333333       0.00000000 </v>
   <v>       0.05000000       0.44444444       0.00000000 </v>
   <v>       0.15000000       0.44444444       0.00000000 </v>
   <v>       0.25000000       0.44444444       0.00000000 </v>
   <v>       0.35000000       0.44444444       0.00000000 </v>
   <v>       0.45000000       0.44444444       0.00000000 </v>
  </varray>
  <varray name="weights" >
   <v>       0.02222222 </v>
   <v>       0.02222222 </v>
   <v>       0.02222222 </v>
   <v>       0.02222222 </v>
   <v>       0.02222222 </v>
   <v>       0.04444444 </v>
   <v>       0.04444444 </v>
   <v>       0.04444444 </v>
   <v>       0.04444444 </v>
   <v>       0.04444444 </v>
   <v>       0.04444444 </v>
   <v>       0.04444444 </v>
   <v>       0.04444444 </v>
   <v>       0.04444444 </v>
   <v>       0.04444444 </v>
   <v>       0.04444444 </v>
   <v>       0.04444444 </v>
   <v>       0.04444444 </v>
   <v>       0.04444444 </v>
   <v>       0.04444444 </v>
   <v>       0.04444444 </v>
   <v>       0.04444444 </v>
   <v>       0.04444444 </v>
   <v>       0.04444444 </v>
   <v>       0.04444444 </v>
  </varray>
 </kpoints>
 <parameters>
  <separator name="general" >
   <i type="string" name="SYSTEM">Convergence</i>
   <i type="logical" name="LCOMPAT"> F  </i>
  </separator>
  <separator name="electronic" >
   <i type="string" name="PREC">accura</i>
   <i name="ENMAX">    600.00000000</i>
   <i name="ENAUG">    535.51400000</i>
   <i name="EDIFF">      0.00000100</i>
   <i type="int" name="IALGO">    38</i>
   <i type="int" name="IWAVPR">    10</i>
   <i type="int" name="NBANDS">    48</i>
   <i type="int" name="NBANDSLOW">    -1</i>
   <i type="int" name="NBANDSHIGH">    -1</i>
   <i name="NELECT">     42.00000000</i>
   <i type="int" name="TURBO">     0</i>
   <i type="int" name="IRESTART">     0</i>
   <i type="int" name="NREBOOT">     0</i>
   <i type="int" name="NMIN">     0</i>
   <i name="EREF">      0.00000000</i>
   <separator name="electronic smearing" >
    <i type="int" name="ISMEAR">     0</i>
    <i name="SIGMA">      0.05000000</i>
    <i name="KSPACING">      0.50000000</i>
    <i type="logical" name="KGAMMA"> T  </i>
    <i type="logical" name="KBLOWUP"> T  </i>
   </separator>
   <separator name="electronic projectors" >
    <i type="logical" name="LREAL"> F  </i>
    <v name="ROPT">      0.00000000</v>
    <i type="int" name="LMAXPAW">  -100</i>
    <i type="int" name="LMAXMIX">     2</i>
    <i type="logical" name="NLSPLINE"> F  </i>
   </separator>
   <separator name="electronic startup" >
    <i type="int" name="ISTART">     0</i>
    <i type="int" name="ICHARG">     2</i>
    <i type="int" name="INIWAV">     1</i>
   </separator>
   <separator name="electronic spin" >
    <i type="int" name="ISPIN">     1</i>
    <i type="logical" name="LNONCOLLINEAR"> F  </i>
    <v name="MAGMOM">      1.00000000      1.00000000      1.00000000      1.00000000      1.00000000      1.00000000      1.00000000      1.00000000      1.00000000      1.00000000      1.00000000      1.00000000      1.00000000      1.00000000</v>
    <i name="NUPDOWN">     -1.00000000</i>
    <i type="logical" name="LSORBIT"> F  </i>
    <v name="SAXIS">      0.00000000      0.00000000      1.00000000</v>
    <i type="logical" name="LSPIRAL"> F  </i>
    <v name="QSPIRAL">      0.00000000      0.00000000      0.00000000</v>
    <i type="logical" name="LZEROZ"> F  </i>
   </separator>
   <separator name="electronic exchange-correlation" >
    <i type="logical" name="LASPH"> F  </i>
   </separator>
   <separator name="electronic convergence" >
    <i type="int" name="NELM">   200</i>
    <i type="int" name="NELMDL">    -5</i>
    <i type="int" name="NELMIN">     2</i>
    <i name="ENINI">    600.00000000</i>
    <separator name="electronic convergence detail" >
     <i type="logical" name="LDIAG"> T  </i>
     <i type="logical" name="LSUBROT"> F  </i>
     <i name="WEIMIN">      0.00000000</i>
     <i name="EBREAK">      0.00000001</i>
     <i name="DEPER">      0.30000000</i>
     <i type="int" name="NRMM">     4</i>
     <i name="TIME">      0.40000000</i>
    </separator>
   </separator>
   <separator name="electronic mixer" >
    <i name="AMIX">      0.40000000</i>
    <i name="BMIX">      1.00000000</i>
    <i name="AMIN">      0.10000000</i>
    <i name="AMIX_MAG">      1.60000000</i>
    <i name="BMIX_MAG">      1.00000000</i>
    <separator name="electronic mixer details" >
     <i type="int" name="IMIX">     4</i>
     <i type="logical" name="MIXFIRST"> F  </i>
     <i type="int" name="MAXMIX">   -45</i>
     <i name="WC">    100.00000000</i>
     <i type="int" name="INIMIX">     1</i>
     <i type="int" name="MIXPRE">     1</i>
     <i type="int" name="MREMOVE">     5</i>
    </separator>
   </separator>
   <separator name="electronic dipolcorrection" >
    <i type="logical" name="LDIPOL"> T  </i>
    <i type="logical" name="LMONO"> F  </i>
    <i type="int" name="IDIPOL">     3</i>
    <i name="EPSILON">      1.00000000</i>
    <v name="DIPOL">      0.50000000      0.50000000      0.10600000</v>
    <i name="EFIELD">      0.00000000</i>
    <i type="logical" name="LVACPOTAV"> F  </i>
   </separator>
  </separator>
  <separator name="grids" >
   <i type="int" name="NGX">    48</i>
   <i type="int" name="NGY">    50</i>
   <i type="int" name="NGZ">   160</i>
   <i type="int" name="NGXF">    96</i>
   <i type="int" name="NGYF">   100</i>
   <i type="int" name="NGZF">   320</i>
   <i type="logical" name="ADDGRID"> F  </i>
  </separator>
  <separator name="ionic" >
   <i type="int" name="NSW">     0</i>
   <i type="int" name="IBRION">    -1</i>
   <i type="int" name="MDALGO">     0</i>
   <i type="int" name="ISIF">     2</i>
   <i name="PSTRESS">      0.00000000</i>
   <i name="EDIFFG">     -0.00100000</i>
   <i type="int" name="NFREE">     0</i>
   <i name="POTIM">      0.50000000</i>
   <i name="SMASS">     -3.00000000</i>
   <i name="SCALEE">      1.00000000</i>
  </separator>
  <separator name="ionic md" >
   <i name="TEBEG">      0.00010000</i>
   <i name="TEEND">      0.00010000</i>
   <i type="int" name="NBLOCK">     1</i>
   <i type="int" name="KBLOCK">     1</i>
   <i type="int" name="NPACO">   256</i>
   <i name="APACO">     10.00000000</i>
  </separator>
  <separator name="symmetry" >
   <i type="int" name="ISYM">     2</i>
   <i name="SYMPREC">      0.00001000</i>
  </separator>
  <separator name="dos" >
   <i type="int" name="LORBIT">     0</i>
   <v name="RWIGS">     -1.00000000</v>
   <i type="int" name="NEDOS">   301</i>
   <i name="EMIN">     10.00000000</i>
   <i name="EMAX">    -10.00000000</i>
   <i name="EFERMI">      0.00000000</i>
  </separator>
  <separator name="writing" >
   <i type="int" name="NWRITE">     2</i>
   <i type="logical" name="LWAVE"> F  </i>
   <i type="logical" name="LDOWNSAMPLE"> F  </i>
   <i type="logical" name="LCHARG"> F  </i>
   <i type="logical" name="LPARD"> F  </i>
   <i type="logical" name="LVTOT"> F  </i>
   <i type="logical" name="LVHAR"> F  </i>
   <i type="logical" name="LELF"> F  </i>
   <i type="logical" name="LOPTICS"> F  </i>
   <v name="STM">      0.00000000      0.00000000      0.00000000      0.00000000      0.00000000      0.00000000      0.00000000</v>
  </separator>
  <separator name="performance" >
   <i type="int" name="NPAR">    24</i>
   <i type="int" name="NSIM">     4</i>
   <i type="int" name="NBLK">    -1</i>
   <i type="logical" name="LPLANE"> T  </i>
   <i type="logical" name="LSCALAPACK"> T  </i>
   <i type="logical" name="LSCAAWARE"> F  </i>
   <i type="logical" name="LSCALU"> F  </i>
   <i type="logical" name="LASYNC"> F  </i>
   <i type="logical" name="LORBITALREAL"> F  </i>
  </separator>
  <separator name="miscellaneous" >
   <i type="int" name="IDIOT">     3</i>
   <i type="int" name="PHON_NSTRUCT">    -1</i>
   <i type="logical" name="LMUSIC"> F  </i>
   <v name="POMASS">     10.81100000</v>
   <v name="DARWINR">      0.00000000</v>
   <v name="DARWINV">      1.00000000</v>
   <i type="logical" name="LCORR"> T  </i>
  </separator>
  <i type="logical" name="GGA_COMPAT"> T  </i>
  <i type="logical" name="LBERRY"> F  </i>
  <i type="int" name="ICORELEVEL">     0</i>
  <i type="logical" name="LDAU"> F  </i>
  <i type="int" name="I_CONSTRAINED_M">     0</i>
  <separator name="electronic exchange-correlation" >
   <i type="string" name="GGA    ">PE</i>
   <i type="string" name="XC_C">1</i>
   <i type="int" name="VOSKOWN">     0</i>
   <i type="logical" name="LHFCALC"> F  </i>
   <i type="string" name="PRECFOCK"></i>
   <i type="logical" name="LSYMGRAD"> F  </i>
   <i type="logical" name="LHFONE"> F  </i>
   <i type="logical" name="LRHFCALC"> F  </i>
   <i type="logical" name="LTHOMAS"> F  </i>
   <i type="logical" name="LMODELHF"> F  </i>
   <i type="logical" name="LFOCKACE"> F  </i>
   <i name="ENCUT4O">     -1.00000000</i>
   <i type="int" name="EXXOEP">     0</i>
   <i type="int" name="FOURORBIT">     0</i>
   <i name="AEXX">      0.00000000</i>
   <i name="HFALPHA">      0.00000000</i>
   <i name="MCALPHA">      0.00000000</i>
   <i name="ALDAX">      1.00000000</i>
   <i name="AGGAX">      1.00000000</i>
   <i name="AMGGAX">      1.00000000</i>
   <i name="ALDAC">      1.00000000</i>
   <i name="AGGAC">      1.00000000</i>
   <i name="AMGGAC">      1.00000000</i>
   <i type="int" name="NKREDX">     1</i>
   <i type="int" name="NKREDY">     1</i>
   <i type="int" name="NKREDZ">     1</i>
   <i type="logical" name="SHIFTRED"> F  </i>
   <i type="logical" name="ODDONLY"> F  </i>
   <i type="logical" name="EVENONLY"> F  </i>
   <i type="int" name="LMAXFOCK">     0</i>
   <i type="int" name="NMAXFOCKAE">     0</i>
   <i type="logical" name="LFOCKAEDFT"> F  </i>
   <i name="HFSCREEN">      0.00000000</i>
   <i name="HFSCREENC">      0.00000000</i>
   <i type="int" name="NBANDSGWLOW">     0</i>
  </separator>
  <separator name="vdW DFT" >
   <i type="logical" name="LUSE_VDW"> F  </i>
   <i type="int" name="IVDW_NL">    -1</i>
   <i type="logical" name="LSPIN_VDW"> F  </i>
   <i name="ZAB_VDW">     -0.84910000</i>
   <i name="GAMMA_VDW">      1.39626340</i>
   <i name="ALPHA_VDW">      0.00000000</i>
   <i name="PARAM1">      0.12340000</i>
   <i name="PARAM2">      1.00000000</i>
   <i name="BPARAM">      6.30000000</i>
   <i name="CPARAM">      0.00930000</i>
  </separator>
  <separator name="model GW" >
   <i type="int" name="MODEL_GW">     0</i>
   <i name="MODEL_EPS0">     28.85720595</i>
   <i name="MODEL_ALPHA">      1.00000000</i>
  </separator>
  <separator name="linear response parameters" >
   <i type="logical" name="LEPSILON"> F  </i>
   <i type="logical" name="LRPA"> F  </i>
   <i type="logical" name="LNABLA"> F  </i>
   <i type="logical" name="LVEL"> F  </i>
   <i name="CSHIFT">      0.10000000</i>
   <i name="OMEGAMAX">     -1.00000000</i>
   <i name="DEG_THRESHOLD">      0.00200000</i>
   <i name="RTIME">     -0.10000000</i>
   <i name="WPLASMAI">      0.00000000</i>
   <v name="DFIELD">      0.00000000      0.00000000      0.00000000</v>
   <v name="WPLASMA">      0.00000000      0.00000000      0.00000000      0.00000000      0.00000000      0.00000000      0.00000000      0.00000000      0.00000000</v>
  </separator>
  <separator name="orbital magnetization" >
   <i type="logical" name="NUCIND"> F  </i>
   <v name="MAGPOS">      0.00000000      0.00000000      0.00000000</v>
   <i type="logical" name="LNICSALL"> T  </i>
   <i type="logical" name="ORBITALMAG"> F  </i>
   <i type="logical" name="LMAGBLOCH"> F  </i>
   <i type="logical" name="LCHIMAG"> F  </i>
   <i type="logical" name="LGAUGE"> T  </i>
   <i type="int" name="MAGATOM">     0</i>
   <v name="MAGDIPOL">      0.00000000      0.00000000      0.00000000</v>
   <v name="AVECCONST">      0.00000000      0.00000000      0.00000000</v>
  </separator>
  <separator name="response functions" >
   <i type="logical" name="LALL_IN_ONE"> F  </i>
   <i type="int" name="IALL_IN_ONE">    -1</i>
   <i type="int" name="NBANDS_WAVE">    -1</i>
   <i type="logical" name="LFINITE_TEMPERATURE"> F  </i>
   <i type="logical" name="LADDER"> F  </i>
   <i type="logical" name="LRPAFORCE"> F  </i>
   <i type="logical" name="LFXC"> F  </i>
   <i type="logical" name="LHARTREE"> T  </i>
   <i type="int" name="IBSE">     0</i>
   <v type="int" name="KPOINT">    -1     0     0     0</v>
   <i type="logical" name="LTCTC"> F  </i>
   <i type="logical" name="LTCTE"> F  </i>
   <i type="logical" name="LTETE"> F  </i>
   <i type="logical" name="LTRIPLET"> F  </i>
   <i type="logical" name="LFXCEPS"> F  </i>
   <i type="logical" name="LFXHEG"> F  </i>
   <i type="int" name="NATURALO">     2</i>
   <i type="logical" name="LHOLEGF"> F  </i>
   <i type="logical" name="L2ORDER"> F  </i>
   <i type="logical" name="LDMP1"> F  </i>
   <i type="logical" name="LMP2LT"> F  </i>
   <i type="logical" name="LSMP2LT"> F  </i>
   <i type="logical" name="LGWLF"> F  </i>
   <i name="ENCUTGW">     -1.60000002</i>
   <i name="ENCUTGWSOFT">     -1.60000002</i>
   <i name="ENCUTLF">     -1.00000000</i>
   <i type="logical" name="ESF_SPLINES"> F  </i>
   <i name="ESF_CONV">      0.01000000</i>
   <i type="int" name="ESF_NINTER">    15</i>
   <i type="int" name="LMAXMP2">    -1</i>
   <i name="SCISSOR">      0.00000000</i>
   <i type="int" name="NOMEGA">     0</i>
   <i type="int" name="NOMEGAR">     0</i>
   <i type="int" name="NBANDSGW">    -1</i>
   <i type="int" name="NBANDSO">    -1</i>
   <i type="int" name="NBANDSV">    -1</i>
   <i type="int" name="NELMGW">     1</i>
   <i type="int" name="NELMHF">     1</i>
   <i type="int" name="DIM">     3</i>
   <i type="int" name="IESPILON">     4</i>
   <i type="int" name="ANTIRES">     0</i>
   <i name="OMEGAMAX">    -30.00000000</i>
   <i name="OMEGAMIN">    -30.00000000</i>
   <i name="OMEGATL">   -200.00000000</i>
   <i type="int" name="OMEGAGRID">     0</i>
   <i name="CSHIFT">     -0.10000000</i>
   <i type="logical" name="LSELFENERGY"> F  </i>
   <i type="logical" name="LSPECTRAL"> F  </i>
   <i type="logical" name="LSPECTRALGW"> F  </i>
   <i type="logical" name="LSINGLES"> F  </i>
   <i type="logical" name="LFERMIGW"> F  </i>
   <i type="logical" name="ODDONLYGW"> F  </i>
   <i type="logical" name="EVENONLYGW"> F  </i>
   <i type="int" name="NKREDLFX">     1</i>
   <i type="int" name="NKREDLFY">     1</i>
   <i type="int" name="NKREDLFZ">     1</i>
   <i type="int" name="MAXMEM">  2800</i>
   <i type="int" name="TELESCOPE">     0</i>
   <i type="int" name="NTAUPAR">    -1</i>
   <i type="int" name="NOMEGAPAR">    -1</i>
   <i name="DAMP_NEWTON">      0.80000001</i>
   <i name="LAMBDA">      1.00000000</i>
  </separator>
  <separator name="External order field" >
   <i name="OFIELD_KAPPA">      0.00000000</i>
   <v name="OFIELD_K">      0.00000000      0.00000000      0.00000000</v>
   <i name="OFIELD_Q6_NEAR">      0.00000000</i>
   <i name="OFIELD_Q6_FAR">      0.00000000</i>
   <i name="OFIELD_A">      0.00000000</i>
  </separator>
  <separator name="optional k-points parameters" >
   <i type="int" name="KPOINTS_OPT_MODE">     1</i>
   <i type="logical" name="LKPOINTS_OPT"> F  </i>
  </separator>
 </parameters>
 <atominfo>
  <atoms>      14 </atoms>
  <types>       1 </types>
  <array name="atoms" >
   <dimension dim="1">ion</dimension>
   <field type="string">element</field>
   <field type="int">atomtype</field>
   <set>
    <rc><c>B </c><c>   1</c></rc>
    <rc><c>B </c><c>   1</c></rc>
    <rc><c>B </c><c>   1</c></rc>
    <rc><c>B </c><c>   1</c></rc>
    <rc><c>B </c><c>   1</c></rc>
    <rc><c>B </c><c>   1</c></rc>
    <rc><c>B </c><c>   1</c></rc>
    <rc><c>B </c><c>   1</c></rc>
    <rc><c>B </c><c>   1</c></rc>
    <rc><c>B </c><c>   1</c></rc>
    <rc><c>B </c><c>   1</c></rc>
    <rc><c>B </c><c>   1</c></rc>
    <rc><c>B </c><c>   1</c></rc>
    <rc><c>B </c><c>   1</c></rc>
   </set>
  </array>
  <array name="atomtypes" >
   <dimension dim="1">type</dimension>
   <field type="int">atomspertype</field>
   <field type="string">element</field>
   <field>mass</field>
   <field>valence</field>
   <field type="string">pseudopotential</field>
   <set>
    <rc><c>  14</c><c>B </c><c>     10.81100000</c><c>      3.00000000</c><c>  PAW_PBE B 06Sep2000                   </c></rc>
   </set>
  </array>
 </atominfo>
 <structure name="initialpos" >
  <crystal>
   <varray name="basis" >
    <v>       5.70097065       0.00000000       0.00000000 </v>
    <v>       0.00000000       6.20187140       0.00000000 </v>
    <v>       0.00000000       0.00000000      19.04405832 </v>
   </varray>
   <i name="volume">    673.33480546 </i>
   <varray name="rec_basis" >
    <v>       0.17540873       0.00000000       0.00000000 </v>
    <v>       0.00000000       0.16124165       0.00000000 </v>
    <v>       0.00000000       0.00000000       0.05250982 </v>
   </varray>
  </crystal>
  <varray name="positions" >
   <v>       0.52128989       0.63795769       0.10617638 </v>
   <v>       0.47871011       0.36204231       0.10617638 </v>
   <v>       0.97871011       0.63795769       0.10617638 </v>
   <v>       0.02128989       0.36204231       0.10617638 </v>
   <v>       0.59744966       0.89986831       0.10617638 </v>
   <v>       0.40255034       0.10013168       0.10617638 </v>
   <v>       0.90255034       0.89986831       0.10617638 </v>
   <v>       0.09744966       0.10013168       0.10617638 </v>
   <v>       0.75000000       0.72957939       0.16809100 </v>
   <v>       0.25000000       0.27042061       0.04426176 </v>
   <v>       0.75000000       0.72957939       0.04426176 </v>
   <v>       0.25000000       0.27042061       0.16809100 </v>
   <v>       0.25000000       0.52399302       0.10617638 </v>
   <v>       0.75000000       0.47600695       0.10617638 </v>
  </varray>
 </structure>
 <calculation>
  <scstep>
   <time name="dav">    5.88    6.14</time>
   <time name="total">    5.96    6.22</time>
   <dipole>
    <v name="dipole">      0.00000000       0.00000000      -0.00000025 </v>
    <i name="Tr[quadrupol]">   -255.56287817 </i>
    <i name="Echarged">      0.00000000 </i>
    <i name="Edipol_quadrupol">      0.00000000 </i>
    <i name="Eion">      0.00000000 </i>
   </dipole>
   <energy>
    <i name="alphaZ">     20.02545986 </i>
    <i name="ewald">   4458.98777818 </i>
    <i name="hartreedc">  -5105.13915239 </i>
    <i name="XCdc">     94.76465590 </i>
    <i name="pawpsdc">    608.99811708 </i>
    <i name="pawaedc">   -597.02363782 </i>
    <i name="eentropy">     -0.00528794 </i>
    <i name="bandstr">   -238.33817088 </i>
    <i name="atom">    996.37441054 </i>
    <i name="e_fr_energy">    238.64417252 </i>
    <i name="e_wo_entrp">    238.64946046 </i>
    <i name="e_0_energy">    238.64681649 </i>
   </energy>
  </scstep>
  <scstep>
   <time name="dav">    8.83    8.98</time>
   <time name="total">    8.83    8.98</time>
   <dipole>
    <v name="dipole">      0.00000000       0.00000000      -0.00000025 </v>
    <i name="Tr[quadrupol]">   -255.56287817 </i>
    <i name="Echarged">      0.00000000 </i>
    <i name="Edipol_quadrupol">      0.00000000 </i>
    <i name="Eion">      0.00000000 </i>
   </dipole>
   <energy>
    <i name="e_fr_energy">    -70.31667493 </i>
    <i name="e_wo_entrp">    -70.30746815 </i>
    <i name="e_0_energy">    -70.31207154 </i>
   </energy>
  </scstep>
  <scstep>
   <time name="dav">    7.57    7.83</time>
   <time name="total">    7.57    7.83</time>
   <dipole>
    <v name="dipole">      0.00000000       0.00000000      -0.00000025 </v>
    <i name="Tr[quadrupol]">   -255.56287817 </i>
    <i name="Echarged">      0.00000000 </i>
    <i name="Edipol_quadrupol">      0.00000000 </i>
    <i name="Eion">      0.00000000 </i>
   </dipole>
   <energy>
    <i name="e_fr_energy">    -93.84993798 </i>
    <i name="e_wo_entrp">    -93.83900877 </i>
    <i name="e_0_energy">    -93.84447338 </i>
   </energy>
  </scstep>
  <scstep>
   <time name="dav">    7.49    7.64</time>
   <time name="total">    7.49    7.64</time>
   <dipole>
    <v name="dipole">      0.00000000       0.00000000      -0.00000025 </v>
    <i name="Tr[quadrupol]">   -255.56287817 </i>
    <i name="Echarged">      0.00000000 </i>
    <i name="Edipol_quadrupol">      0.00000000 </i>
    <i name="Eion">      0.00000000 </i>
   </dipole>
   <energy>
    <i name="e_fr_energy">    -94.19892990 </i>
    <i name="e_wo_entrp">    -94.18798026 </i>
    <i name="e_0_energy">    -94.19345508 </i>
   </energy>
  </scstep>
  <scstep>
   <time name="dav">    7.66    7.78</time>
   <time name="total">    7.96    8.09</time>
   <dipole>
    <v name="dipole">      0.00000000       0.00000000      -0.00000025 </v>
    <i name="Tr[quadrupol]">   -255.56287817 </i>
    <i name="Echarged">      0.00000000 </i>
    <i name="Edipol_quadrupol">      0.00000000 </i>
    <i name="Eion">      0.00000000 </i>
   </dipole>
   <energy>
    <i name="e_fr_energy">    -94.20586365 </i>
    <i name="e_wo_entrp">    -94.19492592 </i>
    <i name="e_0_energy">    -94.20039479 </i>
   </energy>
  </scstep>
  <scstep>
   <time name="dav">    7.48    7.63</time>
   <time name="total">    7.84    8.00</time>
   <dipole>
    <v name="dipole">      0.00000000       0.00000000       0.00421463 </v>
    <i name="Tr[quadrupol]">   -256.94144431 </i>
    <i name="Echarged">      0.00000000 </i>
    <i name="Edipol_quadrupol">      0.00000000 </i>
    <i name="Eion">      0.00000000 </i>
   </dipole>
   <energy>
    <i name="e_fr_energy">    -85.73475001 </i>
    <i name="e_wo_entrp">    -85.71878531 </i>
    <i name="e_0_energy">    -85.72676766 </i>
   </energy>
  </scstep>
  <scstep>
   <time name="dav">    7.54    7.72</time>
   <time name="total">    7.90    8.08</time>
   <dipole>
    <v name="dipole">      0.00000000       0.00000000       0.00692051 </v>
    <i name="Tr[quadrupol]">   -257.96749529 </i>
    <i name="Echarged">      0.00000000 </i>
    <i name="Edipol_quadrupol">      0.00000000 </i>
    <i name="Eion">      0.00000000 </i>
   </dipole>
   <energy>
    <i name="e_fr_energy">    -84.34204337 </i>
    <i name="e_wo_entrp">    -84.32435099 </i>
    <i name="e_0_energy">    -84.33319718 </i>
   </energy>
  </scstep>
  <scstep>
   <time name="dav">    7.31    7.44</time>
   <time name="total">    7.67    7.81</time>
   <dipole>
    <v name="dipole">      0.00000000       0.00000000       0.00697880 </v>
    <i name="Tr[quadrupol]">   -258.43295884 </i>
    <i name="Echarged">      0.00000000 </i>
    <i name="Edipol_quadrupol">      0.00000000 </i>
    <i name="Eion">      0.00000000 </i>
   </dipole>
   <energy>
    <i name="e_fr_energy">    -84.26267730 </i>
    <i name="e_wo_entrp">    -84.24914459 </i>
    <i name="e_0_energy">    -84.25591095 </i>
   </energy>
  </scstep>
  <scstep>
   <time name="dav">    7.12    7.28</time>
   <time name="total">    7.47    7.64</time>
   <dipole>
    <v name="dipole">      0.00000000       0.00000000       0.00733222 </v>
    <i name="Tr[quadrupol]">   -258.66839193 </i>
    <i name="Echarged">      0.00000000 </i>
    <i name="Edipol_quadrupol">      0.00000000 </i>
    <i name="Eion">      0.00000000 </i>
   </dipole>
   <energy>
    <i name="e_fr_energy">    -84.10961523 </i>
    <i name="e_wo_entrp">    -84.09257221 </i>
    <i name="e_0_energy">    -84.10109372 </i>
   </energy>
  </scstep>
  <scstep>
   <time name="dav">    7.42    7.55</time>
   <time name="total">    7.77    7.91</time>
   <dipole>
    <v name="dipole">      0.00000000       0.00000000       0.00685701 </v>
    <i name="Tr[quadrupol]">   -259.04248782 </i>
    <i name="Echarged">      0.00000000 </i>
    <i name="Edipol_quadrupol">      0.00000000 </i>
    <i name="Eion">      0.00000000 </i>
   </dipole>
   <energy>
    <i name="e_fr_energy">    -84.10177498 </i>
    <i name="e_wo_entrp">    -84.08502435 </i>
    <i name="e_0_energy">    -84.09339967 </i>
   </energy>
  </scstep>
  <scstep>
   <time name="dav">    7.23    7.35</time>
   <time name="total">    7.58    7.71</time>
   <dipole>
    <v name="dipole">      0.00000000       0.00000000       0.00591741 </v>
    <i name="Tr[quadrupol]">   -259.22534070 </i>
    <i name="Echarged">      0.00000000 </i>
    <i name="Edipol_quadrupol">      0.00000000 </i>
    <i name="Eion">      0.00000000 </i>
   </dipole>
   <energy>
    <i name="e_fr_energy">    -84.09723417 </i>
    <i name="e_wo_entrp">    -84.08013978 </i>
    <i name="e_0_energy">    -84.08868697 </i>
   </energy>
  </scstep>
  <scstep>
   <time name="dav">    7.54    7.67</time>
   <time name="total">    7.89    8.04</time>
   <dipole>
    <v name="dipole">      0.00000000       0.00000000       0.00444793 </v>
    <i name="Tr[quadrupol]">   -259.53987945 </i>
    <i name="Echarged">      0.00000000 </i>
    <i name="Edipol_quadrupol">      0.00000000 </i>
    <i name="Eion">      0.00000000 </i>
   </dipole>
   <energy>
    <i name="e_fr_energy">    -84.09573262 </i>
    <i name="e_wo_entrp">    -84.07911257 </i>
    <i name="e_0_energy">    -84.08742259 </i>
   </energy>
  </scstep>
  <scstep>
   <time name="dav">    7.10    7.30</time>
   <time name="total">    7.46    7.66</time>
   <dipole>
    <v name="dipole">      0.00000000       0.00000000       0.00276489 </v>
    <i name="Tr[quadrupol]">   -259.79346760 </i>
    <i name="Echarged">      0.00000000 </i>
    <i name="Edipol_quadrupol">      0.00000000 </i>
    <i name="Eion">      0.00000000 </i>
   </dipole>
   <energy>
    <i name="e_fr_energy">    -84.09831564 </i>
    <i name="e_wo_entrp">    -84.08223386 </i>
    <i name="e_0_energy">    -84.09027475 </i>
   </energy>
  </scstep>
  <scstep>
   <time name="dav">    6.53    6.65</time>
   <time name="total">    6.89    7.03</time>
   <dipole>
    <v name="dipole">      0.00000000       0.00000000       0.00107123 </v>
    <i name="Tr[quadrupol]">   -259.94779998 </i>
    <i name="Echarged">      0.00000000 </i>
    <i name="Edipol_quadrupol">      0.00000000 </i>
    <i name="Eion">      0.00000000 </i>
   </dipole>
   <energy>
    <i name="e_fr_energy">    -84.10078247 </i>
    <i name="e_wo_entrp">    -84.08469980 </i>
    <i name="e_0_energy">    -84.09274114 </i>
   </energy>
  </scstep>
  <scstep>
   <time name="dav">    6.57    6.66</time>
   <time name="total">    6.92    7.02</time>
   <dipole>
    <v name="dipole">      0.00000000       0.00000000       0.00029218 </v>
    <i name="Tr[quadrupol]">   -260.02783941 </i>
    <i name="Echarged">      0.00000000 </i>
    <i name="Edipol_quadrupol">      0.00000000 </i>
    <i name="Eion">      0.00000000 </i>
   </dipole>
   <energy>
    <i name="e_fr_energy">    -84.10183772 </i>
    <i name="e_wo_entrp">    -84.08579231 </i>
    <i name="e_0_energy">    -84.09381501 </i>
   </energy>
  </scstep>
  <scstep>
   <time name="dav">    6.20    6.29</time>
   <time name="total">    6.56    6.66</time>
   <dipole>
    <v name="dipole">      0.00000000       0.00000000      -0.00034259 </v>
    <i name="Tr[quadrupol]">   -260.09438309 </i>
    <i name="Echarged">      0.00000000 </i>
    <i name="Edipol_quadrupol">      0.00000000 </i>
    <i name="Eion">      0.00000000 </i>
   </dipole>
   <energy>
    <i name="e_fr_energy">    -84.10257665 </i>
    <i name="e_wo_entrp">    -84.08654327 </i>
    <i name="e_0_energy">    -84.09455996 </i>
   </energy>
  </scstep>
  <scstep>
   <time name="dav">    6.82    6.98</time>
   <time name="total">    7.18    7.34</time>
   <dipole>
    <v name="dipole">      0.00000000       0.00000000      -0.00046060 </v>
    <i name="Tr[quadrupol]">   -260.13617201 </i>
    <i name="Echarged">      0.00000000 </i>
    <i name="Edipol_quadrupol">      0.00000000 </i>
    <i name="Eion">      0.00000000 </i>
   </dipole>
   <energy>
    <i name="e_fr_energy">    -84.10295747 </i>
    <i name="e_wo_entrp">    -84.08692872 </i>
    <i name="e_0_energy">    -84.09494309 </i>
   </energy>
  </scstep>
  <scstep>
   <time name="dav">    6.73    6.88</time>
   <time name="total">    7.09    7.24</time>
   <dipole>
    <v name="dipole">      0.00000000       0.00000000      -0.00045962 </v>
    <i name="Tr[quadrupol]">   -260.16169692 </i>
    <i name="Echarged">      0.00000000 </i>
    <i name="Edipol_quadrupol">      0.00000000 </i>
    <i name="Eion">      0.00000000 </i>
   </dipole>
   <energy>
    <i name="e_fr_energy">    -84.10310437 </i>
    <i name="e_wo_entrp">    -84.08707593 </i>
    <i name="e_0_energy">    -84.09509015 </i>
   </energy>
  </scstep>
  <scstep>
   <time name="dav">    7.21    7.32</time>
   <time name="total">    7.57    7.68</time>
   <dipole>
    <v name="dipole">      0.00000000       0.00000000      -0.00032185 </v>
    <i name="Tr[quadrupol]">   -260.19638438 </i>
    <i name="Echarged">      0.00000000 </i>
    <i name="Edipol_quadrupol">      0.00000000 </i>
    <i name="Eion">      0.00000000 </i>
   </dipole>
   <energy>
    <i name="e_fr_energy">    -84.10326292 </i>
    <i name="e_wo_entrp">    -84.08723488 </i>
    <i name="e_0_energy">    -84.09524890 </i>
   </energy>
  </scstep>
  <scstep>
   <time name="dav">    6.98    7.10</time>
   <time name="total">    7.33    7.46</time>
   <dipole>
    <v name="dipole">      0.00000000       0.00000000      -0.00013823 </v>
    <i name="Tr[quadrupol]">   -260.21497876 </i>
    <i name="Echarged">      0.00000000 </i>
    <i name="Edipol_quadrupol">      0.00000000 </i>
    <i name="Eion">      0.00000000 </i>
   </dipole>
   <energy>
    <i name="e_fr_energy">    -84.10334141 </i>
    <i name="e_wo_entrp">    -84.08731549 </i>
    <i name="e_0_energy">    -84.09532845 </i>
   </energy>
  </scstep>
  <scstep>
   <time name="dav">    7.01    7.20</time>
   <time name="total">    7.37    7.57</time>
   <dipole>
    <v name="dipole">      0.00000000       0.00000000      -0.00006485 </v>
    <i name="Tr[quadrupol]">   -260.22059320 </i>
    <i name="Echarged">      0.00000000 </i>
    <i name="Edipol_quadrupol">      0.00000000 </i>
    <i name="Eion">      0.00000000 </i>
   </dipole>
   <energy>
    <i name="e_fr_energy">    -84.10335976 </i>
    <i name="e_wo_entrp">    -84.08733320 </i>
    <i name="e_0_energy">    -84.09534648 </i>
   </energy>
  </scstep>
  <scstep>
   <time name="dav">    6.51    6.62</time>
   <time name="total">    6.86    6.98</time>
   <dipole>
    <v name="dipole">      0.00000000       0.00000000      -0.00001857 </v>
    <i name="Tr[quadrupol]">   -260.22226374 </i>
    <i name="Echarged">      0.00000000 </i>
    <i name="Edipol_quadrupol">      0.00000000 </i>
    <i name="Eion">      0.00000000 </i>
   </dipole>
   <energy>
    <i name="e_fr_energy">    -84.10336757 </i>
    <i name="e_wo_entrp">    -84.08734079 </i>
    <i name="e_0_energy">    -84.09535418 </i>
   </energy>
  </scstep>
  <scstep>
   <time name="dav">    6.94    7.10</time>
   <time name="total">    7.30    7.46</time>
   <dipole>
    <v name="dipole">      0.00000000       0.00000000      -0.00000683 </v>
    <i name="Tr[quadrupol]">   -260.22279518 </i>
    <i name="Echarged">      0.00000000 </i>
    <i name="Edipol_quadrupol">      0.00000000 </i>
    <i name="Eion">      0.00000000 </i>
   </dipole>
   <energy>
    <i name="e_fr_energy">    -84.10336903 </i>
    <i name="e_wo_entrp">    -84.08734249 </i>
    <i name="e_0_energy">    -84.09535576 </i>
   </energy>
  </scstep>
  <scstep>
   <time name="dav">    5.37    5.46</time>
   <time name="total">    5.45    5.54</time>
   <dipole>
    <v name="dipole">      0.00000000       0.00000000      -0.00000208 </v>
    <i name="Tr[quadrupol]">   -260.22287376 </i>
    <i name="Echarged">      0.00000000 </i>
    <i name="Edipol_quadrupol">      0.00000000 </i>
    <i name="Eion">      0.00000000 </i>
   </dipole>
   <energy>
    <i name="alphaZ">     20.02546107 </i>
    <i name="ewald">   4458.98777818 </i>
    <i name="hartreedc">  -5267.02974212 </i>
    <i name="XCdc">     98.83515350 </i>
    <i name="pawpsdc">   3416.33888519 </i>
    <i name="pawaedc">  -3405.39881883 </i>
    <i name="eentropy">     -0.01602648 </i>
    <i name="bandstr">   -402.22047049 </i>
    <i name="atom">    996.37441054 </i>
    <i name="e_fr_energy">    -84.10336944 </i>
    <i name="e_wo_entrp">    -84.08734296 </i>
    <i name="e_0_energy">    -84.09535620 </i>
   </energy>
  </scstep>
  <structure>
   <crystal>
    <varray name="basis" >
     <v>       5.70097065       0.00000000       0.00000000 </v>
     <v>       0.00000000       6.20187140       0.00000000 </v>
     <v>       0.00000000       0.00000000      19.04405832 </v>
    </varray>
    <i name="volume">    673.33480546 </i>
    <varray name="rec_basis" >
     <v>       0.17540873       0.00000000       0.00000000 </v>
     <v>       0.00000000       0.16124165       0.00000000 </v>
     <v>       0.00000000       0.00000000       0.05250982 </v>
    </varray>
   </crystal>
   <varray name="positions" >
    <v>       0.52128989       0.63795769       0.10617638 </v>
    <v>       0.47871011       0.36204231       0.10617638 </v>
    <v>       0.97871011       0.63795769       0.10617638 </v>
    <v>       0.02128989       0.36204231       0.10617638 </v>
    <v>       0.59744966       0.89986831       0.10617638 </v>
    <v>       0.40255034       0.10013168       0.10617638 </v>
    <v>       0.90255034       0.89986831       0.10617638 </v>
    <v>       0.09744966       0.10013168       0.10617638 </v>
    <v>       0.75000000       0.72957939       0.16809100 </v>
    <v>       0.25000000       0.27042061       0.04426176 </v>
    <v>       0.75000000       0.72957939       0.04426176 </v>
    <v>       0.25000000       0.27042061       0.16809100 </v>
    <v>       0.25000000       0.52399302       0.10617638 </v>
    <v>       0.75000000       0.47600695       0.10617638 </v>
   </varray>
  </structure>
  <varray name="forces" >
   <v>      -0.03179354       0.03919951       0.00000000 </v>
   <v>       0.03179354      -0.03919951       0.00000000 </v>
   <v>       0.03179354       0.03919951       0.00000000 </v>
   <v>      -0.03179354      -0.03919951       0.00000000 </v>
   <v>      -0.17899884       0.19737570       0.00000000 </v>
   <v>       0.17899884      -0.19737570       0.00000000 </v>
   <v>       0.17899884       0.19737570       0.00000000 </v>
   <v>      -0.17899884      -0.19737570       0.00000000 </v>
   <v>       0.00000000      -0.18408044      -2.79695837 </v>
   <v>       0.00000000       0.18408044       2.79695837 </v>
   <v>       0.00000000      -0.18408044       2.79695837 </v>
   <v>       0.00000000       0.18408044      -2.79695837 </v>
   <v>       0.00000000      -0.10954502       0.00000000 </v>
   <v>       0.00000000       0.10954502       0.00000000 </v>
  </varray>
  <varray name="stress" >
   <v>       5.47216222      -0.00000000       0.00000000 </v>
   <v>       0.00000000       5.81404122       0.00000000 </v>
   <v>       0.00000000       0.00000000     -31.59165484 </v>
  </varray>
  <energy>
   <i name="e_fr_energy">    -84.10336944 </i>
   <i name="e_wo_entrp">    -84.08734296 </i>
   <i name="e_0_energy">    -84.09535620 </i>
  </energy>
  <time name="totalsc">  180.79  184.46</time>
  <eigenvalues>
   <array>
    <dimension dim="1">band</dimension>
    <dimension dim="2">kpoint</dimension>
    <dimension dim="3">spin</dimension>
    <field>eigene</field>
    <field>occ</field>
    <set>
     <set comment="spin 1">
      <set comment="kpoint 1">
       <r>  -18.8615    1.0000 </r>
       <r>  -17.7684    1.0000 </r>
       <r>  -14.7893    1.0000 </r>
       <r>  -14.5311    1.0000 </r>
       <r>  -12.1433    1.0000 </r>
       <r>  -11.2667    1.0000 </r>
       <r>  -11.2463    1.0000 </r>
       <r>  -10.8606    1.0000 </r>
       <r>  -10.4571    1.0000 </r>
       <r>   -9.6652    1.0000 </r>
       <r>   -9.6095    1.0000 </r>
       <r>   -7.3225    1.0000 </r>
       <r>   -7.1766    1.0000 </r>
       <r>   -7.1610    1.0000 </r>
       <r>   -6.1900    1.0000 </r>
       <r>   -6.1295    1.0000 </r>
       <r>   -5.5404    1.0000 </r>
       <r>   -5.2080    1.0000 </r>
       <r>   -5.1284    1.0000 </r>
       <r>   -4.6390    1.0000 </r>
       <r>   -4.2061    0.0840 </r>
       <r>   -3.9147    0.0000 </r>
       <r>   -2.1447    0.0000 </r>
       <r>   -1.1993    0.0000 </r>
       <r>   -1.1805    0.0000 </r>
       <r>   -1.0405    0.0000 </r>
       <r>   -0.0224    0.0000 </r>
       <r>    0.3369    0.0000 </r>
       <r>    0.8605    0.0000 </r>
       <r>    1.4560    0.0000 </r>
       <r>    1.5349    0.0000 </r>
       <r>    2.0632    0.0000 </r>
       <r>    2.3429    0.0000 </r>
       <r>    2.4899    0.0000 </r>
       <r>    2.6979    0.0000 </r>
       <r>    3.0848    0.0000 </r>
       <r>    3.2042    0.0000 </r>
       <r>    3.2247    0.0000 </r>
       <r>    3.7568    0.0000 </r>
       <r>    4.2786    0.0000 </r>
       <r>    4.3846    0.0000 </r>
       <r>    4.6882    0.0000 </r>
       <r>    4.7062    0.0000 </r>
       <r>    4.7858    0.0000 </r>
       <r>    4.9442    0.0000 </r>
       <r>    5.1900    0.0000 </r>
       <r>    5.4335    0.0000 </r>
       <r>    5.4559    0.0000 </r>
      </set>
      <set comment="kpoint 2">
       <r>  -18.8192    1.0000 </r>
       <r>  -17.8380    1.0000 </r>
       <r>  -14.7689    1.0000 </r>
       <r>  -14.5215    1.0000 </r>
       <r>  -12.0749    1.0000 </r>
       <r>  -11.6170    1.0000 </r>
       <r>  -11.1884    1.0000 </r>
       <r>  -10.9750    1.0000 </r>
       <r>   -9.9905    1.0000 </r>
       <r>   -9.7759    1.0000 </r>
       <r>   -9.2785    1.0000 </r>
       <r>   -7.6185    1.0000 </r>
       <r>   -7.1308    1.0000 </r>
       <r>   -7.1065    1.0000 </r>
       <r>   -6.3313    1.0000 </r>
       <r>   -6.0837    1.0000 </r>
       <r>   -5.6537    1.0000 </r>
       <r>   -5.2967    1.0000 </r>
       <r>   -5.2315    1.0000 </r>
       <r>   -4.6156    1.0000 </r>
       <r>   -4.2151    0.1308 </r>
       <r>   -4.0570    0.0000 </r>
       <r>   -2.0927    0.0000 </r>
       <r>   -1.2456    0.0000 </r>
       <r>   -1.0856    0.0000 </r>
       <r>   -0.6946    0.0000 </r>
       <r>   -0.0653    0.0000 </r>
       <r>    0.4517    0.0000 </r>
       <r>    1.0088    0.0000 </r>
       <r>    1.4289    0.0000 </r>
       <r>    1.5982    0.0000 </r>
       <r>    2.1436    0.0000 </r>
       <r>    2.2540    0.0000 </r>
       <r>    2.4223    0.0000 </r>
       <r>    2.8843    0.0000 </r>
       <r>    3.2607    0.0000 </r>
       <r>    3.3551    0.0000 </r>
       <r>    3.3592    0.0000 </r>
       <r>    3.7514    0.0000 </r>
       <r>    3.9420    0.0000 </r>
       <r>    4.2604    0.0000 </r>
       <r>    4.3655    0.0000 </r>
       <r>    4.3792    0.0000 </r>
       <r>    4.6538    0.0000 </r>
       <r>    4.7778    0.0000 </r>
       <r>    5.0314    0.0000 </r>
       <r>    5.2225    0.0000 </r>
       <r>    5.3753    0.0000 </r>
      </set>
      <set comment="kpoint 3">
       <r>  -18.7365    1.0000 </r>
       <r>  -17.9640    1.0000 </r>
       <r>  -14.7262    1.0000 </r>
       <r>  -14.5105    1.0000 </r>
       <r>  -12.0612    1.0000 </r>
       <r>  -11.9410    1.0000 </r>
       <r>  -11.0749    1.0000 </r>
       <r>  -10.9218    1.0000 </r>
       <r>   -9.9701    1.0000 </r>
       <r>   -9.4443    1.0000 </r>
       <r>   -8.8045    1.0000 </r>
       <r>   -8.1119    1.0000 </r>
       <r>   -7.0467    1.0000 </r>
       <r>   -7.0138    1.0000 </r>
       <r>   -6.5910    1.0000 </r>
       <r>   -6.1119    1.0000 </r>
       <r>   -5.7641    1.0000 </r>
       <r>   -5.4452    1.0000 </r>
       <r>   -5.4038    1.0000 </r>
       <r>   -4.5690    1.0000 </r>
       <r>   -4.3279    0.9806 </r>
       <r>   -4.2356    0.2936 </r>
       <r>   -1.9973    0.0000 </r>
       <r>   -1.3251    0.0000 </r>
       <r>   -0.7564    0.0000 </r>
       <r>   -0.2060    0.0000 </r>
       <r>   -0.0856    0.0000 </r>
       <r>    0.5292    0.0000 </r>
       <r>    1.2537    0.0000 </r>
       <r>    1.4336    0.0000 </r>
       <r>    1.7624    0.0000 </r>
       <r>    2.0473    0.0000 </r>
       <r>    2.2726    0.0000 </r>
       <r>    2.5667    0.0000 </r>
       <r>    3.1022    0.0000 </r>
       <r>    3.2404    0.0000 </r>
       <r>    3.3913    0.0000 </r>
       <r>    3.4410    0.0000 </r>
       <r>    3.5513    0.0000 </r>
       <r>    3.6906    0.0000 </r>
       <r>    3.7865    0.0000 </r>
       <r>    4.1027    0.0000 </r>
       <r>    4.2686    0.0000 </r>
       <r>    4.4500    0.0000 </r>
       <r>    4.7866    0.0000 </r>
       <r>    4.8392    0.0000 </r>
       <r>    5.0661    0.0000 </r>
       <r>    5.2624    0.0000 </r>
      </set>
      <set comment="kpoint 4">
       <r>  -18.6174    1.0000 </r>
       <r>  -18.1252    1.0000 </r>
       <r>  -14.6643    1.0000 </r>
       <r>  -14.5125    1.0000 </r>
       <r>  -12.1664    1.0000 </r>
       <r>  -12.1567    1.0000 </r>
       <r>  -10.9103    1.0000 </r>
       <r>  -10.5872    1.0000 </r>
       <r>  -10.2105    1.0000 </r>
       <r>   -9.0395    1.0000 </r>
       <r>   -8.5596    1.0000 </r>
       <r>   -8.3094    1.0000 </r>
       <r>   -6.9433    1.0000 </r>
       <r>   -6.9194    1.0000 </r>
       <r>   -6.9121    1.0000 </r>
       <r>   -6.4333    1.0000 </r>
       <r>   -5.6272    1.0000 </r>
       <r>   -5.6051    1.0000 </r>
       <r>   -5.5874    1.0000 </r>
       <r>   -4.6714    1.0000 </r>
       <r>   -4.5030    1.0000 </r>
       <r>   -4.2834    0.7910 </r>
       <r>   -1.8706    0.0000 </r>
       <r>   -1.4392    0.0000 </r>
       <r>   -0.2257    0.0000 </r>
       <r>   -0.0333    0.0000 </r>
       <r>    0.3798    0.0000 </r>
       <r>    0.4469    0.0000 </r>
       <r>    1.4206    0.0000 </r>
       <r>    1.5420    0.0000 </r>
       <r>    1.8951    0.0000 </r>
       <r>    2.0130    0.0000 </r>
       <r>    2.3324    0.0000 </r>
       <r>    2.4893    0.0000 </r>
       <r>    2.7573    0.0000 </r>
       <r>    3.0407    0.0000 </r>
       <r>    3.2701    0.0000 </r>
       <r>    3.3098    0.0000 </r>
       <r>    3.4183    0.0000 </r>
       <r>    3.5152    0.0000 </r>
       <r>    3.8918    0.0000 </r>
       <r>    4.1483    0.0000 </r>
       <r>    4.1899    0.0000 </r>
       <r>    4.4839    0.0000 </r>
       <r>    4.6729    0.0000 </r>
       <r>    4.7832    0.0000 </r>
       <r>    4.8545    0.0000 </r>
       <r>    5.0369    0.0000 </r>
      </set>
      <set comment="kpoint 5">
       <r>  -18.4684    1.0000 </r>
       <r>  -18.2996    1.0000 </r>
       <r>  -14.5961    1.0000 </r>
       <r>  -14.5408    1.0000 </r>
       <r>  -12.2699    1.0000 </r>
       <r>  -12.2545    1.0000 </r>
       <r>  -10.7024    1.0000 </r>
       <r>  -10.4631    1.0000 </r>
       <r>  -10.0714    1.0000 </r>
       <r>   -9.4764    1.0000 </r>
       <r>   -8.2466    1.0000 </r>
       <r>   -8.0051    1.0000 </r>
       <r>   -7.1269    1.0000 </r>
       <r>   -6.8605    1.0000 </r>
       <r>   -6.8595    1.0000 </r>
       <r>   -6.8460    1.0000 </r>
       <r>   -5.7144    1.0000 </r>
       <r>   -5.7108    1.0000 </r>
       <r>   -5.3646    1.0000 </r>
       <r>   -5.0345    1.0000 </r>
       <r>   -4.4261    1.0000 </r>
       <r>   -4.3492    0.9962 </r>
       <r>   -1.7259    0.0000 </r>
       <r>   -1.5773    0.0000 </r>
       <r>    0.0951    0.0000 </r>
       <r>    0.2722    0.0000 </r>
       <r>    0.4365    0.0000 </r>
       <r>    1.0314    0.0000 </r>
       <r>    1.0994    0.0000 </r>
       <r>    1.6737    0.0000 </r>
       <r>    1.7346    0.0000 </r>
       <r>    1.7828    0.0000 </r>
       <r>    2.3378    0.0000 </r>
       <r>    2.4832    0.0000 </r>
       <r>    2.7069    0.0000 </r>
       <r>    2.8585    0.0000 </r>
       <r>    2.9781    0.0000 </r>
       <r>    3.2278    0.0000 </r>
       <r>    3.5001    0.0000 </r>
       <r>    3.6241    0.0000 </r>
       <r>    3.7946    0.0000 </r>
       <r>    3.9823    0.0000 </r>
       <r>    4.3354    0.0000 </r>
       <r>    4.5007    0.0000 </r>
       <r>    4.5243    0.0000 </r>
       <r>    4.5690    0.0000 </r>
       <r>    5.3425    0.0000 </r>
       <r>    5.4469    0.0000 </r>
      </set>
      <set comment="kpoint 6">
       <r>  -18.8511    1.0000 </r>
       <r>  -17.7872    1.0000 </r>
       <r>  -14.7876    1.0000 </r>
       <r>  -14.4990    1.0000 </r>
       <r>  -12.2800    1.0000 </r>
       <r>  -11.4050    1.0000 </r>
       <r>  -11.2245    1.0000 </r>
       <r>  -10.6781    1.0000 </r>
       <r>  -10.3135    1.0000 </r>
       <r>   -9.7230    1.0000 </r>
       <r>   -9.4923    1.0000 </r>
       <r>   -7.3762    1.0000 </r>
       <r>   -7.1812    1.0000 </r>
       <r>   -7.0520    1.0000 </r>
       <r>   -6.3517    1.0000 </r>
       <r>   -6.1681    1.0000 </r>
       <r>   -5.7670    1.0000 </r>
       <r>   -5.3299    1.0000 </r>
       <r>   -5.1415    1.0000 </r>
       <r>   -4.6473    1.0000 </r>
       <r>   -4.1946    0.0442 </r>
       <r>   -3.6252    0.0000 </r>
       <r>   -2.1211    0.0000 </r>
       <r>   -1.2142    0.0000 </r>
       <r>   -1.1255    0.0000 </r>
       <r>   -0.9368    0.0000 </r>
       <r>   -0.2066    0.0000 </r>
       <r>    0.3343    0.0000 </r>
       <r>    0.9645    0.0000 </r>
       <r>    1.4970    0.0000 </r>
       <r>    1.7295    0.0000 </r>
       <r>    2.1136    0.0000 </r>
       <r>    2.3413    0.0000 </r>
       <r>    2.5286    0.0000 </r>
       <r>    2.7231    0.0000 </r>
       <r>    2.9639    0.0000 </r>
       <r>    3.2689    0.0000 </r>
       <r>    3.3832    0.0000 </r>
       <r>    3.7801    0.0000 </r>
       <r>    4.1228    0.0000 </r>
       <r>    4.2099    0.0000 </r>
       <r>    4.4336    0.0000 </r>
       <r>    4.4750    0.0000 </r>
       <r>    4.5950    0.0000 </r>
       <r>    4.9167    0.0000 </r>
       <r>    5.0630    0.0000 </r>
       <r>    5.2398    0.0000 </r>
       <r>    5.5102    0.0000 </r>
      </set>
      <set comment="kpoint 7">
       <r>  -18.8093    1.0000 </r>
       <r>  -17.8531    1.0000 </r>
       <r>  -14.7917    1.0000 </r>
       <r>  -14.4810    1.0000 </r>
       <r>  -12.2511    1.0000 </r>
       <r>  -11.5111    1.0000 </r>
       <r>  -11.1673    1.0000 </r>
       <r>  -10.9246    1.0000 </r>
       <r>   -9.9302    1.0000 </r>
       <r>   -9.8194    1.0000 </r>
       <r>   -9.1522    1.0000 </r>
       <r>   -7.6685    1.0000 </r>
       <r>   -7.2482    1.0000 </r>
       <r>   -6.9092    1.0000 </r>
       <r>   -6.4125    1.0000 </r>
       <r>   -6.1903    1.0000 </r>
       <r>   -5.8418    1.0000 </r>
       <r>   -5.5227    1.0000 </r>
       <r>   -5.0926    1.0000 </r>
       <r>   -4.6202    1.0000 </r>
       <r>   -4.2089    0.0968 </r>
       <r>   -3.8290    0.0000 </r>
       <r>   -2.0782    0.0000 </r>
       <r>   -1.2592    0.0000 </r>
       <r>   -1.0250    0.0000 </r>
       <r>   -0.6519    0.0000 </r>
       <r>   -0.2162    0.0000 </r>
       <r>    0.5232    0.0000 </r>
       <r>    1.1315    0.0000 </r>
       <r>    1.4970    0.0000 </r>
       <r>    1.6935    0.0000 </r>
       <r>    2.1952    0.0000 </r>
       <r>    2.2111    0.0000 </r>
       <r>    2.4779    0.0000 </r>
       <r>    2.7830    0.0000 </r>
       <r>    3.1632    0.0000 </r>
       <r>    3.4641    0.0000 </r>
       <r>    3.6191    0.0000 </r>
       <r>    3.6222    0.0000 </r>
       <r>    3.8336    0.0000 </r>
       <r>    4.0465    0.0000 </r>
       <r>    4.2603    0.0000 </r>
       <r>    4.4212    0.0000 </r>
       <r>    4.5749    0.0000 </r>
       <r>    4.6688    0.0000 </r>
       <r>    4.8442    0.0000 </r>
       <r>    5.2672    0.0000 </r>
       <r>    5.2777    0.0000 </r>
      </set>
      <set comment="kpoint 8">
       <r>  -18.7275    1.0000 </r>
       <r>  -17.9733    1.0000 </r>
       <r>  -14.7756    1.0000 </r>
       <r>  -14.4746    1.0000 </r>
       <r>  -12.2658    1.0000 </r>
       <r>  -11.6524    1.0000 </r>
       <r>  -11.0554    1.0000 </r>
       <r>  -10.9578    1.0000 </r>
       <r>   -9.9943    1.0000 </r>
       <r>   -9.4475    1.0000 </r>
       <r>   -8.7080    1.0000 </r>
       <r>   -8.1322    1.0000 </r>
       <r>   -7.2432    1.0000 </r>
       <r>   -6.7972    1.0000 </r>
       <r>   -6.6656    1.0000 </r>
       <r>   -6.0798    1.0000 </r>
       <r>   -6.0091    1.0000 </r>
       <r>   -5.6954    1.0000 </r>
       <r>   -5.1515    1.0000 </r>
       <r>   -4.5724    1.0000 </r>
       <r>   -4.2398    0.3358 </r>
       <r>   -4.1875    0.0284 </r>
       <r>   -1.9919    0.0000 </r>
       <r>   -1.3397    0.0000 </r>
       <r>   -0.7081    0.0000 </r>
       <r>   -0.2367    0.0000 </r>
       <r>   -0.1597    0.0000 </r>
       <r>    0.6899    0.0000 </r>
       <r>    1.4073    0.0000 </r>
       <r>    1.4272    0.0000 </r>
       <r>    1.7909    0.0000 </r>
       <r>    2.0257    0.0000 </r>
       <r>    2.3186    0.0000 </r>
       <r>    2.6266    0.0000 </r>
       <r>    2.9314    0.0000 </r>
       <r>    3.0160    0.0000 </r>
       <r>    3.2024    0.0000 </r>
       <r>    3.5308    0.0000 </r>
       <r>    3.7381    0.0000 </r>
       <r>    3.7761    0.0000 </r>
       <r>    3.8564    0.0000 </r>
       <r>    4.0896    0.0000 </r>
       <r>    4.3274    0.0000 </r>
       <r>    4.4522    0.0000 </r>
       <r>    4.4828    0.0000 </r>
       <r>    4.8705    0.0000 </r>
       <r>    5.0886    0.0000 </r>
       <r>    5.1207    0.0000 </r>
      </set>
      <set comment="kpoint 9">
       <r>  -18.6100    1.0000 </r>
       <r>  -18.1287    1.0000 </r>
       <r>  -14.7264    1.0000 </r>
       <r>  -14.5026    1.0000 </r>
       <r>  -12.2880    1.0000 </r>
       <r>  -11.8811    1.0000 </r>
       <r>  -10.8936    1.0000 </r>
       <r>  -10.6387    1.0000 </r>
       <r>  -10.2180    1.0000 </r>
       <r>   -9.0810    1.0000 </r>
       <r>   -8.6693    1.0000 </r>
       <r>   -8.1566    1.0000 </r>
       <r>   -7.1669    1.0000 </r>
       <r>   -6.9717    1.0000 </r>
       <r>   -6.7852    1.0000 </r>
       <r>   -6.3578    1.0000 </r>
       <r>   -5.8112    1.0000 </r>
       <r>   -5.7528    1.0000 </r>
       <r>   -5.2996    1.0000 </r>
       <r>   -4.6535    1.0000 </r>
       <r>   -4.4850    1.0000 </r>
       <r>   -4.2849    0.8028 </r>
       <r>   -1.8707    0.0000 </r>
       <r>   -1.4505    0.0000 </r>
       <r>   -0.1967    0.0000 </r>
       <r>   -0.0222    0.0000 </r>
       <r>    0.2590    0.0000 </r>
       <r>    0.6305    0.0000 </r>
       <r>    1.4741    0.0000 </r>
       <r>    1.6061    0.0000 </r>
       <r>    1.7935    0.0000 </r>
       <r>    2.1129    0.0000 </r>
       <r>    2.2885    0.0000 </r>
       <r>    2.3936    0.0000 </r>
       <r>    2.8065    0.0000 </r>
       <r>    3.0856    0.0000 </r>
       <r>    3.1601    0.0000 </r>
       <r>    3.2809    0.0000 </r>
       <r>    3.3258    0.0000 </r>
       <r>    3.5994    0.0000 </r>
       <r>    3.9098    0.0000 </r>
       <r>    4.1727    0.0000 </r>
       <r>    4.3088    0.0000 </r>
       <r>    4.4028    0.0000 </r>
       <r>    4.7048    0.0000 </r>
       <r>    4.7276    0.0000 </r>
       <r>    4.8197    0.0000 </r>
       <r>    5.1718    0.0000 </r>
      </set>
      <set comment="kpoint 10">
       <r>  -18.4635    1.0000 </r>
       <r>  -18.2983    1.0000 </r>
       <r>  -14.6502    1.0000 </r>
       <r>  -14.5671    1.0000 </r>
       <r>  -12.2384    1.0000 </r>
       <r>  -12.0962    1.0000 </r>
       <r>  -10.6904    1.0000 </r>
       <r>  -10.4588    1.0000 </r>
       <r>  -10.1265    1.0000 </r>
       <r>   -9.5355    1.0000 </r>
       <r>   -8.3251    1.0000 </r>
       <r>   -8.0075    1.0000 </r>
       <r>   -7.0651    1.0000 </r>
       <r>   -7.0368    1.0000 </r>
       <r>   -6.8883    1.0000 </r>
       <r>   -6.7497    1.0000 </r>
       <r>   -5.6631    1.0000 </r>
       <r>   -5.4894    1.0000 </r>
       <r>   -5.4888    1.0000 </r>
       <r>   -5.0911    1.0000 </r>
       <r>   -4.4206    1.0000 </r>
       <r>   -4.3480    0.9958 </r>
       <r>   -1.7295    0.0000 </r>
       <r>   -1.5846    0.0000 </r>
       <r>    0.1800    0.0000 </r>
       <r>    0.4165    0.0000 </r>
       <r>    0.4269    0.0000 </r>
       <r>    0.7210    0.0000 </r>
       <r>    1.3720    0.0000 </r>
       <r>    1.5909    0.0000 </r>
       <r>    1.6433    0.0000 </r>
       <r>    1.6965    0.0000 </r>
       <r>    2.4143    0.0000 </r>
       <r>    2.5250    0.0000 </r>
       <r>    2.7508    0.0000 </r>
       <r>    2.9033    0.0000 </r>
       <r>    3.0624    0.0000 </r>
       <r>    3.2578    0.0000 </r>
       <r>    3.4895    0.0000 </r>
       <r>    3.5734    0.0000 </r>
       <r>    3.7507    0.0000 </r>
       <r>    4.0874    0.0000 </r>
       <r>    4.2793    0.0000 </r>
       <r>    4.2821    0.0000 </r>
       <r>    4.3860    0.0000 </r>
       <r>    4.5054    0.0000 </r>
       <r>    5.2302    0.0000 </r>
       <r>    5.3425    0.0000 </r>
      </set>
      <set comment="kpoint 11">
       <r>  -18.8232    1.0000 </r>
       <r>  -17.8360    1.0000 </r>
       <r>  -14.7799    1.0000 </r>
       <r>  -14.4146    1.0000 </r>
       <r>  -12.5600    1.0000 </r>
       <r>  -11.6306    1.0000 </r>
       <r>  -11.1633    1.0000 </r>
       <r>  -10.3245    1.0000 </r>
       <r>   -9.9956    1.0000 </r>
       <r>   -9.8682    1.0000 </r>
       <r>   -9.1682    1.0000 </r>
       <r>   -7.5178    1.0000 </r>
       <r>   -7.1135    1.0000 </r>
       <r>   -6.8933    1.0000 </r>
       <r>   -6.8378    1.0000 </r>
       <r>   -6.2557    1.0000 </r>
       <r>   -6.0857    1.0000 </r>
       <r>   -5.5648    1.0000 </r>
       <r>   -5.2629    1.0000 </r>
       <r>   -4.6322    1.0000 </r>
       <r>   -4.2015    0.0659 </r>
       <r>   -3.0863    0.0000 </r>
       <r>   -2.0529    0.0000 </r>
       <r>   -1.2897    0.0000 </r>
       <r>   -1.0401    0.0000 </r>
       <r>   -0.5464    0.0000 </r>
       <r>   -0.5275    0.0000 </r>
       <r>    0.3007    0.0000 </r>
       <r>    1.2465    0.0000 </r>
       <r>    1.5947    0.0000 </r>
       <r>    2.1007    0.0000 </r>
       <r>    2.2652    0.0000 </r>
       <r>    2.2836    0.0000 </r>
       <r>    2.6237    0.0000 </r>
       <r>    2.7654    0.0000 </r>
       <r>    2.9927    0.0000 </r>
       <r>    3.4097    0.0000 </r>
       <r>    3.4528    0.0000 </r>
       <r>    3.5223    0.0000 </r>
       <r>    3.6059    0.0000 </r>
       <r>    3.8837    0.0000 </r>
       <r>    4.0619    0.0000 </r>
       <r>    4.2021    0.0000 </r>
       <r>    4.6088    0.0000 </r>
       <r>    4.7961    0.0000 </r>
       <r>    4.8152    0.0000 </r>
       <r>    5.1404    0.0000 </r>
       <r>    5.2733    0.0000 </r>
      </set>
      <set comment="kpoint 12">
       <r>  -18.7826    1.0000 </r>
       <r>  -17.8926    1.0000 </r>
       <r>  -14.8244    1.0000 </r>
       <r>  -14.4048    1.0000 </r>
       <r>  -12.4974    1.0000 </r>
       <r>  -11.5540    1.0000 </r>
       <r>  -11.1082    1.0000 </r>
       <r>  -10.6443    1.0000 </r>
       <r>   -9.9337    1.0000 </r>
       <r>   -9.7388    1.0000 </r>
       <r>   -8.8644    1.0000 </r>
       <r>   -7.7926    1.0000 </r>
       <r>   -7.2794    1.0000 </r>
       <r>   -6.8162    1.0000 </r>
       <r>   -6.6789    1.0000 </r>
       <r>   -6.4401    1.0000 </r>
       <r>   -6.0183    1.0000 </r>
       <r>   -5.7735    1.0000 </r>
       <r>   -5.0653    1.0000 </r>
       <r>   -4.6052    1.0000 </r>
       <r>   -4.2184    0.1514 </r>
       <r>   -3.4476    0.0000 </r>
       <r>   -2.0275    0.0000 </r>
       <r>   -1.3203    0.0000 </r>
       <r>   -0.8975    0.0000 </r>
       <r>   -0.4437    0.0000 </r>
       <r>   -0.3868    0.0000 </r>
       <r>    0.5518    0.0000 </r>
       <r>    1.4501    0.0000 </r>
       <r>    1.5889    0.0000 </r>
       <r>    1.9721    0.0000 </r>
       <r>    2.1141    0.0000 </r>
       <r>    2.3462    0.0000 </r>
       <r>    2.6173    0.0000 </r>
       <r>    2.7275    0.0000 </r>
       <r>    2.9787    0.0000 </r>
       <r>    3.0873    0.0000 </r>
       <r>    3.5979    0.0000 </r>
       <r>    3.6387    0.0000 </r>
       <r>    3.9021    0.0000 </r>
       <r>    3.9539    0.0000 </r>
       <r>    4.1124    0.0000 </r>
       <r>    4.1666    0.0000 </r>
       <r>    4.5280    0.0000 </r>
       <r>    4.5946    0.0000 </r>
       <r>    4.7891    0.0000 </r>
       <r>    4.9798    0.0000 </r>
       <r>    5.1187    0.0000 </r>
      </set>
      <set comment="kpoint 13">
       <r>  -18.7035    1.0000 </r>
       <r>  -17.9982    1.0000 </r>
       <r>  -14.8526    1.0000 </r>
       <r>  -14.4398    1.0000 </r>
       <r>  -12.3900    1.0000 </r>
       <r>  -11.3970    1.0000 </r>
       <r>  -11.0009    1.0000 </r>
       <r>  -10.9395    1.0000 </r>
       <r>  -10.0621    1.0000 </r>
       <r>   -9.3754    1.0000 </r>
       <r>   -8.6522    1.0000 </r>
       <r>   -8.0679    1.0000 </r>
       <r>   -7.3747    1.0000 </r>
       <r>   -6.8178    1.0000 </r>
       <r>   -6.6930    1.0000 </r>
       <r>   -6.5323    1.0000 </r>
       <r>   -6.0275    1.0000 </r>
       <r>   -5.7943    1.0000 </r>
       <r>   -4.9764    1.0000 </r>
       <r>   -4.5584    1.0000 </r>
       <r>   -4.2534    0.4839 </r>
       <r>   -4.0060    0.0000 </r>
       <r>   -1.9675    0.0000 </r>
       <r>   -1.3880    0.0000 </r>
       <r>   -0.5861    0.0000 </r>
       <r>   -0.2283    0.0000 </r>
       <r>   -0.1562    0.0000 </r>
       <r>    0.8573    0.0000 </r>
       <r>    1.4434    0.0000 </r>
       <r>    1.7614    0.0000 </r>
       <r>    1.8467    0.0000 </r>
       <r>    2.0630    0.0000 </r>
       <r>    2.3138    0.0000 </r>
       <r>    2.6405    0.0000 </r>
       <r>    2.6654    0.0000 </r>
       <r>    2.8029    0.0000 </r>
       <r>    3.2018    0.0000 </r>
       <r>    3.4581    0.0000 </r>
       <r>    3.5786    0.0000 </r>
       <r>    3.8888    0.0000 </r>
       <r>    4.0829    0.0000 </r>
       <r>    4.1052    0.0000 </r>
       <r>    4.2682    0.0000 </r>
       <r>    4.4056    0.0000 </r>
       <r>    4.4300    0.0000 </r>
       <r>    4.6281    0.0000 </r>
       <r>    5.0062    0.0000 </r>
       <r>    5.0755    0.0000 </r>
      </set>
      <set comment="kpoint 14">
       <r>  -18.5904    1.0000 </r>
       <r>  -18.1384    1.0000 </r>
       <r>  -14.8313    1.0000 </r>
       <r>  -14.5302    1.0000 </r>
       <r>  -12.2400    1.0000 </r>
       <r>  -11.5043    1.0000 </r>
       <r>  -10.8475    1.0000 </r>
       <r>  -10.7866    1.0000 </r>
       <r>  -10.2415    1.0000 </r>
       <r>   -9.1978    1.0000 </r>
       <r>   -8.7893    1.0000 </r>
       <r>   -7.9530    1.0000 </r>
       <r>   -7.3708    1.0000 </r>
       <r>   -6.9803    1.0000 </r>
       <r>   -6.8797    1.0000 </r>
       <r>   -6.4012    1.0000 </r>
       <r>   -6.0555    1.0000 </r>
       <r>   -5.6212    1.0000 </r>
       <r>   -5.0217    1.0000 </r>
       <r>   -4.6752    1.0000 </r>
       <r>   -4.4614    1.0000 </r>
       <r>   -4.2869    0.8180 </r>
       <r>   -1.8682    0.0000 </r>
       <r>   -1.4869    0.0000 </r>
       <r>   -0.1164    0.0000 </r>
       <r>    0.0847    0.0000 </r>
       <r>    0.1172    0.0000 </r>
       <r>    0.9473    0.0000 </r>
       <r>    1.3271    0.0000 </r>
       <r>    1.6841    0.0000 </r>
       <r>    1.7598    0.0000 </r>
       <r>    2.1171    0.0000 </r>
       <r>    2.2717    0.0000 </r>
       <r>    2.4652    0.0000 </r>
       <r>    2.7645    0.0000 </r>
       <r>    3.0065    0.0000 </r>
       <r>    3.1922    0.0000 </r>
       <r>    3.2916    0.0000 </r>
       <r>    3.3724    0.0000 </r>
       <r>    3.6534    0.0000 </r>
       <r>    4.0264    0.0000 </r>
       <r>    4.1019    0.0000 </r>
       <r>    4.1985    0.0000 </r>
       <r>    4.3088    0.0000 </r>
       <r>    4.3965    0.0000 </r>
       <r>    4.8458    0.0000 </r>
       <r>    4.8574    0.0000 </r>
       <r>    5.0157    0.0000 </r>
      </set>
      <set comment="kpoint 15">
       <r>  -18.4506    1.0000 </r>
       <r>  -18.2951    1.0000 </r>
       <r>  -14.7579    1.0000 </r>
       <r>  -14.6481    1.0000 </r>
       <r>  -12.0382    1.0000 </r>
       <r>  -11.7847    1.0000 </r>
       <r>  -10.6582    1.0000 </r>
       <r>  -10.4489    1.0000 </r>
       <r>  -10.2966    1.0000 </r>
       <r>   -9.7189    1.0000 </r>
       <r>   -8.4154    1.0000 </r>
       <r>   -8.0554    1.0000 </r>
       <r>   -7.2713    1.0000 </r>
       <r>   -7.0964    1.0000 </r>
       <r>   -6.8631    1.0000 </r>
       <r>   -6.5697    1.0000 </r>
       <r>   -5.7548    1.0000 </r>
       <r>   -5.3905    1.0000 </r>
       <r>   -5.2529    1.0000 </r>
       <r>   -5.1749    1.0000 </r>
       <r>   -4.4091    1.0000 </r>
       <r>   -4.3449    0.9946 </r>
       <r>   -1.7420    0.0000 </r>
       <r>   -1.6090    0.0000 </r>
       <r>    0.3859    0.0000 </r>
       <r>    0.4144    0.0000 </r>
       <r>    0.4183    0.0000 </r>
       <r>    0.7150    0.0000 </r>
       <r>    1.4099    0.0000 </r>
       <r>    1.4166    0.0000 </r>
       <r>    1.5417    0.0000 </r>
       <r>    1.6415    0.0000 </r>
       <r>    2.5792    0.0000 </r>
       <r>    2.6388    0.0000 </r>
       <r>    2.8275    0.0000 </r>
       <r>    2.9789    0.0000 </r>
       <r>    3.1056    0.0000 </r>
       <r>    3.2549    0.0000 </r>
       <r>    3.3538    0.0000 </r>
       <r>    3.7314    0.0000 </r>
       <r>    3.7802    0.0000 </r>
       <r>    4.1085    0.0000 </r>
       <r>    4.1498    0.0000 </r>
       <r>    4.2241    0.0000 </r>
       <r>    4.3687    0.0000 </r>
       <r>    4.3697    0.0000 </r>
       <r>    4.9526    0.0000 </r>
       <r>    5.0592    0.0000 </r>
      </set>
      <set comment="kpoint 16">
       <r>  -18.7883    1.0000 </r>
       <r>  -17.8943    1.0000 </r>
       <r>  -14.7671    1.0000 </r>
       <r>  -14.3074    1.0000 </r>
       <r>  -12.8311    1.0000 </r>
       <r>  -11.8151    1.0000 </r>
       <r>  -11.0788    1.0000 </r>
       <r>  -10.0387    1.0000 </r>
       <r>   -9.9774    1.0000 </r>
       <r>   -9.5848    1.0000 </r>
       <r>   -8.7223    1.0000 </r>
       <r>   -7.6909    1.0000 </r>
       <r>   -7.5293    1.0000 </r>
       <r>   -6.9987    1.0000 </r>
       <r>   -6.7565    1.0000 </r>
       <r>   -6.5739    1.0000 </r>
       <r>   -6.0731    1.0000 </r>
       <r>   -5.8064    1.0000 </r>
       <r>   -5.4808    1.0000 </r>
       <r>   -4.5950    1.0000 </r>
       <r>   -4.2297    0.2386 </r>
       <r>   -2.6213    0.0000 </r>
       <r>   -1.9528    0.0000 </r>
       <r>   -1.3972    0.0000 </r>
       <r>   -0.9510    0.0000 </r>
       <r>   -0.7694    0.0000 </r>
       <r>    0.0584    0.0000 </r>
       <r>    0.2454    0.0000 </r>
       <r>    1.6353    0.0000 </r>
       <r>    1.7080    0.0000 </r>
       <r>    2.2169    0.0000 </r>
       <r>    2.3856    0.0000 </r>
       <r>    2.4703    0.0000 </r>
       <r>    2.5789    0.0000 </r>
       <r>    2.7805    0.0000 </r>
       <r>    2.8197    0.0000 </r>
       <r>    3.0764    0.0000 </r>
       <r>    3.1086    0.0000 </r>
       <r>    3.3878    0.0000 </r>
       <r>    3.5909    0.0000 </r>
       <r>    3.9218    0.0000 </r>
       <r>    3.9291    0.0000 </r>
       <r>    3.9397    0.0000 </r>
       <r>    4.3988    0.0000 </r>
       <r>    4.6036    0.0000 </r>
       <r>    4.7758    0.0000 </r>
       <r>    4.8535    0.0000 </r>
       <r>    5.2312    0.0000 </r>
      </set>
      <set comment="kpoint 17">
       <r>  -18.7493    1.0000 </r>
       <r>  -17.9406    1.0000 </r>
       <r>  -14.8396    1.0000 </r>
       <r>  -14.3436    1.0000 </r>
       <r>  -12.6692    1.0000 </r>
       <r>  -11.7057    1.0000 </r>
       <r>  -11.0269    1.0000 </r>
       <r>  -10.2527    1.0000 </r>
       <r>  -10.0750    1.0000 </r>
       <r>   -9.4272    1.0000 </r>
       <r>   -8.6350    1.0000 </r>
       <r>   -7.8497    1.0000 </r>
       <r>   -7.4059    1.0000 </r>
       <r>   -7.2254    1.0000 </r>
       <r>   -6.7611    1.0000 </r>
       <r>   -6.5718    1.0000 </r>
       <r>   -6.0765    1.0000 </r>
       <r>   -5.8539    1.0000 </r>
       <r>   -5.1826    1.0000 </r>
       <r>   -4.5721    1.0000 </r>
       <r>   -4.2430    0.3693 </r>
       <r>   -3.1942    0.0000 </r>
       <r>   -1.9405    0.0000 </r>
       <r>   -1.4171    0.0000 </r>
       <r>   -0.7984    0.0000 </r>
       <r>   -0.3838    0.0000 </r>
       <r>    0.0015    0.0000 </r>
       <r>    0.4950    0.0000 </r>
       <r>    1.6222    0.0000 </r>
       <r>    1.8526    0.0000 </r>
       <r>    2.0985    0.0000 </r>
       <r>    2.1483    0.0000 </r>
       <r>    2.2621    0.0000 </r>
       <r>    2.6615    0.0000 </r>
       <r>    2.6780    0.0000 </r>
       <r>    2.9010    0.0000 </r>
       <r>    3.0431    0.0000 </r>
       <r>    3.1626    0.0000 </r>
       <r>    3.4783    0.0000 </r>
       <r>    3.8257    0.0000 </r>
       <r>    3.8906    0.0000 </r>
       <r>    4.0479    0.0000 </r>
       <r>    4.2790    0.0000 </r>
       <r>    4.3945    0.0000 </r>
       <r>    4.4721    0.0000 </r>
       <r>    4.7535    0.0000 </r>
       <r>    4.7568    0.0000 </r>
       <r>    5.1470    0.0000 </r>
      </set>
      <set comment="kpoint 18">
       <r>  -18.6737    1.0000 </r>
       <r>  -18.0294    1.0000 </r>
       <r>  -14.9051    1.0000 </r>
       <r>  -14.4472    1.0000 </r>
       <r>  -12.3867    1.0000 </r>
       <r>  -11.4829    1.0000 </r>
       <r>  -10.9266    1.0000 </r>
       <r>  -10.6064    1.0000 </r>
       <r>  -10.1540    1.0000 </r>
       <r>   -9.2056    1.0000 </r>
       <r>   -8.8398    1.0000 </r>
       <r>   -7.8180    1.0000 </r>
       <r>   -7.4099    1.0000 </r>
       <r>   -7.1644    1.0000 </r>
       <r>   -6.8576    1.0000 </r>
       <r>   -6.8112    1.0000 </r>
       <r>   -6.0418    1.0000 </r>
       <r>   -5.6195    1.0000 </r>
       <r>   -4.9558    1.0000 </r>
       <r>   -4.5311    1.0000 </r>
       <r>   -4.2772    0.7365 </r>
       <r>   -3.9368    0.0000 </r>
       <r>   -1.9107    0.0000 </r>
       <r>   -1.4673    0.0000 </r>
       <r>   -0.4916    0.0000 </r>
       <r>   -0.0068    0.0000 </r>
       <r>    0.0292    0.0000 </r>
       <r>    0.8371    0.0000 </r>
       <r>    1.4143    0.0000 </r>
       <r>    1.6925    0.0000 </r>
       <r>    1.9210    0.0000 </r>
       <r>    2.1943    0.0000 </r>
       <r>    2.2950    0.0000 </r>
       <r>    2.4869    0.0000 </r>
       <r>    2.8780    0.0000 </r>
       <r>    3.0336    0.0000 </r>
       <r>    3.1991    0.0000 </r>
       <r>    3.2157    0.0000 </r>
       <r>    3.4836    0.0000 </r>
       <r>    3.5888    0.0000 </r>
       <r>    4.1074    0.0000 </r>
       <r>    4.1529    0.0000 </r>
       <r>    4.1737    0.0000 </r>
       <r>    4.1933    0.0000 </r>
       <r>    4.5011    0.0000 </r>
       <r>    4.7390    0.0000 </r>
       <r>    4.8456    0.0000 </r>
       <r>    4.8843    0.0000 </r>
      </set>
      <set comment="kpoint 19">
       <r>  -18.5663    1.0000 </r>
       <r>  -18.1513    1.0000 </r>
       <r>  -14.9146    1.0000 </r>
       <r>  -14.5945    1.0000 </r>
       <r>  -12.0557    1.0000 </r>
       <r>  -11.2025    1.0000 </r>
       <r>  -10.8921    1.0000 </r>
       <r>  -10.7857    1.0000 </r>
       <r>  -10.2790    1.0000 </r>
       <r>   -9.4596    1.0000 </r>
       <r>   -8.7659    1.0000 </r>
       <r>   -7.8401    1.0000 </r>
       <r>   -7.4897    1.0000 </r>
       <r>   -7.0843    1.0000 </r>
       <r>   -6.8594    1.0000 </r>
       <r>   -6.7789    1.0000 </r>
       <r>   -6.0375    1.0000 </r>
       <r>   -5.3326    1.0000 </r>
       <r>   -4.8608    1.0000 </r>
       <r>   -4.7535    1.0000 </r>
       <r>   -4.4544    1.0000 </r>
       <r>   -4.2863    0.8135 </r>
       <r>   -1.8517    0.0000 </r>
       <r>   -1.5487    0.0000 </r>
       <r>   -0.0845    0.0000 </r>
       <r>    0.1063    0.0000 </r>
       <r>    0.3766    0.0000 </r>
       <r>    1.0829    0.0000 </r>
       <r>    1.1830    0.0000 </r>
       <r>    1.3273    0.0000 </r>
       <r>    1.6714    0.0000 </r>
       <r>    2.4408    0.0000 </r>
       <r>    2.4993    0.0000 </r>
       <r>    2.5702    0.0000 </r>
       <r>    2.5719    0.0000 </r>
       <r>    3.0952    0.0000 </r>
       <r>    3.1820    0.0000 </r>
       <r>    3.3348    0.0000 </r>
       <r>    3.5632    0.0000 </r>
       <r>    3.7299    0.0000 </r>
       <r>    3.7857    0.0000 </r>
       <r>    3.9974    0.0000 </r>
       <r>    4.0593    0.0000 </r>
       <r>    4.3078    0.0000 </r>
       <r>    4.3451    0.0000 </r>
       <r>    4.5924    0.0000 </r>
       <r>    4.8288    0.0000 </r>
       <r>    4.9619    0.0000 </r>
      </set>
      <set comment="kpoint 20">
       <r>  -18.4353    1.0000 </r>
       <r>  -18.2920    1.0000 </r>
       <r>  -14.8570    1.0000 </r>
       <r>  -14.7426    1.0000 </r>
       <r>  -11.7217    1.0000 </r>
       <r>  -11.3928    1.0000 </r>
       <r>  -10.6172    1.0000 </r>
       <r>  -10.5701    1.0000 </r>
       <r>  -10.4405    1.0000 </r>
       <r>  -10.0204    1.0000 </r>
       <r>   -8.4289    1.0000 </r>
       <r>   -8.0920    1.0000 </r>
       <r>   -7.4523    1.0000 </r>
       <r>   -7.3093    1.0000 </r>
       <r>   -6.6255    1.0000 </r>
       <r>   -6.5119    1.0000 </r>
       <r>   -5.9523    1.0000 </r>
       <r>   -5.4462    1.0000 </r>
       <r>   -5.0818    1.0000 </r>
       <r>   -4.9112    1.0000 </r>
       <r>   -4.3986    1.0000 </r>
       <r>   -4.3405    0.9923 </r>
       <r>   -1.7605    0.0000 </r>
       <r>   -1.6522    0.0000 </r>
       <r>    0.2057    0.0000 </r>
       <r>    0.3096    0.0000 </r>
       <r>    0.6739    0.0000 </r>
       <r>    0.9345    0.0000 </r>
       <r>    1.2511    0.0000 </r>
       <r>    1.2621    0.0000 </r>
       <r>    1.4258    0.0000 </r>
       <r>    1.7807    0.0000 </r>
       <r>    2.7704    0.0000 </r>
       <r>    2.7835    0.0000 </r>
       <r>    2.8209    0.0000 </r>
       <r>    3.0178    0.0000 </r>
       <r>    3.0346    0.0000 </r>
       <r>    3.2783    0.0000 </r>
       <r>    3.5828    0.0000 </r>
       <r>    3.8715    0.0000 </r>
       <r>    3.9186    0.0000 </r>
       <r>    3.9455    0.0000 </r>
       <r>    4.0824    0.0000 </r>
       <r>    4.1173    0.0000 </r>
       <r>    4.2363    0.0000 </r>
       <r>    4.6186    0.0000 </r>
       <r>    4.6789    0.0000 </r>
       <r>    4.9046    0.0000 </r>
      </set>
      <set comment="kpoint 21">
       <r>  -18.7632    1.0000 </r>
       <r>  -17.9344    1.0000 </r>
       <r>  -14.7570    1.0000 </r>
       <r>  -14.2249    1.0000 </r>
       <r>  -13.0021    1.0000 </r>
       <r>  -11.9159    1.0000 </r>
       <r>  -11.0093    1.0000 </r>
       <r>  -10.1599    1.0000 </r>
       <r>   -9.7559    1.0000 </r>
       <r>   -9.1453    1.0000 </r>
       <r>   -8.4300    1.0000 </r>
       <r>   -7.9522    1.0000 </r>
       <r>   -7.7503    1.0000 </r>
       <r>   -7.3044    1.0000 </r>
       <r>   -6.8923    1.0000 </r>
       <r>   -6.3675    1.0000 </r>
       <r>   -6.0520    1.0000 </r>
       <r>   -5.9117    1.0000 </r>
       <r>   -5.7390    1.0000 </r>
       <r>   -4.5606    1.0000 </r>
       <r>   -4.2593    0.5509 </r>
       <r>   -2.3697    0.0000 </r>
       <r>   -1.8583    0.0000 </r>
       <r>   -1.4961    0.0000 </r>
       <r>   -0.8858    0.0000 </r>
       <r>   -0.8717    0.0000 </r>
       <r>    0.1972    0.0000 </r>
       <r>    0.7896    0.0000 </r>
       <r>    1.6617    0.0000 </r>
       <r>    1.7572    0.0000 </r>
       <r>    2.0470    0.0000 </r>
       <r>    2.2714    0.0000 </r>
       <r>    2.5410    0.0000 </r>
       <r>    2.5679    0.0000 </r>
       <r>    2.7686    0.0000 </r>
       <r>    2.8550    0.0000 </r>
       <r>    2.9119    0.0000 </r>
       <r>    3.1402    0.0000 </r>
       <r>    3.2270    0.0000 </r>
       <r>    3.6469    0.0000 </r>
       <r>    3.6661    0.0000 </r>
       <r>    3.8065    0.0000 </r>
       <r>    3.8575    0.0000 </r>
       <r>    4.4770    0.0000 </r>
       <r>    4.5152    0.0000 </r>
       <r>    4.6055    0.0000 </r>
       <r>    4.7871    0.0000 </r>
       <r>    5.5034    0.0000 </r>
      </set>
      <set comment="kpoint 22">
       <r>  -18.7254    1.0000 </r>
       <r>  -17.9742    1.0000 </r>
       <r>  -14.8413    1.0000 </r>
       <r>  -14.3149    1.0000 </r>
       <r>  -12.7486    1.0000 </r>
       <r>  -11.8130    1.0000 </r>
       <r>  -10.9601    1.0000 </r>
       <r>  -10.1794    1.0000 </r>
       <r>   -9.9545    1.0000 </r>
       <r>   -9.0683    1.0000 </r>
       <r>   -8.6957    1.0000 </r>
       <r>   -7.9036    1.0000 </r>
       <r>   -7.5902    1.0000 </r>
       <r>   -7.1459    1.0000 </r>
       <r>   -7.1375    1.0000 </r>
       <r>   -6.6476    1.0000 </r>
       <r>   -6.0930    1.0000 </r>
       <r>   -5.6731    1.0000 </r>
       <r>   -5.4031    1.0000 </r>
       <r>   -4.5419    1.0000 </r>
       <r>   -4.2681    0.6465 </r>
       <r>   -3.0974    0.0000 </r>
       <r>   -1.8526    0.0000 </r>
       <r>   -1.5092    0.0000 </r>
       <r>   -0.7381    0.0000 </r>
       <r>   -0.2715    0.0000 </r>
       <r>    0.4013    0.0000 </r>
       <r>    0.6047    0.0000 </r>
       <r>    1.3805    0.0000 </r>
       <r>    1.6022    0.0000 </r>
       <r>    2.1771    0.0000 </r>
       <r>    2.2800    0.0000 </r>
       <r>    2.5114    0.0000 </r>
       <r>    2.6770    0.0000 </r>
       <r>    2.7343    0.0000 </r>
       <r>    2.8320    0.0000 </r>
       <r>    2.9947    0.0000 </r>
       <r>    3.1025    0.0000 </r>
       <r>    3.3229    0.0000 </r>
       <r>    3.7218    0.0000 </r>
       <r>    3.7808    0.0000 </r>
       <r>    3.9108    0.0000 </r>
       <r>    4.1748    0.0000 </r>
       <r>    4.3779    0.0000 </r>
       <r>    4.4086    0.0000 </r>
       <r>    4.5139    0.0000 </r>
       <r>    4.7840    0.0000 </r>
       <r>    5.2273    0.0000 </r>
      </set>
      <set comment="kpoint 23">
       <r>  -18.6524    1.0000 </r>
       <r>  -18.0518    1.0000 </r>
       <r>  -14.9273    1.0000 </r>
       <r>  -14.4696    1.0000 </r>
       <r>  -12.3247    1.0000 </r>
       <r>  -11.6261    1.0000 </r>
       <r>  -10.8660    1.0000 </r>
       <r>  -10.2573    1.0000 </r>
       <r>  -10.2271    1.0000 </r>
       <r>   -9.2261    1.0000 </r>
[...]
       <r>   -8.6675    1.0000 </r>
       <r>   -7.8021    1.0000 </r>
       <r>   -7.5219    1.0000 </r>
       <r>   -7.2406    1.0000 </r>
       <r>   -7.0982    1.0000 </r>
       <r>   -6.6860    1.0000 </r>
       <r>   -6.0382    1.0000 </r>
       <r>   -5.0516    1.0000 </r>
       <r>   -4.8728    1.0000 </r>
       <r>   -4.8248    1.0000 </r>
       <r>   -4.4520    1.0000 </r>
       <r>   -4.2847    0.8014 </r>
       <r>   -1.8168    0.0000 </r>
       <r>   -1.6149    0.0000 </r>
       <r>   -0.1023    0.0000 </r>
       <r>    0.3032    0.0000 </r>
       <r>    0.6625    0.0000 </r>
       <r>    0.9184    0.0000 </r>
       <r>    0.9208    0.0000 </r>
       <r>    1.1800    0.0000 </r>
       <r>    1.6297    0.0000 </r>
       <r>    2.5404    0.0000 </r>
       <r>    2.6257    0.0000 </r>
       <r>    2.7526    0.0000 </r>
       <r>    2.8245    0.0000 </r>
       <r>    2.9972    0.0000 </r>
       <r>    3.0358    0.0000 </r>
       <r>    3.3239    0.0000 </r>
       <r>    3.6719    0.0000 </r>
       <r>    3.8271    0.0000 </r>
       <r>    3.9110    0.0000 </r>
       <r>    3.9421    0.0000 </r>
       <r>    3.9707    0.0000 </r>
       <r>    4.0992    0.0000 </r>
       <r>    4.2112    0.0000 </r>
       <r>    4.6659    0.0000 </r>
       <r>    4.7142    0.0000 </r>
       <r>    4.8996    0.0000 </r>
      </set>
      <set comment="kpoint 25">
       <r>  -18.4247    1.0000 </r>
       <r>  -18.2904    1.0000 </r>
       <r>  -14.9134    1.0000 </r>
       <r>  -14.8030    1.0000 </r>
       <r>  -11.3535    1.0000 </r>
       <r>  -11.0726    1.0000 </r>
       <r>  -10.8317    1.0000 </r>
       <r>  -10.5866    1.0000 </r>
       <r>  -10.4379    1.0000 </r>
       <r>  -10.3799    1.0000 </r>
       <r>   -8.4022    1.0000 </r>
       <r>   -8.1001    1.0000 </r>
       <r>   -7.5417    1.0000 </r>
       <r>   -7.4412    1.0000 </r>
       <r>   -6.5912    1.0000 </r>
       <r>   -6.4655    1.0000 </r>
       <r>   -5.9926    1.0000 </r>
       <r>   -5.5721    1.0000 </r>
       <r>   -4.8552    1.0000 </r>
       <r>   -4.7895    1.0000 </r>
       <r>   -4.3934    1.0000 </r>
       <r>   -4.3366    0.9897 </r>
       <r>   -1.7699    0.0000 </r>
       <r>   -1.6973    0.0000 </r>
       <r>    0.1150    0.0000 </r>
       <r>    0.2275    0.0000 </r>
       <r>    0.8428    0.0000 </r>
       <r>    0.9765    0.0000 </r>
       <r>    1.1550    0.0000 </r>
       <r>    1.1926    0.0000 </r>
       <r>    1.3547    0.0000 </r>
       <r>    1.8519    0.0000 </r>
       <r>    2.8023    0.0000 </r>
       <r>    2.9097    0.0000 </r>
       <r>    2.9689    0.0000 </r>
       <r>    2.9961    0.0000 </r>
       <r>    3.1564    0.0000 </r>
       <r>    3.5310    0.0000 </r>
       <r>    3.5702    0.0000 </r>
       <r>    3.8025    0.0000 </r>
       <r>    3.8487    0.0000 </r>
       <r>    3.8555    0.0000 </r>
       <r>    4.0059    0.0000 </r>
       <r>    4.1784    0.0000 </r>
       <r>    4.3505    0.0000 </r>
       <r>    4.4575    0.0000 </r>
       <r>    4.6344    0.0000 </r>
       <r>    4.7296    0.0000 </r>
      </set>
     </set>
    </set>
   </array>
  </eigenvalues>
  <separator name="orbital magnetization" >
   <v name="MAGDIPOLOUT">      0.00000000      0.00000000      0.00000000</v>
  </separator>
  <dos>
   <i name="efermi">     -4.25480831 </i>
   <total>
    <array>
     <dimension dim="1">gridpoints</dimension>
     <dimension dim="2">spin</dimension>
     <field>energy</field>
     <field>total</field>
     <field>integrated</field>
     <set>
      <set comment="spin 1">
       <r>   -20.0801     0.0000     0.0000 </r>
       <r>   -19.9907     0.0000     0.0000 </r>
       <r>   -19.9014     0.0000     0.0000 </r>
       <r>   -19.8120     0.0000     0.0000 </r>
       <r>   -19.7227     0.0000     0.0000 </r>
       <r>   -19.6333     0.0000     0.0000 </r>
       <r>   -19.5439     0.0000     0.0000 </r>
       <r>   -19.4546     0.0000     0.0000 </r>
       <r>   -19.3652     0.0000     0.0000 </r>
       <r>   -19.2758     0.0000     0.0000 </r>
       <r>   -19.1865     0.0000     0.0000 </r>
       <r>   -19.0971     0.0000     0.0000 </r>
       <r>   -19.0078     0.0000     0.0000 </r>
       <r>   -18.9184     0.0611     0.0055 </r>
       <r>   -18.8290     2.2585     0.2073 </r>
       <r>   -18.7397     5.8871     0.7334 </r>
       <r>   -18.6503     4.6605     1.1498 </r>
       <r>   -18.5609     3.6647     1.4773 </r>
       <r>   -18.4716     2.5118     1.7018 </r>
       <r>   -18.3822     3.1463     1.9829 </r>
       <r>   -18.2928     2.5152     2.2077 </r>
       <r>   -18.2035     2.3693     2.4194 </r>
       <r>   -18.1141     3.2980     2.7142 </r>
       <r>   -18.0248     2.6886     2.9544 </r>
       <r>   -17.9354     4.6108     3.3665 </r>
       <r>   -17.8460     4.1433     3.7367 </r>
       <r>   -17.7567     2.5483     3.9644 </r>
       <r>   -17.6673     0.3966     3.9999 </r>
       <r>   -17.5779     0.0014     4.0000 </r>
       <r>   -17.4886     0.0000     4.0000 </r>
       <r>   -17.3992     0.0000     4.0000 </r>
       <r>   -17.3099     0.0000     4.0000 </r>
       <r>   -17.2205     0.0000     4.0000 </r>
       <r>   -17.1311     0.0000     4.0000 </r>
       <r>   -17.0418     0.0000     4.0000 </r>
       <r>   -16.9524     0.0000     4.0000 </r>
       <r>   -16.8630     0.0000     4.0000 </r>
       <r>   -16.7737     0.0000     4.0000 </r>
       <r>   -16.6843     0.0000     4.0000 </r>
       <r>   -16.5950     0.0000     4.0000 </r>
       <r>   -16.5056     0.0000     4.0000 </r>
       <r>   -16.4162     0.0000     4.0000 </r>
       <r>   -16.3269     0.0000     4.0000 </r>
       <r>   -16.2375     0.0000     4.0000 </r>
       <r>   -16.1481     0.0000     4.0000 </r>
       <r>   -16.0588     0.0000     4.0000 </r>
       <r>   -15.9694     0.0000     4.0000 </r>
       <r>   -15.8801     0.0000     4.0000 </r>
       <r>   -15.7907     0.0000     4.0000 </r>
       <r>   -15.7013     0.0000     4.0000 </r>
       <r>   -15.6120     0.0000     4.0000 </r>
       <r>   -15.5226     0.0000     4.0000 </r>
       <r>   -15.4332     0.0000     4.0000 </r>
       <r>   -15.3439     0.0000     4.0000 </r>
       <r>   -15.2545     0.0000     4.0000 </r>
       <r>   -15.1651     0.0000     4.0000 </r>
       <r>   -15.0758     0.0004     4.0000 </r>
       <r>   -14.9864     0.2996     4.0268 </r>
       <r>   -14.8971     3.7975     4.3662 </r>
       <r>   -14.8077     7.7279     5.0567 </r>
       <r>   -14.7183     9.2508     5.8834 </r>
       <r>   -14.6290     4.1169     6.2513 </r>
       <r>   -14.5396     4.4453     6.6486 </r>
       <r>   -14.4502     7.3153     7.3023 </r>
       <r>   -14.3609     4.1081     7.6694 </r>
       <r>   -14.2715     2.5135     7.8940 </r>
       <r>   -14.1822     1.0732     7.9899 </r>
       <r>   -14.0928     0.1128     8.0000 </r>
       <r>   -14.0034     0.0001     8.0000 </r>
       <r>   -13.9141     0.0000     8.0000 </r>
       <r>   -13.8247     0.0000     8.0000 </r>
       <r>   -13.7353     0.0000     8.0000 </r>
       <r>   -13.6460     0.0000     8.0000 </r>
       <r>   -13.5566     0.0000     8.0000 </r>
       <r>   -13.4673     0.0000     8.0000 </r>
       <r>   -13.3779     0.0000     8.0000 </r>
       <r>   -13.2885     0.0000     8.0000 </r>
       <r>   -13.1992     0.0000     8.0000 </r>
       <r>   -13.1098     0.0012     8.0001 </r>
       <r>   -13.0204     0.2994     8.0269 </r>
       <r>   -12.9311     0.6743     8.0871 </r>
       <r>   -12.8417     0.4044     8.1233 </r>
       <r>   -12.7523     1.0621     8.2182 </r>
       <r>   -12.6630     1.1037     8.3168 </r>
       <r>   -12.5736     0.7938     8.3877 </r>
       <r>   -12.4843     1.2667     8.5009 </r>
       <r>   -12.3949     1.2343     8.6112 </r>
       <r>   -12.3055     2.7095     8.8534 </r>
       <r>   -12.2162     5.5273     9.3473 </r>
       <r>   -12.1268     2.2767     9.5507 </r>
       <r>   -12.0374     2.9981     9.8187 </r>
       <r>   -11.9481     1.4468     9.9479 </r>
       <r>   -11.8587     2.1253    10.1379 </r>
       <r>   -11.7694     3.4473    10.4459 </r>
       <r>   -11.6800     2.4973    10.6691 </r>
       <r>   -11.5906     3.1846    10.9537 </r>
       <r>   -11.5013     2.6405    11.1896 </r>
       <r>   -11.4119     2.7652    11.4367 </r>
       <r>   -11.3225     3.4986    11.7494 </r>
       <r>   -11.2332     1.7483    11.9056 </r>
       <r>   -11.1438     3.6175    12.2289 </r>
       <r>   -11.0545     4.0556    12.5913 </r>
       <r>   -10.9651     5.3072    13.0656 </r>
       <r>   -10.8757     6.8918    13.6814 </r>
       <r>   -10.7864     4.4765    14.0815 </r>
       <r>   -10.6970     3.1984    14.3673 </r>
       <r>   -10.6076     5.8439    14.8895 </r>
       <r>   -10.5183     3.9765    15.2449 </r>
       <r>   -10.4289     3.6152    15.5679 </r>
       <r>   -10.3396     3.1806    15.8522 </r>
       <r>   -10.2502     5.7844    16.3691 </r>
       <r>   -10.1608     5.4696    16.8578 </r>
       <r>   -10.0715     3.7315    17.1913 </r>
       <r>    -9.9821     5.4419    17.6776 </r>
       <r>    -9.8927     4.5384    18.0832 </r>
       <r>    -9.8034     2.2865    18.2875 </r>
       <r>    -9.7140     4.0430    18.6488 </r>
       <r>    -9.6246     1.9237    18.8207 </r>
       <r>    -9.5353     1.8320    18.9844 </r>
       <r>    -9.4459     3.4389    19.2917 </r>
       <r>    -9.3566     2.6303    19.5268 </r>
       <r>    -9.2672     0.8228    19.6003 </r>
       <r>    -9.1778     3.2006    19.8863 </r>
       <r>    -9.0885     3.3996    20.1901 </r>
       <r>    -8.9991     1.7534    20.3468 </r>
       <r>    -8.9097     0.3688    20.3798 </r>
       <r>    -8.8204     2.6645    20.6179 </r>
       <r>    -8.7310     3.2208    20.9057 </r>
       <r>    -8.6417     4.7789    21.3327 </r>
       <r>    -8.5523     1.7757    21.4914 </r>
       <r>    -8.4629     0.6918    21.5532 </r>
       <r>    -8.3736     3.1701    21.8365 </r>
       <r>    -8.2842     1.6593    21.9848 </r>
       <r>    -8.1948     0.8186    22.0580 </r>
       <r>    -8.1055     2.8367    22.3115 </r>
       <r>    -8.0161     3.9092    22.6608 </r>
       <r>    -7.9268     2.8465    22.9152 </r>
       <r>    -7.8374     2.8835    23.1729 </r>
       <r>    -7.7480     3.6986    23.5034 </r>
       <r>    -7.6587     2.7619    23.7502 </r>
       <r>    -7.5693     2.5026    23.9738 </r>
       <r>    -7.4799     4.8896    24.4108 </r>
       <r>    -7.3906     5.4508    24.8979 </r>
       <r>    -7.3012     5.4263    25.3828 </r>
       <r>    -7.2118     5.9965    25.9187 </r>
       <r>    -7.1225     7.2556    26.5670 </r>
       <r>    -7.0331     7.2656    27.2163 </r>
       <r>    -6.9438     6.1274    27.7639 </r>
       <r>    -6.8544     9.0946    28.5766 </r>
       <r>    -6.7650     9.1096    29.3907 </r>
       <r>    -6.6757     5.3211    29.8662 </r>
       <r>    -6.5863     5.2158    30.3323 </r>
       <r>    -6.4969     4.4564    30.7305 </r>
       <r>    -6.4076     3.6708    31.0585 </r>
       <r>    -6.3182     4.0317    31.4188 </r>
       <r>    -6.2289     1.5548    31.5578 </r>
       <r>    -6.1395     2.8125    31.8091 </r>
       <r>    -6.0501     8.6817    32.5849 </r>
       <r>    -5.9608     7.4677    33.2523 </r>
       <r>    -5.8714     2.3709    33.4641 </r>
       <r>    -5.7820     5.0839    33.9184 </r>
       <r>    -5.6927     6.5243    34.5015 </r>
       <r>    -5.6033     5.2421    34.9699 </r>
       <r>    -5.5140     4.6063    35.3816 </r>
       <r>    -5.4246     4.5145    35.7850 </r>
       <r>    -5.3352     4.4335    36.1812 </r>
       <r>    -5.2459     4.3882    36.5733 </r>
       <r>    -5.1565     3.9588    36.9271 </r>
       <r>    -5.0671     5.9263    37.4567 </r>
       <r>    -4.9778     4.2103    37.8329 </r>
       <r>    -4.8884     2.8291    38.0857 </r>
       <r>    -4.7991     3.6598    38.4128 </r>
       <r>    -4.7097     2.0897    38.5995 </r>
       <r>    -4.6203     5.3235    39.0753 </r>
       <r>    -4.5310     8.1833    39.8065 </r>
       <r>    -4.4416     6.2704    40.3669 </r>
       <r>    -4.3522     6.6919    40.9649 </r>
       <r>    -4.2629    10.4244    41.8964 </r>
       <r>    -4.1735    10.2052    42.8084 </r>
       <r>    -4.0841     1.5180    42.9441 </r>
       <r>    -3.9948     1.0778    43.0404 </r>
       <r>    -3.9054     2.2035    43.2373 </r>
       <r>    -3.8161     1.2148    43.3458 </r>
       <r>    -3.7267     0.3576    43.3778 </r>
       <r>    -3.6373     0.3637    43.4103 </r>
       <r>    -3.5480     0.6187    43.4656 </r>
       <r>    -3.4586     0.3878    43.5002 </r>
       <r>    -3.3692     0.6057    43.5544 </r>
       <r>    -3.2799     0.0209    43.5562 </r>
       <r>    -3.1905     0.5365    43.6042 </r>
       <r>    -3.1012     1.2361    43.7146 </r>
       <r>    -3.0118     1.1786    43.8200 </r>
       <r>    -2.9224     0.0252    43.8222 </r>
       <r>    -2.8331     0.0000    43.8222 </r>
       <r>    -2.7437     0.0003    43.8222 </r>
       <r>    -2.6543     0.1736    43.8378 </r>
       <r>    -2.5650     0.7654    43.9062 </r>
       <r>    -2.4756     0.0567    43.9112 </r>
       <r>    -2.3863     0.3168    43.9395 </r>
       <r>    -2.2969     0.6570    43.9982 </r>
       <r>    -2.2075     0.0460    44.0024 </r>
       <r>    -2.1182     1.1724    44.1071 </r>
       <r>    -2.0288     3.2168    44.3946 </r>
       <r>    -1.9394     4.1792    44.7681 </r>
       <r>    -1.8501     5.7794    45.2845 </r>
       <r>    -1.7607     5.1455    45.7443 </r>
       <r>    -1.6713     3.9095    46.0937 </r>
       <r>    -1.5820     3.6274    46.4179 </r>
       <r>    -1.4926     4.7121    46.8389 </r>
       <r>    -1.4033     4.7882    47.2668 </r>
       <r>    -1.3139     3.6742    47.5952 </r>
       <r>    -1.2245     3.2584    47.8863 </r>
       <r>    -1.1352     2.1253    48.0763 </r>
       <r>    -1.0458     1.9927    48.2543 </r>
       <r>    -0.9564     2.3934    48.4682 </r>
       <r>    -0.8671     3.2695    48.7604 </r>
       <r>    -0.7777     2.3520    48.9706 </r>
       <r>    -0.6884     3.1093    49.2484 </r>
       <r>    -0.5990     1.8247    49.4115 </r>
       <r>    -0.5096     2.5209    49.6368 </r>
       <r>    -0.4203     2.9241    49.8981 </r>
       <r>    -0.3309     2.0642    50.0825 </r>
       <r>    -0.2415     2.4206    50.2989 </r>
       <r>    -0.1522     5.7511    50.8128 </r>
       <r>    -0.0628     4.3778    51.2040 </r>
       <r>     0.0265     4.6064    51.6157 </r>
       <r>     0.1159     4.5670    52.0238 </r>
       <r>     0.2053     4.0289    52.3838 </r>
       <r>     0.2946     5.5931    52.8836 </r>
       <r>     0.3840     6.4252    53.4578 </r>
       <r>     0.4734     7.2968    54.1099 </r>
       <r>     0.5627     3.2706    54.4021 </r>
       <r>     0.6521     3.1574    54.6843 </r>
       <r>     0.7415     4.7018    55.1044 </r>
       <r>     0.8308     2.5762    55.3347 </r>
       <r>     0.9202     4.1202    55.7029 </r>
       <r>     1.0095     4.4206    56.0979 </r>
       <r>     1.0989     2.8055    56.3486 </r>
       <r>     1.1883     4.0489    56.7104 </r>
       <r>     1.2776     4.2824    57.0931 </r>
       <r>     1.3670     4.7673    57.5191 </r>
       <r>     1.4564    10.2101    58.4315 </r>
       <r>     1.5457     6.0039    58.9681 </r>
       <r>     1.6351     8.5043    59.7280 </r>
       <r>     1.7244    10.1214    60.6325 </r>
       <r>     1.8138     7.7486    61.3249 </r>
       <r>     1.9032     4.0461    61.6865 </r>
       <r>     1.9925     2.9687    61.9518 </r>
       <r>     2.0819     5.1448    62.4116 </r>
       <r>     2.1713     7.3942    63.0723 </r>
       <r>     2.2606     7.3850    63.7323 </r>
       <r>     2.3500     9.8850    64.6156 </r>
       <r>     2.4393     6.6601    65.2108 </r>
       <r>     2.5287     9.6739    66.0753 </r>
       <r>     2.6181    11.0284    67.0608 </r>
       <r>     2.7074     9.6939    67.9271 </r>
       <r>     2.7968    12.5040    69.0445 </r>
       <r>     2.8862    11.3791    70.0613 </r>
       <r>     2.9755     9.7734    70.9347 </r>
       <r>     3.0649    13.3439    72.1272 </r>
       <r>     3.1542    10.7943    73.0918 </r>
       <r>     3.2436    12.1577    74.1782 </r>
       <r>     3.3330    10.9823    75.1596 </r>
       <r>     3.4223     8.4603    75.9157 </r>
       <r>     3.5117     9.0872    76.7277 </r>
       <r>     3.6011    11.3562    77.7426 </r>
       <r>     3.6904     9.7736    78.6160 </r>
       <r>     3.7798     9.3963    79.4556 </r>
       <r>     3.8692    12.6566    80.5867 </r>
       <r>     3.9585    14.5306    81.8852 </r>
       <r>     4.0479     8.7750    82.6693 </r>
       <r>     4.1372    15.3952    84.0451 </r>
       <r>     4.2266    14.1528    85.3098 </r>
       <r>     4.3160    10.8868    86.2827 </r>
       <r>     4.4053    12.9505    87.4400 </r>
       <r>     4.4947    13.9480    88.6864 </r>
       <r>     4.5841     9.8313    89.5650 </r>
       <r>     4.6734     9.8501    90.4452 </r>
       <r>     4.7628     9.9277    91.3324 </r>
       <r>     4.8521    13.3366    92.5242 </r>
       <r>     4.9415     8.5544    93.2886 </r>
       <r>     5.0309     6.0762    93.8316 </r>
       <r>     5.1202     6.5432    94.4163 </r>
       <r>     5.2096     5.3086    94.8907 </r>
       <r>     5.2990     6.2201    95.4466 </r>
       <r>     5.3883     2.4767    95.6679 </r>
       <r>     5.4777     1.8545    95.8336 </r>
       <r>     5.5670     1.7721    95.9920 </r>
       <r>     5.6564     0.0899    96.0000 </r>
       <r>     5.7458     0.0000    96.0000 </r>
       <r>     5.8351     0.0000    96.0000 </r>
       <r>     5.9245     0.0000    96.0000 </r>
       <r>     6.0139     0.0000    96.0000 </r>
       <r>     6.1032     0.0000    96.0000 </r>
       <r>     6.1926     0.0000    96.0000 </r>
       <r>     6.2820     0.0000    96.0000 </r>
       <r>     6.3713     0.0000    96.0000 </r>
       <r>     6.4607     0.0000    96.0000 </r>
       <r>     6.5500     0.0000    96.0000 </r>
       <r>     6.6394     0.0000    96.0000 </r>
       <r>     6.7288     0.0000    96.0000 </r>
      </set>
     </set>
    </array>
   </total>
  </dos>
 </calculation>
 <structure name="finalpos" >
  <crystal>
   <varray name="basis" >
    <v>       5.70097065       0.00000000       0.00000000 </v>
    <v>       0.00000000       6.20187140       0.00000000 </v>
    <v>       0.00000000       0.00000000      19.04405832 </v>
   </varray>
   <i name="volume">    673.33480546 </i>
   <varray name="rec_basis" >
    <v>       0.17540873       0.00000000       0.00000000 </v>
    <v>       0.00000000       0.16124165       0.00000000 </v>
    <v>       0.00000000       0.00000000       0.05250982 </v>
   </varray>
  </crystal>
  <varray name="positions" >
   <v>       0.52128989       0.63795769       0.10617638 </v>
   <v>       0.47871011       0.36204231       0.10617638 </v>
   <v>       0.97871011       0.63795769       0.10617638 </v>
   <v>       0.02128989       0.36204231       0.10617638 </v>
   <v>       0.59744966       0.89986831       0.10617638 </v>
   <v>       0.40255034       0.10013168       0.10617638 </v>
   <v>       0.90255034       0.89986831       0.10617638 </v>
   <v>       0.09744966       0.10013168       0.10617638 </v>
   <v>       0.75000000       0.72957939       0.16809100 </v>
   <v>       0.25000000       0.27042061       0.04426176 </v>
   <v>       0.75000000       0.72957939       0.04426176 </v>
   <v>       0.25000000       0.27042061       0.16809100 </v>
   <v>       0.25000000       0.52399302       0.10617638 </v>
   <v>       0.75000000       0.47600695       0.10617638 </v>
  </varray>
 </structure>
</modeling>
