       N       E                     dE             d eps       ncg     rms          rms(c)
DAV:   1     0.540357781865E+02    0.54036E+02   -0.17640E+04120960   0.723E+02
DAV:   2    -0.929054122610E+02   -0.14694E+03   -0.13832E+03168552   0.150E+02
DAV:   3    -0.975878865250E+02   -0.46825E+01   -0.46593E+01176976   0.240E+01
DAV:   4    -0.976150415436E+02   -0.27155E-01   -0.27154E-01148512   0.210E+00
DAV:   5    -0.976153521502E+02   -0.31061E-03   -0.31060E-03176280   0.216E-01    0.123E+01
DAV:   6    -0.922019503439E+02    0.54134E+01   -0.39482E+00175080   0.657E+00    0.678E+00
DAV:   7    -0.905515139896E+02    0.16504E+01   -0.32050E+00180336   0.584E+00    0.172E+00
