 running   24 mpi-ranks, with    1 threads/rank, on    1 nodes
 distrk:  each k-point on   24 cores,    1 groups
 distr:  one band on    1 cores,   24 groups
 vasp.6.4.3 19Mar24 (build May 31 2024 16:31:43) complex                        
  
 POSCAR found type information on POSCAR B 
 POSCAR found :  1 types and      14 ions
 Reading from existing POTCAR
 scaLAPACK will be used
 Reading from existing POTCAR
 LDA part: xc-table for (Slater+PW92), standard interpolation
 POSCAR, INCAR and KPOINTS ok, starting setup
 FFT: planning ... GRIDC
 FFT: planning ... GRID_SOFT
 FFT: planning ... GRID
 WAVECAR not read
 entering main loop
       N       E                     dE             d eps       ncg     rms          rms(c)
DAV:   1     0.540357781865E+02    0.54036E+02   -0.17640E+04120960   0.723E+02
DAV:   2    -0.929054122610E+02   -0.14694E+03   -0.13832E+03168552   0.150E+02
DAV:   3    -0.975878865250E+02   -0.46825E+01   -0.46593E+01176976   0.240E+01
DAV:   4    -0.976150415436E+02   -0.27155E-01   -0.27154E-01148512   0.210E+00
DAV:   5    -0.976153521502E+02   -0.31061E-03   -0.31060E-03176280   0.216E-01    0.123E+01
DAV:   6    -0.922019503439E+02    0.54134E+01   -0.39482E+00175080   0.657E+00    0.678E+00
DAV:   7    -0.905515139896E+02    0.16504E+01   -0.32050E+00180336   0.584E+00    0.172E+00
DAV:   8    -0.905624594906E+02   -0.10946E-01   -0.22795E-01133224   0.163E+00    0.752E-01
