  14  14   0   0
  0.1015840E+02  0.5685606E-09  0.4039804E-09  0.6191792E-09  0.5000000E-15
  1.000000000000000E-004
  CAR 
 Convergence                             
     18.07758600    -14.19879953  301      1.91908977      1.00000000
    -14.199  0.0000E+00  0.0000E+00
    -14.091  0.0000E+00  0.0000E+00
    -13.984  0.0000E+00  0.0000E+00
    -13.876  0.0000E+00  0.0000E+00
    -13.768  0.0000E+00  0.0000E+00
    -13.661  0.0000E+00  0.0000E+00
    -13.553  0.0000E+00  0.0000E+00
    -13.446  0.0000E+00  0.0000E+00
    -13.338  0.0000E+00  0.0000E+00
    -13.231  0.0000E+00  0.0000E+00
    -13.123  0.0000E+00  0.0000E+00
    -13.015  0.3604E-16  0.3877E-17
    -12.908  0.2688E-07  0.2892E-08
    -12.800  0.3725E-02  0.4007E-03
    -12.693  0.5062E+00  0.5486E-01
    -12.585  0.2384E+01  0.3113E+00
    -12.477  0.3550E+01  0.6932E+00
    -12.370  0.4360E+01  0.1162E+01
    -12.262  0.3539E+01  0.1543E+01
    -12.155  0.2732E+01  0.1837E+01
    -12.047  0.2744E+01  0.2132E+01
    -11.939  0.2514E+01  0.2403E+01
    -11.832  0.2771E+01  0.2701E+01
    -11.724  0.3449E+01  0.3072E+01
    -11.617  0.3533E+01  0.3452E+01
    -11.509  0.3078E+01  0.3783E+01
    -11.402  0.1622E+01  0.3958E+01
    -11.294  0.3876E+00  0.3999E+01
    -11.186  0.5433E-02  0.4000E+01
    -11.079  0.8936E-07  0.4000E+01
    -10.971  0.2883E-15  0.4000E+01
    -10.864  0.0000E+00  0.4000E+01
    -10.756  0.0000E+00  0.4000E+01
    -10.648  0.0000E+00  0.4000E+01
    -10.541  0.0000E+00  0.4000E+01
    -10.433  0.0000E+00  0.4000E+01
    -10.326  0.0000E+00  0.4000E+01
    -10.218  0.0000E+00  0.4000E+01
    -10.110  0.0000E+00  0.4000E+01
    -10.003  0.0000E+00  0.4000E+01
     -9.895  0.0000E+00  0.4000E+01
     -9.788  0.0000E+00  0.4000E+01
     -9.680  0.0000E+00  0.4000E+01
     -9.573  0.0000E+00  0.4000E+01
     -9.465  0.0000E+00  0.4000E+01
     -9.357  0.0000E+00  0.4000E+01
     -9.250  0.0000E+00  0.4000E+01
     -9.142  0.0000E+00  0.4000E+01
     -9.035  0.7460E-09  0.4000E+01
     -8.927  0.5676E-03  0.4000E+01
     -8.819  0.2677E+00  0.4029E+01
     -8.712  0.2060E+01  0.4250E+01
     -8.604  0.5263E+01  0.4817E+01
     -8.497  0.6948E+01  0.5564E+01
     -8.389  0.6318E+01  0.6244E+01
     -8.281  0.5320E+01  0.6816E+01
     -8.174  0.4817E+01  0.7335E+01
     -8.066  0.3886E+01  0.7753E+01
     -7.959  0.1671E+01  0.7932E+01
     -7.851  0.5768E+00  0.7994E+01
     -7.744  0.5123E-01  0.8000E+01
     -7.636  0.2244E-04  0.8000E+01
     -7.528  0.2233E-11  0.8000E+01
     -7.421  0.0000E+00  0.8000E+01
     -7.313  0.0000E+00  0.8000E+01
     -7.206  0.0000E+00  0.8000E+01
     -7.098  0.6056E-09  0.8000E+01
     -6.990  0.4588E-03  0.8000E+01
     -6.883  0.1177E+00  0.8013E+01
     -6.775  0.2548E+00  0.8040E+01
     -6.668  0.4290E+00  0.8086E+01
     -6.560  0.7657E+00  0.8169E+01
     -6.452  0.8624E+00  0.8261E+01
     -6.345  0.1462E+01  0.8419E+01
     -6.237  0.2004E+01  0.8634E+01
     -6.130  0.3066E+01  0.8964E+01
     -6.022  0.3761E+01  0.9369E+01
     -5.915  0.4097E+01  0.9810E+01
     -5.807  0.4034E+01  0.1024E+02
     -5.699  0.3825E+01  0.1066E+02
     -5.592  0.4068E+01  0.1109E+02
     -5.484  0.4224E+01  0.1155E+02
     -5.377  0.4510E+01  0.1203E+02
     -5.269  0.4559E+01  0.1252E+02
     -5.161  0.4481E+01  0.1301E+02
     -5.054  0.3844E+01  0.1342E+02
     -4.946  0.3238E+01  0.1377E+02
     -4.839  0.2914E+01  0.1408E+02
     -4.731  0.2386E+01  0.1434E+02
     -4.623  0.2896E+01  0.1465E+02
     -4.516  0.3358E+01  0.1501E+02
     -4.408  0.3512E+01  0.1539E+02
     -4.301  0.3280E+01  0.1574E+02
     -4.193  0.2943E+01  0.1606E+02
     -4.086  0.2900E+01  0.1637E+02
     -3.978  0.2966E+01  0.1669E+02
     -3.870  0.2828E+01  0.1699E+02
     -3.763  0.3138E+01  0.1733E+02
     -3.655  0.2836E+01  0.1764E+02
     -3.548  0.2704E+01  0.1793E+02
     -3.440  0.3040E+01  0.1825E+02
     -3.332  0.2604E+01  0.1853E+02
     -3.225  0.2910E+01  0.1885E+02
     -3.117  0.2668E+01  0.1913E+02
     -3.010  0.2783E+01  0.1943E+02
     -2.902  0.2987E+01  0.1975E+02
     -2.794  0.2955E+01  0.2007E+02
     -2.687  0.2409E+01  0.2033E+02
     -2.579  0.2688E+01  0.2062E+02
     -2.472  0.3032E+01  0.2095E+02
     -2.364  0.2962E+01  0.2127E+02
     -2.257  0.3212E+01  0.2161E+02
     -2.149  0.4045E+01  0.2205E+02
     -2.041  0.3656E+01  0.2244E+02
     -1.934  0.3341E+01  0.2280E+02
     -1.826  0.5334E+01  0.2337E+02
     -1.719  0.5690E+01  0.2399E+02
     -1.611  0.5537E+01  0.2458E+02
     -1.503  0.6183E+01  0.2525E+02
     -1.396  0.6056E+01  0.2590E+02
     -1.288  0.5477E+01  0.2649E+02
     -1.181  0.4709E+01  0.2699E+02
     -1.073  0.6448E+01  0.2769E+02
     -0.965  0.3678E+01  0.2808E+02
     -0.858  0.2261E+01  0.2833E+02
     -0.750  0.2688E+01  0.2862E+02
     -0.643  0.2885E+01  0.2893E+02
     -0.535  0.4699E+01  0.2943E+02
     -0.428  0.6897E+01  0.3017E+02
     -0.320  0.5644E+01  0.3078E+02
     -0.212  0.6774E+01  0.3151E+02
     -0.105  0.6364E+01  0.3219E+02
      0.003  0.6762E+01  0.3292E+02
      0.110  0.6609E+01  0.3363E+02
      0.218  0.6400E+01  0.3432E+02
      0.326  0.8742E+01  0.3526E+02
      0.433  0.7790E+01  0.3610E+02
      0.541  0.8724E+01  0.3704E+02
      0.648  0.5010E+01  0.3758E+02
      0.756  0.2822E+01  0.3788E+02
      0.864  0.3391E+01  0.3825E+02
      0.971  0.3583E+01  0.3863E+02
      1.079  0.3497E+01  0.3901E+02
      1.186  0.2782E+01  0.3931E+02
      1.294  0.3454E+01  0.3968E+02
      1.401  0.4503E+01  0.4016E+02
      1.509  0.3721E+01  0.4056E+02
      1.617  0.3774E+01  0.4097E+02
      1.724  0.4540E+01  0.4146E+02
      1.832  0.3030E+01  0.4178E+02
      1.939  0.2496E+01  0.4205E+02
      2.047  0.2613E+01  0.4233E+02
      2.155  0.2103E+01  0.4256E+02
      2.262  0.2650E+01  0.4285E+02
      2.370  0.2502E+01  0.4311E+02
      2.477  0.1857E+01  0.4331E+02
      2.585  0.7685E+00  0.4340E+02
      2.693  0.3810E+00  0.4344E+02
      2.800  0.5643E+00  0.4350E+02
      2.908  0.4169E+00  0.4354E+02
      3.015  0.3085E+00  0.4358E+02
      3.123  0.8003E+00  0.4366E+02
      3.230  0.9949E+00  0.4377E+02
      3.338  0.4801E+00  0.4382E+02
      3.446  0.8477E-02  0.4382E+02
      3.553  0.1517E+00  0.4384E+02
      3.661  0.4014E+00  0.4388E+02
      3.768  0.3133E+00  0.4392E+02
      3.876  0.3859E+00  0.4396E+02
      3.984  0.3803E+00  0.4400E+02
      4.091  0.1883E-01  0.4400E+02
      4.199  0.1882E-03  0.4400E+02
      4.306  0.5964E-01  0.4401E+02
      4.414  0.2011E+00  0.4403E+02
      4.522  0.4099E+00  0.4407E+02
      4.629  0.5074E+00  0.4413E+02
      4.737  0.6665E+00  0.4420E+02
      4.844  0.8994E+00  0.4430E+02
      4.952  0.8579E+00  0.4439E+02
      5.059  0.8637E+00  0.4448E+02
      5.167  0.1291E+01  0.4462E+02
      5.275  0.1126E+01  0.4474E+02
      5.382  0.1690E+01  0.4492E+02
      5.490  0.2247E+01  0.4516E+02
      5.597  0.2476E+01  0.4543E+02
      5.705  0.2773E+01  0.4573E+02
      5.813  0.3472E+01  0.4610E+02
      5.920  0.3188E+01  0.4645E+02
      6.028  0.4395E+01  0.4692E+02
      6.135  0.4649E+01  0.4742E+02
      6.243  0.4019E+01  0.4785E+02
      6.350  0.4644E+01  0.4835E+02
      6.458  0.3955E+01  0.4878E+02
      6.566  0.4125E+01  0.4922E+02
      6.673  0.4378E+01  0.4969E+02
      6.781  0.3209E+01  0.5004E+02
      6.888  0.4056E+01  0.5047E+02
      6.996  0.4613E+01  0.5097E+02
      7.104  0.4502E+01  0.5145E+02
      7.211  0.4345E+01  0.5192E+02
      7.319  0.5633E+01  0.5253E+02
      7.426  0.4807E+01  0.5304E+02
      7.534  0.4410E+01  0.5352E+02
      7.642  0.4116E+01  0.5396E+02
      7.749  0.3527E+01  0.5434E+02
      7.857  0.3158E+01  0.5468E+02
      7.964  0.2968E+01  0.5500E+02
      8.072  0.3013E+01  0.5532E+02
      8.179  0.4171E+01  0.5577E+02
      8.287  0.3830E+01  0.5618E+02
      8.395  0.3601E+01  0.5657E+02
      8.502  0.3975E+01  0.5700E+02
      8.610  0.4150E+01  0.5745E+02
      8.717  0.4397E+01  0.5792E+02
      8.825  0.4131E+01  0.5836E+02
      8.933  0.5129E+01  0.5892E+02
      9.040  0.5158E+01  0.5947E+02
      9.148  0.5290E+01  0.6004E+02
      9.255  0.5266E+01  0.6061E+02
      9.363  0.4887E+01  0.6113E+02
      9.471  0.4734E+01  0.6164E+02
      9.578  0.4323E+01  0.6211E+02
      9.686  0.5116E+01  0.6266E+02
      9.793  0.5012E+01  0.6320E+02
      9.901  0.5324E+01  0.6377E+02
     10.008  0.4450E+01  0.6425E+02
     10.116  0.3571E+01  0.6463E+02
     10.224  0.5141E+01  0.6519E+02
     10.331  0.4709E+01  0.6569E+02
     10.439  0.4049E+01  0.6613E+02
     10.546  0.5546E+01  0.6672E+02
     10.654  0.5761E+01  0.6734E+02
     10.762  0.4038E+01  0.6778E+02
     10.869  0.3844E+01  0.6819E+02
     10.977  0.3172E+01  0.6853E+02
     11.084  0.4654E+01  0.6903E+02
     11.192  0.5584E+01  0.6963E+02
     11.300  0.6037E+01  0.7028E+02
     11.407  0.5967E+01  0.7093E+02
     11.515  0.5414E+01  0.7151E+02
     11.622  0.4142E+01  0.7195E+02
     11.730  0.4465E+01  0.7243E+02
     11.837  0.4865E+01  0.7296E+02
     11.945  0.4786E+01  0.7347E+02
     12.053  0.6062E+01  0.7413E+02
     12.160  0.5899E+01  0.7476E+02
     12.268  0.5845E+01  0.7539E+02
     12.375  0.5710E+01  0.7600E+02
     12.483  0.5073E+01  0.7655E+02
     12.591  0.5611E+01  0.7715E+02
     12.698  0.6038E+01  0.7780E+02
     12.806  0.6126E+01  0.7846E+02
     12.913  0.5797E+01  0.7908E+02
     13.021  0.5822E+01  0.7971E+02
     13.129  0.5553E+01  0.8031E+02
     13.236  0.6346E+01  0.8099E+02
     13.344  0.6193E+01  0.8166E+02
     13.451  0.5287E+01  0.8223E+02
     13.559  0.6154E+01  0.8289E+02
     13.666  0.5191E+01  0.8345E+02
     13.774  0.4792E+01  0.8396E+02
     13.882  0.6033E+01  0.8461E+02
     13.989  0.5524E+01  0.8521E+02
     14.097  0.5313E+01  0.8578E+02
     14.204  0.5470E+01  0.8637E+02
     14.312  0.4708E+01  0.8687E+02
     14.420  0.4811E+01  0.8739E+02
     14.527  0.5109E+01  0.8794E+02
     14.635  0.4995E+01  0.8848E+02
     14.742  0.5261E+01  0.8904E+02
     14.850  0.5117E+01  0.8959E+02
     14.958  0.4089E+01  0.9003E+02
     15.065  0.5178E+01  0.9059E+02
     15.173  0.6245E+01  0.9126E+02
     15.280  0.5559E+01  0.9186E+02
     15.388  0.5588E+01  0.9246E+02
     15.495  0.6071E+01  0.9312E+02
     15.603  0.5682E+01  0.9373E+02
     15.711  0.5862E+01  0.9436E+02
     15.818  0.4541E+01  0.9485E+02
     15.926  0.2416E+01  0.9511E+02
     16.033  0.2691E+01  0.9540E+02
     16.141  0.1890E+01  0.9560E+02
     16.249  0.1163E+01  0.9572E+02
     16.356  0.8802E+00  0.9582E+02
     16.464  0.7017E+00  0.9589E+02
     16.571  0.8103E+00  0.9598E+02
     16.679  0.1733E+00  0.9600E+02
     16.787  0.1644E-02  0.9600E+02
     16.894  0.1883E-07  0.9600E+02
     17.002  0.2621E-16  0.9600E+02
     17.109  0.0000E+00  0.9600E+02
     17.217  0.0000E+00  0.9600E+02
     17.324  0.0000E+00  0.9600E+02
     17.432  0.0000E+00  0.9600E+02
     17.540  0.0000E+00  0.9600E+02
     17.647  0.0000E+00  0.9600E+02
     17.755  0.0000E+00  0.9600E+02
     17.862  0.0000E+00  0.9600E+02
     17.970  0.0000E+00  0.9600E+02
     18.078  0.0000E+00  0.9600E+02
