   14   14    1    1
  0.1015840E+02  0.5685606E-09  0.4039804E-09  0.6191792E-09  0.5000000E-15
  1.000000000000000E-004
  CAR 
 Convergence                             
     42    175     48
 
  0.5000000E-01  0.3571429E-01  0.0000000E+00  0.3174603E-02
      1        -12.731691   1.000000
      2        -11.589070   1.000000
      3         -8.649180   1.000000
      4         -8.411624   1.000000
      5         -6.046716   1.000000
      6         -5.112386   1.000000
      7         -4.646269   1.000000
      8         -4.264093   1.000000
      9         -4.016937   1.000000
     10         -3.525374   1.000000
     11         -2.566854   1.000000
     12         -2.297057   1.000000
     13         -1.804508   1.000000
     14         -1.069632   1.000000
     15         -0.045779   1.000000
     16         -0.016054   1.000000
     17          0.188055   1.000000
     18          0.211827   1.000000
     19          0.597561   1.000000
     20          2.051784   0.000087
     21          2.115750   0.000000
     22          2.255717   0.000000
     23          5.504933   0.000000
     24          5.796815   0.000000
     25          5.889412   0.000000
     26          6.006737   0.000000
     27          6.868192   0.000000
     28          7.602110   0.000000
     29          7.934737   0.000000
     30          8.604799   0.000000
     31          8.883559   0.000000
     32          9.021958   0.000000
     33          9.144353   0.000000
     34         10.181739   0.000000
     35         11.238139   0.000000
     36         11.412053   0.000000
     37         11.745716   0.000000
     38         11.856228   0.000000
     39         12.007212   0.000000
     40         12.464714   0.000000
     41         12.951319   0.000000
     42         13.537261   0.000000
     43         13.564302   0.000000
     44         15.486427   0.000000
     45         15.667287   0.000000
     46         16.164271   0.000000
     47         16.424400   0.000000
     48         16.451438   0.000000
 
  0.1500000E+00  0.3571429E-01  0.0000000E+00  0.3174603E-02
      1        -12.687872   1.000000
      2        -11.662789   1.000000
      3         -8.628243   1.000000
      4         -8.400118   1.000000
      5         -5.978117   1.000000
      6         -5.456220   1.000000
      7         -4.770667   1.000000
      8         -3.994930   1.000000
      9         -3.776404   1.000000
     10         -3.185624   1.000000
     11         -2.637612   1.000000
     12         -2.276551   1.000000
     13         -1.884636   1.000000
     14         -1.377231   1.000000
     15         -0.005039   1.000000
     16          0.011634   1.000000
     17          0.122558   1.000000
     18          0.230353   1.000000
     19          0.502646   1.000000
     20          1.965275   0.095723
     21          2.037556   0.000403
     22          2.133805   0.000000
     23          5.592944   0.000000
     24          5.809327   0.000000
     25          5.912630   0.000000
     26          6.354842   0.000000
     27          6.781912   0.000000
     28          7.238493   0.000000
     29          8.149276   0.000000
     30          8.741033   0.000000
     31          9.147138   0.000000
     32          9.210643   0.000000
     33          9.275961   0.000000
     34         10.302460   0.000000
     35         11.017325   0.000000
     36         11.207814   0.000000
     37         11.312133   0.000000
     38         11.772171   0.000000
     39         12.224997   0.000000
     40         12.556519   0.000000
     41         13.206835   0.000000
     42         13.211396   0.000000
     43         14.100036   0.000000
     44         14.971099   0.000000
     45         15.842330   0.000000
     46         15.916391   0.000000
     47         16.324955   0.000000
     48         16.610478   0.000000
 
  0.2500000E+00  0.3571429E-01  0.0000000E+00  0.3174603E-02
      1        -12.602120   1.000000
      2        -11.795691   1.000000
      3         -8.584828   1.000000
      4         -8.385444   1.000000
      5         -5.956839   1.000000
      6         -5.784193   1.000000
      7         -4.725404   1.000000
      8         -3.865994   1.000000
      9         -3.264548   1.000000
     10         -2.808151   1.000000
     11         -2.690680   1.000000
     12         -2.235311   1.000000
     13         -1.997146   1.000000
     14         -1.882557   1.000000
     15         -0.184782   1.000000
     16          0.041578   1.000000
     17          0.174363   1.000000
     18          0.182658   1.000000
     19          0.472270   1.000000
     20          1.817658   0.997941
     21          1.902355   0.682013
     22          1.904248   0.662677
     23          5.713226   0.000000
     24          5.766142   0.000000
     25          6.221983   0.000000
     26          6.654730   0.000000
     27          6.815625   0.000000
     28          6.983169   0.000000
     29          8.303095   0.000000
     30          8.888668   0.000000
     31          9.080229   0.000000
     32          9.654085   0.000000
     33          9.718544   0.000000
     34         10.352390   0.000000
     35         10.562457   0.000000
     36         10.703927   0.000000
     37         11.435992   0.000000
     38         11.912201   0.000000
     39         12.460437   0.000000
     40         12.651243   0.000000
     41         12.861844   0.000000
     42         13.005863   0.000000
     43         14.728092   0.000000
     44         15.013981   0.000000
     45         15.307250   0.000000
     46         16.078749   0.000000
     47         16.095180   0.000000
     48         16.393789   0.000000
 
  0.3500000E+00  0.3571429E-01  0.0000000E+00  0.3174603E-02
      1        -12.478440   1.000000
      2        -11.965061   1.000000
      3         -8.523006   1.000000
      4         -8.382409   1.000000
      5         -6.038968   1.000000
      6         -6.017717   1.000000
      7         -4.396908   1.000000
      8         -3.695717   1.000000
      9         -3.003677   1.000000
     10         -2.878104   1.000000
     11         -2.422385   1.000000
     12         -2.227648   1.000000
     13         -2.115308   1.000000
     14         -2.100237   1.000000
     15         -0.483846   1.000000
     16         -0.211918   1.000000
     17          0.198604   1.000000
     18          0.274778   1.000000
     19          0.646094   1.000000
     20          1.566094   1.000000
     21          1.693462   1.000000
     22          1.755170   0.999998
     23          5.749905   0.000000
     24          5.799096   0.000000
     25          6.551992   0.000000
     26          6.722177   0.000000
     27          6.748586   0.000000
     28          7.469659   0.000000
     29          8.429443   0.000000
     30          8.752796   0.000000
     31          8.882778   0.000000
     32          9.602763   0.000000
     33         10.133919   0.000000
     34         10.188273   0.000000
     35         10.475713   0.000000
     36         11.237158   0.000000
     37         11.471703   0.000000
     38         12.030273   0.000000
     39         12.279156   0.000000
     40         12.359571   0.000000
     41         12.591289   0.000000
     42         13.329779   0.000000
     43         14.790379   0.000000
     44         15.063552   0.000000
     45         15.365024   0.000000
     46         15.463263   0.000000
     47         15.667440   0.000000
     48         16.472046   0.000000
 
  0.4500000E+00  0.3571429E-01  0.0000000E+00  0.3174603E-02
      1        -12.323517   1.000000
      2        -12.147518   1.000000
      3         -8.456658   1.000000
      4         -8.405322   1.000000
      5         -6.130999   1.000000
      6         -6.125641   1.000000
      7         -3.879996   1.000000
      8         -3.484896   1.000000
      9         -3.279148   1.000000
     10         -3.244816   1.000000
     11         -2.342120   1.000000
     12         -2.210475   1.000000
     13         -1.932046   1.000000
     14         -1.882501   1.000000
     15         -0.704262   1.000000
     16         -0.569676   1.000000
     17          0.282456   1.000000
     18          0.316493   1.000000
     19          0.907699   1.000000
     20          1.226152   1.000000
     21          1.612630   1.000000
     22          1.640566   1.000000
     23          5.776545   0.000000
     24          5.812165   0.000000
     25          6.529138   0.000000
     26          6.592567   0.000000
     27          7.421367   0.000000
     28          8.134340   0.000000
     29          8.153404   0.000000
     30          8.549077   0.000000
     31          8.689971   0.000000
     32          8.853769   0.000000
     33         10.571164   0.000000
     34         10.591001   0.000000
     35         10.840243   0.000000
     36         11.299534   0.000000
     37         11.484809   0.000000
     38         11.687582   0.000000
     39         12.023104   0.000000
     40         12.561675   0.000000
     41         12.787580   0.000000
     42         13.327531   0.000000
     43         14.666569   0.000000
     44         14.825948   0.000000
     45         14.951122   0.000000
     46         15.009282   0.000000
     47         16.203610   0.000000
     48         16.546634   0.000000
 
  0.5000000E-01  0.1071429E+00  0.0000000E+00  0.3174603E-02
      1        -12.707549   1.000000
      2        -11.567493   1.000000
      3         -8.630202   1.000000
      4         -8.388284   1.000000
      5         -6.019677   1.000000
      6         -5.078559   1.000000
      7         -4.623988   1.000000
      8         -4.561451   1.000000
      9         -4.161424   1.000000
     10         -3.502233   1.000000
     11         -3.261891   1.000000
     12         -1.766269   1.000000
     13         -1.065009   1.000000
     14         -1.003916   1.000000
     15         -0.280762   1.000000
     16         -0.252768   1.000000
     17          0.201526   1.000000
     18          0.282090   1.000000
     19          0.676405   1.000000
     20          1.782483   0.999944
     21          1.863390   0.942422
     22          2.308188   0.000000
     23          5.620834   0.000000
     24          5.756971   0.000000
     25          5.787495   0.000000
     26          6.061119   0.000000
     27          7.156513   0.000000
     28          7.888442   0.000000
     29          8.141052   0.000000
     30          8.247067   0.000000
     31          8.886836   0.000000
     32          9.183126   0.000000
     33          9.232560   0.000000
     34         10.638409   0.000000
     35         11.341888   0.000000
     36         11.456719   0.000000
     37         11.678908   0.000000
     38         11.959679   0.000000
     39         12.117556   0.000000
     40         12.747781   0.000000
     41         12.949946   0.000000
     42         13.270320   0.000000
     43         13.279561   0.000000
     44         15.428461   0.000000
     45         15.482740   0.000000
     46         15.951834   0.000000
     47         15.974746   0.000000
     48         16.319670   0.000000
 
  0.1500000E+00  0.1071429E+00  0.0000000E+00  0.3174603E-02
      1        -12.663833   1.000000
      2        -11.641059   1.000000
      3         -8.609126   1.000000
      4         -8.377161   1.000000
      5         -5.949278   1.000000
      6         -5.426062   1.000000
      7         -4.750434   1.000000
      8         -4.476427   1.000000
      9         -3.735797   1.000000
     10         -3.343616   1.000000
     11         -3.147023   1.000000
     12         -1.744332   1.000000
     13         -1.371794   1.000000
     14         -1.125438   1.000000
     15         -0.241294   1.000000
     16         -0.168570   1.000000
     17          0.169836   1.000000
     18          0.251629   1.000000
     19          0.573875   1.000000
     20          1.701603   1.000000
     21          1.786630   0.999910
     22          2.176678   0.000000
     23          5.696312   0.000000
     24          5.854744   0.000000
     25          5.988752   0.000000
     26          6.160533   0.000000
     27          7.072350   0.000000
     28          7.562341   0.000000
     29          8.286897   0.000000
     30          8.421947   0.000000
     31          9.218949   0.000000
     32          9.238461   0.000000
     33          9.490908   0.000000
     34         10.569107   0.000000
     35         10.947048   0.000000
     36         11.159643   0.000000
     37         11.511951   0.000000
     38         11.945127   0.000000
     39         12.338049   0.000000
     40         12.808457   0.000000
     41         12.945910   0.000000
     42         13.235679   0.000000
     43         13.814640   0.000000
     44         15.056997   0.000000
     45         15.494248   0.000000
     46         15.838234   0.000000
     47         15.894839   0.000000
     48         16.499833   0.000000
 
  0.2500000E+00  0.1071429E+00  0.0000000E+00  0.3174603E-02
      1        -12.578278   1.000000
      2        -11.773670   1.000000
      3         -8.565507   1.000000
      4         -8.363203   1.000000
      5         -5.925210   1.000000
      6         -5.753616   1.000000
      7         -4.708596   1.000000
      8         -4.366676   1.000000
      9         -3.466680   1.000000
     10         -3.208257   1.000000
     11         -2.678678   1.000000
     12         -1.878002   1.000000
     13         -1.699588   1.000000
     14         -1.290876   1.000000
     15         -0.192594   1.000000
     16         -0.187556   1.000000
     17          0.079224   1.000000
     18          0.238945   1.000000
     19          0.497104   1.000000
     20          1.565972   1.000000
     21          1.655983   1.000000
     22          1.927178   0.409521
     23          5.907899   0.000000
     24          5.981746   0.000000
     25          6.058621   0.000000
     26          6.611922   0.000000
     27          6.950520   0.000000
     28          7.333235   0.000000
     29          8.492449   0.000000
     30          8.557288   0.000000
     31          9.183282   0.000000
     32          9.691007   0.000000
     33          9.945596   0.000000
     34         10.194642   0.000000
     35         10.427509   0.000000
     36         10.903368   0.000000
     37         11.581326   0.000000
     38         12.178652   0.000000
     39         12.389873   0.000000
     40         12.623403   0.000000
     41         13.045508   0.000000
     42         13.094124   0.000000
     43         14.393254   0.000000
     44         15.185305   0.000000
     45         15.252197   0.000000
     46         15.740660   0.000000
     47         15.799016   0.000000
     48         16.519401   0.000000
 
  0.3500000E+00  0.1071429E+00  0.0000000E+00  0.3174603E-02
      1        -12.454876   1.000000
      2        -11.942656   1.000000
      3         -8.503451   1.000000
      4         -8.361070   1.000000
      5         -6.006128   1.000000
      6         -5.986192   1.000000
      7         -4.382250   1.000000
      8         -4.218241   1.000000
      9         -3.640007   1.000000
     10         -2.826419   1.000000
     11         -2.339982   1.000000
     12         -2.193935   1.000000
     13         -1.634671   1.000000
     14         -1.455801   1.000000
     15         -0.444487   1.000000
     16         -0.277782   1.000000
     17          0.112414   1.000000
     18          0.140830   1.000000
     19          0.656927   1.000000
     20          1.426076   1.000000
     21          1.509819   1.000000
     22          1.601457   1.000000
     23          5.926775   0.000000
     24          6.056027   0.000000
     25          6.564766   0.000000
     26          6.859420   0.000000
     27          6.931448   0.000000
     28          7.426080   0.000000
     29          8.478090   0.000000
     30          8.666667   0.000000
     31          9.013860   0.000000
     32          9.436374   0.000000
     33         10.146329   0.000000
     34         10.176223   0.000000
     35         10.512714   0.000000
     36         11.315491   0.000000
     37         11.435810   0.000000
     38         11.919604   0.000000
     39         12.383952   0.000000
     40         12.616243   0.000000
     41         12.792905   0.000000
     42         13.534397   0.000000
     43         14.853771   0.000000
     44         14.858957   0.000000
     45         15.248886   0.000000
     46         15.396136   0.000000
     47         15.749618   0.000000
     48         16.483922   0.000000
 
  0.4500000E+00  0.1071429E+00  0.0000000E+00  0.3174603E-02
      1        -12.300314   1.000000
      2        -12.124712   1.000000
      3         -8.436774   1.000000
      4         -8.384845   1.000000
      5         -6.098638   1.000000
      6         -6.092796   1.000000
      7         -4.037637   1.000000
      8         -3.872993   1.000000
      9         -3.831219   1.000000
     10         -3.266116   1.000000
     11         -2.087344   1.000000
     12         -1.890981   1.000000
     13         -1.566927   1.000000
     14         -1.566484   1.000000
     15         -0.665485   1.000000
     16         -0.566303   1.000000
     17          0.143823   1.000000
     18          0.175254   1.000000
     19          0.917169   1.000000
     20          1.232407   1.000000
     21          1.372042   1.000000
     22          1.396550   1.000000
     23          5.976681   0.000000
     24          6.040705   0.000000
     25          6.846924   0.000000
     26          6.897028   0.000000
     27          7.235828   0.000000
     28          7.952778   0.000000
     29          8.000965   0.000000
     30          8.687815   0.000000
     31          8.760901   0.000000
     32          8.875309   0.000000
     33         10.394994   0.000000
     34         10.641964   0.000000
     35         10.876769   0.000000
     36         10.988395   0.000000
     37         11.631775   0.000000
     38         11.747549   0.000000
     39         12.104170   0.000000
     40         12.733731   0.000000
     41         13.098905   0.000000
     42         13.561264   0.000000
     43         14.634782   0.000000
     44         14.818591   0.000000
     45         14.913109   0.000000
     46         15.129940   0.000000
     47         16.226166   0.000000
     48         16.520046   0.000000
 
  0.5000000E-01  0.1785714E+00  0.0000000E+00  0.3174603E-02
      1        -12.662942   1.000000
      2        -11.527700   1.000000
      3         -8.595449   1.000000
      4         -8.345223   1.000000
      5         -5.969679   1.000000
      6         -5.119051   1.000000
      7         -4.986619   1.000000
      8         -4.581754   1.000000
      9         -4.145861   1.000000
     10         -3.885568   1.000000
     11         -3.448618   1.000000
     12         -1.178728   1.000000
     13         -1.055556   1.000000
     14         -0.627463   1.000000
     15         -0.518407   1.000000
     16         -0.143128   1.000000
     17          0.222876   1.000000
     18          0.335811   1.000000
     19          0.755476   1.000000
     20          1.397195   1.000000
     21          1.461931   1.000000
     22          2.346796   0.000000
     23          5.328110   0.000000
     24          5.496108   0.000000
     25          6.175686   0.000000
     26          6.251839   0.000000
     27          7.596415   0.000000
     28          7.685035   0.000000
     29          8.374037   0.000000
     30          8.796687   0.000000
     31          8.952394   0.000000
     32          9.329288   0.000000
     33          9.448093   0.000000
     34         10.951240   0.000000
     35         11.390552   0.000000
     36         11.648072   0.000000
     37         11.762653   0.000000
     38         12.161834   0.000000
     39         12.334202   0.000000
     40         12.821165   0.000000
     41         12.835927   0.000000
     42         13.093891   0.000000
     43         13.293092   0.000000
     44         14.778816   0.000000
     45         15.255106   0.000000
     46         15.445050   0.000000
     47         15.512762   0.000000
     48         16.063011   0.000000
 
  0.1500000E+00  0.1785714E+00  0.0000000E+00  0.3174603E-02
      1        -12.619413   1.000000
      2        -11.600967   1.000000
      3         -8.574085   1.000000
      4         -8.334817   1.000000
      5         -5.895838   1.000000
      6         -5.378439   1.000000
      7         -5.017705   1.000000
      8         -4.712327   1.000000
      9         -3.952466   1.000000
     10         -3.693057   1.000000
     11         -3.107520   1.000000
     12         -1.363605   1.000000
     13         -1.151751   1.000000
     14         -0.733494   1.000000
     15         -0.480199   1.000000
     16         -0.062906   1.000000
     17          0.205713   1.000000
     18          0.276934   1.000000
     19          0.643217   1.000000
     20          1.317714   1.000000
     21          1.391981   1.000000
     22          2.210215   0.000000
     23          5.408144   0.000000
     24          5.844723   0.000000
     25          6.197777   0.000000
     26          6.289046   0.000000
     27          7.515183   0.000000
     28          7.841634   0.000000
     29          8.106183   0.000000
     30          8.886310   0.000000
     31          9.338848   0.000000
     32          9.358280   0.000000
     33          9.733784   0.000000
     34         10.586474   0.000000
     35         10.851517   0.000000
     36         11.350345   0.000000
     37         11.780928   0.000000
     38         12.272208   0.000000
     39         12.505164   0.000000
     40         12.570973   0.000000
     41         13.244763   0.000000
     42         13.344069   0.000000
     43         13.521731   0.000000
     44         14.786030   0.000000
     45         14.914497   0.000000
     46         15.393810   0.000000
     47         15.576224   0.000000
     48         16.080682   0.000000
 
  0.2500000E+00  0.1785714E+00  0.0000000E+00  0.3174603E-02
      1        -12.534222   1.000000
      2        -11.733034   1.000000
      3         -8.530064   1.000000
      4         -8.322205   1.000000
      5         -5.866314   1.000000
      6         -5.698572   1.000000
      7         -4.925809   1.000000
      8         -4.677192   1.000000
      9         -4.077496   1.000000
     10         -3.156978   1.000000
     11         -2.634423   1.000000
     12         -1.861495   1.000000
     13         -1.110673   1.000000
     14         -0.871653   1.000000
     15         -0.426659   1.000000
     16         -0.049583   1.000000
     17          0.042292   1.000000
     18          0.289699   1.000000
     19          0.527499   1.000000
     20          1.185586   1.000000
     21          1.273220   1.000000
     22          1.952366   0.173306
     23          5.730623   0.000000
     24          6.152713   0.000000
     25          6.324067   0.000000
     26          6.418063   0.000000
     27          7.411645   0.000000
     28          7.915428   0.000000
     29          8.075199   0.000000
     30          9.014518   0.000000
     31          9.327046   0.000000
     32          9.794156   0.000000
     33          9.918800   0.000000
     34         10.215380   0.000000
     35         10.325072   0.000000
     36         11.141749   0.000000
     37         11.655053   0.000000
     38         12.179025   0.000000
     39         12.585524   0.000000
     40         12.870559   0.000000
     41         13.130002   0.000000
     42         13.522121   0.000000
     43         14.044909   0.000000
     44         14.691201   0.000000
     45         14.965003   0.000000
     46         15.408613   0.000000
     47         15.598346   0.000000
     48         16.291049   0.000000
 
  0.3500000E+00  0.1785714E+00  0.0000000E+00  0.3174603E-02
      1        -12.411355   1.000000
      2        -11.901317   1.000000
      3         -8.467579   1.000000
      4         -8.321805   1.000000
      5         -5.944936   1.000000
      6         -5.928081   1.000000
      7         -4.788896   1.000000
      8         -4.355250   1.000000
      9         -4.243814   1.000000
     10         -2.786897   1.000000
     11         -2.298206   1.000000
     12         -2.152683   1.000000
     13         -1.053610   1.000000
     14         -1.007914   1.000000
     15         -0.429523   1.000000
     16         -0.337373   1.000000
     17          0.086657   1.000000
     18          0.092704   1.000000
     19          0.674727   1.000000
     20          1.055502   1.000000
     21          1.139907   1.000000
     22          1.615957   1.000000
     23          6.162860   0.000000
     24          6.269024   0.000000
     25          6.450541   0.000000
     26          6.854629   0.000000
     27          7.353885   0.000000
     28          7.835563   0.000000
     29          8.127410   0.000000
     30          9.114295   0.000000
     31          9.168793   0.000000
     32          9.246609   0.000000
     33          9.963657   0.000000
     34         10.263176   0.000000
     35         10.771131   0.000000
     36         11.151448   0.000000
     37         11.415134   0.000000
     38         12.025541   0.000000
     39         12.447050   0.000000
     40         13.059270   0.000000
     41         13.110099   0.000000
     42         13.869783   0.000000
     43         14.474591   0.000000
     44         14.486355   0.000000
     45         15.122299   0.000000
     46         15.214042   0.000000
     47         15.711388   0.000000
     48         16.466150   0.000000
 
  0.4500000E+00  0.1785714E+00  0.0000000E+00  0.3174603E-02
      1        -12.257451   1.000000
      2        -12.082598   1.000000
      3         -8.400249   1.000000
      4         -8.347200   1.000000
      5         -6.038539   1.000000
      6         -6.031617   1.000000
      7         -4.619602   1.000000
      8         -4.432133   1.000000
      9         -3.841042   1.000000
     10         -3.243298   1.000000
     11         -2.016707   1.000000
     12         -1.849718   1.000000
     13         -1.077557   1.000000
     14         -1.013457   1.000000
     15         -0.598621   1.000000
     16         -0.589466   1.000000
     17          0.036270   1.000000
     18          0.079849   1.000000
     19          0.932909   1.000000
     20          0.993341   1.000000
     21          1.034755   1.000000
     22          1.261143   1.000000
     23          6.254230   0.000000
     24          6.371028   0.000000
     25          6.925401   0.000000
     26          7.270458   0.000000
     27          7.330441   0.000000
     28          7.673175   0.000000
     29          7.983699   0.000000
     30          8.499085   0.000000
     31          9.171146   0.000000
     32          9.204051   0.000000
     33         10.086200   0.000000
     34         10.557260   0.000000
     35         10.783445   0.000000
     36         11.047687   0.000000
     37         11.812698   0.000000
     38         11.838020   0.000000
     39         12.227817   0.000000
     40         12.996025   0.000000
     41         13.492335   0.000000
     42         13.842997   0.000000
     43         14.317130   0.000000
     44         14.472177   0.000000
     45         15.078231   0.000000
     46         15.219587   0.000000
     47         16.085960   0.000000
     48         16.391728   0.000000
 
  0.5000000E-01  0.2500000E+00  0.0000000E+00  0.3174603E-02
      1        -12.605136   1.000000
      2        -11.476290   1.000000
      3         -8.551028   1.000000
      4         -8.289508   1.000000
      5         -5.904748   1.000000
      6         -5.601206   1.000000
      7         -4.915574   1.000000
      8         -4.524895   1.000000
      9         -4.407057   1.000000
     10         -4.106285   1.000000
     11         -3.386091   1.000000
     12         -1.201851   1.000000
     13         -1.041361   1.000000
     14         -0.984995   1.000000
     15         -0.164415   1.000000
     16          0.251436   1.000000
     17          0.379835   1.000000
     18          0.629130   1.000000
     19          0.819722   1.000000
     20          1.010373   1.000000
     21          1.024779   1.000000
     22          2.381475   0.000000
     23          4.981246   0.000000
     24          5.200151   0.000000
     25          6.413666   0.000000
     26          6.642690   0.000000
     27          7.323971   0.000000
     28          8.033527   0.000000
     29          8.776404   0.000000
     30          9.119715   0.000000
     31          9.549748   0.000000
     32          9.644811   0.000000
     33          9.729321   0.000000
     34         10.812851   0.000000
     35         11.344577   0.000000
     36         12.037188   0.000000
     37         12.082290   0.000000
     38         12.374000   0.000000
     39         12.495757   0.000000
     40         12.517263   0.000000
     41         12.640008   0.000000
     42         13.080025   0.000000
     43         13.893113   0.000000
     44         13.957894   0.000000
     45         14.511762   0.000000
     46         15.185870   0.000000
     47         15.483556   0.000000
     48         15.969654   0.000000
 
  0.1500000E+00  0.2500000E+00  0.0000000E+00  0.3174603E-02
      1        -12.561862   1.000000
      2        -11.549179   1.000000
      3         -8.529291   1.000000
      4         -8.280078   1.000000
      5         -5.826249   1.000000
      6         -5.566514   1.000000
      7         -5.254844   1.000000
      8         -4.661888   1.000000