<?xml version="1.0" encoding="ISO-8859-1"?>
<modeling>
 <generator>
  <i name="program" type="string">vasp </i>
  <i name="version" type="string">6.4.3  </i>
  <i name="subversion" type="string">19Mar24 (build May 31 2024 16:31:43) complex                          parallel </i>
  <i name="platform" type="string">LinuxIFC </i>
  <i name="date" type="string">2024 11 11 </i>
  <i name="time" type="string">16:05:08 </i>
 </generator>
 <incar>
  <i type="string" name="SYSTEM">Convergence</i>
  <i type="int" name="ISTART">     0</i>
  <i type="string" name="PREC">Accurate</i>
  <i type="string" name="ALGO">Normal</i>
  <i type="int" name="ISPIN">     1</i>
  <i type="int" name="ICHARG">     2</i>
  <i type="int" name="NELM">   100</i>
  <i type="int" name="IBRION">    -1</i>
  <i name="EDIFF">      0.00000100</i>
  <i name="EDIFFG">     -0.00100000</i>
  <i type="int" name="NSW">     0</i>
  <i type="int" name="ISIF">     2</i>
  <i name="ENCUT">    600.00000000</i>
  <i name="POTIM">      0.50000000</i>
  <i type="int" name="ISMEAR">     0</i>
  <i name="SIGMA">      0.05000000</i>
  <i type="logical" name="LWAVE"> F  </i>
  <i type="logical" name="LCHARG"> F  </i>
  <i type="string" name="GGA">PE</i>
 </incar>
 <primitive_cell>
  <structure name="primitive_cell" >
   <crystal>
    <varray name="basis" >
     <v>       5.68560600       0.00000000       0.00000000 </v>
     <v>       0.00000000       4.03980420       0.00000000 </v>
     <v>       0.00000000       0.00000000       6.19179160 </v>
    </varray>
    <i name="volume">    142.21762043 </i>
    <varray name="rec_basis" >
     <v>       0.17588275       0.00000000       0.00000000 </v>
     <v>       0.00000000       0.24753675       0.00000000 </v>
     <v>       0.00000000       0.00000000       0.16150414 </v>
    </varray>
   </crystal>
   <varray name="positions" >
    <v>       0.52123000       0.50000000       0.63796000 </v>
    <v>       0.47877000       0.50000000       0.36204000 </v>
    <v>       0.97877000       0.50000000       0.63796000 </v>
    <v>       0.02123000       0.50000000       0.36204000 </v>
    <v>       0.60090000       0.50000000       0.89991000 </v>
    <v>       0.39910000       0.50000000       0.10009000 </v>
    <v>       0.89910000       0.50000000       0.89991000 </v>
    <v>       0.10090000       0.50000000       0.10009000 </v>
    <v>       0.75000000       0.79171000       0.72973000 </v>
    <v>       0.25000000       0.20829000       0.27027000 </v>
    <v>       0.75000000       0.20829000       0.72973000 </v>
    <v>       0.25000000       0.79171000       0.27027000 </v>
    <v>       0.25000000       0.50000000       0.52367000 </v>
    <v>       0.75000000       0.50000000       0.47633000 </v>
   </varray>
  </structure>
  <varray name="primitive_index" >
   <v type="int" >        1 </v>
   <v type="int" >        2 </v>
   <v type="int" >        3 </v>
   <v type="int" >        4 </v>
   <v type="int" >        5 </v>
   <v type="int" >        6 </v>
   <v type="int" >        7 </v>
   <v type="int" >        8 </v>
   <v type="int" >        9 </v>
   <v type="int" >       10 </v>
   <v type="int" >       11 </v>
   <v type="int" >       12 </v>
   <v type="int" >       13 </v>
   <v type="int" >       14 </v>
  </varray>
 </primitive_cell>
 <kpoints>
  <generation param="Monkhorst-Pack">
   <v type="int" name="divisions">      10       14        9 </v>
   <v name="usershift">      0.00000000       0.00000000       0.00000000 </v>
   <v name="genvec1">      0.10000000       0.00000000       0.00000000 </v>
   <v name="genvec2">      0.00000000       0.07142857       0.00000000 </v>
   <v name="genvec3">      0.00000000       0.00000000       0.11111111 </v>
   <v name="shift">      0.50000000       0.50000000       0.00000000 </v>
  </generation>
  <varray name="kpointlist" >
   <v>       0.05000000       0.03571429       0.00000000 </v>
   <v>       0.15000000       0.03571429       0.00000000 </v>
   <v>       0.25000000       0.03571429       0.00000000 </v>
   <v>       0.35000000       0.03571429       0.00000000 </v>
   <v>       0.45000000       0.03571429       0.00000000 </v>
   <v>       0.05000000       0.10714286       0.00000000 </v>
   <v>       0.15000000       0.10714286       0.00000000 </v>
   <v>       0.25000000       0.10714286       0.00000000 </v>
   <v>       0.35000000       0.10714286       0.00000000 </v>
   <v>       0.45000000       0.10714286       0.00000000 </v>
   <v>       0.05000000       0.17857143       0.00000000 </v>
   <v>       0.15000000       0.17857143       0.00000000 </v>
   <v>       0.25000000       0.17857143       0.00000000 </v>
   <v>       0.35000000       0.17857143       0.00000000 </v>
   <v>       0.45000000       0.17857143       0.00000000 </v>
   <v>       0.05000000       0.25000000       0.00000000 </v>
   <v>       0.15000000       0.25000000       0.00000000 </v>
   <v>       0.25000000       0.25000000       0.00000000 </v>
   <v>       0.35000000       0.25000000       0.00000000 </v>
   <v>       0.45000000       0.25000000       0.00000000 </v>
   <v>       0.05000000       0.32142857       0.00000000 </v>
   <v>       0.15000000       0.32142857       0.00000000 </v>
   <v>       0.25000000       0.32142857       0.00000000 </v>
   <v>       0.35000000       0.32142857       0.00000000 </v>
   <v>       0.45000000       0.32142857       0.00000000 </v>
   <v>       0.05000000       0.39285714       0.00000000 </v>
   <v>       0.15000000       0.39285714       0.00000000 </v>
   <v>       0.25000000       0.39285714       0.00000000 </v>
   <v>       0.35000000       0.39285714       0.00000000 </v>
   <v>       0.45000000       0.39285714       0.00000000 </v>
   <v>       0.05000000       0.46428571       0.00000000 </v>
   <v>       0.15000000       0.46428571       0.00000000 </v>
   <v>       0.25000000       0.46428571       0.00000000 </v>
   <v>       0.35000000       0.46428571       0.00000000 </v>
   <v>       0.45000000       0.46428571       0.00000000 </v>
   <v>       0.05000000       0.03571429       0.11111111 </v>
   <v>       0.15000000       0.03571429       0.11111111 </v>
   <v>       0.25000000       0.03571429       0.11111111 </v>
   <v>       0.35000000       0.03571429       0.11111111 </v>
   <v>       0.45000000       0.03571429       0.11111111 </v>
   <v>       0.05000000       0.10714286       0.11111111 </v>
   <v>       0.15000000       0.10714286       0.11111111 </v>
   <v>       0.25000000       0.10714286       0.11111111 </v>
   <v>       0.35000000       0.10714286       0.11111111 </v>
   <v>       0.45000000       0.10714286       0.11111111 </v>
   <v>       0.05000000       0.17857143       0.11111111 </v>
   <v>       0.15000000       0.17857143       0.11111111 </v>
   <v>       0.25000000       0.17857143       0.11111111 </v>
   <v>       0.35000000       0.17857143       0.11111111 </v>
   <v>       0.45000000       0.17857143       0.11111111 </v>
   <v>       0.05000000       0.25000000       0.11111111 </v>
   <v>       0.15000000       0.25000000       0.11111111 </v>
   <v>       0.25000000       0.25000000       0.11111111 </v>
   <v>       0.35000000       0.25000000       0.11111111 </v>
   <v>       0.45000000       0.25000000       0.11111111 </v>
   <v>       0.05000000       0.32142857       0.11111111 </v>
   <v>       0.15000000       0.32142857       0.11111111 </v>
   <v>       0.25000000       0.32142857       0.11111111 </v>
   <v>       0.35000000       0.32142857       0.11111111 </v>
   <v>       0.45000000       0.32142857       0.11111111 </v>
   <v>       0.05000000       0.39285714       0.11111111 </v>
   <v>       0.15000000       0.39285714       0.11111111 </v>
   <v>       0.25000000       0.39285714       0.11111111 </v>
   <v>       0.35000000       0.39285714       0.11111111 </v>
   <v>       0.45000000       0.39285714       0.11111111 </v>
   <v>       0.05000000       0.46428571       0.11111111 </v>
   <v>       0.15000000       0.46428571       0.11111111 </v>
   <v>       0.25000000       0.46428571       0.11111111 </v>
   <v>       0.35000000       0.46428571       0.11111111 </v>
   <v>       0.45000000       0.46428571       0.11111111 </v>
   <v>       0.05000000       0.03571429       0.22222222 </v>
   <v>       0.15000000       0.03571429       0.22222222 </v>
   <v>       0.25000000       0.03571429       0.22222222 </v>
   <v>       0.35000000       0.03571429       0.22222222 </v>
   <v>       0.45000000       0.03571429       0.22222222 </v>
   <v>       0.05000000       0.10714286       0.22222222 </v>
   <v>       0.15000000       0.10714286       0.22222222 </v>
   <v>       0.25000000       0.10714286       0.22222222 </v>
   <v>       0.35000000       0.10714286       0.22222222 </v>
   <v>       0.45000000       0.10714286       0.22222222 </v>
   <v>       0.05000000       0.17857143       0.22222222 </v>
   <v>       0.15000000       0.17857143       0.22222222 </v>
   <v>       0.25000000       0.17857143       0.22222222 </v>
   <v>       0.35000000       0.17857143       0.22222222 </v>
   <v>       0.45000000       0.17857143       0.22222222 </v>
   <v>       0.05000000       0.25000000       0.22222222 </v>
   <v>       0.15000000       0.25000000       0.22222222 </v>
   <v>       0.25000000       0.25000000       0.22222222 </v>
   <v>       0.35000000       0.25000000       0.22222222 </v>
   <v>       0.45000000       0.25000000       0.22222222 </v>
   <v>       0.05000000       0.32142857       0.22222222 </v>
   <v>       0.15000000       0.32142857       0.22222222 </v>
   <v>       0.25000000       0.32142857       0.22222222 </v>
   <v>       0.35000000       0.32142857       0.22222222 </v>
   <v>       0.45000000       0.32142857       0.22222222 </v>
   <v>       0.05000000       0.39285714       0.22222222 </v>
   <v>       0.15000000       0.39285714       0.22222222 </v>
   <v>       0.25000000       0.39285714       0.22222222 </v>
   <v>       0.35000000       0.39285714       0.22222222 </v>
   <v>       0.45000000       0.39285714       0.22222222 </v>
   <v>       0.05000000       0.46428571       0.22222222 </v>
   <v>       0.15000000       0.46428571       0.22222222 </v>
   <v>       0.25000000       0.46428571       0.22222222 </v>
   <v>       0.35000000       0.46428571       0.22222222 </v>
   <v>       0.45000000       0.46428571       0.22222222 </v>
   <v>       0.05000000       0.03571429       0.33333333 </v>
   <v>       0.15000000       0.03571429       0.33333333 </v>
   <v>       0.25000000       0.03571429       0.33333333 </v>
   <v>       0.35000000       0.03571429       0.33333333 </v>
   <v>       0.45000000       0.03571429       0.33333333 </v>
   <v>       0.05000000       0.10714286       0.33333333 </v>
   <v>       0.15000000       0.10714286       0.33333333 </v>
   <v>       0.25000000       0.10714286       0.33333333 </v>
   <v>       0.35000000       0.10714286       0.33333333 </v>
   <v>       0.45000000       0.10714286       0.33333333 </v>
   <v>       0.05000000       0.17857143       0.33333333 </v>
   <v>       0.15000000       0.17857143       0.33333333 </v>
   <v>       0.25000000       0.17857143       0.33333333 </v>
   <v>       0.35000000       0.17857143       0.33333333 </v>
   <v>       0.45000000       0.17857143       0.33333333 </v>
   <v>       0.05000000       0.25000000       0.33333333 </v>
   <v>       0.15000000       0.25000000       0.33333333 </v>
   <v>       0.25000000       0.25000000       0.33333333 </v>
   <v>       0.35000000       0.25000000       0.33333333 </v>
   <v>       0.45000000       0.25000000       0.33333333 </v>
   <v>       0.05000000       0.32142857       0.33333333 </v>
   <v>       0.15000000       0.32142857       0.33333333 </v>
   <v>       0.25000000       0.32142857       0.33333333 </v>
   <v>       0.35000000       0.32142857       0.33333333 </v>
   <v>       0.45000000       0.32142857       0.33333333 </v>
   <v>       0.05000000       0.39285714       0.33333333 </v>
   <v>       0.15000000       0.39285714       0.33333333 </v>
   <v>       0.25000000       0.39285714       0.33333333 </v>
   <v>       0.35000000       0.39285714       0.33333333 </v>
   <v>       0.45000000       0.39285714       0.33333333 </v>
   <v>       0.05000000       0.46428571       0.33333333 </v>
   <v>       0.15000000       0.46428571       0.33333333 </v>
   <v>       0.25000000       0.46428571       0.33333333 </v>
   <v>       0.35000000       0.46428571       0.33333333 </v>
   <v>       0.45000000       0.46428571       0.33333333 </v>
   <v>       0.05000000       0.03571429       0.44444444 </v>
   <v>       0.15000000       0.03571429       0.44444444 </v>
   <v>       0.25000000       0.03571429       0.44444444 </v>
   <v>       0.35000000       0.03571429       0.44444444 </v>
   <v>       0.45000000       0.03571429       0.44444444 </v>
   <v>       0.05000000       0.10714286       0.44444444 </v>
   <v>       0.15000000       0.10714286       0.44444444 </v>
   <v>       0.25000000       0.10714286       0.44444444 </v>
   <v>       0.35000000       0.10714286       0.44444444 </v>
   <v>       0.45000000       0.10714286       0.44444444 </v>
   <v>       0.05000000       0.17857143       0.44444444 </v>
   <v>       0.15000000       0.17857143       0.44444444 </v>
   <v>       0.25000000       0.17857143       0.44444444 </v>
   <v>       0.35000000       0.17857143       0.44444444 </v>
   <v>       0.45000000       0.17857143       0.44444444 </v>
   <v>       0.05000000       0.25000000       0.44444444 </v>
   <v>       0.15000000       0.25000000       0.44444444 </v>
   <v>       0.25000000       0.25000000       0.44444444 </v>
   <v>       0.35000000       0.25000000       0.44444444 </v>
   <v>       0.45000000       0.25000000       0.44444444 </v>
   <v>       0.05000000       0.32142857       0.44444444 </v>
   <v>       0.15000000       0.32142857       0.44444444 </v>
   <v>       0.25000000       0.32142857       0.44444444 </v>
   <v>       0.35000000       0.32142857       0.44444444 </v>
   <v>       0.45000000       0.32142857       0.44444444 </v>
   <v>       0.05000000       0.39285714       0.44444444 </v>
   <v>       0.15000000       0.39285714       0.44444444 </v>
   <v>       0.25000000       0.39285714       0.44444444 </v>
   <v>       0.35000000       0.39285714       0.44444444 </v>
   <v>       0.45000000       0.39285714       0.44444444 </v>
   <v>       0.05000000       0.46428571       0.44444444 </v>
   <v>       0.15000000       0.46428571       0.44444444 </v>
   <v>       0.25000000       0.46428571       0.44444444 </v>
   <v>       0.35000000       0.46428571       0.44444444 </v>
   <v>       0.45000000       0.46428571       0.44444444 </v>
  </varray>
  <varray name="weights" >
   <v>       0.00317460 </v>
   <v>       0.00317460 </v>
   <v>       0.00317460 </v>
   <v>       0.00317460 </v>
   <v>       0.00317460 </v>
   <v>       0.00317460 </v>
   <v>       0.00317460 </v>
   <v>       0.00317460 </v>
   <v>       0.00317460 </v>
   <v>       0.00317460 </v>
   <v>       0.00317460 </v>
   <v>       0.00317460 </v>
   <v>       0.00317460 </v>
   <v>       0.00317460 </v>
   <v>       0.00317460 </v>
   <v>       0.00317460 </v>
   <v>       0.00317460 </v>
   <v>       0.00317460 </v>
   <v>       0.00317460 </v>
   <v>       0.00317460 </v>
   <v>       0.00317460 </v>
   <v>       0.00317460 </v>
   <v>       0.00317460 </v>
   <v>       0.00317460 </v>
   <v>       0.00317460 </v>
   <v>       0.00317460 </v>
   <v>       0.00317460 </v>
   <v>       0.00317460 </v>
   <v>       0.00317460 </v>
   <v>       0.00317460 </v>
   <v>       0.00317460 </v>
   <v>       0.00317460 </v>
   <v>       0.00317460 </v>
   <v>       0.00317460 </v>
   <v>       0.00317460 </v>
   <v>       0.00634921 </v>
   <v>       0.00634921 </v>
   <v>       0.00634921 </v>
   <v>       0.00634921 </v>
   <v>       0.00634921 </v>
   <v>       0.00634921 </v>
   <v>       0.00634921 </v>
   <v>       0.00634921 </v>
   <v>       0.00634921 </v>
   <v>       0.00634921 </v>
   <v>       0.00634921 </v>
   <v>       0.00634921 </v>
   <v>       0.00634921 </v>
   <v>       0.00634921 </v>
   <v>       0.00634921 </v>
   <v>       0.00634921 </v>
   <v>       0.00634921 </v>
   <v>       0.00634921 </v>
   <v>       0.00634921 </v>
   <v>       0.00634921 </v>
   <v>       0.00634921 </v>
   <v>       0.00634921 </v>
   <v>       0.00634921 </v>
   <v>       0.00634921 </v>
   <v>       0.00634921 </v>
   <v>       0.00634921 </v>
   <v>       0.00634921 </v>
   <v>       0.00634921 </v>
   <v>       0.00634921 </v>
   <v>       0.00634921 </v>
   <v>       0.00634921 </v>
   <v>       0.00634921 </v>
   <v>       0.00634921 </v>
   <v>       0.00634921 </v>
   <v>       0.00634921 </v>
   <v>       0.00634921 </v>
   <v>       0.00634921 </v>
   <v>       0.00634921 </v>
   <v>       0.00634921 </v>
   <v>       0.00634921 </v>
   <v>       0.00634921 </v>
   <v>       0.00634921 </v>
   <v>       0.00634921 </v>
   <v>       0.00634921 </v>
   <v>       0.00634921 </v>
   <v>       0.00634921 </v>
   <v>       0.00634921 </v>
   <v>       0.00634921 </v>
   <v>       0.00634921 </v>
   <v>       0.00634921 </v>
   <v>       0.00634921 </v>
   <v>       0.00634921 </v>
   <v>       0.00634921 </v>
   <v>       0.00634921 </v>
   <v>       0.00634921 </v>
   <v>       0.00634921 </v>
   <v>       0.00634921 </v>
   <v>       0.00634921 </v>
   <v>       0.00634921 </v>
   <v>       0.00634921 </v>
   <v>       0.00634921 </v>
   <v>       0.00634921 </v>
   <v>       0.00634921 </v>
   <v>       0.00634921 </v>
   <v>       0.00634921 </v>
   <v>       0.00634921 </v>
   <v>       0.00634921 </v>
   <v>       0.00634921 </v>
   <v>       0.00634921 </v>
   <v>       0.00634921 </v>
   <v>       0.00634921 </v>
   <v>       0.00634921 </v>
   <v>       0.00634921 </v>
   <v>       0.00634921 </v>
   <v>       0.00634921 </v>
   <v>       0.00634921 </v>
   <v>       0.00634921 </v>
   <v>       0.00634921 </v>
   <v>       0.00634921 </v>
   <v>       0.00634921 </v>
   <v>       0.00634921 </v>
   <v>       0.00634921 </v>
   <v>       0.00634921 </v>
   <v>       0.00634921 </v>
   <v>       0.00634921 </v>
   <v>       0.00634921 </v>
   <v>       0.00634921 </v>
   <v>       0.00634921 </v>
   <v>       0.00634921 </v>
   <v>       0.00634921 </v>
   <v>       0.00634921 </v>
   <v>       0.00634921 </v>
   <v>       0.00634921 </v>
   <v>       0.00634921 </v>
   <v>       0.00634921 </v>
   <v>       0.00634921 </v>
   <v>       0.00634921 </v>
   <v>       0.00634921 </v>
   <v>       0.00634921 </v>
   <v>       0.00634921 </v>
   <v>       0.00634921 </v>
   <v>       0.00634921 </v>
   <v>       0.00634921 </v>
   <v>       0.00634921 </v>
   <v>       0.00634921 </v>
   <v>       0.00634921 </v>
   <v>       0.00634921 </v>
   <v>       0.00634921 </v>
   <v>       0.00634921 </v>
   <v>       0.00634921 </v>
   <v>       0.00634921 </v>
   <v>       0.00634921 </v>
   <v>       0.00634921 </v>
   <v>       0.00634921 </v>
   <v>       0.00634921 </v>
   <v>       0.00634921 </v>
   <v>       0.00634921 </v>
   <v>       0.00634921 </v>
   <v>       0.00634921 </v>
   <v>       0.00634921 </v>
   <v>       0.00634921 </v>
   <v>       0.00634921 </v>
   <v>       0.00634921 </v>
   <v>       0.00634921 </v>
   <v>       0.00634921 </v>
   <v>       0.00634921 </v>
   <v>       0.00634921 </v>
   <v>       0.00634921 </v>
   <v>       0.00634921 </v>
   <v>       0.00634921 </v>
   <v>       0.00634921 </v>
   <v>       0.00634921 </v>
   <v>       0.00634921 </v>
   <v>       0.00634921 </v>
   <v>       0.00634921 </v>
   <v>       0.00634921 </v>
   <v>       0.00634921 </v>
   <v>       0.00634921 </v>
   <v>       0.00634921 </v>
   <v>       0.00634921 </v>
  </varray>
 </kpoints>
 <parameters>
  <separator name="general" >
   <i type="string" name="SYSTEM">Convergence</i>
   <i type="logical" name="LCOMPAT"> F  </i>
  </separator>
  <separator name="electronic" >
   <i type="string" name="PREC">accura</i>
   <i name="ENMAX">    600.00000000</i>
   <i name="ENAUG">    535.51400000</i>
   <i name="EDIFF">      0.00000100</i>
   <i type="int" name="IALGO">    38</i>
   <i type="int" name="IWAVPR">    10</i>
   <i type="int" name="NBANDS">    48</i>
   <i type="int" name="NBANDSLOW">    -1</i>
   <i type="int" name="NBANDSHIGH">    -1</i>
   <i name="NELECT">     42.00000000</i>
   <i type="int" name="TURBO">     0</i>
   <i type="int" name="IRESTART">     0</i>
   <i type="int" name="NREBOOT">     0</i>
   <i type="int" name="NMIN">     0</i>
   <i name="EREF">      0.00000000</i>
   <separator name="electronic smearing" >
    <i type="int" name="ISMEAR">     0</i>
    <i name="SIGMA">      0.05000000</i>
    <i name="KSPACING">      0.50000000</i>
    <i type="logical" name="KGAMMA"> T  </i>
    <i type="logical" name="KBLOWUP"> T  </i>
   </separator>
   <separator name="electronic projectors" >
    <i type="logical" name="LREAL"> F  </i>
    <v name="ROPT">      0.00000000</v>
    <i type="int" name="LMAXPAW">  -100</i>
    <i type="int" name="LMAXMIX">     2</i>
    <i type="logical" name="NLSPLINE"> F  </i>
   </separator>
   <separator name="electronic startup" >
    <i type="int" name="ISTART">     0</i>
    <i type="int" name="ICHARG">     2</i>
    <i type="int" name="INIWAV">     1</i>
   </separator>
   <separator name="electronic spin" >
    <i type="int" name="ISPIN">     1</i>
    <i type="logical" name="LNONCOLLINEAR"> F  </i>
    <v name="MAGMOM">      1.00000000      1.00000000      1.00000000      1.00000000      1.00000000      1.00000000      1.00000000      1.00000000      1.00000000      1.00000000      1.00000000      1.00000000      1.00000000      1.00000000</v>
    <i name="NUPDOWN">     -1.00000000</i>
    <i type="logical" name="LSORBIT"> F  </i>
    <v name="SAXIS">      0.00000000      0.00000000      1.00000000</v>
    <i type="logical" name="LSPIRAL"> F  </i>
    <v name="QSPIRAL">      0.00000000      0.00000000      0.00000000</v>
    <i type="logical" name="LZEROZ"> F  </i>
   </separator>
   <separator name="electronic exchange-correlation" >
    <i type="logical" name="LASPH"> F  </i>
   </separator>
   <separator name="electronic convergence" >
    <i type="int" name="NELM">   100</i>
    <i type="int" name="NELMDL">    -5</i>
    <i type="int" name="NELMIN">     2</i>
    <i name="ENINI">    600.00000000</i>
    <separator name="electronic convergence detail" >
     <i type="logical" name="LDIAG"> T  </i>
     <i type="logical" name="LSUBROT"> F  </i>
     <i name="WEIMIN">      0.00000000</i>
     <i name="EBREAK">      0.00000001</i>
     <i name="DEPER">      0.30000000</i>
     <i type="int" name="NRMM">     4</i>
     <i name="TIME">      0.40000000</i>
    </separator>
   </separator>
   <separator name="electronic mixer" >
    <i name="AMIX">      0.40000000</i>
    <i name="BMIX">      1.00000000</i>
    <i name="AMIN">      0.10000000</i>
    <i name="AMIX_MAG">      1.60000000</i>
    <i name="BMIX_MAG">      1.00000000</i>
    <separator name="electronic mixer details" >
     <i type="int" name="IMIX">     4</i>
     <i type="logical" name="MIXFIRST"> F  </i>
     <i type="int" name="MAXMIX">   -45</i>
     <i name="WC">    100.00000000</i>
     <i type="int" name="INIMIX">     1</i>
     <i type="int" name="MIXPRE">     1</i>
     <i type="int" name="MREMOVE">     5</i>
    </separator>
   </separator>
   <separator name="electronic dipolcorrection" >
    <i type="logical" name="LDIPOL"> F  </i>
    <i type="logical" name="LMONO"> F  </i>
    <i type="int" name="IDIPOL">     0</i>
    <i name="EPSILON">      1.00000000</i>
    <v name="DIPOL">   -100.00000000   -100.00000000   -100.00000000</v>
    <i name="EFIELD">      0.00000000</i>
    <i type="logical" name="LVACPOTAV"> F  </i>
   </separator>
  </separator>
  <separator name="grids" >
   <i type="int" name="NGX">    48</i>
   <i type="int" name="NGY">    32</i>
   <i type="int" name="NGZ">    50</i>
   <i type="int" name="NGXF">    96</i>
   <i type="int" name="NGYF">    64</i>
   <i type="int" name="NGZF">   100</i>
   <i type="logical" name="ADDGRID"> F  </i>
  </separator>
  <separator name="ionic" >
   <i type="int" name="NSW">     0</i>
   <i type="int" name="IBRION">    -1</i>
   <i type="int" name="MDALGO">     0</i>
   <i type="int" name="ISIF">     2</i>
   <i name="PSTRESS">      0.00000000</i>
   <i name="EDIFFG">     -0.00100000</i>
   <i type="int" name="NFREE">     0</i>
   <i name="POTIM">      0.50000000</i>
   <i name="SMASS">     -3.00000000</i>
   <i name="SCALEE">      1.00000000</i>
  </separator>
  <separator name="ionic md" >
   <i name="TEBEG">      0.00010000</i>
   <i name="TEEND">      0.00010000</i>
   <i type="int" name="NBLOCK">     1</i>
   <i type="int" name="KBLOCK">     1</i>
   <i type="int" name="NPACO">   256</i>
   <i name="APACO">     10.00000000</i>
  </separator>
  <separator name="symmetry" >
   <i type="int" name="ISYM">     2</i>
   <i name="SYMPREC">      0.00001000</i>
  </separator>
  <separator name="dos" >
   <i type="int" name="LORBIT">     0</i>
   <v name="RWIGS">     -1.00000000</v>
   <i type="int" name="NEDOS">   301</i>
   <i name="EMIN">     10.00000000</i>
   <i name="EMAX">    -10.00000000</i>
   <i name="EFERMI">      0.00000000</i>
  </separator>
  <separator name="writing" >
   <i type="int" name="NWRITE">     2</i>
   <i type="logical" name="LWAVE"> F  </i>
   <i type="logical" name="LDOWNSAMPLE"> F  </i>
   <i type="logical" name="LCHARG"> F  </i>
   <i type="logical" name="LPARD"> F  </i>
   <i type="logical" name="LVTOT"> F  </i>
   <i type="logical" name="LVHAR"> F  </i>
   <i type="logical" name="LELF"> F  </i>
   <i type="logical" name="LOPTICS"> F  </i>
   <v name="STM">      0.00000000      0.00000000      0.00000000      0.00000000      0.00000000      0.00000000      0.00000000</v>
  </separator>
  <separator name="performance" >
   <i type="int" name="NPAR">    24</i>
   <i type="int" name="NSIM">     4</i>
   <i type="int" name="NBLK">    -1</i>
   <i type="logical" name="LPLANE"> T  </i>
   <i type="logical" name="LSCALAPACK"> T  </i>
   <i type="logical" name="LSCAAWARE"> F  </i>
   <i type="logical" name="LSCALU"> F  </i>
   <i type="logical" name="LASYNC"> F  </i>
   <i type="logical" name="LORBITALREAL"> F  </i>
  </separator>
  <separator name="miscellaneous" >
   <i type="int" name="IDIOT">     3</i>
   <i type="int" name="PHON_NSTRUCT">    -1</i>
   <i type="logical" name="LMUSIC"> F  </i>
   <v name="POMASS">     10.81100000</v>
   <v name="DARWINR">      0.00000000</v>
   <v name="DARWINV">      1.00000000</v>
   <i type="logical" name="LCORR"> T  </i>
  </separator>
  <i type="logical" name="GGA_COMPAT"> T  </i>
  <i type="logical" name="LBERRY"> F  </i>
  <i type="int" name="ICORELEVEL">     0</i>
  <i type="logical" name="LDAU"> F  </i>
  <i type="int" name="I_CONSTRAINED_M">     0</i>
  <separator name="electronic exchange-correlation" >
   <i type="string" name="GGA    ">PE</i>
   <i type="string" name="XC_C">1</i>
   <i type="int" name="VOSKOWN">     0</i>
   <i type="logical" name="LHFCALC"> F  </i>
   <i type="string" name="PRECFOCK"></i>
   <i type="logical" name="LSYMGRAD"> F  </i>
   <i type="logical" name="LHFONE"> F  </i>
   <i type="logical" name="LRHFCALC"> F  </i>
   <i type="logical" name="LTHOMAS"> F  </i>
   <i type="logical" name="LMODELHF"> F  </i>
   <i type="logical" name="LFOCKACE"> F  </i>
   <i name="ENCUT4O">     -1.00000000</i>
   <i type="int" name="EXXOEP">     0</i>
   <i type="int" name="FOURORBIT">     0</i>
   <i name="AEXX">      0.00000000</i>
   <i name="HFALPHA">      0.00000000</i>
   <i name="MCALPHA">      0.00000000</i>
   <i name="ALDAX">      1.00000000</i>
   <i name="AGGAX">      1.00000000</i>
   <i name="AMGGAX">      1.00000000</i>
   <i name="ALDAC">      1.00000000</i>
   <i name="AGGAC">      1.00000000</i>
   <i name="AMGGAC">      1.00000000</i>
   <i type="int" name="NKREDX">     1</i>
   <i type="int" name="NKREDY">     1</i>
   <i type="int" name="NKREDZ">     1</i>
   <i type="logical" name="SHIFTRED"> F  </i>
   <i type="logical" name="ODDONLY"> F  </i>
   <i type="logical" name="EVENONLY"> F  </i>
   <i type="int" name="LMAXFOCK">     0</i>
   <i type="int" name="NMAXFOCKAE">     0</i>
   <i type="logical" name="LFOCKAEDFT"> F  </i>
   <i name="HFSCREEN">      0.00000000</i>
   <i name="HFSCREENC">      0.00000000</i>
   <i type="int" name="NBANDSGWLOW">     0</i>
  </separator>
  <separator name="vdW DFT" >
   <i type="logical" name="LUSE_VDW"> F  </i>
   <i type="int" name="IVDW_NL">    -1</i>
   <i type="logical" name="LSPIN_VDW"> F  </i>
   <i name="ZAB_VDW">     -0.84910000</i>
   <i name="GAMMA_VDW">      1.39626340</i>
   <i name="ALPHA_VDW">      0.00000000</i>
   <i name="PARAM1">      0.12340000</i>
   <i name="PARAM2">      1.00000000</i>
   <i name="BPARAM">      6.30000000</i>
   <i name="CPARAM">      0.00930000</i>
  </separator>
  <separator name="model GW" >
   <i type="int" name="MODEL_GW">     0</i>
   <i name="MODEL_EPS0">      6.09504088</i>
   <i name="MODEL_ALPHA">      1.00000000</i>
  </separator>
  <separator name="linear response parameters" >
   <i type="logical" name="LEPSILON"> F  </i>
   <i type="logical" name="LRPA"> F  </i>
   <i type="logical" name="LNABLA"> F  </i>
   <i type="logical" name="LVEL"> F  </i>
   <i name="CSHIFT">      0.10000000</i>
   <i name="OMEGAMAX">     -1.00000000</i>
   <i name="DEG_THRESHOLD">      0.00200000</i>
   <i name="RTIME">     -0.10000000</i>
   <i name="WPLASMAI">      0.00000000</i>
   <v name="DFIELD">      0.00000000      0.00000000      0.00000000</v>
   <v name="WPLASMA">      0.00000000      0.00000000      0.00000000      0.00000000      0.00000000      0.00000000      0.00000000      0.00000000      0.00000000</v>
  </separator>
  <separator name="orbital magnetization" >
   <i type="logical" name="NUCIND"> F  </i>
   <v name="MAGPOS">      0.00000000      0.00000000      0.00000000</v>
   <i type="logical" name="LNICSALL"> T  </i>
   <i type="logical" name="ORBITALMAG"> F  </i>
   <i type="logical" name="LMAGBLOCH"> F  </i>
   <i type="logical" name="LCHIMAG"> F  </i>
   <i type="logical" name="LGAUGE"> T  </i>
   <i type="int" name="MAGATOM">     0</i>
   <v name="MAGDIPOL">      0.00000000      0.00000000      0.00000000</v>
   <v name="AVECCONST">      0.00000000      0.00000000      0.00000000</v>
  </separator>
  <separator name="response functions" >
   <i type="logical" name="LALL_IN_ONE"> F  </i>
   <i type="int" name="IALL_IN_ONE">    -1</i>
   <i type="int" name="NBANDS_WAVE">    -1</i>
   <i type="logical" name="LFINITE_TEMPERATURE"> F  </i>
   <i type="logical" name="LADDER"> F  </i>
   <i type="logical" name="LRPAFORCE"> F  </i>
   <i type="logical" name="LFXC"> F  </i>
   <i type="logical" name="LHARTREE"> T  </i>
   <i type="int" name="IBSE">     0</i>
   <v type="int" name="KPOINT">    -1     0     0     0</v>
   <i type="logical" name="LTCTC"> F  </i>
   <i type="logical" name="LTCTE"> F  </i>
   <i type="logical" name="LTETE"> F  </i>
   <i type="logical" name="LTRIPLET"> F  </i>
   <i type="logical" name="LFXCEPS"> F  </i>
   <i type="logical" name="LFXHEG"> F  </i>
   <i type="int" name="NATURALO">     2</i>
   <i type="logical" name="LHOLEGF"> F  </i>
   <i type="logical" name="L2ORDER"> F  </i>
   <i type="logical" name="LDMP1"> F  </i>
   <i type="logical" name="LMP2LT"> F  </i>
   <i type="logical" name="LSMP2LT"> F  </i>
   <i type="logical" name="LGWLF"> F  </i>
   <i name="ENCUTGW">     -1.60000002</i>
   <i name="ENCUTGWSOFT">     -1.60000002</i>
   <i name="ENCUTLF">     -1.00000000</i>
   <i type="logical" name="ESF_SPLINES"> F  </i>
   <i name="ESF_CONV">      0.01000000</i>
   <i type="int" name="ESF_NINTER">    15</i>
   <i type="int" name="LMAXMP2">    -1</i>
   <i name="SCISSOR">      0.00000000</i>
   <i type="int" name="NOMEGA">     0</i>
   <i type="int" name="NOMEGAR">     0</i>
   <i type="int" name="NBANDSGW">    -1</i>
   <i type="int" name="NBANDSO">    -1</i>
   <i type="int" name="NBANDSV">    -1</i>
   <i type="int" name="NELMGW">     1</i>
   <i type="int" name="NELMHF">     1</i>
   <i type="int" name="DIM">     3</i>
   <i type="int" name="IESPILON">     4</i>
   <i type="int" name="ANTIRES">     0</i>
   <i name="OMEGAMAX">    -30.00000000</i>
   <i name="OMEGAMIN">    -30.00000000</i>
   <i name="OMEGATL">   -200.00000000</i>
   <i type="int" name="OMEGAGRID">     0</i>
   <i name="CSHIFT">     -0.10000000</i>
   <i type="logical" name="LSELFENERGY"> F  </i>
   <i type="logical" name="LSPECTRAL"> F  </i>
   <i type="logical" name="LSPECTRALGW"> F  </i>
   <i type="logical" name="LSINGLES"> F  </i>
   <i type="logical" name="LFERMIGW"> F  </i>
   <i type="logical" name="ODDONLYGW"> F  </i>
   <i type="logical" name="EVENONLYGW"> F  </i>
   <i type="int" name="NKREDLFX">     1</i>
   <i type="int" name="NKREDLFY">     1</i>
   <i type="int" name="NKREDLFZ">     1</i>
   <i type="int" name="MAXMEM">  2800</i>
   <i type="int" name="TELESCOPE">     0</i>
   <i type="int" name="NTAUPAR">    -1</i>
   <i type="int" name="NOMEGAPAR">    -1</i>
   <i name="DAMP_NEWTON">      0.80000001</i>
   <i name="LAMBDA">      1.00000000</i>
  </separator>
  <separator name="External order field" >
   <i name="OFIELD_KAPPA">      0.00000000</i>
   <v name="OFIELD_K">      0.00000000      0.00000000      0.00000000</v>
   <i name="OFIELD_Q6_NEAR">      0.00000000</i>
   <i name="OFIELD_Q6_FAR">      0.00000000</i>
   <i name="OFIELD_A">      0.00000000</i>
  </separator>
  <separator name="optional k-points parameters" >
   <i type="int" name="KPOINTS_OPT_MODE">     1</i>
   <i type="logical" name="LKPOINTS_OPT"> F  </i>
  </separator>
 </parameters>
 <atominfo>
  <atoms>      14 </atoms>
  <types>       1 </types>
  <array name="atoms" >
   <dimension dim="1">ion</dimension>
   <field type="string">element</field>
   <field type="int">atomtype</field>
   <set>
    <rc><c>B </c><c>   1</c></rc>
    <rc><c>B </c><c>   1</c></rc>
    <rc><c>B </c><c>   1</c></rc>
    <rc><c>B </c><c>   1</c></rc>
    <rc><c>B </c><c>   1</c></rc>
    <rc><c>B </c><c>   1</c></rc>
    <rc><c>B </c><c>   1</c></rc>
    <rc><c>B </c><c>   1</c></rc>
    <rc><c>B </c><c>   1</c></rc>
    <rc><c>B </c><c>   1</c></rc>
    <rc><c>B </c><c>   1</c></rc>
    <rc><c>B </c><c>   1</c></rc>
    <rc><c>B </c><c>   1</c></rc>
    <rc><c>B </c><c>   1</c></rc>
   </set>
  </array>
  <array name="atomtypes" >
   <dimension dim="1">type</dimension>
   <field type="int">atomspertype</field>
   <field type="string">element</field>
   <field>mass</field>
   <field>valence</field>
   <field type="string">pseudopotential</field>
   <set>
    <rc><c>  14</c><c>B </c><c>     10.81100000</c><c>      3.00000000</c><c>  PAW_PBE B 06Sep2000                   </c></rc>
   </set>
  </array>
 </atominfo>
 <structure name="initialpos" >
  <crystal>
   <varray name="basis" >
    <v>       5.68560600       0.00000000       0.00000000 </v>
    <v>       0.00000000       4.03980420       0.00000000 </v>
    <v>       0.00000000       0.00000000       6.19179160 </v>
   </varray>
   <i name="volume">    142.21762043 </i>
   <varray name="rec_basis" >
    <v>       0.17588275       0.00000000       0.00000000 </v>
    <v>       0.00000000       0.24753675       0.00000000 </v>
    <v>       0.00000000       0.00000000       0.16150414 </v>
   </varray>
  </crystal>
  <varray name="positions" >
   <v>       0.52123000       0.50000000       0.63796000 </v>
   <v>       0.47877000       0.50000000       0.36204000 </v>
   <v>       0.97877000       0.50000000       0.63796000 </v>
   <v>       0.02123000       0.50000000       0.36204000 </v>
   <v>       0.60090000       0.50000000       0.89991000 </v>
   <v>       0.39910000       0.50000000       0.10009000 </v>
   <v>       0.89910000       0.50000000       0.89991000 </v>
   <v>       0.10090000       0.50000000       0.10009000 </v>
   <v>       0.75000000       0.79171000       0.72973000 </v>
   <v>       0.25000000       0.20829000       0.27027000 </v>
   <v>       0.75000000       0.20829000       0.72973000 </v>
   <v>       0.25000000       0.79171000       0.27027000 </v>
   <v>       0.25000000       0.50000000       0.52367000 </v>
   <v>       0.75000000       0.50000000       0.47633000 </v>
  </varray>
 </structure>
 <calculation>
  <scstep>
   <time name="dav">    5.44    5.47</time>
   <time name="total">    5.45    5.49</time>
   <energy>
    <i name="alphaZ">     94.81131080 </i>
    <i name="ewald">   -797.36130352 </i>
    <i name="hartreedc">   -270.73673474 </i>
    <i name="XCdc">     97.65315795 </i>
    <i name="pawpsdc">    608.99811708 </i>
    <i name="pawaedc">   -597.02363782 </i>
    <i name="eentropy">     -0.00273790 </i>
    <i name="bandstr">    -53.28871935 </i>
    <i name="atom">    996.37441054 </i>
    <i name="e_fr_energy">     79.42386305 </i>
    <i name="e_wo_entrp">     79.42660094 </i>
    <i name="e_0_energy">     79.42523200 </i>
   </energy>
  </scstep>
  <scstep>
   <time name="dav">    7.08    7.14</time>
   <time name="total">    7.08    7.14</time>
   <energy>
    <i name="e_fr_energy">    -91.89241018 </i>
    <i name="e_wo_entrp">    -91.88913365 </i>
    <i name="e_0_energy">    -91.89077191 </i>
   </energy>
  </scstep>
  <scstep>
   <time name="dav">    7.63    7.69</time>
   <time name="total">    7.64    7.69</time>
   <energy>
    <i name="e_fr_energy">    -97.71746419 </i>
    <i name="e_wo_entrp">    -97.71381274 </i>
    <i name="e_0_energy">    -97.71563847 </i>
   </energy>
  </scstep>
  <scstep>
   <time name="dav">    6.20    6.24</time>
   <time name="total">    6.20    6.25</time>
   <energy>
    <i name="e_fr_energy">    -97.75145884 </i>
    <i name="e_wo_entrp">    -97.74781370 </i>
    <i name="e_0_energy">    -97.74963627 </i>
   </energy>
  </scstep>
  <scstep>
   <time name="dav">    7.61    7.66</time>
   <time name="total">    7.70    7.76</time>
   <energy>
    <i name="e_fr_energy">    -97.75183286 </i>
    <i name="e_wo_entrp">    -97.74818774 </i>
    <i name="e_0_energy">    -97.75001030 </i>
   </energy>
  </scstep>
  <scstep>
   <time name="dav">    7.53    7.62</time>
   <time name="total">    7.64    7.72</time>
   <energy>
    <i name="e_fr_energy">    -92.24667648 </i>
    <i name="e_wo_entrp">    -92.24326743 </i>
    <i name="e_0_energy">    -92.24497196 </i>
   </energy>
  </scstep>
  <scstep>
   <time name="dav">    7.76    7.83</time>
   <time name="total">    7.87    7.93</time>
   <energy>
    <i name="e_fr_energy">    -90.57170299 </i>
    <i name="e_wo_entrp">    -90.56858316 </i>
    <i name="e_0_energy">    -90.57014307 </i>
   </energy>
  </scstep>
  <scstep>
   <time name="dav">    5.85    5.89</time>
   <time name="total">    5.95    5.99</time>
   <energy>
    <i name="e_fr_energy">    -90.58394029 </i>
    <i name="e_wo_entrp">    -90.58076696 </i>
    <i name="e_0_energy">    -90.58235363 </i>
   </energy>
  </scstep>
  <scstep>
   <time name="dav">    7.24    7.29</time>
   <time name="total">    7.35    7.40</time>
   <energy>
    <i name="e_fr_energy">    -90.59807617 </i>
    <i name="e_wo_entrp">    -90.59481389 </i>
    <i name="e_0_energy">    -90.59644503 </i>
   </energy>
  </scstep>
  <scstep>
   <time name="dav">    5.99    6.05</time>
   <time name="total">    6.09    6.15</time>
   <energy>
    <i name="e_fr_energy">    -90.60214203 </i>
    <i name="e_wo_entrp">    -90.59892665 </i>
    <i name="e_0_energy">    -90.60053434 </i>
   </energy>
  </scstep>
  <scstep>
   <time name="dav">    6.71    6.79</time>
   <time name="total">    6.81    6.90</time>
   <energy>
    <i name="e_fr_energy">    -90.60320730 </i>
    <i name="e_wo_entrp">    -90.60000309 </i>
    <i name="e_0_energy">    -90.60160519 </i>
   </energy>
  </scstep>
  <scstep>
   <time name="dav">    6.47    6.51</time>
   <time name="total">    6.57    6.61</time>
   <energy>
    <i name="e_fr_energy">    -90.60332495 </i>
    <i name="e_wo_entrp">    -90.60011443 </i>
    <i name="e_0_energy">    -90.60171969 </i>
   </energy>
  </scstep>
  <scstep>
   <time name="dav">    7.23    7.28</time>
   <time name="total">    7.33    7.38</time>
   <energy>
    <i name="e_fr_energy">    -90.60332981 </i>
    <i name="e_wo_entrp">    -90.60011890 </i>
    <i name="e_0_energy">    -90.60172436 </i>
   </energy>
  </scstep>
  <scstep>
   <time name="dav">    6.43    6.57</time>
   <time name="total">    6.44    6.58</time>
   <energy>
    <i name="alphaZ">     94.81131080 </i>
    <i name="ewald">   -797.36130352 </i>
    <i name="hartreedc">   -349.06698445 </i>
    <i name="XCdc">    101.77363959 </i>
    <i name="pawpsdc">   3779.58752604 </i>
    <i name="pawaedc">  -3768.79248199 </i>
    <i name="eentropy">     -0.00321101 </i>
    <i name="bandstr">   -147.92623651 </i>
    <i name="atom">    996.37441054 </i>
    <i name="e_fr_energy">    -90.60333051 </i>
    <i name="e_wo_entrp">    -90.60011950 </i>
    <i name="e_0_energy">    -90.60172500 </i>
   </energy>
  </scstep>
  <structure>
   <crystal>
    <varray name="basis" >
     <v>       5.68560600       0.00000000       0.00000000 </v>
     <v>       0.00000000       4.03980420       0.00000000 </v>
     <v>       0.00000000       0.00000000       6.19179160 </v>
    </varray>
    <i name="volume">    142.21762043 </i>
    <varray name="rec_basis" >
     <v>       0.17588275       0.00000000       0.00000000 </v>
     <v>       0.00000000       0.24753675       0.00000000 </v>
     <v>       0.00000000       0.00000000       0.16150414 </v>
    </varray>
   </crystal>
   <varray name="positions" >
    <v>       0.52123000       0.50000000       0.63796000 </v>
    <v>       0.47877000       0.50000000       0.36204000 </v>
    <v>       0.97877000       0.50000000       0.63796000 </v>
    <v>       0.02123000       0.50000000       0.36204000 </v>
    <v>       0.60090000       0.50000000       0.89991000 </v>
    <v>       0.39910000       0.50000000       0.10009000 </v>
    <v>       0.89910000       0.50000000       0.89991000 </v>
    <v>       0.10090000       0.50000000       0.10009000 </v>
    <v>       0.75000000       0.79171000       0.72973000 </v>
    <v>       0.25000000       0.20829000       0.27027000 </v>
    <v>       0.75000000       0.20829000       0.72973000 </v>
    <v>       0.25000000       0.79171000       0.27027000 </v>
    <v>       0.25000000       0.50000000       0.52367000 </v>
    <v>       0.75000000       0.50000000       0.47633000 </v>
   </varray>
  </structure>
  <varray name="forces" >
   <v>      -0.03696021      -0.00000000       0.06363740 </v>
   <v>       0.03696021      -0.00000000      -0.06363740 </v>
   <v>       0.03696021       0.00000000       0.06363740 </v>
   <v>      -0.03696021       0.00000000      -0.06363740 </v>
   <v>      -0.85691700      -0.00000000       0.31062634 </v>
   <v>       0.85691700      -0.00000000      -0.31062634 </v>
   <v>       0.85691700       0.00000000       0.31062634 </v>
   <v>      -0.85691700       0.00000000      -0.31062634 </v>
   <v>      -0.00000000       0.06439178      -0.08442466 </v>
   <v>      -0.00000000      -0.06439178       0.08442466 </v>
   <v>      -0.00000000      -0.06439178      -0.08442466 </v>
   <v>      -0.00000000       0.06439178       0.08442466 </v>
   <v>      -0.00000000      -0.00000000       0.10729240 </v>
   <v>       0.00000000      -0.00000000      -0.10729240 </v>
  </varray>
  <varray name="stress" >
   <v>      26.04748313       0.00000000       0.00000000 </v>
   <v>       0.00000000       6.98347145       0.00000000 </v>
   <v>       0.00000000       0.00000000       3.45062686 </v>
  </varray>
  <energy>
   <i name="e_fr_energy">    -90.60333051 </i>
   <i name="e_wo_entrp">    -90.60011950 </i>
   <i name="e_0_energy">    -90.60172500 </i>
  </energy>
  <time name="totalsc">  100.72  101.76</time>
  <eigenvalues>
   <array>
    <dimension dim="1">band</dimension>
    <dimension dim="2">kpoint</dimension>
    <dimension dim="3">spin</dimension>
    <field>eigene</field>
    <field>occ</field>
    <set>
     <set comment="spin 1">
      <set comment="kpoint 1">
       <r>  -12.7317    1.0000 </r>
       <r>  -11.5891    1.0000 </r>
       <r>   -8.6492    1.0000 </r>
       <r>   -8.4116    1.0000 </r>
       <r>   -6.0467    1.0000 </r>
       <r>   -5.1124    1.0000 </r>
       <r>   -4.6463    1.0000 </r>
       <r>   -4.2641    1.0000 </r>
       <r>   -4.0169    1.0000 </r>
       <r>   -3.5254    1.0000 </r>
       <r>   -2.5669    1.0000 </r>
       <r>   -2.2971    1.0000 </r>
       <r>   -1.8045    1.0000 </r>
       <r>   -1.0696    1.0000 </r>
       <r>   -0.0458    1.0000 </r>
       <r>   -0.0161    1.0000 </r>
       <r>    0.1881    1.0000 </r>
       <r>    0.2118    1.0000 </r>
       <r>    0.5976    1.0000 </r>
       <r>    2.0518    0.0001 </r>
       <r>    2.1158    0.0000 </r>
       <r>    2.2557    0.0000 </r>
       <r>    5.5049    0.0000 </r>
       <r>    5.7968    0.0000 </r>
       <r>    5.8894    0.0000 </r>
       <r>    6.0067    0.0000 </r>
       <r>    6.8682    0.0000 </r>
       <r>    7.6021    0.0000 </r>
       <r>    7.9347    0.0000 </r>
       <r>    8.6048    0.0000 </r>
       <r>    8.8836    0.0000 </r>
       <r>    9.0220    0.0000 </r>
       <r>    9.1444    0.0000 </r>
       <r>   10.1817    0.0000 </r>
       <r>   11.2381    0.0000 </r>
       <r>   11.4121    0.0000 </r>
       <r>   11.7457    0.0000 </r>
       <r>   11.8562    0.0000 </r>
       <r>   12.0072    0.0000 </r>
       <r>   12.4647    0.0000 </r>
       <r>   12.9513    0.0000 </r>
       <r>   13.5373    0.0000 </r>
       <r>   13.5643    0.0000 </r>
       <r>   15.4864    0.0000 </r>
       <r>   15.6673    0.0000 </r>
       <r>   16.1643    0.0000 </r>
       <r>   16.4244    0.0000 </r>
       <r>   16.4514    0.0000 </r>
      </set>
      <set comment="kpoint 2">
       <r>  -12.6879    1.0000 </r>
       <r>  -11.6628    1.0000 </r>
       <r>   -8.6282    1.0000 </r>
       <r>   -8.4001    1.0000 </r>
       <r>   -5.9781    1.0000 </r>
       <r>   -5.4562    1.0000 </r>
       <r>   -4.7707    1.0000 </r>
       <r>   -3.9949    1.0000 </r>
       <r>   -3.7764    1.0000 </r>
       <r>   -3.1856    1.0000 </r>
       <r>   -2.6376    1.0000 </r>
       <r>   -2.2766    1.0000 </r>
       <r>   -1.8846    1.0000 </r>
       <r>   -1.3772    1.0000 </r>
       <r>   -0.0050    1.0000 </r>
       <r>    0.0116    1.0000 </r>
       <r>    0.1226    1.0000 </r>
       <r>    0.2304    1.0000 </r>
       <r>    0.5026    1.0000 </r>
       <r>    1.9653    0.0957 </r>
       <r>    2.0376    0.0004 </r>
       <r>    2.1338    0.0000 </r>
       <r>    5.5929    0.0000 </r>
       <r>    5.8093    0.0000 </r>
       <r>    5.9126    0.0000 </r>
       <r>    6.3548    0.0000 </r>
       <r>    6.7819    0.0000 </r>
       <r>    7.2385    0.0000 </r>
       <r>    8.1493    0.0000 </r>
       <r>    8.7410    0.0000 </r>
       <r>    9.1471    0.0000 </r>
       <r>    9.2106    0.0000 </r>
       <r>    9.2760    0.0000 </r>
       <r>   10.3025    0.0000 </r>
       <r>   11.0173    0.0000 </r>
       <r>   11.2078    0.0000 </r>
       <r>   11.3121    0.0000 </r>
       <r>   11.7722    0.0000 </r>
       <r>   12.2250    0.0000 </r>
       <r>   12.5565    0.0000 </r>
       <r>   13.2068    0.0000 </r>
       <r>   13.2114    0.0000 </r>
       <r>   14.1000    0.0000 </r>
       <r>   14.9711    0.0000 </r>
       <r>   15.8423    0.0000 </r>
       <r>   15.9164    0.0000 </r>
       <r>   16.3250    0.0000 </r>
       <r>   16.6105    0.0000 </r>
      </set>
      <set comment="kpoint 3">
       <r>  -12.6021    1.0000 </r>
       <r>  -11.7957    1.0000 </r>
       <r>   -8.5848    1.0000 </r>
       <r>   -8.3854    1.0000 </r>
       <r>   -5.9568    1.0000 </r>
       <r>   -5.7842    1.0000 </r>
       <r>   -4.7254    1.0000 </r>
       <r>   -3.8660    1.0000 </r>
       <r>   -3.2645    1.0000 </r>
       <r>   -2.8082    1.0000 </r>
       <r>   -2.6907    1.0000 </r>
       <r>   -2.2353    1.0000 </r>
       <r>   -1.9971    1.0000 </r>
       <r>   -1.8826    1.0000 </r>
       <r>   -0.1848    1.0000 </r>
       <r>    0.0416    1.0000 </r>
       <r>    0.1744    1.0000 </r>
       <r>    0.1827    1.0000 </r>
       <r>    0.4723    1.0000 </r>
       <r>    1.8177    0.9979 </r>
       <r>    1.9024    0.6820 </r>
       <r>    1.9042    0.6627 </r>
       <r>    5.7132    0.0000 </r>
       <r>    5.7661    0.0000 </r>
       <r>    6.2220    0.0000 </r>
       <r>    6.6547    0.0000 </r>
       <r>    6.8156    0.0000 </r>
       <r>    6.9832    0.0000 </r>
       <r>    8.3031    0.0000 </r>
       <r>    8.8887    0.0000 </r>
       <r>    9.0802    0.0000 </r>
       <r>    9.6541    0.0000 </r>
       <r>    9.7185    0.0000 </r>
       <r>   10.3524    0.0000 </r>
       <r>   10.5625    0.0000 </r>
       <r>   10.7039    0.0000 </r>
       <r>   11.4360    0.0000 </r>
       <r>   11.9122    0.0000 </r>
       <r>   12.4604    0.0000 </r>
       <r>   12.6512    0.0000 </r>
       <r>   12.8618    0.0000 </r>
       <r>   13.0059    0.0000 </r>
       <r>   14.7281    0.0000 </r>
       <r>   15.0140    0.0000 </r>
       <r>   15.3072    0.0000 </r>
       <r>   16.0787    0.0000 </r>
       <r>   16.0952    0.0000 </r>
       <r>   16.3938    0.0000 </r>
      </set>
      <set comment="kpoint 4">
       <r>  -12.4784    1.0000 </r>
       <r>  -11.9651    1.0000 </r>
       <r>   -8.5230    1.0000 </r>
       <r>   -8.3824    1.0000 </r>
       <r>   -6.0390    1.0000 </r>
       <r>   -6.0177    1.0000 </r>
       <r>   -4.3969    1.0000 </r>
       <r>   -3.6957    1.0000 </r>
       <r>   -3.0037    1.0000 </r>
       <r>   -2.8781    1.0000 </r>
       <r>   -2.4224    1.0000 </r>
       <r>   -2.2276    1.0000 </r>
       <r>   -2.1153    1.0000 </r>
       <r>   -2.1002    1.0000 </r>
       <r>   -0.4838    1.0000 </r>
       <r>   -0.2119    1.0000 </r>
       <r>    0.1986    1.0000 </r>
       <r>    0.2748    1.0000 </r>
       <r>    0.6461    1.0000 </r>
       <r>    1.5661    1.0000 </r>
       <r>    1.6935    1.0000 </r>
       <r>    1.7552    1.0000 </r>
       <r>    5.7499    0.0000 </r>
       <r>    5.7991    0.0000 </r>
       <r>    6.5520    0.0000 </r>
       <r>    6.7222    0.0000 </r>
       <r>    6.7486    0.0000 </r>
       <r>    7.4697    0.0000 </r>
       <r>    8.4294    0.0000 </r>
       <r>    8.7528    0.0000 </r>
       <r>    8.8828    0.0000 </r>
       <r>    9.6028    0.0000 </r>
       <r>   10.1339    0.0000 </r>
       <r>   10.1883    0.0000 </r>
       <r>   10.4757    0.0000 </r>
       <r>   11.2372    0.0000 </r>
       <r>   11.4717    0.0000 </r>
       <r>   12.0303    0.0000 </r>
       <r>   12.2792    0.0000 </r>
       <r>   12.3596    0.0000 </r>
       <r>   12.5913    0.0000 </r>
       <r>   13.3298    0.0000 </r>
       <r>   14.7904    0.0000 </r>
       <r>   15.0636    0.0000 </r>
       <r>   15.3650    0.0000 </r>
       <r>   15.4633    0.0000 </r>
       <r>   15.6674    0.0000 </r>
       <r>   16.4720    0.0000 </r>
      </set>
      <set comment="kpoint 5">
       <r>  -12.3235    1.0000 </r>
       <r>  -12.1475    1.0000 </r>
       <r>   -8.4567    1.0000 </r>
       <r>   -8.4053    1.0000 </r>
       <r>   -6.1310    1.0000 </r>
       <r>   -6.1256    1.0000 </r>
       <r>   -3.8800    1.0000 </r>
       <r>   -3.4849    1.0000 </r>
       <r>   -3.2791    1.0000 </r>
       <r>   -3.2448    1.0000 </r>
       <r>   -2.3421    1.0000 </r>
       <r>   -2.2105    1.0000 </r>
       <r>   -1.9320    1.0000 </r>
       <r>   -1.8825    1.0000 </r>
       <r>   -0.7043    1.0000 </r>
       <r>   -0.5697    1.0000 </r>
       <r>    0.2825    1.0000 </r>
       <r>    0.3165    1.0000 </r>
       <r>    0.9077    1.0000 </r>
       <r>    1.2262    1.0000 </r>
       <r>    1.6126    1.0000 </r>
       <r>    1.6406    1.0000 </r>
       <r>    5.7765    0.0000 </r>
       <r>    5.8122    0.0000 </r>
       <r>    6.5291    0.0000 </r>
       <r>    6.5926    0.0000 </r>
       <r>    7.4214    0.0000 </r>
       <r>    8.1343    0.0000 </r>
       <r>    8.1534    0.0000 </r>
       <r>    8.5491    0.0000 </r>
       <r>    8.6900    0.0000 </r>
       <r>    8.8538    0.0000 </r>
       <r>   10.5712    0.0000 </r>
       <r>   10.5910    0.0000 </r>
       <r>   10.8402    0.0000 </r>
       <r>   11.2995    0.0000 </r>
       <r>   11.4848    0.0000 </r>
       <r>   11.6876    0.0000 </r>
       <r>   12.0231    0.0000 </r>
       <r>   12.5617    0.0000 </r>
       <r>   12.7876    0.0000 </r>
       <r>   13.3275    0.0000 </r>
       <r>   14.6666    0.0000 </r>
       <r>   14.8259    0.0000 </r>
       <r>   14.9511    0.0000 </r>
       <r>   15.0093    0.0000 </r>
       <r>   16.2036    0.0000 </r>
       <r>   16.5466    0.0000 </r>
      </set>
      <set comment="kpoint 6">
       <r>  -12.7075    1.0000 </r>
       <r>  -11.5675    1.0000 </r>
       <r>   -8.6302    1.0000 </r>
       <r>   -8.3883    1.0000 </r>
       <r>   -6.0197    1.0000 </r>
       <r>   -5.0786    1.0000 </r>
       <r>   -4.6240    1.0000 </r>
       <r>   -4.5615    1.0000 </r>
       <r>   -4.1614    1.0000 </r>
       <r>   -3.5022    1.0000 </r>
       <r>   -3.2619    1.0000 </r>
       <r>   -1.7663    1.0000 </r>
       <r>   -1.0650    1.0000 </r>
       <r>   -1.0039    1.0000 </r>
       <r>   -0.2808    1.0000 </r>
       <r>   -0.2528    1.0000 </r>
       <r>    0.2015    1.0000 </r>
       <r>    0.2821    1.0000 </r>
       <r>    0.6764    1.0000 </r>
       <r>    1.7825    0.9999 </r>
       <r>    1.8634    0.9424 </r>
       <r>    2.3082    0.0000 </r>
       <r>    5.6208    0.0000 </r>
       <r>    5.7570    0.0000 </r>
       <r>    5.7875    0.0000 </r>
       <r>    6.0611    0.0000 </r>
       <r>    7.1565    0.0000 </r>
       <r>    7.8884    0.0000 </r>
       <r>    8.1411    0.0000 </r>
       <r>    8.2471    0.0000 </r>
       <r>    8.8868    0.0000 </r>
       <r>    9.1831    0.0000 </r>
       <r>    9.2326    0.0000 </r>
       <r>   10.6384    0.0000 </r>
       <r>   11.3419    0.0000 </r>
       <r>   11.4567    0.0000 </r>
       <r>   11.6789    0.0000 </r>
       <r>   11.9597    0.0000 </r>
       <r>   12.1176    0.0000 </r>
       <r>   12.7478    0.0000 </r>
       <r>   12.9499    0.0000 </r>
       <r>   13.2703    0.0000 </r>
       <r>   13.2796    0.0000 </r>
       <r>   15.4285    0.0000 </r>
       <r>   15.4827    0.0000 </r>
       <r>   15.9518    0.0000 </r>
       <r>   15.9747    0.0000 </r>
       <r>   16.3197    0.0000 </r>
      </set>
      <set comment="kpoint 7">
       <r>  -12.6638    1.0000 </r>
       <r>  -11.6411    1.0000 </r>
       <r>   -8.6091    1.0000 </r>
       <r>   -8.3772    1.0000 </r>
       <r>   -5.9493    1.0000 </r>
       <r>   -5.4261    1.0000 </r>
       <r>   -4.7504    1.0000 </r>
       <r>   -4.4764    1.0000 </r>
       <r>   -3.7358    1.0000 </r>
       <r>   -3.3436    1.0000 </r>
       <r>   -3.1470    1.0000 </r>
       <r>   -1.7443    1.0000 </r>
       <r>   -1.3718    1.0000 </r>
       <r>   -1.1254    1.0000 </r>
       <r>   -0.2413    1.0000 </r>
       <r>   -0.1686    1.0000 </r>
       <r>    0.1698    1.0000 </r>
       <r>    0.2516    1.0000 </r>
       <r>    0.5739    1.0000 </r>
       <r>    1.7016    1.0000 </r>
       <r>    1.7866    0.9999 </r>
       <r>    2.1767    0.0000 </r>
       <r>    5.6963    0.0000 </r>
       <r>    5.8547    0.0000 </r>
       <r>    5.9888    0.0000 </r>
       <r>    6.1605    0.0000 </r>
       <r>    7.0723    0.0000 </r>
       <r>    7.5623    0.0000 </r>
       <r>    8.2869    0.0000 </r>
       <r>    8.4219    0.0000 </r>
       <r>    9.2189    0.0000 </r>
       <r>    9.2385    0.0000 </r>
       <r>    9.4909    0.0000 </r>
       <r>   10.5691    0.0000 </r>
       <r>   10.9470    0.0000 </r>
       <r>   11.1596    0.0000 </r>
       <r>   11.5120    0.0000 </r>
       <r>   11.9451    0.0000 </r>
       <r>   12.3380    0.0000 </r>
       <r>   12.8085    0.0000 </r>
       <r>   12.9459    0.0000 </r>
       <r>   13.2357    0.0000 </r>
       <r>   13.8146    0.0000 </r>
       <r>   15.0570    0.0000 </r>
       <r>   15.4942    0.0000 </r>
       <r>   15.8382    0.0000 </r>
       <r>   15.8948    0.0000 </r>
       <r>   16.4998    0.0000 </r>
      </set>
      <set comment="kpoint 8">
       <r>  -12.5783    1.0000 </r>
       <r>  -11.7737    1.0000 </r>
       <r>   -8.5655    1.0000 </r>
       <r>   -8.3632    1.0000 </r>
       <r>   -5.9252    1.0000 </r>
       <r>   -5.7536    1.0000 </r>
       <r>   -4.7086    1.0000 </r>
       <r>   -4.3667    1.0000 </r>
       <r>   -3.4667    1.0000 </r>
       <r>   -3.2083    1.0000 </r>
       <r>   -2.6787    1.0000 </r>
       <r>   -1.8780    1.0000 </r>
       <r>   -1.6996    1.0000 </r>
       <r>   -1.2909    1.0000 </r>
       <r>   -0.1926    1.0000 </r>
       <r>   -0.1876    1.0000 </r>
       <r>    0.0792    1.0000 </r>
       <r>    0.2389    1.0000 </r>
       <r>    0.4971    1.0000 </r>
       <r>    1.5660    1.0000 </r>
       <r>    1.6560    1.0000 </r>
       <r>    1.9272    0.4095 </r>
       <r>    5.9079    0.0000 </r>
       <r>    5.9817    0.0000 </r>
       <r>    6.0586    0.0000 </r>
       <r>    6.6119    0.0000 </r>
       <r>    6.9505    0.0000 </r>
       <r>    7.3332    0.0000 </r>
       <r>    8.4924    0.0000 </r>
       <r>    8.5573    0.0000 </r>
       <r>    9.1833    0.0000 </r>
       <r>    9.6910    0.0000 </r>
       <r>    9.9456    0.0000 </r>
       <r>   10.1946    0.0000 </r>
       <r>   10.4275    0.0000 </r>
       <r>   10.9034    0.0000 </r>
       <r>   11.5813    0.0000 </r>
       <r>   12.1787    0.0000 </r>
       <r>   12.3899    0.0000 </r>
       <r>   12.6234    0.0000 </r>
       <r>   13.0455    0.0000 </r>
       <r>   13.0941    0.0000 </r>
       <r>   14.3933    0.0000 </r>
       <r>   15.1853    0.0000 </r>
       <r>   15.2522    0.0000 </r>
       <r>   15.7407    0.0000 </r>
       <r>   15.7990    0.0000 </r>
       <r>   16.5194    0.0000 </r>
      </set>
      <set comment="kpoint 9">
       <r>  -12.4549    1.0000 </r>
       <r>  -11.9427    1.0000 </r>
       <r>   -8.5035    1.0000 </r>
       <r>   -8.3611    1.0000 </r>
       <r>   -6.0061    1.0000 </r>
       <r>   -5.9862    1.0000 </r>
       <r>   -4.3822    1.0000 </r>
       <r>   -4.2182    1.0000 </r>
       <r>   -3.6400    1.0000 </r>
       <r>   -2.8264    1.0000 </r>
       <r>   -2.3400    1.0000 </r>
       <r>   -2.1939    1.0000 </r>
       <r>   -1.6347    1.0000 </r>
       <r>   -1.4558    1.0000 </r>
       <r>   -0.4445    1.0000 </r>
       <r>   -0.2778    1.0000 </r>
       <r>    0.1124    1.0000 </r>
       <r>    0.1408    1.0000 </r>
       <r>    0.6569    1.0000 </r>
       <r>    1.4261    1.0000 </r>
       <r>    1.5098    1.0000 </r>
       <r>    1.6015    1.0000 </r>
       <r>    5.9268    0.0000 </r>
       <r>    6.0560    0.0000 </r>
       <r>    6.5648    0.0000 </r>
       <r>    6.8594    0.0000 </r>
       <r>    6.9314    0.0000 </r>
       <r>    7.4261    0.0000 </r>
       <r>    8.4781    0.0000 </r>
       <r>    8.6667    0.0000 </r>
       <r>    9.0139    0.0000 </r>
       <r>    9.4364    0.0000 </r>
       <r>   10.1463    0.0000 </r>
       <r>   10.1762    0.0000 </r>
       <r>   10.5127    0.0000 </r>
       <r>   11.3155    0.0000 </r>
       <r>   11.4358    0.0000 </r>
       <r>   11.9196    0.0000 </r>
       <r>   12.3840    0.0000 </r>
       <r>   12.6162    0.0000 </r>
       <r>   12.7929    0.0000 </r>
       <r>   13.5344    0.0000 </r>
       <r>   14.8538    0.0000 </r>
       <r>   14.8590    0.0000 </r>
       <r>   15.2489    0.0000 </r>
       <r>   15.3961    0.0000 </r>
       <r>   15.7496    0.0000 </r>
       <r>   16.4839    0.0000 </r>
      </set>
      <set comment="kpoint 10">
       <r>  -12.3003    1.0000 </r>
       <r>  -12.1247    1.0000 </r>
       <r>   -8.4368    1.0000 </r>
       <r>   -8.3848    1.0000 </r>
       <r>   -6.0986    1.0000 </r>
       <r>   -6.0928    1.0000 </r>
       <r>   -4.0376    1.0000 </r>
       <r>   -3.8730    1.0000 </r>
       <r>   -3.8312    1.0000 </r>
       <r>   -3.2661    1.0000 </r>
       <r>   -2.0873    1.0000 </r>
       <r>   -1.8910    1.0000 </r>
       <r>   -1.5669    1.0000 </r>
       <r>   -1.5665    1.0000 </r>
       <r>   -0.6655    1.0000 </r>
       <r>   -0.5663    1.0000 </r>
       <r>    0.1438    1.0000 </r>
       <r>    0.1753    1.0000 </r>
       <r>    0.9172    1.0000 </r>
       <r>    1.2324    1.0000 </r>
       <r>    1.3720    1.0000 </r>
       <r>    1.3965    1.0000 </r>
       <r>    5.9767    0.0000 </r>
       <r>    6.0407    0.0000 </r>
       <r>    6.8469    0.0000 </r>
       <r>    6.8970    0.0000 </r>
       <r>    7.2358    0.0000 </r>
       <r>    7.9528    0.0000 </r>
       <r>    8.0010    0.0000 </r>
       <r>    8.6878    0.0000 </r>
       <r>    8.7609    0.0000 </r>
       <r>    8.8753    0.0000 </r>
       <r>   10.3950    0.0000 </r>
       <r>   10.6420    0.0000 </r>
       <r>   10.8768    0.0000 </r>
       <r>   10.9884    0.0000 </r>
       <r>   11.6318    0.0000 </r>
       <r>   11.7475    0.0000 </r>
       <r>   12.1042    0.0000 </r>
       <r>   12.7337    0.0000 </r>
       <r>   13.0989    0.0000 </r>
       <r>   13.5613    0.0000 </r>
       <r>   14.6348    0.0000 </r>
       <r>   14.8186    0.0000 </r>
       <r>   14.9131    0.0000 </r>
       <r>   15.1299    0.0000 </r>
       <r>   16.2262    0.0000 </r>
       <r>   16.5200    0.0000 </r>
      </set>
      <set comment="kpoint 11">
       <r>  -12.6629    1.0000 </r>
       <r>  -11.5277    1.0000 </r>
       <r>   -8.5954    1.0000 </r>
       <r>   -8.3452    1.0000 </r>
       <r>   -5.9697    1.0000 </r>
       <r>   -5.1191    1.0000 </r>
       <r>   -4.9866    1.0000 </r>
       <r>   -4.5818    1.0000 </r>
       <r>   -4.1459    1.0000 </r>
       <r>   -3.8856    1.0000 </r>
       <r>   -3.4486    1.0000 </r>
       <r>   -1.1787    1.0000 </r>
       <r>   -1.0556    1.0000 </r>
       <r>   -0.6275    1.0000 </r>
       <r>   -0.5184    1.0000 </r>
       <r>   -0.1431    1.0000 </r>
       <r>    0.2229    1.0000 </r>
       <r>    0.3358    1.0000 </r>
       <r>    0.7555    1.0000 </r>
       <r>    1.3972    1.0000 </r>
       <r>    1.4619    1.0000 </r>
       <r>    2.3468    0.0000 </r>
       <r>    5.3281    0.0000 </r>
       <r>    5.4961    0.0000 </r>
       <r>    6.1757    0.0000 </r>
       <r>    6.2518    0.0000 </r>
       <r>    7.5964    0.0000 </r>
       <r>    7.6850    0.0000 </r>
       <r>    8.3740    0.0000 </r>
       <r>    8.7967    0.0000 </r>
       <r>    8.9524    0.0000 </r>
       <r>    9.3293    0.0000 </r>
       <r>    9.4481    0.0000 </r>
       <r>   10.9512    0.0000 </r>
       <r>   11.3906    0.0000 </r>
       <r>   11.6481    0.0000 </r>
       <r>   11.7627    0.0000 </r>
       <r>   12.1618    0.0000 </r>
       <r>   12.3342    0.0000 </r>
       <r>   12.8212    0.0000 </r>
       <r>   12.8359    0.0000 </r>
       <r>   13.0939    0.0000 </r>
       <r>   13.2931    0.0000 </r>
       <r>   14.7788    0.0000 </r>
       <r>   15.2551    0.0000 </r>
       <r>   15.4450    0.0000 </r>
       <r>   15.5128    0.0000 </r>
       <r>   16.0630    0.0000 </r>
      </set>
      <set comment="kpoint 12">
       <r>  -12.6194    1.0000 </r>
       <r>  -11.6010    1.0000 </r>
       <r>   -8.5741    1.0000 </r>
       <r>   -8.3348    1.0000 </r>
       <r>   -5.8958    1.0000 </r>
       <r>   -5.3784    1.0000 </r>
       <r>   -5.0177    1.0000 </r>
       <r>   -4.7123    1.0000 </r>
       <r>   -3.9525    1.0000 </r>
       <r>   -3.6931    1.0000 </r>
       <r>   -3.1075    1.0000 </r>
       <r>   -1.3636    1.0000 </r>
       <r>   -1.1518    1.0000 </r>
       <r>   -0.7335    1.0000 </r>
       <r>   -0.4802    1.0000 </r>
       <r>   -0.0629    1.0000 </r>
       <r>    0.2057    1.0000 </r>
       <r>    0.2769    1.0000 </r>
       <r>    0.6432    1.0000 </r>
       <r>    1.3177    1.0000 </r>
       <r>    1.3920    1.0000 </r>
       <r>    2.2102    0.0000 </r>
       <r>    5.4081    0.0000 </r>
       <r>    5.8447    0.0000 </r>
       <r>    6.1978    0.0000 </r>
       <r>    6.2890    0.0000 </r>
       <r>    7.5152    0.0000 </r>
       <r>    7.8416    0.0000 </r>
       <r>    8.1062    0.0000 </r>
       <r>    8.8863    0.0000 </r>
       <r>    9.3388    0.0000 </r>
       <r>    9.3583    0.0000 </r>
       <r>    9.7338    0.0000 </r>
       <r>   10.5865    0.0000 </r>
       <r>   10.8515    0.0000 </r>
       <r>   11.3503    0.0000 </r>
       <r>   11.7809    0.0000 </r>
       <r>   12.2722    0.0000 </r>
       <r>   12.5052    0.0000 </r>
       <r>   12.5710    0.0000 </r>
       <r>   13.2448    0.0000 </r>
       <r>   13.3441    0.0000 </r>
       <r>   13.5217    0.0000 </r>
       <r>   14.7860    0.0000 </r>
       <r>   14.9145    0.0000 </r>
       <r>   15.3938    0.0000 </r>
       <r>   15.5762    0.0000 </r>
       <r>   16.0807    0.0000 </r>
      </set>
      <set comment="kpoint 13">
       <r>  -12.5342    1.0000 </r>
       <r>  -11.7330    1.0000 </r>
       <r>   -8.5301    1.0000 </r>
       <r>   -8.3222    1.0000 </r>
       <r>   -5.8663    1.0000 </r>
       <r>   -5.6986    1.0000 </r>
       <r>   -4.9258    1.0000 </r>
       <r>   -4.6772    1.0000 </r>
       <r>   -4.0775    1.0000 </r>
       <r>   -3.1570    1.0000 </r>
       <r>   -2.6344    1.0000 </r>
       <r>   -1.8615    1.0000 </r>
       <r>   -1.1107    1.0000 </r>
       <r>   -0.8717    1.0000 </r>
       <r>   -0.4267    1.0000 </r>
       <r>   -0.0496    1.0000 </r>
       <r>    0.0423    1.0000 </r>
       <r>    0.2897    1.0000 </r>
       <r>    0.5275    1.0000 </r>
       <r>    1.1856    1.0000 </r>
       <r>    1.2732    1.0000 </r>
       <r>    1.9524    0.1733 </r>
       <r>    5.7306    0.0000 </r>
       <r>    6.1527    0.0000 </r>
       <r>    6.3241    0.0000 </r>
       <r>    6.4181    0.0000 </r>
       <r>    7.4116    0.0000 </r>
       <r>    7.9154    0.0000 </r>
       <r>    8.0752    0.0000 </r>
       <r>    9.0145    0.0000 </r>
       <r>    9.3270    0.0000 </r>
       <r>    9.7942    0.0000 </r>
       <r>    9.9188    0.0000 </r>
       <r>   10.2154    0.0000 </r>
       <r>   10.3251    0.0000 </r>
       <r>   11.1417    0.0000 </r>
       <r>   11.6551    0.0000 </r>
       <r>   12.1790    0.0000 </r>
       <r>   12.5855    0.0000 </r>
       <r>   12.8706    0.0000 </r>
       <r>   13.1300    0.0000 </r>
       <r>   13.5221    0.0000 </r>
       <r>   14.0449    0.0000 </r>
       <r>   14.6912    0.0000 </r>
       <r>   14.9650    0.0000 </r>
       <r>   15.4086    0.0000 </r>
       <r>   15.5983    0.0000 </r>
       <r>   16.2910    0.0000 </r>
      </set>
      <set comment="kpoint 14">
       <r>  -12.4114    1.0000 </r>
       <r>  -11.9013    1.0000 </r>
       <r>   -8.4676    1.0000 </r>
       <r>   -8.3218    1.0000 </r>
       <r>   -5.9449    1.0000 </r>
       <r>   -5.9281    1.0000 </r>
       <r>   -4.7889    1.0000 </r>
       <r>   -4.3553    1.0000 </r>
       <r>   -4.2438    1.0000 </r>
       <r>   -2.7869    1.0000 </r>
       <r>   -2.2982    1.0000 </r>
       <r>   -2.1527    1.0000 </r>
       <r>   -1.0536    1.0000 </r>
       <r>   -1.0079    1.0000 </r>
       <r>   -0.4295    1.0000 </r>
       <r>   -0.3374    1.0000 </r>
       <r>    0.0867    1.0000 </r>
       <r>    0.0927    1.0000 </r>
       <r>    0.6747    1.0000 </r>
       <r>    1.0555    1.0000 </r>
       <r>    1.1399    1.0000 </r>
       <r>    1.6160    1.0000 </r>
       <r>    6.1629    0.0000 </r>
       <r>    6.2690    0.0000 </r>
       <r>    6.4505    0.0000 </r>
       <r>    6.8546    0.0000 </r>
       <r>    7.3539    0.0000 </r>
       <r>    7.8356    0.0000 </r>
       <r>    8.1274    0.0000 </r>
       <r>    9.1143    0.0000 </r>
       <r>    9.1688    0.0000 </r>
       <r>    9.2466    0.0000 </r>
       <r>    9.9637    0.0000 </r>
       <r>   10.2632    0.0000 </r>
       <r>   10.7711    0.0000 </r>
       <r>   11.1514    0.0000 </r>
       <r>   11.4151    0.0000 </r>
       <r>   12.0255    0.0000 </r>
       <r>   12.4470    0.0000 </r>
       <r>   13.0593    0.0000 </r>
       <r>   13.1101    0.0000 </r>
       <r>   13.8698    0.0000 </r>
       <r>   14.4746    0.0000 </r>
       <r>   14.4864    0.0000 </r>
       <r>   15.1223    0.0000 </r>
       <r>   15.2140    0.0000 </r>
       <r>   15.7114    0.0000 </r>
       <r>   16.4662    0.0000 </r>
      </set>
      <set comment="kpoint 15">
       <r>  -12.2575    1.0000 </r>
       <r>  -12.0826    1.0000 </r>
       <r>   -8.4002    1.0000 </r>
       <r>   -8.3472    1.0000 </r>
       <r>   -6.0385    1.0000 </r>
       <r>   -6.0316    1.0000 </r>
       <r>   -4.6196    1.0000 </r>
       <r>   -4.4321    1.0000 </r>
       <r>   -3.8410    1.0000 </r>
       <r>   -3.2433    1.0000 </r>
       <r>   -2.0167    1.0000 </r>
       <r>   -1.8497    1.0000 </r>
       <r>   -1.0776    1.0000 </r>
       <r>   -1.0135    1.0000 </r>
       <r>   -0.5986    1.0000 </r>
       <r>   -0.5895    1.0000 </r>
       <r>    0.0363    1.0000 </r>
       <r>    0.0798    1.0000 </r>
       <r>    0.9329    1.0000 </r>
       <r>    0.9933    1.0000 </r>
       <r>    1.0348    1.0000 </r>
       <r>    1.2611    1.0000 </r>
       <r>    6.2542    0.0000 </r>
       <r>    6.3710    0.0000 </r>
       <r>    6.9254    0.0000 </r>
       <r>    7.2705    0.0000 </r>
       <r>    7.3304    0.0000 </r>
       <r>    7.6732    0.0000 </r>
       <r>    7.9837    0.0000 </r>
       <r>    8.4991    0.0000 </r>
       <r>    9.1711    0.0000 </r>
       <r>    9.2041    0.0000 </r>
       <r>   10.0862    0.0000 </r>
       <r>   10.5573    0.0000 </r>
       <r>   10.7834    0.0000 </r>
       <r>   11.0477    0.0000 </r>
       <r>   11.8127    0.0000 </r>
       <r>   11.8380    0.0000 </r>
       <r>   12.2278    0.0000 </r>
       <r>   12.9960    0.0000 </r>
       <r>   13.4923    0.0000 </r>
       <r>   13.8430    0.0000 </r>
       <r>   14.3171    0.0000 </r>
       <r>   14.4722    0.0000 </r>
       <r>   15.0782    0.0000 </r>
       <r>   15.2196    0.0000 </r>
       <r>   16.0860    0.0000 </r>
       <r>   16.3917    0.0000 </r>
      </set>
      <set comment="kpoint 16">
       <r>  -12.6051    1.0000 </r>
       <r>  -11.4763    1.0000 </r>
       <r>   -8.5510    1.0000 </r>
       <r>   -8.2895    1.0000 </r>
       <r>   -5.9047    1.0000 </r>
       <r>   -5.6012    1.0000 </r>
       <r>   -4.9156    1.0000 </r>
       <r>   -4.5249    1.0000 </r>
       <r>   -4.4071    1.0000 </r>
       <r>   -4.1063    1.0000 </r>
       <r>   -3.3861    1.0000 </r>
       <r>   -1.2019    1.0000 </r>
       <r>   -1.0414    1.0000 </r>
       <r>   -0.9850    1.0000 </r>
       <r>   -0.1644    1.0000 </r>
       <r>    0.2514    1.0000 </r>
       <r>    0.3798    1.0000 </r>
       <r>    0.6291    1.0000 </r>
       <r>    0.8197    1.0000 </r>
       <r>    1.0104    1.0000 </r>
       <r>    1.0248    1.0000 </r>
       <r>    2.3815    0.0000 </r>
       <r>    4.9812    0.0000 </r>
       <r>    5.2002    0.0000 </r>
       <r>    6.4137    0.0000 </r>
       <r>    6.6427    0.0000 </r>
       <r>    7.3240    0.0000 </r>
       <r>    8.0335    0.0000 </r>
       <r>    8.7764    0.0000 </r>
       <r>    9.1197    0.0000 </r>
       <r>    9.5497    0.0000 </r>
       <r>    9.6448    0.0000 </r>
       <r>    9.7293    0.0000 </r>
       <r>   10.8129    0.0000 </r>
       <r>   11.3446    0.0000 </r>
       <r>   12.0372    0.0000 </r>
       <r>   12.0823    0.0000 </r>
       <r>   12.3740    0.0000 </r>
       <r>   12.4958    0.0000 </r>
       <r>   12.5173    0.0000 </r>
       <r>   12.6400    0.0000 </r>
       <r>   13.0800    0.0000 </r>
       <r>   13.8931    0.0000 </r>
       <r>   13.9579    0.0000 </r>
       <r>   14.5118    0.0000 </r>
       <r>   15.1859    0.0000 </r>
       <r>   15.4836    0.0000 </r>
       <r>   15.9697    0.0000 </r>
      </set>
      <set comment="kpoint 17">
       <r>  -12.5619    1.0000 </r>
       <r>  -11.5492    1.0000 </r>
       <r>   -8.5293    1.0000 </r>
       <r>   -8.2801    1.0000 </r>
       <r>   -5.8262    1.0000 </r>
       <r>   -5.5665    1.0000 </r>
       <r>   -5.2548    1.0000 </r>
       <r>   -4.6619    1.0000 </r>
       <r>   -4.4733    1.0000 </r>
       <r>   -3.6385    1.0000 </r>
       <r>   -3.0454    1.0000 </r>
       <r>   -1.3581    1.0000 </r>
       <r>   -1.1431    1.0000 </r>
       <r>   -0.9994    1.0000 </r>
       <r>   -0.1662    1.0000 </r>
       <r>    0.2390    1.0000 </r>
       <r>    0.3088    1.0000 </r>
       <r>    0.6079    1.0000 </r>
       <r>    0.6984    1.0000 </r>
       <r>    0.9453    1.0000 </r>
       <r>    0.9836    1.0000 </r>
       <r>    2.2429    0.0000 </r>
       <r>    5.0772    0.0000 </r>
       <r>    5.5341    0.0000 </r>
       <r>    6.3600    0.0000 </r>
       <r>    6.7728    0.0000 </r>
       <r>    7.4601    0.0000 </r>
       <r>    7.9902    0.0000 </r>
       <r>    8.7003    0.0000 </r>
       <r>    9.2439    0.0000 </r>
       <r>    9.5080    0.0000 </r>
       <r>    9.8568    0.0000 </r>
       <r>    9.9780    0.0000 </r>
       <r>   10.4038    0.0000 </r>
       <r>   10.7782    0.0000 </r>
       <r>   11.7805    0.0000 </r>
       <r>   11.9530    0.0000 </r>
       <r>   12.3162    0.0000 </r>
       <r>   12.5573    0.0000 </r>
       <r>   12.7123    0.0000 </r>
       <r>   13.0417    0.0000 </r>
       <r>   13.4757    0.0000 </r>
       <r>   13.8838    0.0000 </r>
       <r>   14.0098    0.0000 </r>
       <r>   14.3430    0.0000 </r>
       <r>   15.1786    0.0000 </r>
       <r>   15.5126    0.0000 </r>
       <r>   15.8281    0.0000 </r>
      </set>
      <set comment="kpoint 18">
       <r>  -12.4772    1.0000 </r>
       <r>  -11.6805    1.0000 </r>
       <r>   -8.4847    1.0000 </r>
       <r>   -8.2693    1.0000 </r>
       <r>   -5.7891    1.0000 </r>
       <r>   -5.6477    1.0000 </r>
       <r>   -5.4066    1.0000 </r>
       <r>   -4.6369    1.0000 </r>
       <r>   -4.5971    1.0000 </r>
       <r>   -3.0969    1.0000 </r>
       <r>   -2.5736    1.0000 </r>
       <r>   -1.8424    1.0000 </r>
       <r>   -1.0822    1.0000 </r>
       <r>   -1.0174    1.0000 </r>
       <r>   -0.1851    1.0000 </r>
       <r>   -0.0163    1.0000 </r>
       <r>    0.3479    1.0000 </r>
       <r>    0.5378    1.0000 </r>
       <r>    0.5551    1.0000 </r>
       <r>    0.8581    1.0000 </r>
       <r>    0.9170    1.0000 </r>
       <r>    1.9812    0.0394 </r>
       <r>    5.4042    0.0000 </r>
       <r>    6.0120    0.0000 </r>
       <r>    6.3330    0.0000 </r>
       <r>    6.8846    0.0000 </r>
       <r>    7.6290    0.0000 </r>
       <r>    8.0075    0.0000 </r>
       <r>    8.6209    0.0000 </r>
       <r>    9.4364    0.0000 </r>
       <r>    9.4663    0.0000 </r>
       <r>    9.6563    0.0000 </r>
       <r>   10.1136    0.0000 </r>
       <r>   10.1917    0.0000 </r>
       <r>   10.6361    0.0000 </r>
       <r>   11.4636    0.0000 </r>
       <r>   11.4685    0.0000 </r>
       <r>   12.3083    0.0000 </r>
       <r>   12.8255    0.0000 </r>
       <r>   13.0285    0.0000 </r>
       <r>   13.2600    0.0000 </r>
       <r>   13.6087    0.0000 </r>
       <r>   13.8598    0.0000 </r>
       <r>   14.1019    0.0000 </r>
       <r>   14.4790    0.0000 </r>
       <r>   15.2701    0.0000 </r>
       <r>   15.4429    0.0000 </r>
       <r>   16.0853    0.0000 </r>
      </set>
      <set comment="kpoint 19">
       <r>  -12.3550    1.0000 </r>
       <r>  -11.8479    1.0000 </r>
       <r>   -8.4216    1.0000 </r>
       <r>   -8.2712    1.0000 </r>
       <r>   -5.8645    1.0000 </r>
       <r>   -5.8551    1.0000 </r>
       <r>   -5.2939    1.0000 </r>
       <r>   -4.7633    1.0000 </r>
       <r>   -4.3191    1.0000 </r>
       <r>   -2.7415    1.0000 </r>
       <r>   -2.2552    1.0000 </r>
       <r>   -2.0968    1.0000 </r>
       <r>   -1.0239    1.0000 </r>
       <r>   -0.9962    1.0000 </r>
       <r>   -0.3418    1.0000 </r>
       <r>   -0.2999    1.0000 </r>
       <r>    0.1830    1.0000 </r>
       <r>    0.4045    1.0000 </r>
       <r>    0.6949    1.0000 </r>
       <r>    0.8036    1.0000 </r>
       <r>    0.8514    1.0000 </r>
       <r>    1.6409    1.0000 </r>
       <r>    5.9343    0.0000 </r>
       <r>    6.3640    0.0000 </r>
       <r>    6.5958    0.0000 </r>
       <r>    6.8376    0.0000 </r>
       <r>    7.6268    0.0000 </r>
       <r>    8.0613    0.0000 </r>
       <r>    8.5725    0.0000 </r>
       <r>    8.9760    0.0000 </r>
       <r>    9.3366    0.0000 </r>
       <r>    9.6543    0.0000 </r>
       <r>    9.9843    0.0000 </r>
       <r>   10.4189    0.0000 </r>
       <r>   10.8649    0.0000 </r>
       <r>   11.1634    0.0000 </r>
       <r>   11.5311    0.0000 </r>
       <r>   12.2427    0.0000 </r>
       <r>   12.5130    0.0000 </r>
       <r>   13.2384    0.0000 </r>
       <r>   13.3553    0.0000 </r>
       <r>   13.7563    0.0000 </r>
       <r>   13.9923    0.0000 </r>
       <r>   14.2383    0.0000 </r>
       <r>   14.8450    0.0000 </r>
       <r>   15.0810    0.0000 </r>
       <r>   15.5294    0.0000 </r>
       <r>   16.4275    0.0000 </r>
      </set>
      <set comment="kpoint 20">
       <r>  -12.2020    1.0000 </r>
       <r>  -12.0281    1.0000 </r>
       <r>   -8.3534    1.0000 </r>
       <r>   -8.2988    1.0000 </r>
       <r>   -5.9605    1.0000 </r>
       <r>   -5.9515    1.0000 </r>
       <r>   -5.1314    1.0000 </r>
       <r>   -4.9481    1.0000 </r>
       <r>   -3.8085    1.0000 </r>
       <r>   -3.2128    1.0000 </r>
       <r>   -1.9592    1.0000 </r>
       <r>   -1.8038    1.0000 </r>
       <r>   -0.9575    1.0000 </r>
       <r>   -0.8987    1.0000 </r>
       <r>   -0.6414    1.0000 </r>
       <r>   -0.5981    1.0000 </r>
       <r>    0.1559    1.0000 </r>
       <r>    0.2557    1.0000 </r>
       <r>    0.7881    1.0000 </r>
       <r>    0.8034    1.0000 </r>
       <r>    0.9590    1.0000 </r>
       <r>    1.2831    1.0000 </r>
       <r>    6.4971    0.0000 </r>
       <r>    6.5997    0.0000 </r>
       <r>    6.6760    0.0000 </r>
       <r>    7.1887    0.0000 </r>
       <r>    7.2563    0.0000 </r>
       <r>    7.7481    0.0000 </r>
       <r>    8.5601    0.0000 </r>
       <r>    8.6248    0.0000 </r>
       <r>    9.5310    0.0000 </r>
       <r>    9.7094    0.0000 </r>
       <r>    9.9222    0.0000 </r>
       <r>   10.2134    0.0000 </r>
       <r>   10.9319    0.0000 </r>
       <r>   11.3014    0.0000 </r>
       <r>   11.9566    0.0000 </r>
       <r>   12.0256    0.0000 </r>
       <r>   12.3515    0.0000 </r>
       <r>   13.2390    0.0000 </r>
       <r>   13.5238    0.0000 </r>
       <r>   13.7153    0.0000 </r>
       <r>   13.9200    0.0000 </r>
       <r>   14.0350    0.0000 </r>
       <r>   15.1857    0.0000 </r>
       <r>   15.2040    0.0000 </r>
       <r>   15.7601    0.0000 </r>
       <r>   16.0636    0.0000 </r>
      </set>
      <set comment="kpoint 21">
       <r>  -12.5447    1.0000 </r>
[...]
       <r>   -2.2838    1.0000 </r>
       <r>   -2.1378    1.0000 </r>
       <r>   -1.9715    1.0000 </r>
       <r>   -1.4607    1.0000 </r>
       <r>   -0.7142    1.0000 </r>
       <r>   -0.1723    1.0000 </r>
       <r>    0.1882    1.0000 </r>
       <r>    0.4083    1.0000 </r>
       <r>    0.5483    1.0000 </r>
       <r>    1.6224    1.0000 </r>
       <r>    1.6512    1.0000 </r>
       <r>    1.9073    0.6307 </r>
       <r>    5.5534    0.0000 </r>
       <r>    6.1936    0.0000 </r>
       <r>    6.7152    0.0000 </r>
       <r>    7.2834    0.0000 </r>
       <r>    7.8519    0.0000 </r>
       <r>    8.2779    0.0000 </r>
       <r>    9.0512    0.0000 </r>
       <r>    9.2190    0.0000 </r>
       <r>    9.7842    0.0000 </r>
       <r>   10.0226    0.0000 </r>
       <r>   10.6585    0.0000 </r>
       <r>   11.0887    0.0000 </r>
       <r>   11.2934    0.0000 </r>
       <r>   11.5715    0.0000 </r>
       <r>   11.6435    0.0000 </r>
       <r>   12.0199    0.0000 </r>
       <r>   12.9162    0.0000 </r>
       <r>   13.2484    0.0000 </r>
       <r>   13.4490    0.0000 </r>
       <r>   13.8350    0.0000 </r>
       <r>   13.9730    0.0000 </r>
       <r>   14.2408    0.0000 </r>
       <r>   14.5717    0.0000 </r>
       <r>   15.0452    0.0000 </r>
       <r>   15.1849    0.0000 </r>
       <r>   15.4865    0.0000 </r>
      </set>
      <set comment="kpoint 175">
       <r>  -12.0260    1.0000 </r>
       <r>  -11.8869    1.0000 </r>
       <r>   -8.5371    1.0000 </r>
       <r>   -8.4248    1.0000 </r>
       <r>   -5.9140    1.0000 </r>
       <r>   -5.8065    1.0000 </r>
       <r>   -4.8723    1.0000 </r>
       <r>   -4.5463    1.0000 </r>
       <r>   -4.3962    1.0000 </r>
       <r>   -3.9553    1.0000 </r>
       <r>   -2.1898    1.0000 </r>
       <r>   -2.1275    1.0000 </r>
       <r>   -2.0260    1.0000 </r>
       <r>   -1.7418    1.0000 </r>
       <r>   -0.1923    1.0000 </r>
       <r>    0.0244    1.0000 </r>
       <r>    0.4114    1.0000 </r>
       <r>    0.4995    1.0000 </r>
       <r>    0.5801    1.0000 </r>
       <r>    0.9047    1.0000 </r>
       <r>    1.6654    1.0000 </r>
       <r>    1.7652    1.0000 </r>
       <r>    5.9041    0.0000 </r>
       <r>    6.0914    0.0000 </r>
       <r>    6.9163    0.0000 </r>
       <r>    7.4745    0.0000 </r>
       <r>    7.5244    0.0000 </r>
       <r>    7.6462    0.0000 </r>
       <r>    9.4563    0.0000 </r>
       <r>    9.6448    0.0000 </r>
       <r>    9.8553    0.0000 </r>
       <r>   10.0332    0.0000 </r>
       <r>   10.5384    0.0000 </r>
       <r>   10.8934    0.0000 </r>
       <r>   11.2924    0.0000 </r>
       <r>   11.5802    0.0000 </r>
       <r>   11.6108    0.0000 </r>
       <r>   11.6882    0.0000 </r>
       <r>   13.1642    0.0000 </r>
       <r>   13.2728    0.0000 </r>
       <r>   13.8274    0.0000 </r>
       <r>   14.1441    0.0000 </r>
       <r>   14.2816    0.0000 </r>
       <r>   14.3909    0.0000 </r>
       <r>   14.6814    0.0000 </r>
       <r>   14.8198    0.0000 </r>
       <r>   14.9626    0.0000 </r>
       <r>   15.1479    0.0000 </r>
      </set>
     </set>
    </set>
   </array>
  </eigenvalues>
  <separator name="orbital magnetization" >
   <v name="MAGDIPOLOUT">      0.00000000      0.00000000      0.00000000</v>
  </separator>
  <dos>
   <i name="efermi">      1.91908977 </i>
   <total>
    <array>
     <dimension dim="1">gridpoints</dimension>
     <dimension dim="2">spin</dimension>
     <field>energy</field>
     <field>total</field>
     <field>integrated</field>
     <set>
      <set comment="spin 1">
       <r>   -14.1988     0.0000     0.0000 </r>
       <r>   -14.0912     0.0000     0.0000 </r>
       <r>   -13.9836     0.0000     0.0000 </r>
       <r>   -13.8760     0.0000     0.0000 </r>
       <r>   -13.7684     0.0000     0.0000 </r>
       <r>   -13.6609     0.0000     0.0000 </r>
       <r>   -13.5533     0.0000     0.0000 </r>
       <r>   -13.4457     0.0000     0.0000 </r>
       <r>   -13.3381     0.0000     0.0000 </r>
       <r>   -13.2305     0.0000     0.0000 </r>
       <r>   -13.1229     0.0000     0.0000 </r>
       <r>   -13.0153     0.0000     0.0000 </r>
       <r>   -12.9077     0.0000     0.0000 </r>
       <r>   -12.8002     0.0037     0.0004 </r>
       <r>   -12.6926     0.5062     0.0549 </r>
       <r>   -12.5850     2.3835     0.3113 </r>
       <r>   -12.4774     3.5499     0.6932 </r>
       <r>   -12.3698     4.3604     1.1624 </r>
       <r>   -12.2622     3.5388     1.5431 </r>
       <r>   -12.1546     2.7322     1.8370 </r>
       <r>   -12.0470     2.7444     2.1323 </r>
       <r>   -11.9395     2.5141     2.4028 </r>
       <r>   -11.8319     2.7705     2.7009 </r>
       <r>   -11.7243     3.4495     3.0720 </r>
       <r>   -11.6167     3.5327     3.4521 </r>
       <r>   -11.5091     3.0783     3.7833 </r>
       <r>   -11.4015     1.6216     3.9577 </r>
       <r>   -11.2939     0.3876     3.9994 </r>
       <r>   -11.1863     0.0054     4.0000 </r>
       <r>   -11.0787     0.0000     4.0000 </r>
       <r>   -10.9712     0.0000     4.0000 </r>
       <r>   -10.8636     0.0000     4.0000 </r>
       <r>   -10.7560     0.0000     4.0000 </r>
       <r>   -10.6484     0.0000     4.0000 </r>
       <r>   -10.5408     0.0000     4.0000 </r>
       <r>   -10.4332     0.0000     4.0000 </r>
       <r>   -10.3256     0.0000     4.0000 </r>
       <r>   -10.2180     0.0000     4.0000 </r>
       <r>   -10.1105     0.0000     4.0000 </r>
       <r>   -10.0029     0.0000     4.0000 </r>
       <r>    -9.8953     0.0000     4.0000 </r>
       <r>    -9.7877     0.0000     4.0000 </r>
       <r>    -9.6801     0.0000     4.0000 </r>
       <r>    -9.5725     0.0000     4.0000 </r>
       <r>    -9.4649     0.0000     4.0000 </r>
       <r>    -9.3573     0.0000     4.0000 </r>
       <r>    -9.2498     0.0000     4.0000 </r>
       <r>    -9.1422     0.0000     4.0000 </r>
       <r>    -9.0346     0.0000     4.0000 </r>
       <r>    -8.9270     0.0006     4.0001 </r>
       <r>    -8.8194     0.2677     4.0289 </r>
       <r>    -8.7118     2.0597     4.2505 </r>
       <r>    -8.6042     5.2630     4.8167 </r>
       <r>    -8.4966     6.9477     5.5642 </r>
       <r>    -8.3891     6.3184     6.2440 </r>
       <r>    -8.2815     5.3200     6.8163 </r>
       <r>    -8.1739     4.8173     7.3346 </r>
       <r>    -8.0663     3.8860     7.7527 </r>
       <r>    -7.9587     1.6705     7.9324 </r>
       <r>    -7.8511     0.5768     7.9945 </r>
       <r>    -7.7435     0.0512     8.0000 </r>
       <r>    -7.6359     0.0000     8.0000 </r>
       <r>    -7.5283     0.0000     8.0000 </r>
       <r>    -7.4208     0.0000     8.0000 </r>
       <r>    -7.3132     0.0000     8.0000 </r>
       <r>    -7.2056     0.0000     8.0000 </r>
       <r>    -7.0980     0.0000     8.0000 </r>
       <r>    -6.9904     0.0005     8.0000 </r>
       <r>    -6.8828     0.1177     8.0127 </r>
       <r>    -6.7752     0.2548     8.0401 </r>
       <r>    -6.6676     0.4290     8.0863 </r>
       <r>    -6.5601     0.7657     8.1687 </r>
       <r>    -6.4525     0.8624     8.2614 </r>
       <r>    -6.3449     1.4617     8.4187 </r>
       <r>    -6.2373     2.0045     8.6344 </r>
       <r>    -6.1297     3.0655     8.9642 </r>
       <r>    -6.0221     3.7611     9.3688 </r>
       <r>    -5.9145     4.0968     9.8096 </r>
       <r>    -5.8069     4.0341    10.2436 </r>
       <r>    -5.6994     3.8250    10.6551 </r>
       <r>    -5.5918     4.0679    11.0928 </r>
       <r>    -5.4842     4.2242    11.5473 </r>
       <r>    -5.3766     4.5101    12.0325 </r>
       <r>    -5.2690     4.5590    12.5230 </r>
       <r>    -5.1614     4.4812    13.0051 </r>
       <r>    -5.0538     3.8443    13.4187 </r>
       <r>    -4.9462     3.2380    13.7671 </r>
       <r>    -4.8386     2.9140    14.0806 </r>
       <r>    -4.7311     2.3856    14.3373 </r>
       <r>    -4.6235     2.8961    14.6489 </r>
       <r>    -4.5159     3.3579    15.0101 </r>
       <r>    -4.4083     3.5125    15.3880 </r>
       <r>    -4.3007     3.2805    15.7410 </r>
       <r>    -4.1931     2.9427    16.0576 </r>
       <r>    -4.0855     2.8996    16.3695 </r>
       <r>    -3.9779     2.9664    16.6887 </r>
       <r>    -3.8704     2.8280    16.9929 </r>
       <r>    -3.7628     3.1376    17.3305 </r>
       <r>    -3.6552     2.8360    17.6356 </r>
       <r>    -3.5476     2.7045    17.9266 </r>
       <r>    -3.4400     3.0398    18.2536 </r>
       <r>    -3.3324     2.6045    18.5338 </r>
       <r>    -3.2248     2.9099    18.8469 </r>
       <r>    -3.1172     2.6681    19.1340 </r>
       <r>    -3.0097     2.7834    19.4334 </r>
       <r>    -2.9021     2.9865    19.7548 </r>
       <r>    -2.7945     2.9547    20.0726 </r>
       <r>    -2.6869     2.4088    20.3318 </r>
       <r>    -2.5793     2.6881    20.6210 </r>
       <r>    -2.4717     3.0323    20.9473 </r>
       <r>    -2.3641     2.9616    21.2659 </r>
       <r>    -2.2565     3.2124    21.6115 </r>
       <r>    -2.1489     4.0446    22.0467 </r>
       <r>    -2.0414     3.6564    22.4400 </r>
       <r>    -1.9338     3.3409    22.7995 </r>
       <r>    -1.8262     5.3337    23.3733 </r>
       <r>    -1.7186     5.6897    23.9855 </r>
       <r>    -1.6110     5.5366    24.5811 </r>
       <r>    -1.5034     6.1828    25.2463 </r>
       <r>    -1.3958     6.0563    25.8979 </r>
       <r>    -1.2882     5.4770    26.4872 </r>
       <r>    -1.1807     4.7093    26.9938 </r>
       <r>    -1.0731     6.4475    27.6875 </r>
       <r>    -0.9655     3.6778    28.0832 </r>
       <r>    -0.8579     2.2613    28.3265 </r>
       <r>    -0.7503     2.6883    28.6157 </r>
       <r>    -0.6427     2.8849    28.9261 </r>
       <r>    -0.5351     4.6985    29.4316 </r>
       <r>    -0.4275     6.8972    30.1737 </r>
       <r>    -0.3200     5.6436    30.7808 </r>
       <r>    -0.2124     6.7742    31.5097 </r>
       <r>    -0.1048     6.3638    32.1943 </r>
       <r>     0.0028     6.7624    32.9219 </r>
       <r>     0.1104     6.6092    33.6330 </r>
       <r>     0.2180     6.4001    34.3215 </r>
       <r>     0.3256     8.7425    35.2621 </r>
       <r>     0.4332     7.7897    36.1002 </r>
       <r>     0.5407     8.7240    37.0388 </r>
       <r>     0.6483     5.0100    37.5778 </r>
       <r>     0.7559     2.8220    37.8814 </r>
       <r>     0.8635     3.3907    38.2462 </r>
       <r>     0.9711     3.5828    38.6317 </r>
       <r>     1.0787     3.4967    39.0079 </r>
       <r>     1.1863     2.7819    39.3072 </r>
       <r>     1.2939     3.4539    39.6788 </r>
       <r>     1.4015     4.5034    40.1633 </r>
       <r>     1.5090     3.7213    40.5637 </r>
       <r>     1.6166     3.7744    40.9697 </r>
       <r>     1.7242     4.5398    41.4582 </r>
       <r>     1.8318     3.0303    41.7842 </r>
       <r>     1.9394     2.4956    42.0527 </r>
       <r>     2.0470     2.6134    42.3339 </r>
       <r>     2.1546     2.1031    42.5601 </r>
       <r>     2.2622     2.6498    42.8452 </r>
       <r>     2.3697     2.5019    43.1144 </r>
       <r>     2.4773     1.8572    43.3142 </r>
       <r>     2.5849     0.7685    43.3969 </r>
       <r>     2.6925     0.3810    43.4379 </r>
       <r>     2.8001     0.5643    43.4986 </r>
       <r>     2.9077     0.4169    43.5434 </r>
       <r>     3.0153     0.3085    43.5766 </r>
       <r>     3.1229     0.8003    43.6627 </r>
       <r>     3.2304     0.9949    43.7698 </r>
       <r>     3.3380     0.4801    43.8214 </r>
       <r>     3.4456     0.0085    43.8223 </r>
       <r>     3.5532     0.1517    43.8386 </r>
       <r>     3.6608     0.4014    43.8818 </r>
       <r>     3.7684     0.3133    43.9155 </r>
       <r>     3.8760     0.3859    43.9571 </r>
       <r>     3.9836     0.3803    43.9980 </r>
       <r>     4.0912     0.0188    44.0000 </r>
       <r>     4.1987     0.0002    44.0000 </r>
       <r>     4.3063     0.0596    44.0064 </r>
       <r>     4.4139     0.2011    44.0281 </r>
       <r>     4.5215     0.4099    44.0722 </r>
       <r>     4.6291     0.5074    44.1268 </r>
       <r>     4.7367     0.6665    44.1985 </r>
       <r>     4.8443     0.8994    44.2952 </r>
       <r>     4.9519     0.8579    44.3875 </r>
       <r>     5.0594     0.8637    44.4805 </r>
       <r>     5.1670     1.2907    44.6193 </r>
       <r>     5.2746     1.1259    44.7405 </r>
       <r>     5.3822     1.6896    44.9222 </r>
       <r>     5.4898     2.2469    45.1640 </r>
       <r>     5.5974     2.4764    45.4304 </r>
       <r>     5.7050     2.7728    45.7287 </r>
       <r>     5.8126     3.4722    46.1023 </r>
       <r>     5.9201     3.1884    46.4453 </r>
       <r>     6.0277     4.3946    46.9181 </r>
       <r>     6.1353     4.6495    47.4184 </r>
       <r>     6.2429     4.0193    47.8508 </r>
       <r>     6.3505     4.6442    48.3505 </r>
       <r>     6.4581     3.9552    48.7760 </r>
       <r>     6.5657     4.1248    49.2198 </r>
       <r>     6.6733     4.3779    49.6908 </r>
       <r>     6.7809     3.2094    50.0361 </r>
       <r>     6.8884     4.0563    50.4725 </r>
       <r>     6.9960     4.6127    50.9688 </r>
       <r>     7.1036     4.5024    51.4532 </r>
       <r>     7.2112     4.3448    51.9206 </r>
       <r>     7.3188     5.6329    52.5267 </r>
       <r>     7.4264     4.8068    53.0438 </r>
       <r>     7.5340     4.4099    53.5183 </r>
       <r>     7.6416     4.1156    53.9611 </r>
       <r>     7.7491     3.5265    54.3405 </r>
       <r>     7.8567     3.1585    54.6803 </r>
       <r>     7.9643     2.9683    54.9996 </r>
       <r>     8.0719     3.0130    55.3238 </r>
       <r>     8.1795     4.1713    55.7726 </r>
       <r>     8.2871     3.8304    56.1847 </r>
       <r>     8.3947     3.6013    56.5721 </r>
       <r>     8.5023     3.9747    56.9998 </r>
       <r>     8.6098     4.1505    57.4463 </r>
       <r>     8.7174     4.3970    57.9194 </r>
       <r>     8.8250     4.1313    58.3639 </r>
       <r>     8.9326     5.1287    58.9156 </r>
       <r>     9.0402     5.1578    59.4706 </r>
       <r>     9.1478     5.2897    60.0397 </r>
       <r>     9.2554     5.2664    60.6063 </r>
       <r>     9.3630     4.8869    61.1321 </r>
       <r>     9.4705     4.7339    61.6414 </r>
       <r>     9.5781     4.3235    62.1065 </r>
       <r>     9.6857     5.1155    62.6569 </r>
       <r>     9.7933     5.0124    63.1962 </r>
       <r>     9.9009     5.3236    63.7689 </r>
       <r>    10.0085     4.4505    64.2477 </r>
       <r>    10.1161     3.5715    64.6320 </r>
       <r>    10.2237     5.1407    65.1851 </r>
       <r>    10.3313     4.7093    65.6917 </r>
       <r>    10.4388     4.0489    66.1273 </r>
       <r>    10.5464     5.5465    66.7241 </r>
       <r>    10.6540     5.7606    67.3438 </r>
       <r>    10.7616     4.0378    67.7783 </r>
       <r>    10.8692     3.8445    68.1919 </r>
       <r>    10.9768     3.1721    68.5332 </r>
       <r>    11.0844     4.6536    69.0338 </r>
       <r>    11.1920     5.5844    69.6346 </r>
       <r>    11.2995     6.0366    70.2841 </r>
       <r>    11.4071     5.9671    70.9261 </r>
       <r>    11.5147     5.4143    71.5086 </r>
       <r>    11.6223     4.1421    71.9543 </r>
       <r>    11.7299     4.4649    72.4346 </r>
       <r>    11.8375     4.8648    72.9580 </r>
       <r>    11.9451     4.7861    73.4729 </r>
       <r>    12.0527     6.0625    74.1252 </r>
       <r>    12.1602     5.8993    74.7599 </r>
       <r>    12.2678     5.8448    75.3887 </r>
       <r>    12.3754     5.7098    76.0030 </r>
       <r>    12.4830     5.0731    76.5488 </r>
       <r>    12.5906     5.6109    77.1525 </r>
       <r>    12.6982     6.0380    77.8021 </r>
       <r>    12.8058     6.1265    78.4612 </r>
       <r>    12.9134     5.7968    79.0849 </r>
       <r>    13.0210     5.8216    79.7112 </r>
       <r>    13.1285     5.5526    80.3086 </r>
       <r>    13.2361     6.3460    80.9914 </r>
       <r>    13.3437     6.1934    81.6577 </r>
       <r>    13.4513     5.2871    82.2266 </r>
       <r>    13.5589     6.1541    82.8887 </r>
       <r>    13.6665     5.1913    83.4472 </r>
       <r>    13.7741     4.7917    83.9627 </r>
       <r>    13.8817     6.0331    84.6118 </r>
       <r>    13.9892     5.5236    85.2061 </r>
       <r>    14.0968     5.3129    85.7777 </r>
       <r>    14.2044     5.4703    86.3662 </r>
       <r>    14.3120     4.7083    86.8728 </r>
       <r>    14.4196     4.8112    87.3904 </r>
       <r>    14.5272     5.1087    87.9400 </r>
       <r>    14.6348     4.9949    88.4774 </r>
       <r>    14.7424     5.2609    89.0434 </r>
       <r>    14.8499     5.1169    89.5939 </r>
       <r>    14.9575     4.0891    90.0339 </r>
       <r>    15.0651     5.1775    90.5909 </r>
       <r>    15.1727     6.2446    91.2628 </r>
       <r>    15.2803     5.5587    91.8608 </r>
       <r>    15.3879     5.5883    92.4620 </r>
       <r>    15.4955     6.0712    93.1152 </r>
       <r>    15.6031     5.6821    93.7266 </r>
       <r>    15.7107     5.8624    94.3573 </r>
       <r>    15.8182     4.5414    94.8459 </r>
       <r>    15.9258     2.4158    95.1058 </r>
       <r>    16.0334     2.6906    95.3953 </r>
       <r>    16.1410     1.8904    95.5987 </r>
       <r>    16.2486     1.1631    95.7238 </r>
       <r>    16.3562     0.8802    95.8185 </r>
       <r>    16.4638     0.7017    95.8940 </r>
       <r>    16.5714     0.8103    95.9812 </r>
       <r>    16.6789     0.1733    95.9998 </r>
       <r>    16.7865     0.0016    96.0000 </r>
       <r>    16.8941     0.0000    96.0000 </r>
       <r>    17.0017     0.0000    96.0000 </r>
       <r>    17.1093     0.0000    96.0000 </r>
       <r>    17.2169     0.0000    96.0000 </r>
       <r>    17.3245     0.0000    96.0000 </r>
       <r>    17.4321     0.0000    96.0000 </r>
       <r>    17.5396     0.0000    96.0000 </r>
       <r>    17.6472     0.0000    96.0000 </r>
       <r>    17.7548     0.0000    96.0000 </r>
       <r>    17.8624     0.0000    96.0000 </r>
       <r>    17.9700     0.0000    96.0000 </r>
       <r>    18.0776     0.0000    96.0000 </r>
      </set>
     </set>
    </array>
   </total>
  </dos>
 </calculation>
 <structure name="finalpos" >
  <crystal>
   <varray name="basis" >
    <v>       5.68560600       0.00000000       0.00000000 </v>
    <v>       0.00000000       4.03980420       0.00000000 </v>
    <v>       0.00000000       0.00000000       6.19179160 </v>
   </varray>
   <i name="volume">    142.21762043 </i>
   <varray name="rec_basis" >
    <v>       0.17588275       0.00000000       0.00000000 </v>
    <v>       0.00000000       0.24753675       0.00000000 </v>
    <v>       0.00000000       0.00000000       0.16150414 </v>
   </varray>
  </crystal>
  <varray name="positions" >
   <v>       0.52123000       0.50000000       0.63796000 </v>
   <v>       0.47877000       0.50000000       0.36204000 </v>
   <v>       0.97877000       0.50000000       0.63796000 </v>
   <v>       0.02123000       0.50000000       0.36204000 </v>
   <v>       0.60090000       0.50000000       0.89991000 </v>
   <v>       0.39910000       0.50000000       0.10009000 </v>
   <v>       0.89910000       0.50000000       0.89991000 </v>
   <v>       0.10090000       0.50000000       0.10009000 </v>
   <v>       0.75000000       0.79171000       0.72973000 </v>
   <v>       0.25000000       0.20829000       0.27027000 </v>
   <v>       0.75000000       0.20829000       0.72973000 </v>
   <v>       0.25000000       0.79171000       0.27027000 </v>
   <v>       0.25000000       0.50000000       0.52367000 </v>
   <v>       0.75000000       0.50000000       0.47633000 </v>
  </varray>
 </structure>
</modeling>
