 running   24 mpi-ranks, with    1 threads/rank, on    1 nodes
 distrk:  each k-point on   24 cores,    1 groups
 distr:  one band on    1 cores,   24 groups
 vasp.6.4.3 19Mar24 (build May 31 2024 16:31:43) complex                        
  
 POSCAR found type information on POSCAR B 
 POSCAR found :  1 types and      14 ions
 Reading from existing POTCAR
 scaLAPACK will be used
 Reading from existing POTCAR
 LDA part: xc-table for (Slater+PW92), standard interpolation
 POSCAR, INCAR and KPOINTS ok, starting setup
 FFT: planning ... GRIDC
 FFT: planning ... GRID_SOFT
 FFT: planning ... GRID
 WAVECAR not read
 entering main loop
       N       E                     dE             d eps       ncg     rms          rms(c)
DAV:   1     0.794238630484E+02    0.79424E+02   -0.20039E+04 16800   0.863E+02
DAV:   2    -0.918924101767E+02   -0.17132E+03   -0.16059E+03 22944   0.168E+02
DAV:   3    -0.977174641914E+02   -0.58251E+01   -0.57888E+01 24696   0.276E+01
DAV:   4    -0.977514588403E+02   -0.33995E-01   -0.33993E-01 19776   0.244E+00
DAV:   5    -0.977518328600E+02   -0.37402E-03   -0.37401E-03 24648   0.244E-01    0.124E+01
DAV:   6    -0.922466764771E+02    0.55052E+01   -0.40094E+00 24384   0.665E+00    0.685E+00
DAV:   7    -0.905717029866E+02    0.16750E+01   -0.32671E+00 25176   0.592E+00    0.172E+00
DAV:   8    -0.905839402918E+02   -0.12237E-01   -0.23788E-01 18480   0.169E+00    0.708E-01
DAV:   9    -0.905980761700E+02   -0.14136E-01   -0.17071E-02 23400   0.440E-01    0.200E-01
DAV:  10    -0.906021420305E+02   -0.40659E-02   -0.21035E-03 18960   0.162E-01    0.610E-02
DAV:  11    -0.906032072967E+02   -0.10653E-02   -0.62399E-04 21624   0.867E-02    0.322E-02
DAV:  12    -0.906033249497E+02   -0.11765E-03   -0.94710E-05 20664   0.374E-02    0.431E-03
DAV:  13    -0.906033298124E+02   -0.48627E-05   -0.41714E-06 23424   0.888E-03    0.187E-03
DAV:  14    -0.906033305100E+02   -0.69758E-06   -0.29984E-07 20448   0.235E-03
   1 F= -.90603331E+02 E0= -.90601725E+02  d E =-.321101E-02
