   14   14    1    1
  0.1021960E+02  0.5697000E-09  0.4047900E-09  0.6204200E-09  0.5000000E-15
  1.000000000000000E-004
  CAR 
 Kpoints                                 
     42    378     48
 
  0.0000000E+00  0.2777778E-01  0.4166667E-01  0.1424501E-02
      1        -12.730446   1.000000
      2        -11.578264   1.000000
      3         -8.659707   1.000000
      4         -8.418179   1.000000
      5         -6.094064   1.000000
      6         -5.093905   1.000000
      7         -4.594192   1.000000
      8         -4.333157   1.000000
      9         -4.014548   1.000000
     10         -3.579952   1.000000
     11         -2.511020   1.000000
     12         -2.364229   1.000000
     13         -1.917596   1.000000
     14         -1.058780   1.000000
     15         -0.046277   1.000000
     16         -0.026964   1.000000
     17          0.119337   1.000000
     18          0.189872   1.000000
     19          0.538096   1.000000
     20          2.045224   0.000003
     21          2.092370   0.000000
     22          2.274680   0.000000
     23          5.431408   0.000000
     24          5.767340   0.000000
     25          5.851925   0.000000
     26          5.892496   0.000000
     27          6.828509   0.000000
     28          7.686531   0.000000
     29          7.721308   0.000000
     30          8.572587   0.000000
     31          8.748455   0.000000
     32          8.938834   0.000000
     33          9.054834   0.000000
     34         10.093872   0.000000
     35         11.163141   0.000000
     36         11.388325   0.000000
     37         11.695566   0.000000
     38         11.818241   0.000000
     39         11.896875   0.000000
     40         12.387360   0.000000
     41         12.835632   0.000000
     42         13.340282   0.000000
     43         13.608804   0.000000
     44         15.519352   0.000000
     45         15.563528   0.000000
     46         15.871359   0.000000
     47         16.347033   0.000000
     48         16.439649   0.000000
 
  0.7692308E-01  0.2777778E-01  0.4166667E-01  0.2849003E-02
      1        -12.717433   1.000000
      2        -11.600647   1.000000
      3         -8.655315   1.000000
      4         -8.413372   1.000000
      5         -6.069971   1.000000
      6         -5.224316   1.000000
      7         -4.677908   1.000000
      8         -4.155976   1.000000
      9         -3.989339   1.000000
     10         -3.457294   1.000000
     11         -2.531256   1.000000
     12         -2.358401   1.000000
     13         -1.942682   1.000000
     14         -1.155970   1.000000
     15         -0.060896   1.000000
     16          0.015618   1.000000
     17          0.123230   1.000000
     18          0.167346   1.000000
     19          0.509845   1.000000
     20          1.992157   0.001154
     21          2.095922   0.000000
     22          2.236719   0.000000
     23          5.456575   0.000000
     24          5.758597   0.000000
     25          5.820369   0.000000
     26          6.051148   0.000000
     27          6.799271   0.000000
     28          7.424452   0.000000
     29          7.924353   0.000000
     30          8.618835   0.000000
     31          8.843173   0.000000
     32          9.016829   0.000000
     33          9.080784   0.000000
     34         10.126477   0.000000
     35         11.182099   0.000000
     36         11.263710   0.000000
     37         11.493344   0.000000
     38         11.751696   0.000000
     39         11.964607   0.000000
     40         12.413168   0.000000
     41         12.975189   0.000000
     42         13.441296   0.000000
     43         13.599554   0.000000
     44         15.192479   0.000000
     45         15.624021   0.000000
     46         16.068155   0.000000
     47         16.209162   0.000000
     48         16.390107   0.000000
 
  0.1538462E+00  0.2777778E-01  0.4166667E-01  0.2849003E-02
      1        -12.678725   1.000000
      2        -11.665035   1.000000
      3         -8.640513   1.000000
      4         -8.401522   1.000000
      5         -6.023009   1.000000
      6         -5.462511   1.000000
      7         -4.786033   1.000000
      8         -3.965033   1.000000
      9         -3.772997   1.000000
     10         -3.168932   1.000000
     11         -2.594539   1.000000
     12         -2.340548   1.000000
     13         -2.006499   1.000000
     14         -1.423333   1.000000
     15         -0.051698   1.000000
     16         -0.000329   1.000000
     17          0.121005   1.000000
     18          0.191455   1.000000
     19          0.428117   1.000000
     20          1.888258   0.456691
     21          2.058950   0.000000
     22          2.124779   0.000000
     23          5.517004   0.000000
     24          5.761348   0.000000
     25          5.890397   0.000000
     26          6.336048   0.000000
     27          6.720375   0.000000
     28          7.150350   0.000000
     29          8.077121   0.000000
     30          8.737958   0.000000
     31          9.005435   0.000000
     32          9.141640   0.000000
     33          9.294710   0.000000
     34         10.233355   0.000000
     35         10.917939   0.000000
     36         11.064726   0.000000
     37         11.244748   0.000000
     38         11.694034   0.000000
     39         12.142228   0.000000
     40         12.496421   0.000000
     41         13.157392   0.000000
     42         13.181725   0.000000
     43         14.029429   0.000000
     44         14.818068   0.000000
     45         15.742085   0.000000
     46         15.803519   0.000000
     47         16.232462   0.000000
     48         16.509761   0.000000
 
  0.2307692E+00  0.2777778E-01  0.4166667E-01  0.2849003E-02
      1        -12.615309   1.000000
      2        -11.763949   1.000000
      3         -8.612480   1.000000
      4         -8.389066   1.000000
      5         -6.016512   1.000000
      6         -5.685292   1.000000
      7         -4.776183   1.000000
      8         -3.870258   1.000000
      9         -3.386557   1.000000
     10         -2.822573   1.000000
     11         -2.696233   1.000000
     12         -2.309855   1.000000
     13         -2.084579   1.000000
     14         -1.803562   1.000000
     15         -0.180013   1.000000
     16         -0.007127   1.000000
     17          0.159614   1.000000
     18          0.203650   1.000000
     19          0.384207   1.000000
     20          1.768172   0.999495
     21          1.929089   0.103175
     22          1.989330   0.001501
     23          5.577108   0.000000
     24          5.769926   0.000000
     25          6.115396   0.000000
     26          6.613456   0.000000
     27          6.695829   0.000000
     28          6.932074   0.000000
     29          8.197806   0.000000
     30          8.860403   0.000000
     31          9.002971   0.000000
     32          9.408137   0.000000
     33          9.661572   0.000000
     34         10.394511   0.000000
     35         10.468772   0.000000
     36         10.646416   0.000000
     37         11.330143   0.000000
     38         11.775607   0.000000
     39         12.314669   0.000000
     40         12.694485   0.000000
     41         12.745563   0.000000
     42         13.099604   0.000000
     43         14.524210   0.000000
     44         14.785074   0.000000
     45         15.346669   0.000000
     46         15.934229   0.000000
     47         16.104148   0.000000
     48         16.316894   0.000000
 
  0.3076923E+00  0.2777778E-01  0.4166667E-01  0.2849003E-02
      1        -12.528924   1.000000
      2        -11.887155   1.000000
      3         -8.570935   1.000000
      4         -8.384167   1.000000
      5         -6.074124   1.000000
      6         -5.867601   1.000000
      7         -4.588276   1.000000
      8         -3.749885   1.000000
      9         -3.023338   1.000000
     10         -2.868892   1.000000
     11         -2.448492   1.000000
     12         -2.315048   1.000000
     13         -2.178959   1.000000
     14         -2.136571   1.000000
     15         -0.404884   1.000000
     16         -0.078850   1.000000
     17          0.090774   1.000000
     18          0.271195   1.000000
     19          0.494998   1.000000
     20          1.654966   1.000000
     21          1.697449   1.000000
     22          1.875068   0.604223
     23          5.618936   0.000000
     24          5.797195   0.000000
     25          6.471742   0.000000
     26          6.515753   0.000000
     27          6.735410   0.000000
     28          7.147937   0.000000
     29          8.301240   0.000000
     30          8.832852   0.000000
     31          8.914699   0.000000
     32          9.719130   0.000000
     33          9.843526   0.000000
     34         10.075432   0.000000
     35         10.382212   0.000000
     36         10.861337   0.000000
     37         11.375654   0.000000
     38         12.000875   0.000000
     39         12.257097   0.000000
     40         12.376966   0.000000
     41         12.722166   0.000000
     42         13.080920   0.000000
     43         14.737281   0.000000
     44         15.028857   0.000000
     45         15.184676   0.000000
     46         15.603125   0.000000
     47         15.727772   0.000000
     48         16.218104   0.000000
 
  0.3846154E+00  0.2777778E-01  0.4166667E-01  0.2849003E-02
      1        -12.422179   1.000000
      2        -12.023759   1.000000
      3         -8.519891   1.000000
      4         -8.394198   1.000000
      5         -6.137773   1.000000
      6         -6.012207   1.000000
      7         -4.257303   1.000000
      8         -3.602038   1.000000
      9         -3.050813   1.000000
     10         -2.961610   1.000000
     11         -2.500328   1.000000
     12         -2.237340   1.000000
     13         -2.157533   1.000000
     14         -2.039339   1.000000
     15         -0.629229   1.000000
     16         -0.348166   1.000000
     17          0.163962   1.000000
     18          0.308285   1.000000
     19          0.672244   1.000000
     20          1.418673   1.000000
     21          1.597500   1.000000
     22          1.755348   0.999869
     23          5.662122   0.000000
     24          5.805708   0.000000
     25          6.460403   0.000000
     26          6.611686   0.000000
     27          6.931727   0.000000
     28          7.616076   0.000000
     29          8.393908   0.000000
     30          8.561067   0.000000
     31          8.733207   0.000000
     32          9.259610   0.000000
     33         10.054150   0.000000
     34         10.418043   0.000000
     35         10.525175   0.000000
     36         11.301981   0.000000
     37         11.423341   0.000000
     38         11.765018   0.000000
     39         12.093963   0.000000
     40         12.324701   0.000000
     41         12.611366   0.000000
     42         13.346193   0.000000
     43         14.533909   0.000000
     44         14.927747   0.000000
     45         15.094247   0.000000
     46         15.247563   0.000000
     47         15.678312   0.000000
     48         16.367929   0.000000
 
  0.4615385E+00  0.2777778E-01  0.4166667E-01  0.2849003E-02
      1        -12.298785   1.000000
      2        -12.163766   1.000000
      3         -8.467266   1.000000
      4         -8.422740   1.000000
      5         -6.155796   1.000000
      6         -6.112412   1.000000
      7         -3.838827   1.000000
      8         -3.433382   1.000000
      9         -3.374815   1.000000
     10         -3.243056   1.000000
     11         -2.386196   1.000000
     12         -2.299183   1.000000
     13         -1.966902   1.000000
     14         -1.885174   1.000000
     15         -0.739192   1.000000
     16         -0.613788   1.000000
     17          0.242362   1.000000
     18          0.297302   1.000000
     19          0.892651   1.000000
     20          1.146385   1.000000
     21          1.593417   1.000000
     22          1.652786   1.000000
     23          5.717416   0.000000
     24          5.773558   0.000000
     25          6.465512   0.000000
     26          6.520499   0.000000
     27          7.460976   0.000000
     28          7.967416   0.000000
     29          8.207997   0.000000
     30          8.488892   0.000000
     31          8.597733   0.000000
     32          8.697510   0.000000
     33         10.387856   0.000000
     34         10.597214   0.000000
     35         10.834689   0.000000
     36         11.242210   0.000000
     37         11.373378   0.000000
     38         11.663612   0.000000
     39         12.016759   0.000000
     40         12.427550   0.000000
     41         12.788124   0.000000
     42         13.193031   0.000000
     43         14.524561   0.000000
     44         14.626877   0.000000
     45         14.915926   0.000000
     46         14.973483   0.000000
     47         16.094520   0.000000
     48         16.358421   0.000000
 
  0.0000000E+00  0.8333333E-01  0.4166667E-01  0.1424501E-02
      1        -12.715729   1.000000
      2        -11.565041   1.000000
      3         -8.648197   1.000000
      4         -8.403990   1.000000
      5         -6.077825   1.000000
      6         -5.071653   1.000000
      7         -4.580045   1.000000
      8         -4.450223   1.000000
      9         -4.204732   1.000000
     10         -3.564703   1.000000
     11         -3.063767   1.000000
     12         -2.003377   1.000000
     13         -1.299265   1.000000
     14         -1.055980   1.000000
     15         -0.201656   1.000000
     16         -0.189751   1.000000
     17          0.127266   1.000000
     18          0.245079   1.000000
     19          0.595570   1.000000
     20          1.868212   0.676600
     21          1.934270   0.079242
     22          2.316724   0.000000
     23          5.586445   0.000000
     24          5.683565   0.000000
     25          5.754528   0.000000
     26          5.936998   0.000000
     27          7.011369   0.000000
     28          7.850875   0.000000
     29          7.921966   0.000000
     30          8.241033   0.000000
     31          8.758231   0.000000
     32          9.062133   0.000000
     33          9.091681   0.000000
     34         10.416658   0.000000
     35         11.277576   0.000000
     36         11.361971   0.000000
     37         11.651512   0.000000
     38         11.877048   0.000000
     39         11.965523   0.000000
     40         12.562014   0.000000
     41         12.834359   0.000000
     42         13.168320   0.000000
     43         13.420388   0.000000
     44         15.422488   0.000000
     45         15.499371   0.000000
     46         15.861746   0.000000
     47         16.123740   0.000000
     48         16.237811   0.000000
 
  0.7692308E-01  0.8333333E-01  0.4166667E-01  0.2849003E-02
      1        -12.702740   1.000000
      2        -11.587401   1.000000
      3         -8.643754   1.000000
      4         -8.399281   1.000000
      5         -6.053420   1.000000
      6         -5.204391   1.000000
      7         -4.665563   1.000000
      8         -4.379357   1.000000
      9         -4.070299   1.000000
     10         -3.443105   1.000000
     11         -3.082380   1.000000
     12         -1.997006   1.000000
     13         -1.331042   1.000000
     14         -1.152799   1.000000
     15         -0.218854   1.000000
     16         -0.140592   1.000000
     17          0.139592   1.000000
     18          0.215854   1.000000
     19          0.566690   1.000000
     20          1.821733   0.961872
     21          1.932850   0.085338
     22          2.276349   0.000000
     23          5.608491   0.000000
     24          5.664616   0.000000
     25          5.863891   0.000000
     26          5.968532   0.000000
     27          6.982379   0.000000
     28          7.613665   0.000000
     29          8.096383   0.000000
     30          8.289141   0.000000
     31          8.862485   0.000000
     32          9.112830   0.000000
     33          9.151262   0.000000
     34         10.418206   0.000000
     35         11.202940   0.000000
     36         11.326193   0.000000
     37         11.447882   0.000000
     38         11.819401   0.000000
     39         12.033953   0.000000
     40         12.584994   0.000000
     41         12.978302   0.000000
     42         13.254723   0.000000
     43         13.429624   0.000000
     44         15.224061   0.000000
     45         15.467063   0.000000
     46         15.926198   0.000000
     47         16.034007   0.000000
     48         16.328298   0.000000
 
  0.1538462E+00  0.8333333E-01  0.4166667E-01  0.2849003E-02
      1        -12.664081   1.000000
      2        -11.651714   1.000000
      3         -8.628799   1.000000
      4         -8.387687   1.000000
      5         -6.005448   1.000000
      6         -5.443838   1.000000
      7         -4.774100   1.000000
      8         -4.305423   1.000000
      9         -3.738682   1.000000
     10         -3.190618   1.000000
     11         -3.104140   1.000000
     12         -1.977864   1.000000
     13         -1.429349   1.000000
     14         -1.403669   1.000000
     15         -0.206481   1.000000
     16         -0.093678   1.000000
     17          0.115752   1.000000
     18          0.209419   1.000000
     19          0.482098   1.000000
     20          1.722798   0.999998
     21          1.896700   0.364093
     22          2.156649   0.000000
     23          5.662583   0.000000
     24          5.753635   0.000000
     25          5.897868   0.000000
     26          6.208957   0.000000
     27          6.904476   0.000000
     28          7.355727   0.000000
     29          8.237056   0.000000
     30          8.413474   0.000000
     31          9.034908   0.000000
     32          9.237325   0.000000
     33          9.392378   0.000000
     34         10.421057   0.000000
     35         10.863009   0.000000
     36         11.033345   0.000000
     37         11.366939   0.000000
     38         11.800049   0.000000
     39         12.214432   0.000000
     40         12.659082   0.000000
     41         12.977649   0.000000
     42         13.197374   0.000000
     43         13.834607   0.000000
     44         14.897553   0.000000
     45         15.519344   0.000000
     46         15.791292   0.000000
     47         15.983216   0.000000
     48         16.467921   0.000000
 
  0.2307692E+00  0.8333333E-01  0.4166667E-01  0.2849003E-02
      1        -12.600757   1.000000
      2        -11.750507   1.000000
      3         -8.600611   1.000000
      4         -8.375590   1.000000
      5         -5.997648   1.000000
      6         -5.666608   1.000000
      7         -4.765667   1.000000
      8         -4.220224   1.000000
      9         -3.345304   1.000000
     10         -3.247146   1.000000
     11         -2.784444   1.000000
     12         -1.947699   1.000000
     13         -1.799641   1.000000
     14         -1.520762   1.000000
     15         -0.196849   1.000000
     16         -0.157065   1.000000
     17          0.111583   1.000000
     18          0.222409   1.000000
     19          0.409368   1.000000
     20          1.606134   1.000000
     21          1.816284   0.973007
     22          1.965992   0.010516
     23          5.714718   0.000000
     24          5.889216   0.000000
     25          6.014581   0.000000
     26          6.546447   0.000000
     27          6.803064   0.000000
     28          7.163246   0.000000
     29          8.351801   0.000000
     30          8.565152   0.000000
     31          9.062247   0.000000
     32          9.500854   0.000000
     33          9.764294   0.000000
     34         10.288279   0.000000
     35         10.447052   0.000000
     36         10.748359   0.000000
     37         11.429860   0.000000
     38         11.928537   0.000000
     39         12.401343   0.000000
     40         12.560628   0.000000
     41         12.860516   0.000000
     42         13.123338   0.000000
     43         14.273055   0.000000
     44         14.939834   0.000000
     45         15.319890   0.000000
     46         15.702536   0.000000
     47         15.938349   0.000000
     48         16.400477   0.000000
 
  0.3076923E+00  0.8333333E-01  0.4166667E-01  0.2849003E-02
      1        -12.514485   1.000000
      2        -11.873560   1.000000
      3         -8.558939   1.000000
      4         -8.371091   1.000000
      5         -6.054580   1.000000
      6         -5.848483   1.000000
      7         -4.578926   1.000000
      8         -4.112036   1.000000
      9         -3.371530   1.000000
     10         -2.972330   1.000000
     11         -2.427966   1.000000
     12         -2.209784   1.000000
     13         -1.893787   1.000000
     14         -1.636648   1.000000
     15         -0.389429   1.000000
     16         -0.178915   1.000000
     17          0.085510   1.000000
     18          0.189877   1.000000
     19          0.503442   1.000000
     20          1.498994   1.000000
     21          1.688869   1.000000
     22          1.739537   0.999979
     23          5.748319   0.000000
     24          5.941952   0.000000
     25          6.359141   0.000000
     26          6.699903   0.000000
     27          6.817432   0.000000
     28          7.165237   0.000000
     29          8.448849   0.000000
     30          8.626663   0.000000
     31          8.970793   0.000000
     32          9.724487   0.000000
     33          9.803125   0.000000
     34         10.146914   0.000000
     35         10.291056   0.000000
     36         10.950824   0.000000
     37         11.431524   0.000000
     38         12.082122   0.000000
     39         12.203013   0.000000
     40         12.486076   0.000000
     41         12.783348   0.000000
     42         13.200848   0.000000
     43         14.622390   0.000000
     44         15.000139   0.000000
     45         15.296564   0.000000
     46         15.428632   0.000000
     47         15.681016   0.000000
     48         16.284283   0.000000
 
  0.3846154E+00  0.8333333E-01  0.4166667E-01  0.2849003E-02
      1        -12.407880   1.000000
      2        -12.009986   1.000000
      3         -8.507789   1.000000
      4         -8.381495   1.000000
      5         -6.118023   1.000000
      6         -5.992704   1.000000
      7         -4.248742   1.000000
      8         -3.981830   1.000000
      9         -3.518548   1.000000
     10         -2.942160   1.000000
     11         -2.377366   1.000000
     12         -2.062560   1.000000
     13         -1.830286   1.000000
     14         -1.747693   1.000000
     15         -0.606798   1.000000
     16         -0.365945   1.000000
     17          0.088107   1.000000
     18          0.216894   1.000000
     19          0.678358   1.000000
     20          1.402828   1.000000
     21          1.466940   1.000000
     22          1.600547   1.000000
     23          5.791509   0.000000
     24          5.952580   0.000000
     25          6.653765   0.000000
     26          6.784127   0.000000
     27          6.817543   0.000000
     28          7.543632   0.000000
     29          8.409033   0.000000
     30          8.532035   0.000000
     31          8.821165   0.000000
     32          9.158144   0.000000
     33         10.072091   0.000000
     34         10.304194   0.000000
     35         10.610289   0.000000
     36         11.279706   0.000000
     37         11.448217   0.000000
     38         11.674887   0.000000
     39         12.157074   0.000000
     40         12.525426   0.000000
     41         12.736832   0.000000
     42         13.476201   0.000000
     43         14.590321   0.000000
     44         14.888693   0.000000
     45         14.981012   0.000000
     46         15.232050   0.000000
     47         15.766359   0.000000
     48         16.373191   0.000000
 
  0.4615385E+00  0.8333333E-01  0.4166667E-01  0.2849003E-02
      1        -12.284649   1.000000
      2        -12.149807   1.000000
      3         -8.455045   1.000000
      4         -8.410334   1.000000
      5         -6.136001   1.000000
      6         -6.092692   1.000000
      7         -3.838251   1.000000
      8         -3.828415   1.000000
      9         -3.675002   1.000000
     10         -3.368036   1.000000
     11         -2.128496   1.000000
     12         -1.949692   1.000000
     13         -1.787921   1.000000
     14         -1.758770   1.000000
     15         -0.719973   1.000000
     16         -0.608379   1.000000
     17          0.151461   1.000000
     18          0.203870   1.000000
     19          0.898479   1.000000
     20          1.151953   1.000000
     21          1.440554   1.000000
     22          1.498342   1.000000
     23          5.851693   0.000000
     24          5.914619   0.000000
     25          6.661975   0.000000
     26          6.712022   0.000000
     27          7.344962   0.000000
     28          7.851719   0.000000
     29          8.110273   0.000000
     30          8.586815   0.000000
     31          8.616810   0.000000
     32          8.715422   0.000000
     33         10.382391   0.000000
     34         10.575917   0.000000
     35         10.768087   0.000000
     36         11.037246   0.000000
     37         11.467535   0.000000
     38         11.737428   0.000000
     39         12.071278   0.000000
     40         12.534684   0.000000
     41         12.976405   0.000000
     42         13.348927   0.000000
     43         14.524640   0.000000
     44         14.626016   0.000000
     45         14.911583   0.000000
     46         15.032429   0.000000
     47         16.104825   0.000000
     48         16.341142   0.000000
 
  0.0000000E+00  0.1388889E+00  0.4166667E-01  0.1424501E-02
      1        -12.687633   1.000000
      2        -11.539830   1.000000
      3         -8.626358   1.000000
      4         -8.376923   1.000000
      5         -6.046821   1.000000
      6         -5.028847   1.000000
      7         -4.821565   1.000000
      8         -4.552535   1.000000
      9         -4.236157   1.000000
     10         -3.587501   1.000000
     11         -3.519698   1.000000
     12         -1.514401   1.000000
     13         -1.050755   1.000000
     14         -0.676322   1.000000
     15         -0.428232   1.000000
     16         -0.407209   1.000000
     17          0.140552   1.000000
     18          0.292278   1.000000
     19          0.661696   1.000000
     20          1.598561   1.000000
     21          1.661740   1.000000
     22          2.352257   0.000000
     23          5.519968   0.000000
     24          5.526648   0.000000
     25          5.863575   0.000000
     26          6.076344   0.000000
     27          7.321747   0.000000
     28          7.860316   0.000000
     29          8.120186   0.000000
     30          8.357479   0.000000
     31          8.760680   0.000000
     32          9.169974   0.000000
     33          9.207575   0.000000
     34         10.816601   0.000000
     35         11.294260   0.000000
     36         11.526006   0.000000
     37         11.571036   0.000000
     38         11.994048   0.000000
     39         12.108249   0.000000
     40         12.766553   0.000000
     41         12.877751   0.000000
     42         12.985909   0.000000
     43         13.141986   0.000000
     44         15.080299   0.000000
     45         15.428760   0.000000
     46         15.587999   0.000000
     47         15.676373   0.000000
     48         16.094505   0.000000
 
  0.7692308E-01  0.1388889E+00  0.4166667E-01  0.2849003E-02
      1        -12.674677   1.000000
      2        -11.562137   1.000000
      3         -8.621795   1.000000
      4         -8.372402   1.000000
      5         -6.021797   1.000000
      6         -5.168708   1.000000
      7         -4.789850   1.000000
      8         -4.633836   1.000000
      9         -4.060833   1.000000
     10         -3.599605   1.000000
     11         -3.404329   1.000000
     12         -1.508095   1.000000
     13         -1.147978   1.000000
     14         -0.744524   1.000000
     15         -0.443237   1.000000
     16         -0.319731   1.000000
     17          0.154302   1.000000
     18          0.258235   1.000000
     19          0.631097   1.000000
     20          1.553037   1.000000
     21          1.661089   1.000000
     22          2.309719   0.000000
     23          5.467991   0.000000
     24          5.702467   0.000000
     25          5.891524   0.000000
     26          6.071155   0.000000
     27          7.293067   0.000000
     28          7.906067   0.000000
     29          7.948625   0.000000
     30          8.452703   0.000000
     31          8.892537   0.000000
     32          9.182219   0.000000
     33          9.304902   0.000000
     34         10.751674   0.000000
     35         11.153833   0.000000
     36         11.403592   0.000000
     37         11.530701   0.000000
     38         11.956155   0.000000
     39         12.176433   0.000000
     40         12.853692   0.000000
     41         12.956448   0.000000
     42         13.019711   0.000000
     43         13.217776   0.000000
     44         15.091217   0.000000
     45         15.219220   0.000000
     46         15.609247   0.000000
     47         15.633441   0.000000
     48         16.113972   0.000000
 
  0.1538462E+00  0.1388889E+00  0.4166667E-01  0.2849003E-02
      1        -12.636127   1.000000
      2        -11.626298   1.000000
      3         -8.606557   1.000000
      4         -8.361300   1.000000
      5         -5.971876   1.000000
      6         -5.409439   1.000000
      7         -4.760526   1.000000
      8         -4.720179   1.000000