       N       E                     dE             d eps       ncg     rms          rms(c)
DAV:   1     0.538637058747E+02    0.53864E+02   -0.17639E+04 36288   0.724E+02
DAV:   2    -0.928988951724E+02   -0.14676E+03   -0.13805E+03 51216   0.150E+02
DAV:   3    -0.975830044088E+02   -0.46841E+01   -0.46617E+01 52704   0.240E+01
DAV:   4    -0.976101297153E+02   -0.27125E-01   -0.27124E-01 45672   0.210E+00
DAV:   5    -0.976104417501E+02   -0.31203E-03   -0.31203E-03 52488   0.217E-01    0.123E+01
DAV:   6    -0.921993409747E+02    0.54111E+01   -0.39588E+00 52752   0.657E+00    0.678E+00
DAV:   7    -0.905505967664E+02    0.16487E+01   -0.32008E+00 54072   0.584E+00    0.174E+00
DAV:   8    -0.905586017619E+02   -0.80050E-02   -0.22463E-01 40248   0.162E+00    0.815E-01
DAV:   9    -0.905735005302E+02   -0.14899E-01   -0.19808E-02 51192   0.492E-01    0.221E-01
DAV:  10    -0.905782707520E+02   -0.47702E-02   -0.32928E-03 40152   0.202E-01    0.777E-02
