       N       E                     dE             d eps       ncg     rms          rms(c)
DAV:   1     0.538637058747E+02    0.53864E+02   -0.17639E+04 36288   0.724E+02
