<?xml version="1.0" encoding="ISO-8859-1"?>
<modeling>
 <generator>
  <i name="program" type="string">vasp </i>
  <i name="version" type="string">6.4.3  </i>
  <i name="subversion" type="string">19Mar24 (build May 31 2024 16:31:43) complex                          parallel </i>
  <i name="platform" type="string">LinuxIFC </i>
  <i name="date" type="string">2024 10 29 </i>
  <i name="time" type="string">15:50:31 </i>
 </generator>
 <incar>
  <i type="string" name="SYSTEM">Kpoints</i>
  <i type="int" name="ISTART">     0</i>
  <i type="string" name="PREC">Accurate</i>
  <i type="string" name="ALGO">Normal</i>
  <i type="int" name="ISPIN">     1</i>
  <i type="int" name="ICHARG">     2</i>
  <i type="int" name="NELM">   100</i>
  <i type="int" name="IBRION">    -1</i>
  <i name="EDIFF">      0.00000100</i>
  <i name="EDIFFG">     -0.00100000</i>
  <i type="int" name="NSW">     0</i>
  <i type="int" name="ISIF">     2</i>
  <i name="ENCUT">    450.00000000</i>
  <i name="POTIM">      0.50000000</i>
  <i type="int" name="ISMEAR">     0</i>
  <i name="SIGMA">      0.05000000</i>
  <i type="logical" name="LWAVE"> F  </i>
  <i type="logical" name="LCHARG"> F  </i>
  <i type="string" name="GGA">PE</i>
 </incar>
 <primitive_cell>
  <structure name="primitive_cell" >
   <crystal>
    <varray name="basis" >
     <v>       5.69700000       0.00000000       0.00000000 </v>
     <v>       0.00000000       4.04790000       0.00000000 </v>
     <v>       0.00000000       0.00000000       6.20420000 </v>
    </varray>
    <i name="volume">    143.07435078 </i>
    <varray name="rec_basis" >
     <v>       0.17553098       0.00000000       0.00000000 </v>
     <v>       0.00000000       0.24704168       0.00000000 </v>
     <v>       0.00000000       0.00000000       0.16118114 </v>
    </varray>
   </crystal>
   <varray name="positions" >
    <v>       0.52123000       0.50000000       0.63796000 </v>
    <v>       0.47877000       0.50000000       0.36204000 </v>
    <v>       0.97877000       0.50000000       0.63796000 </v>
    <v>       0.02123000       0.50000000       0.36204000 </v>
    <v>       0.60090000       0.50000000       0.89991000 </v>
    <v>       0.39910000       0.50000000       0.10009000 </v>
    <v>       0.89910000       0.50000000       0.89991000 </v>
    <v>       0.10090000       0.50000000       0.10009000 </v>
    <v>       0.75000000       0.79171000       0.72973000 </v>
    <v>       0.25000000       0.20829000       0.27027000 </v>
    <v>       0.75000000       0.20829000       0.72973000 </v>
    <v>       0.25000000       0.79171000       0.27027000 </v>
    <v>       0.25000000       0.50000000       0.52367000 </v>
    <v>       0.75000000       0.50000000       0.47633000 </v>
   </varray>
  </structure>
  <varray name="primitive_index" >
   <v type="int" >        1 </v>
   <v type="int" >        2 </v>
   <v type="int" >        3 </v>
   <v type="int" >        4 </v>
   <v type="int" >        5 </v>
   <v type="int" >        6 </v>
   <v type="int" >        7 </v>
   <v type="int" >        8 </v>
   <v type="int" >        9 </v>
   <v type="int" >       10 </v>
   <v type="int" >       11 </v>
   <v type="int" >       12 </v>
   <v type="int" >       13 </v>
   <v type="int" >       14 </v>
  </varray>
 </primitive_cell>
 <kpoints>
  <generation param="Monkhorst-Pack">
   <v type="int" name="divisions">      13       18       12 </v>
   <v name="usershift">      0.00000000       0.00000000       0.00000000 </v>
   <v name="genvec1">      0.07692308       0.00000000       0.00000000 </v>
   <v name="genvec2">      0.00000000       0.05555556       0.00000000 </v>
   <v name="genvec3">      0.00000000       0.00000000       0.08333333 </v>
   <v name="shift">      0.00000000       0.50000000       0.50000000 </v>
  </generation>
  <varray name="kpointlist" >
   <v>       0.00000000       0.02777778       0.04166667 </v>
   <v>       0.07692308       0.02777778       0.04166667 </v>
   <v>       0.15384615       0.02777778       0.04166667 </v>
   <v>       0.23076923       0.02777778       0.04166667 </v>
   <v>       0.30769231       0.02777778       0.04166667 </v>
   <v>       0.38461538       0.02777778       0.04166667 </v>
   <v>       0.46153846       0.02777778       0.04166667 </v>
   <v>       0.00000000       0.08333333       0.04166667 </v>
   <v>       0.07692308       0.08333333       0.04166667 </v>
   <v>       0.15384615       0.08333333       0.04166667 </v>
   <v>       0.23076923       0.08333333       0.04166667 </v>
   <v>       0.30769231       0.08333333       0.04166667 </v>
   <v>       0.38461538       0.08333333       0.04166667 </v>
   <v>       0.46153846       0.08333333       0.04166667 </v>
   <v>       0.00000000       0.13888889       0.04166667 </v>
   <v>       0.07692308       0.13888889       0.04166667 </v>
   <v>       0.15384615       0.13888889       0.04166667 </v>
   <v>       0.23076923       0.13888889       0.04166667 </v>
   <v>       0.30769231       0.13888889       0.04166667 </v>
   <v>       0.38461538       0.13888889       0.04166667 </v>
   <v>       0.46153846       0.13888889       0.04166667 </v>
   <v>       0.00000000       0.19444444       0.04166667 </v>
   <v>       0.07692308       0.19444444       0.04166667 </v>
   <v>       0.15384615       0.19444444       0.04166667 </v>
   <v>       0.23076923       0.19444444       0.04166667 </v>
   <v>       0.30769231       0.19444444       0.04166667 </v>
   <v>       0.38461538       0.19444444       0.04166667 </v>
   <v>       0.46153846       0.19444444       0.04166667 </v>
   <v>       0.00000000       0.25000000       0.04166667 </v>
   <v>       0.07692308       0.25000000       0.04166667 </v>
   <v>       0.15384615       0.25000000       0.04166667 </v>
   <v>       0.23076923       0.25000000       0.04166667 </v>
   <v>       0.30769231       0.25000000       0.04166667 </v>
   <v>       0.38461538       0.25000000       0.04166667 </v>
   <v>       0.46153846       0.25000000       0.04166667 </v>
   <v>       0.00000000       0.30555556       0.04166667 </v>
   <v>       0.07692308       0.30555556       0.04166667 </v>
   <v>       0.15384615       0.30555556       0.04166667 </v>
   <v>       0.23076923       0.30555556       0.04166667 </v>
   <v>       0.30769231       0.30555556       0.04166667 </v>
   <v>       0.38461538       0.30555556       0.04166667 </v>
   <v>       0.46153846       0.30555556       0.04166667 </v>
   <v>       0.00000000       0.36111111       0.04166667 </v>
   <v>       0.07692308       0.36111111       0.04166667 </v>
   <v>       0.15384615       0.36111111       0.04166667 </v>
   <v>       0.23076923       0.36111111       0.04166667 </v>
   <v>       0.30769231       0.36111111       0.04166667 </v>
   <v>       0.38461538       0.36111111       0.04166667 </v>
   <v>       0.46153846       0.36111111       0.04166667 </v>
   <v>       0.00000000       0.41666667       0.04166667 </v>
   <v>       0.07692308       0.41666667       0.04166667 </v>
   <v>       0.15384615       0.41666667       0.04166667 </v>
   <v>       0.23076923       0.41666667       0.04166667 </v>
   <v>       0.30769231       0.41666667       0.04166667 </v>
   <v>       0.38461538       0.41666667       0.04166667 </v>
   <v>       0.46153846       0.41666667       0.04166667 </v>
   <v>       0.00000000       0.47222222       0.04166667 </v>
   <v>       0.07692308       0.47222222       0.04166667 </v>
   <v>       0.15384615       0.47222222       0.04166667 </v>
   <v>       0.23076923       0.47222222       0.04166667 </v>
   <v>       0.30769231       0.47222222       0.04166667 </v>
   <v>       0.38461538       0.47222222       0.04166667 </v>
   <v>       0.46153846       0.47222222       0.04166667 </v>
   <v>       0.00000000       0.02777778       0.12500000 </v>
   <v>       0.07692308       0.02777778       0.12500000 </v>
   <v>       0.15384615       0.02777778       0.12500000 </v>
   <v>       0.23076923       0.02777778       0.12500000 </v>
   <v>       0.30769231       0.02777778       0.12500000 </v>
   <v>       0.38461538       0.02777778       0.12500000 </v>
   <v>       0.46153846       0.02777778       0.12500000 </v>
   <v>       0.00000000       0.08333333       0.12500000 </v>
   <v>       0.07692308       0.08333333       0.12500000 </v>
   <v>       0.15384615       0.08333333       0.12500000 </v>
   <v>       0.23076923       0.08333333       0.12500000 </v>
   <v>       0.30769231       0.08333333       0.12500000 </v>
   <v>       0.38461538       0.08333333       0.12500000 </v>
   <v>       0.46153846       0.08333333       0.12500000 </v>
   <v>       0.00000000       0.13888889       0.12500000 </v>
   <v>       0.07692308       0.13888889       0.12500000 </v>
   <v>       0.15384615       0.13888889       0.12500000 </v>
   <v>       0.23076923       0.13888889       0.12500000 </v>
   <v>       0.30769231       0.13888889       0.12500000 </v>
   <v>       0.38461538       0.13888889       0.12500000 </v>
   <v>       0.46153846       0.13888889       0.12500000 </v>
   <v>       0.00000000       0.19444444       0.12500000 </v>
   <v>       0.07692308       0.19444444       0.12500000 </v>
   <v>       0.15384615       0.19444444       0.12500000 </v>
   <v>       0.23076923       0.19444444       0.12500000 </v>
   <v>       0.30769231       0.19444444       0.12500000 </v>
   <v>       0.38461538       0.19444444       0.12500000 </v>
   <v>       0.46153846       0.19444444       0.12500000 </v>
   <v>       0.00000000       0.25000000       0.12500000 </v>
   <v>       0.07692308       0.25000000       0.12500000 </v>
   <v>       0.15384615       0.25000000       0.12500000 </v>
   <v>       0.23076923       0.25000000       0.12500000 </v>
   <v>       0.30769231       0.25000000       0.12500000 </v>
   <v>       0.38461538       0.25000000       0.12500000 </v>
   <v>       0.46153846       0.25000000       0.12500000 </v>
   <v>       0.00000000       0.30555556       0.12500000 </v>
   <v>       0.07692308       0.30555556       0.12500000 </v>
   <v>       0.15384615       0.30555556       0.12500000 </v>
   <v>       0.23076923       0.30555556       0.12500000 </v>
   <v>       0.30769231       0.30555556       0.12500000 </v>
   <v>       0.38461538       0.30555556       0.12500000 </v>
   <v>       0.46153846       0.30555556       0.12500000 </v>
   <v>       0.00000000       0.36111111       0.12500000 </v>
   <v>       0.07692308       0.36111111       0.12500000 </v>
   <v>       0.15384615       0.36111111       0.12500000 </v>
   <v>       0.23076923       0.36111111       0.12500000 </v>
   <v>       0.30769231       0.36111111       0.12500000 </v>
   <v>       0.38461538       0.36111111       0.12500000 </v>
   <v>       0.46153846       0.36111111       0.12500000 </v>
   <v>       0.00000000       0.41666667       0.12500000 </v>
   <v>       0.07692308       0.41666667       0.12500000 </v>
   <v>       0.15384615       0.41666667       0.12500000 </v>
   <v>       0.23076923       0.41666667       0.12500000 </v>
   <v>       0.30769231       0.41666667       0.12500000 </v>
   <v>       0.38461538       0.41666667       0.12500000 </v>
   <v>       0.46153846       0.41666667       0.12500000 </v>
   <v>       0.00000000       0.47222222       0.12500000 </v>
   <v>       0.07692308       0.47222222       0.12500000 </v>
   <v>       0.15384615       0.47222222       0.12500000 </v>
   <v>       0.23076923       0.47222222       0.12500000 </v>
   <v>       0.30769231       0.47222222       0.12500000 </v>
   <v>       0.38461538       0.47222222       0.12500000 </v>
   <v>       0.46153846       0.47222222       0.12500000 </v>
   <v>       0.00000000       0.02777778       0.20833333 </v>
   <v>       0.07692308       0.02777778       0.20833333 </v>
   <v>       0.15384615       0.02777778       0.20833333 </v>
   <v>       0.23076923       0.02777778       0.20833333 </v>
   <v>       0.30769231       0.02777778       0.20833333 </v>
   <v>       0.38461538       0.02777778       0.20833333 </v>
   <v>       0.46153846       0.02777778       0.20833333 </v>
   <v>       0.00000000       0.08333333       0.20833333 </v>
   <v>       0.07692308       0.08333333       0.20833333 </v>
   <v>       0.15384615       0.08333333       0.20833333 </v>
   <v>       0.23076923       0.08333333       0.20833333 </v>
   <v>       0.30769231       0.08333333       0.20833333 </v>
   <v>       0.38461538       0.08333333       0.20833333 </v>
   <v>       0.46153846       0.08333333       0.20833333 </v>
   <v>       0.00000000       0.13888889       0.20833333 </v>
   <v>       0.07692308       0.13888889       0.20833333 </v>
   <v>       0.15384615       0.13888889       0.20833333 </v>
   <v>       0.23076923       0.13888889       0.20833333 </v>
   <v>       0.30769231       0.13888889       0.20833333 </v>
   <v>       0.38461538       0.13888889       0.20833333 </v>
   <v>       0.46153846       0.13888889       0.20833333 </v>
   <v>       0.00000000       0.19444444       0.20833333 </v>
   <v>       0.07692308       0.19444444       0.20833333 </v>
   <v>       0.15384615       0.19444444       0.20833333 </v>
   <v>       0.23076923       0.19444444       0.20833333 </v>
   <v>       0.30769231       0.19444444       0.20833333 </v>
   <v>       0.38461538       0.19444444       0.20833333 </v>
   <v>       0.46153846       0.19444444       0.20833333 </v>
   <v>       0.00000000       0.25000000       0.20833333 </v>
   <v>       0.07692308       0.25000000       0.20833333 </v>
   <v>       0.15384615       0.25000000       0.20833333 </v>
   <v>       0.23076923       0.25000000       0.20833333 </v>
   <v>       0.30769231       0.25000000       0.20833333 </v>
   <v>       0.38461538       0.25000000       0.20833333 </v>
   <v>       0.46153846       0.25000000       0.20833333 </v>
   <v>       0.00000000       0.30555556       0.20833333 </v>
   <v>       0.07692308       0.30555556       0.20833333 </v>
   <v>       0.15384615       0.30555556       0.20833333 </v>
   <v>       0.23076923       0.30555556       0.20833333 </v>
   <v>       0.30769231       0.30555556       0.20833333 </v>
   <v>       0.38461538       0.30555556       0.20833333 </v>
   <v>       0.46153846       0.30555556       0.20833333 </v>
   <v>       0.00000000       0.36111111       0.20833333 </v>
   <v>       0.07692308       0.36111111       0.20833333 </v>
   <v>       0.15384615       0.36111111       0.20833333 </v>
   <v>       0.23076923       0.36111111       0.20833333 </v>
   <v>       0.30769231       0.36111111       0.20833333 </v>
   <v>       0.38461538       0.36111111       0.20833333 </v>
   <v>       0.46153846       0.36111111       0.20833333 </v>
   <v>       0.00000000       0.41666667       0.20833333 </v>
   <v>       0.07692308       0.41666667       0.20833333 </v>
   <v>       0.15384615       0.41666667       0.20833333 </v>
   <v>       0.23076923       0.41666667       0.20833333 </v>
   <v>       0.30769231       0.41666667       0.20833333 </v>
   <v>       0.38461538       0.41666667       0.20833333 </v>
   <v>       0.46153846       0.41666667       0.20833333 </v>
   <v>       0.00000000       0.47222222       0.20833333 </v>
   <v>       0.07692308       0.47222222       0.20833333 </v>
   <v>       0.15384615       0.47222222       0.20833333 </v>
   <v>       0.23076923       0.47222222       0.20833333 </v>
   <v>       0.30769231       0.47222222       0.20833333 </v>
   <v>       0.38461538       0.47222222       0.20833333 </v>
   <v>       0.46153846       0.47222222       0.20833333 </v>
   <v>       0.00000000       0.02777778       0.29166667 </v>
   <v>       0.07692308       0.02777778       0.29166667 </v>
   <v>       0.15384615       0.02777778       0.29166667 </v>
   <v>       0.23076923       0.02777778       0.29166667 </v>
   <v>       0.30769231       0.02777778       0.29166667 </v>
   <v>       0.38461538       0.02777778       0.29166667 </v>
   <v>       0.46153846       0.02777778       0.29166667 </v>
   <v>       0.00000000       0.08333333       0.29166667 </v>
   <v>       0.07692308       0.08333333       0.29166667 </v>
   <v>       0.15384615       0.08333333       0.29166667 </v>
   <v>       0.23076923       0.08333333       0.29166667 </v>
   <v>       0.30769231       0.08333333       0.29166667 </v>
   <v>       0.38461538       0.08333333       0.29166667 </v>
   <v>       0.46153846       0.08333333       0.29166667 </v>
   <v>       0.00000000       0.13888889       0.29166667 </v>
   <v>       0.07692308       0.13888889       0.29166667 </v>
   <v>       0.15384615       0.13888889       0.29166667 </v>
   <v>       0.23076923       0.13888889       0.29166667 </v>
   <v>       0.30769231       0.13888889       0.29166667 </v>
   <v>       0.38461538       0.13888889       0.29166667 </v>
   <v>       0.46153846       0.13888889       0.29166667 </v>
   <v>       0.00000000       0.19444444       0.29166667 </v>
   <v>       0.07692308       0.19444444       0.29166667 </v>
   <v>       0.15384615       0.19444444       0.29166667 </v>
   <v>       0.23076923       0.19444444       0.29166667 </v>
   <v>       0.30769231       0.19444444       0.29166667 </v>
   <v>       0.38461538       0.19444444       0.29166667 </v>
   <v>       0.46153846       0.19444444       0.29166667 </v>
   <v>       0.00000000       0.25000000       0.29166667 </v>
   <v>       0.07692308       0.25000000       0.29166667 </v>
   <v>       0.15384615       0.25000000       0.29166667 </v>
   <v>       0.23076923       0.25000000       0.29166667 </v>
   <v>       0.30769231       0.25000000       0.29166667 </v>
   <v>       0.38461538       0.25000000       0.29166667 </v>
   <v>       0.46153846       0.25000000       0.29166667 </v>
   <v>       0.00000000       0.30555556       0.29166667 </v>
   <v>       0.07692308       0.30555556       0.29166667 </v>
   <v>       0.15384615       0.30555556       0.29166667 </v>
   <v>       0.23076923       0.30555556       0.29166667 </v>
   <v>       0.30769231       0.30555556       0.29166667 </v>
   <v>       0.38461538       0.30555556       0.29166667 </v>
   <v>       0.46153846       0.30555556       0.29166667 </v>
   <v>       0.00000000       0.36111111       0.29166667 </v>
   <v>       0.07692308       0.36111111       0.29166667 </v>
   <v>       0.15384615       0.36111111       0.29166667 </v>
   <v>       0.23076923       0.36111111       0.29166667 </v>
   <v>       0.30769231       0.36111111       0.29166667 </v>
   <v>       0.38461538       0.36111111       0.29166667 </v>
   <v>       0.46153846       0.36111111       0.29166667 </v>
   <v>       0.00000000       0.41666667       0.29166667 </v>
   <v>       0.07692308       0.41666667       0.29166667 </v>
   <v>       0.15384615       0.41666667       0.29166667 </v>
   <v>       0.23076923       0.41666667       0.29166667 </v>
   <v>       0.30769231       0.41666667       0.29166667 </v>
   <v>       0.38461538       0.41666667       0.29166667 </v>
   <v>       0.46153846       0.41666667       0.29166667 </v>
   <v>       0.00000000       0.47222222       0.29166667 </v>
   <v>       0.07692308       0.47222222       0.29166667 </v>
   <v>       0.15384615       0.47222222       0.29166667 </v>
   <v>       0.23076923       0.47222222       0.29166667 </v>
   <v>       0.30769231       0.47222222       0.29166667 </v>
   <v>       0.38461538       0.47222222       0.29166667 </v>
   <v>       0.46153846       0.47222222       0.29166667 </v>
   <v>       0.00000000       0.02777778       0.37500000 </v>
   <v>       0.07692308       0.02777778       0.37500000 </v>
   <v>       0.15384615       0.02777778       0.37500000 </v>
   <v>       0.23076923       0.02777778       0.37500000 </v>
   <v>       0.30769231       0.02777778       0.37500000 </v>
   <v>       0.38461538       0.02777778       0.37500000 </v>
   <v>       0.46153846       0.02777778       0.37500000 </v>
   <v>       0.00000000       0.08333333       0.37500000 </v>
   <v>       0.07692308       0.08333333       0.37500000 </v>
   <v>       0.15384615       0.08333333       0.37500000 </v>
   <v>       0.23076923       0.08333333       0.37500000 </v>
   <v>       0.30769231       0.08333333       0.37500000 </v>
   <v>       0.38461538       0.08333333       0.37500000 </v>
   <v>       0.46153846       0.08333333       0.37500000 </v>
   <v>       0.00000000       0.13888889       0.37500000 </v>
   <v>       0.07692308       0.13888889       0.37500000 </v>
   <v>       0.15384615       0.13888889       0.37500000 </v>
   <v>       0.23076923       0.13888889       0.37500000 </v>
   <v>       0.30769231       0.13888889       0.37500000 </v>
   <v>       0.38461538       0.13888889       0.37500000 </v>
   <v>       0.46153846       0.13888889       0.37500000 </v>
   <v>       0.00000000       0.19444444       0.37500000 </v>
   <v>       0.07692308       0.19444444       0.37500000 </v>
   <v>       0.15384615       0.19444444       0.37500000 </v>
   <v>       0.23076923       0.19444444       0.37500000 </v>
   <v>       0.30769231       0.19444444       0.37500000 </v>
   <v>       0.38461538       0.19444444       0.37500000 </v>
   <v>       0.46153846       0.19444444       0.37500000 </v>
   <v>       0.00000000       0.25000000       0.37500000 </v>
   <v>       0.07692308       0.25000000       0.37500000 </v>
   <v>       0.15384615       0.25000000       0.37500000 </v>
   <v>       0.23076923       0.25000000       0.37500000 </v>
   <v>       0.30769231       0.25000000       0.37500000 </v>
   <v>       0.38461538       0.25000000       0.37500000 </v>
   <v>       0.46153846       0.25000000       0.37500000 </v>
   <v>       0.00000000       0.30555556       0.37500000 </v>
   <v>       0.07692308       0.30555556       0.37500000 </v>
   <v>       0.15384615       0.30555556       0.37500000 </v>
   <v>       0.23076923       0.30555556       0.37500000 </v>
   <v>       0.30769231       0.30555556       0.37500000 </v>
   <v>       0.38461538       0.30555556       0.37500000 </v>
   <v>       0.46153846       0.30555556       0.37500000 </v>
   <v>       0.00000000       0.36111111       0.37500000 </v>
   <v>       0.07692308       0.36111111       0.37500000 </v>
   <v>       0.15384615       0.36111111       0.37500000 </v>
   <v>       0.23076923       0.36111111       0.37500000 </v>
   <v>       0.30769231       0.36111111       0.37500000 </v>
   <v>       0.38461538       0.36111111       0.37500000 </v>
   <v>       0.46153846       0.36111111       0.37500000 </v>
   <v>       0.00000000       0.41666667       0.37500000 </v>
   <v>       0.07692308       0.41666667       0.37500000 </v>
   <v>       0.15384615       0.41666667       0.37500000 </v>
   <v>       0.23076923       0.41666667       0.37500000 </v>
   <v>       0.30769231       0.41666667       0.37500000 </v>
   <v>       0.38461538       0.41666667       0.37500000 </v>
   <v>       0.46153846       0.41666667       0.37500000 </v>
   <v>       0.00000000       0.47222222       0.37500000 </v>
   <v>       0.07692308       0.47222222       0.37500000 </v>
   <v>       0.15384615       0.47222222       0.37500000 </v>
   <v>       0.23076923       0.47222222       0.37500000 </v>
   <v>       0.30769231       0.47222222       0.37500000 </v>
   <v>       0.38461538       0.47222222       0.37500000 </v>
   <v>       0.46153846       0.47222222       0.37500000 </v>
   <v>       0.00000000       0.02777778       0.45833333 </v>
   <v>       0.07692308       0.02777778       0.45833333 </v>
   <v>       0.15384615       0.02777778       0.45833333 </v>
   <v>       0.23076923       0.02777778       0.45833333 </v>
   <v>       0.30769231       0.02777778       0.45833333 </v>
   <v>       0.38461538       0.02777778       0.45833333 </v>
   <v>       0.46153846       0.02777778       0.45833333 </v>
   <v>       0.00000000       0.08333333       0.45833333 </v>
   <v>       0.07692308       0.08333333       0.45833333 </v>
   <v>       0.15384615       0.08333333       0.45833333 </v>
   <v>       0.23076923       0.08333333       0.45833333 </v>
   <v>       0.30769231       0.08333333       0.45833333 </v>
   <v>       0.38461538       0.08333333       0.45833333 </v>
   <v>       0.46153846       0.08333333       0.45833333 </v>
   <v>       0.00000000       0.13888889       0.45833333 </v>
   <v>       0.07692308       0.13888889       0.45833333 </v>
   <v>       0.15384615       0.13888889       0.45833333 </v>
   <v>       0.23076923       0.13888889       0.45833333 </v>
   <v>       0.30769231       0.13888889       0.45833333 </v>
   <v>       0.38461538       0.13888889       0.45833333 </v>
   <v>       0.46153846       0.13888889       0.45833333 </v>
   <v>       0.00000000       0.19444444       0.45833333 </v>
   <v>       0.07692308       0.19444444       0.45833333 </v>
   <v>       0.15384615       0.19444444       0.45833333 </v>
   <v>       0.23076923       0.19444444       0.45833333 </v>
   <v>       0.30769231       0.19444444       0.45833333 </v>
   <v>       0.38461538       0.19444444       0.45833333 </v>
   <v>       0.46153846       0.19444444       0.45833333 </v>
   <v>       0.00000000       0.25000000       0.45833333 </v>
   <v>       0.07692308       0.25000000       0.45833333 </v>
   <v>       0.15384615       0.25000000       0.45833333 </v>
   <v>       0.23076923       0.25000000       0.45833333 </v>
   <v>       0.30769231       0.25000000       0.45833333 </v>
   <v>       0.38461538       0.25000000       0.45833333 </v>
   <v>       0.46153846       0.25000000       0.45833333 </v>
   <v>       0.00000000       0.30555556       0.45833333 </v>
   <v>       0.07692308       0.30555556       0.45833333 </v>
   <v>       0.15384615       0.30555556       0.45833333 </v>
   <v>       0.23076923       0.30555556       0.45833333 </v>
   <v>       0.30769231       0.30555556       0.45833333 </v>
   <v>       0.38461538       0.30555556       0.45833333 </v>
   <v>       0.46153846       0.30555556       0.45833333 </v>
   <v>       0.00000000       0.36111111       0.45833333 </v>
   <v>       0.07692308       0.36111111       0.45833333 </v>
   <v>       0.15384615       0.36111111       0.45833333 </v>
   <v>       0.23076923       0.36111111       0.45833333 </v>
   <v>       0.30769231       0.36111111       0.45833333 </v>
   <v>       0.38461538       0.36111111       0.45833333 </v>
   <v>       0.46153846       0.36111111       0.45833333 </v>
   <v>       0.00000000       0.41666667       0.45833333 </v>
   <v>       0.07692308       0.41666667       0.45833333 </v>
   <v>       0.15384615       0.41666667       0.45833333 </v>
   <v>       0.23076923       0.41666667       0.45833333 </v>
   <v>       0.30769231       0.41666667       0.45833333 </v>
   <v>       0.38461538       0.41666667       0.45833333 </v>
   <v>       0.46153846       0.41666667       0.45833333 </v>
   <v>       0.00000000       0.47222222       0.45833333 </v>
   <v>       0.07692308       0.47222222       0.45833333 </v>
   <v>       0.15384615       0.47222222       0.45833333 </v>
   <v>       0.23076923       0.47222222       0.45833333 </v>
   <v>       0.30769231       0.47222222       0.45833333 </v>
   <v>       0.38461538       0.47222222       0.45833333 </v>
   <v>       0.46153846       0.47222222       0.45833333 </v>
  </varray>
  <varray name="weights" >
   <v>       0.00142450 </v>
   <v>       0.00284900 </v>
   <v>       0.00284900 </v>
   <v>       0.00284900 </v>
   <v>       0.00284900 </v>
   <v>       0.00284900 </v>
   <v>       0.00284900 </v>
   <v>       0.00142450 </v>
   <v>       0.00284900 </v>
   <v>       0.00284900 </v>
   <v>       0.00284900 </v>
   <v>       0.00284900 </v>
   <v>       0.00284900 </v>
   <v>       0.00284900 </v>
   <v>       0.00142450 </v>
   <v>       0.00284900 </v>
   <v>       0.00284900 </v>
   <v>       0.00284900 </v>
   <v>       0.00284900 </v>
   <v>       0.00284900 </v>
   <v>       0.00284900 </v>
   <v>       0.00142450 </v>
   <v>       0.00284900 </v>
   <v>       0.00284900 </v>
   <v>       0.00284900 </v>
   <v>       0.00284900 </v>
   <v>       0.00284900 </v>
   <v>       0.00284900 </v>
   <v>       0.00142450 </v>
   <v>       0.00284900 </v>
   <v>       0.00284900 </v>
   <v>       0.00284900 </v>
   <v>       0.00284900 </v>
   <v>       0.00284900 </v>
   <v>       0.00284900 </v>
   <v>       0.00142450 </v>
   <v>       0.00284900 </v>
   <v>       0.00284900 </v>
   <v>       0.00284900 </v>
   <v>       0.00284900 </v>
   <v>       0.00284900 </v>
   <v>       0.00284900 </v>
   <v>       0.00142450 </v>
   <v>       0.00284900 </v>
   <v>       0.00284900 </v>
   <v>       0.00284900 </v>
   <v>       0.00284900 </v>
   <v>       0.00284900 </v>
   <v>       0.00284900 </v>
   <v>       0.00142450 </v>
   <v>       0.00284900 </v>
   <v>       0.00284900 </v>
   <v>       0.00284900 </v>
   <v>       0.00284900 </v>
   <v>       0.00284900 </v>
   <v>       0.00284900 </v>
   <v>       0.00142450 </v>
   <v>       0.00284900 </v>
   <v>       0.00284900 </v>
   <v>       0.00284900 </v>
   <v>       0.00284900 </v>
   <v>       0.00284900 </v>
   <v>       0.00284900 </v>
   <v>       0.00142450 </v>
   <v>       0.00284900 </v>
   <v>       0.00284900 </v>
   <v>       0.00284900 </v>
   <v>       0.00284900 </v>
   <v>       0.00284900 </v>
   <v>       0.00284900 </v>
   <v>       0.00142450 </v>
   <v>       0.00284900 </v>
   <v>       0.00284900 </v>
   <v>       0.00284900 </v>
   <v>       0.00284900 </v>
   <v>       0.00284900 </v>
   <v>       0.00284900 </v>
   <v>       0.00142450 </v>
   <v>       0.00284900 </v>
   <v>       0.00284900 </v>
   <v>       0.00284900 </v>
   <v>       0.00284900 </v>
   <v>       0.00284900 </v>
   <v>       0.00284900 </v>
   <v>       0.00142450 </v>
   <v>       0.00284900 </v>
   <v>       0.00284900 </v>
   <v>       0.00284900 </v>
   <v>       0.00284900 </v>
   <v>       0.00284900 </v>
   <v>       0.00284900 </v>
   <v>       0.00142450 </v>
   <v>       0.00284900 </v>
   <v>       0.00284900 </v>
   <v>       0.00284900 </v>
   <v>       0.00284900 </v>
   <v>       0.00284900 </v>
   <v>       0.00284900 </v>
   <v>       0.00142450 </v>
   <v>       0.00284900 </v>
   <v>       0.00284900 </v>
   <v>       0.00284900 </v>
   <v>       0.00284900 </v>
   <v>       0.00284900 </v>
   <v>       0.00284900 </v>
   <v>       0.00142450 </v>
   <v>       0.00284900 </v>
   <v>       0.00284900 </v>
   <v>       0.00284900 </v>
   <v>       0.00284900 </v>
   <v>       0.00284900 </v>
   <v>       0.00284900 </v>
   <v>       0.00142450 </v>
   <v>       0.00284900 </v>
   <v>       0.00284900 </v>
   <v>       0.00284900 </v>
   <v>       0.00284900 </v>
   <v>       0.00284900 </v>
   <v>       0.00284900 </v>
   <v>       0.00142450 </v>
   <v>       0.00284900 </v>
   <v>       0.00284900 </v>
   <v>       0.00284900 </v>
   <v>       0.00284900 </v>
   <v>       0.00284900 </v>
   <v>       0.00284900 </v>
   <v>       0.00142450 </v>
   <v>       0.00284900 </v>
   <v>       0.00284900 </v>
   <v>       0.00284900 </v>
   <v>       0.00284900 </v>
   <v>       0.00284900 </v>
   <v>       0.00284900 </v>
   <v>       0.00142450 </v>
   <v>       0.00284900 </v>
   <v>       0.00284900 </v>
   <v>       0.00284900 </v>
   <v>       0.00284900 </v>
   <v>       0.00284900 </v>
   <v>       0.00284900 </v>
   <v>       0.00142450 </v>
   <v>       0.00284900 </v>
   <v>       0.00284900 </v>
   <v>       0.00284900 </v>
   <v>       0.00284900 </v>
   <v>       0.00284900 </v>
   <v>       0.00284900 </v>
   <v>       0.00142450 </v>
   <v>       0.00284900 </v>
   <v>       0.00284900 </v>
   <v>       0.00284900 </v>
   <v>       0.00284900 </v>
   <v>       0.00284900 </v>
   <v>       0.00284900 </v>
   <v>       0.00142450 </v>
   <v>       0.00284900 </v>
   <v>       0.00284900 </v>
   <v>       0.00284900 </v>
   <v>       0.00284900 </v>
   <v>       0.00284900 </v>
   <v>       0.00284900 </v>
   <v>       0.00142450 </v>
   <v>       0.00284900 </v>
   <v>       0.00284900 </v>
   <v>       0.00284900 </v>
   <v>       0.00284900 </v>
   <v>       0.00284900 </v>
   <v>       0.00284900 </v>
   <v>       0.00142450 </v>
   <v>       0.00284900 </v>
   <v>       0.00284900 </v>
   <v>       0.00284900 </v>
   <v>       0.00284900 </v>
   <v>       0.00284900 </v>
   <v>       0.00284900 </v>
   <v>       0.00142450 </v>
   <v>       0.00284900 </v>
   <v>       0.00284900 </v>
   <v>       0.00284900 </v>
   <v>       0.00284900 </v>
   <v>       0.00284900 </v>
   <v>       0.00284900 </v>
   <v>       0.00142450 </v>
   <v>       0.00284900 </v>
   <v>       0.00284900 </v>
   <v>       0.00284900 </v>
   <v>       0.00284900 </v>
   <v>       0.00284900 </v>
   <v>       0.00284900 </v>
   <v>       0.00142450 </v>
   <v>       0.00284900 </v>
   <v>       0.00284900 </v>
   <v>       0.00284900 </v>
   <v>       0.00284900 </v>
   <v>       0.00284900 </v>
   <v>       0.00284900 </v>
   <v>       0.00142450 </v>
   <v>       0.00284900 </v>
   <v>       0.00284900 </v>
   <v>       0.00284900 </v>
   <v>       0.00284900 </v>
   <v>       0.00284900 </v>
   <v>       0.00284900 </v>
   <v>       0.00142450 </v>
   <v>       0.00284900 </v>
   <v>       0.00284900 </v>
   <v>       0.00284900 </v>
   <v>       0.00284900 </v>
   <v>       0.00284900 </v>
   <v>       0.00284900 </v>
   <v>       0.00142450 </v>
   <v>       0.00284900 </v>
   <v>       0.00284900 </v>
   <v>       0.00284900 </v>
   <v>       0.00284900 </v>
   <v>       0.00284900 </v>
   <v>       0.00284900 </v>
   <v>       0.00142450 </v>
   <v>       0.00284900 </v>
   <v>       0.00284900 </v>
   <v>       0.00284900 </v>
   <v>       0.00284900 </v>
   <v>       0.00284900 </v>
   <v>       0.00284900 </v>
   <v>       0.00142450 </v>
   <v>       0.00284900 </v>
   <v>       0.00284900 </v>
   <v>       0.00284900 </v>
   <v>       0.00284900 </v>
   <v>       0.00284900 </v>
   <v>       0.00284900 </v>
   <v>       0.00142450 </v>
   <v>       0.00284900 </v>
   <v>       0.00284900 </v>
   <v>       0.00284900 </v>
   <v>       0.00284900 </v>
   <v>       0.00284900 </v>
   <v>       0.00284900 </v>
   <v>       0.00142450 </v>
   <v>       0.00284900 </v>
   <v>       0.00284900 </v>
   <v>       0.00284900 </v>
   <v>       0.00284900 </v>
   <v>       0.00284900 </v>
   <v>       0.00284900 </v>
   <v>       0.00142450 </v>
   <v>       0.00284900 </v>
   <v>       0.00284900 </v>
   <v>       0.00284900 </v>
   <v>       0.00284900 </v>
   <v>       0.00284900 </v>
   <v>       0.00284900 </v>
   <v>       0.00142450 </v>
   <v>       0.00284900 </v>
   <v>       0.00284900 </v>
   <v>       0.00284900 </v>
   <v>       0.00284900 </v>
   <v>       0.00284900 </v>
   <v>       0.00284900 </v>
   <v>       0.00142450 </v>
   <v>       0.00284900 </v>
   <v>       0.00284900 </v>
   <v>       0.00284900 </v>
   <v>       0.00284900 </v>
   <v>       0.00284900 </v>
   <v>       0.00284900 </v>
   <v>       0.00142450 </v>
   <v>       0.00284900 </v>
   <v>       0.00284900 </v>
   <v>       0.00284900 </v>
   <v>       0.00284900 </v>
   <v>       0.00284900 </v>
   <v>       0.00284900 </v>
   <v>       0.00142450 </v>
   <v>       0.00284900 </v>
   <v>       0.00284900 </v>
   <v>       0.00284900 </v>
   <v>       0.00284900 </v>
   <v>       0.00284900 </v>
   <v>       0.00284900 </v>
   <v>       0.00142450 </v>
   <v>       0.00284900 </v>
   <v>       0.00284900 </v>
   <v>       0.00284900 </v>
   <v>       0.00284900 </v>
   <v>       0.00284900 </v>
   <v>       0.00284900 </v>
   <v>       0.00142450 </v>
   <v>       0.00284900 </v>
   <v>       0.00284900 </v>
   <v>       0.00284900 </v>
   <v>       0.00284900 </v>
   <v>       0.00284900 </v>
   <v>       0.00284900 </v>
   <v>       0.00142450 </v>
   <v>       0.00284900 </v>
   <v>       0.00284900 </v>
   <v>       0.00284900 </v>
   <v>       0.00284900 </v>
   <v>       0.00284900 </v>
   <v>       0.00284900 </v>
   <v>       0.00142450 </v>
   <v>       0.00284900 </v>
   <v>       0.00284900 </v>
   <v>       0.00284900 </v>
   <v>       0.00284900 </v>
   <v>       0.00284900 </v>
   <v>       0.00284900 </v>
   <v>       0.00142450 </v>
   <v>       0.00284900 </v>
   <v>       0.00284900 </v>
   <v>       0.00284900 </v>
   <v>       0.00284900 </v>
   <v>       0.00284900 </v>
   <v>       0.00284900 </v>
   <v>       0.00142450 </v>
   <v>       0.00284900 </v>
   <v>       0.00284900 </v>
   <v>       0.00284900 </v>
   <v>       0.00284900 </v>
   <v>       0.00284900 </v>
   <v>       0.00284900 </v>
   <v>       0.00142450 </v>
   <v>       0.00284900 </v>
   <v>       0.00284900 </v>
   <v>       0.00284900 </v>
   <v>       0.00284900 </v>
   <v>       0.00284900 </v>
   <v>       0.00284900 </v>
   <v>       0.00142450 </v>
   <v>       0.00284900 </v>
   <v>       0.00284900 </v>
   <v>       0.00284900 </v>
   <v>       0.00284900 </v>
   <v>       0.00284900 </v>
   <v>       0.00284900 </v>
   <v>       0.00142450 </v>
   <v>       0.00284900 </v>
   <v>       0.00284900 </v>
   <v>       0.00284900 </v>
   <v>       0.00284900 </v>
   <v>       0.00284900 </v>
   <v>       0.00284900 </v>
   <v>       0.00142450 </v>
   <v>       0.00284900 </v>
   <v>       0.00284900 </v>
   <v>       0.00284900 </v>
   <v>       0.00284900 </v>
   <v>       0.00284900 </v>
   <v>       0.00284900 </v>
   <v>       0.00142450 </v>
   <v>       0.00284900 </v>
   <v>       0.00284900 </v>
   <v>       0.00284900 </v>
   <v>       0.00284900 </v>
   <v>       0.00284900 </v>
   <v>       0.00284900 </v>
   <v>       0.00142450 </v>
   <v>       0.00284900 </v>
   <v>       0.00284900 </v>
   <v>       0.00284900 </v>
   <v>       0.00284900 </v>
   <v>       0.00284900 </v>
   <v>       0.00284900 </v>
   <v>       0.00142450 </v>
   <v>       0.00284900 </v>
   <v>       0.00284900 </v>
   <v>       0.00284900 </v>
   <v>       0.00284900 </v>
   <v>       0.00284900 </v>
   <v>       0.00284900 </v>
   <v>       0.00142450 </v>
   <v>       0.00284900 </v>
   <v>       0.00284900 </v>
   <v>       0.00284900 </v>
   <v>       0.00284900 </v>
   <v>       0.00284900 </v>
   <v>       0.00284900 </v>
  </varray>
 </kpoints>
 <parameters>
  <separator name="general" >
   <i type="string" name="SYSTEM">Kpoints</i>
   <i type="logical" name="LCOMPAT"> F  </i>
  </separator>
  <separator name="electronic" >
   <i type="string" name="PREC">accura</i>
   <i name="ENMAX">    450.00000000</i>
   <i name="ENAUG">    535.51400000</i>
   <i name="EDIFF">      0.00000100</i>
   <i type="int" name="IALGO">    38</i>
   <i type="int" name="IWAVPR">    10</i>
   <i type="int" name="NBANDS">    48</i>
   <i type="int" name="NBANDSLOW">    -1</i>
   <i type="int" name="NBANDSHIGH">    -1</i>
   <i name="NELECT">     42.00000000</i>
   <i type="int" name="TURBO">     0</i>
   <i type="int" name="IRESTART">     0</i>
   <i type="int" name="NREBOOT">     0</i>
   <i type="int" name="NMIN">     0</i>
   <i name="EREF">      0.00000000</i>
   <separator name="electronic smearing" >
    <i type="int" name="ISMEAR">     0</i>
    <i name="SIGMA">      0.05000000</i>
    <i name="KSPACING">      0.50000000</i>
    <i type="logical" name="KGAMMA"> T  </i>
    <i type="logical" name="KBLOWUP"> T  </i>
   </separator>
   <separator name="electronic projectors" >
    <i type="logical" name="LREAL"> F  </i>
    <v name="ROPT">      0.00000000</v>
    <i type="int" name="LMAXPAW">  -100</i>
    <i type="int" name="LMAXMIX">     2</i>
    <i type="logical" name="NLSPLINE"> F  </i>
   </separator>
   <separator name="electronic startup" >
    <i type="int" name="ISTART">     0</i>
    <i type="int" name="ICHARG">     2</i>
    <i type="int" name="INIWAV">     1</i>
   </separator>
   <separator name="electronic spin" >
    <i type="int" name="ISPIN">     1</i>
    <i type="logical" name="LNONCOLLINEAR"> F  </i>
    <v name="MAGMOM">      1.00000000      1.00000000      1.00000000      1.00000000      1.00000000      1.00000000      1.00000000      1.00000000      1.00000000      1.00000000      1.00000000      1.00000000      1.00000000      1.00000000</v>
    <i name="NUPDOWN">     -1.00000000</i>
    <i type="logical" name="LSORBIT"> F  </i>
    <v name="SAXIS">      0.00000000      0.00000000      1.00000000</v>
    <i type="logical" name="LSPIRAL"> F  </i>
    <v name="QSPIRAL">      0.00000000      0.00000000      0.00000000</v>
    <i type="logical" name="LZEROZ"> F  </i>
   </separator>
   <separator name="electronic exchange-correlation" >
    <i type="logical" name="LASPH"> F  </i>
   </separator>
   <separator name="electronic convergence" >
    <i type="int" name="NELM">   100</i>
    <i type="int" name="NELMDL">    -5</i>
    <i type="int" name="NELMIN">     2</i>
    <i name="ENINI">    450.00000000</i>
    <separator name="electronic convergence detail" >
     <i type="logical" name="LDIAG"> T  </i>
     <i type="logical" name="LSUBROT"> F  </i>
     <i name="WEIMIN">      0.00000000</i>
     <i name="EBREAK">      0.00000001</i>
     <i name="DEPER">      0.30000000</i>
     <i type="int" name="NRMM">     4</i>
     <i name="TIME">      0.40000000</i>
    </separator>
   </separator>
   <separator name="electronic mixer" >
    <i name="AMIX">      0.40000000</i>
    <i name="BMIX">      1.00000000</i>
    <i name="AMIN">      0.10000000</i>
    <i name="AMIX_MAG">      1.60000000</i>
    <i name="BMIX_MAG">      1.00000000</i>
    <separator name="electronic mixer details" >
     <i type="int" name="IMIX">     4</i>
     <i type="logical" name="MIXFIRST"> F  </i>
     <i type="int" name="MAXMIX">   -45</i>
     <i name="WC">    100.00000000</i>
     <i type="int" name="INIMIX">     1</i>
     <i type="int" name="MIXPRE">     1</i>
     <i type="int" name="MREMOVE">     5</i>
    </separator>
   </separator>
   <separator name="electronic dipolcorrection" >
    <i type="logical" name="LDIPOL"> F  </i>
    <i type="logical" name="LMONO"> F  </i>
    <i type="int" name="IDIPOL">     0</i>
    <i name="EPSILON">      1.00000000</i>
    <v name="DIPOL">   -100.00000000   -100.00000000   -100.00000000</v>
    <i name="EFIELD">      0.00000000</i>
    <i type="logical" name="LVACPOTAV"> F  </i>
   </separator>
  </separator>
  <separator name="grids" >
   <i type="int" name="NGX">    40</i>
   <i type="int" name="NGY">    28</i>
   <i type="int" name="NGZ">    48</i>
   <i type="int" name="NGXF">    80</i>
   <i type="int" name="NGYF">    56</i>
   <i type="int" name="NGZF">    96</i>
   <i type="logical" name="ADDGRID"> F  </i>
  </separator>
  <separator name="ionic" >
   <i type="int" name="NSW">     0</i>
   <i type="int" name="IBRION">    -1</i>
   <i type="int" name="MDALGO">     0</i>
   <i type="int" name="ISIF">     2</i>
   <i name="PSTRESS">      0.00000000</i>
   <i name="EDIFFG">     -0.00100000</i>
   <i type="int" name="NFREE">     0</i>
   <i name="POTIM">      0.50000000</i>
   <i name="SMASS">     -3.00000000</i>
   <i name="SCALEE">      1.00000000</i>
  </separator>
  <separator name="ionic md" >
   <i name="TEBEG">      0.00010000</i>
   <i name="TEEND">      0.00010000</i>
   <i type="int" name="NBLOCK">     1</i>
   <i type="int" name="KBLOCK">     1</i>
   <i type="int" name="NPACO">   256</i>
   <i name="APACO">     10.00000000</i>
  </separator>
  <separator name="symmetry" >
   <i type="int" name="ISYM">     2</i>
   <i name="SYMPREC">      0.00001000</i>
  </separator>
  <separator name="dos" >
   <i type="int" name="LORBIT">     0</i>
   <v name="RWIGS">     -1.00000000</v>
   <i type="int" name="NEDOS">   301</i>
   <i name="EMIN">     10.00000000</i>
   <i name="EMAX">    -10.00000000</i>
   <i name="EFERMI">      0.00000000</i>
  </separator>
  <separator name="writing" >
   <i type="int" name="NWRITE">     2</i>
   <i type="logical" name="LWAVE"> F  </i>
   <i type="logical" name="LDOWNSAMPLE"> F  </i>
   <i type="logical" name="LCHARG"> F  </i>
   <i type="logical" name="LPARD"> F  </i>
   <i type="logical" name="LVTOT"> F  </i>
   <i type="logical" name="LVHAR"> F  </i>
   <i type="logical" name="LELF"> F  </i>
   <i type="logical" name="LOPTICS"> F  </i>
   <v name="STM">      0.00000000      0.00000000      0.00000000      0.00000000      0.00000000      0.00000000      0.00000000</v>
  </separator>
  <separator name="performance" >
   <i type="int" name="NPAR">    24</i>
   <i type="int" name="NSIM">     4</i>
   <i type="int" name="NBLK">    -1</i>
   <i type="logical" name="LPLANE"> T  </i>
   <i type="logical" name="LSCALAPACK"> T  </i>
   <i type="logical" name="LSCAAWARE"> F  </i>
   <i type="logical" name="LSCALU"> F  </i>
   <i type="logical" name="LASYNC"> F  </i>
   <i type="logical" name="LORBITALREAL"> F  </i>
  </separator>
  <separator name="miscellaneous" >
   <i type="int" name="IDIOT">     3</i>
   <i type="int" name="PHON_NSTRUCT">    -1</i>
   <i type="logical" name="LMUSIC"> F  </i>
   <v name="POMASS">     10.81100000</v>
   <v name="DARWINR">      0.00000000</v>
   <v name="DARWINV">      1.00000000</v>
   <i type="logical" name="LCORR"> T  </i>
  </separator>
  <i type="logical" name="GGA_COMPAT"> T  </i>
  <i type="logical" name="LBERRY"> F  </i>
  <i type="int" name="ICORELEVEL">     0</i>
  <i type="logical" name="LDAU"> F  </i>
  <i type="int" name="I_CONSTRAINED_M">     0</i>
  <separator name="electronic exchange-correlation" >
   <i type="string" name="GGA    ">PE</i>
   <i type="string" name="XC_C">1</i>
   <i type="int" name="VOSKOWN">     0</i>
   <i type="logical" name="LHFCALC"> F  </i>
   <i type="string" name="PRECFOCK"></i>
   <i type="logical" name="LSYMGRAD"> F  </i>
   <i type="logical" name="LHFONE"> F  </i>
   <i type="logical" name="LRHFCALC"> F  </i>
   <i type="logical" name="LTHOMAS"> F  </i>
   <i type="logical" name="LMODELHF"> F  </i>
   <i type="logical" name="LFOCKACE"> F  </i>
   <i name="ENCUT4O">     -1.00000000</i>
   <i type="int" name="EXXOEP">     0</i>
   <i type="int" name="FOURORBIT">     0</i>
   <i name="AEXX">      0.00000000</i>
   <i name="HFALPHA">      0.00000000</i>
   <i name="MCALPHA">      0.00000000</i>
   <i name="ALDAX">      1.00000000</i>
   <i name="AGGAX">      1.00000000</i>
   <i name="AMGGAX">      1.00000000</i>
   <i name="ALDAC">      1.00000000</i>
   <i name="AGGAC">      1.00000000</i>
   <i name="AMGGAC">      1.00000000</i>
   <i type="int" name="NKREDX">     1</i>
   <i type="int" name="NKREDY">     1</i>
   <i type="int" name="NKREDZ">     1</i>
   <i type="logical" name="SHIFTRED"> F  </i>
   <i type="logical" name="ODDONLY"> F  </i>
   <i type="logical" name="EVENONLY"> F  </i>
   <i type="int" name="LMAXFOCK">     0</i>
   <i type="int" name="NMAXFOCKAE">     0</i>
   <i type="logical" name="LFOCKAEDFT"> F  </i>
   <i name="HFSCREEN">      0.00000000</i>
   <i name="HFSCREENC">      0.00000000</i>
   <i type="int" name="NBANDSGWLOW">     0</i>
  </separator>
  <separator name="vdW DFT" >
   <i type="logical" name="LUSE_VDW"> F  </i>
   <i type="int" name="IVDW_NL">    -1</i>
   <i type="logical" name="LSPIN_VDW"> F  </i>
   <i name="ZAB_VDW">     -0.84910000</i>
   <i name="GAMMA_VDW">      1.39626340</i>
   <i name="ALPHA_VDW">      0.00000000</i>
   <i name="PARAM1">      0.12340000</i>
   <i name="PARAM2">      1.00000000</i>
   <i name="BPARAM">      6.30000000</i>
   <i name="CPARAM">      0.00930000</i>
  </separator>
  <separator name="model GW" >
   <i type="int" name="MODEL_GW">     0</i>
   <i name="MODEL_EPS0">      6.13175789</i>
   <i name="MODEL_ALPHA">      1.00000000</i>
  </separator>
  <separator name="linear response parameters" >
   <i type="logical" name="LEPSILON"> F  </i>
   <i type="logical" name="LRPA"> F  </i>
   <i type="logical" name="LNABLA"> F  </i>
   <i type="logical" name="LVEL"> F  </i>
   <i name="CSHIFT">      0.10000000</i>
   <i name="OMEGAMAX">     -1.00000000</i>
   <i name="DEG_THRESHOLD">      0.00200000</i>
   <i name="RTIME">     -0.10000000</i>
   <i name="WPLASMAI">      0.00000000</i>
   <v name="DFIELD">      0.00000000      0.00000000      0.00000000</v>
   <v name="WPLASMA">      0.00000000      0.00000000      0.00000000      0.00000000      0.00000000      0.00000000      0.00000000      0.00000000      0.00000000</v>
  </separator>
  <separator name="orbital magnetization" >
   <i type="logical" name="NUCIND"> F  </i>
   <v name="MAGPOS">      0.00000000      0.00000000      0.00000000</v>
   <i type="logical" name="LNICSALL"> T  </i>
   <i type="logical" name="ORBITALMAG"> F  </i>
   <i type="logical" name="LMAGBLOCH"> F  </i>
   <i type="logical" name="LCHIMAG"> F  </i>
   <i type="logical" name="LGAUGE"> T  </i>
   <i type="int" name="MAGATOM">     0</i>
   <v name="MAGDIPOL">      0.00000000      0.00000000      0.00000000</v>
   <v name="AVECCONST">      0.00000000      0.00000000      0.00000000</v>
  </separator>
  <separator name="response functions" >
   <i type="logical" name="LALL_IN_ONE"> F  </i>
   <i type="int" name="IALL_IN_ONE">    -1</i>
   <i type="int" name="NBANDS_WAVE">    -1</i>
   <i type="logical" name="LFINITE_TEMPERATURE"> F  </i>
   <i type="logical" name="LADDER"> F  </i>
   <i type="logical" name="LRPAFORCE"> F  </i>
   <i type="logical" name="LFXC"> F  </i>
   <i type="logical" name="LHARTREE"> T  </i>
   <i type="int" name="IBSE">     0</i>
   <v type="int" name="KPOINT">    -1     0     0     0</v>
   <i type="logical" name="LTCTC"> F  </i>
   <i type="logical" name="LTCTE"> F  </i>
   <i type="logical" name="LTETE"> F  </i>
   <i type="logical" name="LTRIPLET"> F  </i>
   <i type="logical" name="LFXCEPS"> F  </i>
   <i type="logical" name="LFXHEG"> F  </i>
   <i type="int" name="NATURALO">     2</i>
   <i type="logical" name="LHOLEGF"> F  </i>
   <i type="logical" name="L2ORDER"> F  </i>
   <i type="logical" name="LDMP1"> F  </i>
   <i type="logical" name="LMP2LT"> F  </i>
   <i type="logical" name="LSMP2LT"> F  </i>
   <i type="logical" name="LGWLF"> F  </i>
   <i name="ENCUTGW">     -1.60000002</i>
   <i name="ENCUTGWSOFT">     -1.60000002</i>
   <i name="ENCUTLF">     -1.00000000</i>
   <i type="logical" name="ESF_SPLINES"> F  </i>
   <i name="ESF_CONV">      0.01000000</i>
   <i type="int" name="ESF_NINTER">    15</i>
   <i type="int" name="LMAXMP2">    -1</i>
   <i name="SCISSOR">      0.00000000</i>
   <i type="int" name="NOMEGA">     0</i>
   <i type="int" name="NOMEGAR">     0</i>
   <i type="int" name="NBANDSGW">    -1</i>
   <i type="int" name="NBANDSO">    -1</i>
   <i type="int" name="NBANDSV">    -1</i>
   <i type="int" name="NELMGW">     1</i>
   <i type="int" name="NELMHF">     1</i>
   <i type="int" name="DIM">     3</i>
   <i type="int" name="IESPILON">     4</i>
   <i type="int" name="ANTIRES">     0</i>
   <i name="OMEGAMAX">    -30.00000000</i>
   <i name="OMEGAMIN">    -30.00000000</i>
   <i name="OMEGATL">   -200.00000000</i>
   <i type="int" name="OMEGAGRID">     0</i>
   <i name="CSHIFT">     -0.10000000</i>
   <i type="logical" name="LSELFENERGY"> F  </i>
   <i type="logical" name="LSPECTRAL"> F  </i>
   <i type="logical" name="LSPECTRALGW"> F  </i>
   <i type="logical" name="LSINGLES"> F  </i>
   <i type="logical" name="LFERMIGW"> F  </i>
   <i type="logical" name="ODDONLYGW"> F  </i>
   <i type="logical" name="EVENONLYGW"> F  </i>
   <i type="int" name="NKREDLFX">     1</i>
   <i type="int" name="NKREDLFY">     1</i>
   <i type="int" name="NKREDLFZ">     1</i>
   <i type="int" name="MAXMEM">  2800</i>
   <i type="int" name="TELESCOPE">     0</i>
   <i type="int" name="NTAUPAR">    -1</i>
   <i type="int" name="NOMEGAPAR">    -1</i>
   <i name="DAMP_NEWTON">      0.80000001</i>
   <i name="LAMBDA">      1.00000000</i>
  </separator>
  <separator name="External order field" >
   <i name="OFIELD_KAPPA">      0.00000000</i>
   <v name="OFIELD_K">      0.00000000      0.00000000      0.00000000</v>
   <i name="OFIELD_Q6_NEAR">      0.00000000</i>
   <i name="OFIELD_Q6_FAR">      0.00000000</i>
   <i name="OFIELD_A">      0.00000000</i>
  </separator>
  <separator name="optional k-points parameters" >
   <i type="int" name="KPOINTS_OPT_MODE">     1</i>
   <i type="logical" name="LKPOINTS_OPT"> F  </i>
  </separator>
 </parameters>
 <atominfo>
  <atoms>      14 </atoms>
  <types>       1 </types>
  <array name="atoms" >
   <dimension dim="1">ion</dimension>
   <field type="string">element</field>
   <field type="int">atomtype</field>
   <set>
    <rc><c>B </c><c>   1</c></rc>
    <rc><c>B </c><c>   1</c></rc>
    <rc><c>B </c><c>   1</c></rc>
    <rc><c>B </c><c>   1</c></rc>
    <rc><c>B </c><c>   1</c></rc>
    <rc><c>B </c><c>   1</c></rc>
    <rc><c>B </c><c>   1</c></rc>
    <rc><c>B </c><c>   1</c></rc>
    <rc><c>B </c><c>   1</c></rc>
    <rc><c>B </c><c>   1</c></rc>
    <rc><c>B </c><c>   1</c></rc>
    <rc><c>B </c><c>   1</c></rc>
    <rc><c>B </c><c>   1</c></rc>
    <rc><c>B </c><c>   1</c></rc>
   </set>
  </array>
  <array name="atomtypes" >
   <dimension dim="1">type</dimension>
   <field type="int">atomspertype</field>
   <field type="string">element</field>
   <field>mass</field>
   <field>valence</field>
   <field type="string">pseudopotential</field>
   <set>
    <rc><c>  14</c><c>B </c><c>     10.81100000</c><c>      3.00000000</c><c>  PAW_PBE B 06Sep2000                   </c></rc>
   </set>
  </array>
 </atominfo>
 <structure name="initialpos" >
  <crystal>
   <varray name="basis" >
    <v>       5.69700000       0.00000000       0.00000000 </v>
    <v>       0.00000000       4.04790000       0.00000000 </v>
    <v>       0.00000000       0.00000000       6.20420000 </v>
   </varray>
   <i name="volume">    143.07435078 </i>
   <varray name="rec_basis" >
    <v>       0.17553098       0.00000000       0.00000000 </v>
    <v>       0.00000000       0.24704168       0.00000000 </v>
    <v>       0.00000000       0.00000000       0.16118114 </v>
   </varray>
  </crystal>
  <varray name="positions" >
   <v>       0.52123000       0.50000000       0.63796000 </v>
   <v>       0.47877000       0.50000000       0.36204000 </v>
   <v>       0.97877000       0.50000000       0.63796000 </v>
   <v>       0.02123000       0.50000000       0.36204000 </v>
   <v>       0.60090000       0.50000000       0.89991000 </v>
   <v>       0.39910000       0.50000000       0.10009000 </v>
   <v>       0.89910000       0.50000000       0.89991000 </v>
   <v>       0.10090000       0.50000000       0.10009000 </v>
   <v>       0.75000000       0.79171000       0.72973000 </v>
   <v>       0.25000000       0.20829000       0.27027000 </v>
   <v>       0.75000000       0.20829000       0.72973000 </v>
   <v>       0.25000000       0.79171000       0.27027000 </v>
   <v>       0.25000000       0.50000000       0.52367000 </v>
   <v>       0.75000000       0.50000000       0.47633000 </v>
  </varray>
 </structure>
 <calculation>
  <scstep>
   <time name="dav">   14.68   14.81</time>
   <time name="total">   14.71   14.83</time>
   <energy>
    <i name="alphaZ">     94.24357992 </i>
    <i name="ewald">   -795.76658092 </i>
    <i name="hartreedc">   -271.33601302 </i>
    <i name="XCdc">     97.50108175 </i>
    <i name="pawpsdc">    608.99811708 </i>
    <i name="pawaedc">   -597.02363782 </i>
    <i name="eentropy">     -0.00195685 </i>
    <i name="bandstr">    -85.47653709 </i>
    <i name="atom">    996.36340036 </i>
    <i name="e_fr_energy">     47.50145341 </i>
    <i name="e_wo_entrp">     47.50341026 </i>
    <i name="e_0_energy">     47.50243184 </i>
   </energy>
  </scstep>
  <scstep>
   <time name="dav">   17.42   17.43</time>
   <time name="total">   17.43   17.44</time>
   <energy>
    <i name="e_fr_energy">    -93.18040366 </i>
    <i name="e_wo_entrp">    -93.17574580 </i>
    <i name="e_0_energy">    -93.17807473 </i>
   </energy>
  </scstep>
  <scstep>
   <time name="dav">   18.20   18.21</time>
   <time name="total">   18.21   18.21</time>
   <energy>
    <i name="e_fr_energy">    -97.58252082 </i>
    <i name="e_wo_entrp">    -97.57668243 </i>
    <i name="e_0_energy">    -97.57960162 </i>
   </energy>
  </scstep>
  <scstep>
   <time name="dav">   16.23   16.24</time>
   <time name="total">   16.24   16.24</time>
   <energy>
    <i name="e_fr_energy">    -97.60797314 </i>
    <i name="e_wo_entrp">    -97.60213264 </i>
    <i name="e_0_energy">    -97.60505289 </i>
   </energy>
  </scstep>
  <scstep>
   <time name="dav">   17.97   17.97</time>
   <time name="total">   18.12   18.12</time>
   <energy>
    <i name="e_fr_energy">    -97.60826529 </i>
    <i name="e_wo_entrp">    -97.60242474 </i>
    <i name="e_0_energy">    -97.60534502 </i>
   </energy>
  </scstep>
  <scstep>
   <time name="dav">   18.10   18.10</time>
   <time name="total">   18.25   18.25</time>
   <energy>
    <i name="e_fr_energy">    -92.19732176 </i>
    <i name="e_wo_entrp">    -92.19297061 </i>
    <i name="e_0_energy">    -92.19514619 </i>
   </energy>
  </scstep>
  <scstep>
   <time name="dav">   18.45   18.45</time>
   <time name="total">   18.60   18.60</time>
   <energy>
    <i name="e_fr_energy">    -90.54865026 </i>
    <i name="e_wo_entrp">    -90.54466981 </i>
    <i name="e_0_energy">    -90.54666004 </i>
   </energy>
  </scstep>
  <scstep>
   <time name="dav">   14.86   14.86</time>
   <time name="total">   15.01   15.01</time>
   <energy>
    <i name="e_fr_energy">    -90.55659641 </i>
    <i name="e_wo_entrp">    -90.55260175 </i>
    <i name="e_0_energy">    -90.55459908 </i>
   </energy>
  </scstep>
  <scstep>
   <time name="dav">   17.89   17.89</time>
   <time name="total">   18.04   18.04</time>
   <energy>
    <i name="e_fr_energy">    -90.57150063 </i>
    <i name="e_wo_entrp">    -90.56747302 </i>
    <i name="e_0_energy">    -90.56948682 </i>
   </energy>
  </scstep>
  <scstep>
   <time name="dav">   15.38   15.38</time>
   <time name="total">   15.53   15.53</time>
   <energy>
    <i name="e_fr_energy">    -90.57626492 </i>
    <i name="e_wo_entrp">    -90.57223544 </i>
    <i name="e_0_energy">    -90.57425018 </i>
   </energy>
  </scstep>
  <scstep>
   <time name="dav">   16.24   16.24</time>
   <time name="total">   16.39   16.39</time>
   <energy>
    <i name="e_fr_energy">    -90.57766414 </i>
    <i name="e_wo_entrp">    -90.57364266 </i>
    <i name="e_0_energy">    -90.57565340 </i>
   </energy>
  </scstep>
  <scstep>
   <time name="dav">   17.15   17.15</time>
   <time name="total">   17.30   17.30</time>
   <energy>
    <i name="e_fr_energy">    -90.57776788 </i>
    <i name="e_wo_entrp">    -90.57374471 </i>
    <i name="e_0_energy">    -90.57575630 </i>
   </energy>
  </scstep>
  <scstep>
   <time name="dav">   17.25   17.25</time>
   <time name="total">   17.40   17.40</time>
   <energy>
    <i name="e_fr_energy">    -90.57778600 </i>
    <i name="e_wo_entrp">    -90.57376239 </i>
    <i name="e_0_energy">    -90.57577419 </i>
   </energy>
  </scstep>
  <scstep>
   <time name="dav">   16.74   16.74</time>
   <time name="total">   16.89   16.89</time>
   <energy>
    <i name="e_fr_energy">    -90.57778707 </i>
    <i name="e_wo_entrp">    -90.57376366 </i>
    <i name="e_0_energy">    -90.57577537 </i>
   </energy>
  </scstep>
  <scstep>
   <time name="dav">   15.94   15.94</time>
   <time name="total">   15.95   15.96</time>
   <energy>
    <i name="alphaZ">     94.24357992 </i>
    <i name="ewald">   -795.76658092 </i>
    <i name="hartreedc">   -349.08673689 </i>
    <i name="XCdc">    101.58669011 </i>
    <i name="pawpsdc">   3715.89540848 </i>
    <i name="pawaedc">  -3705.08900832 </i>
    <i name="eentropy">     -0.00402356 </i>
    <i name="bandstr">   -148.72051654 </i>
    <i name="atom">    996.36340036 </i>
    <i name="e_fr_energy">    -90.57778735 </i>
    <i name="e_wo_entrp">    -90.57376380 </i>
    <i name="e_0_energy">    -90.57577557 </i>
   </energy>
  </scstep>
  <structure>
   <crystal>
    <varray name="basis" >
     <v>       5.69700000       0.00000000       0.00000000 </v>
     <v>       0.00000000       4.04790000       0.00000000 </v>
     <v>       0.00000000       0.00000000       6.20420000 </v>
    </varray>
    <i name="volume">    143.07435078 </i>
    <varray name="rec_basis" >
     <v>       0.17553098       0.00000000       0.00000000 </v>
     <v>       0.00000000       0.24704168       0.00000000 </v>
     <v>       0.00000000       0.00000000       0.16118114 </v>
    </varray>
   </crystal>
   <varray name="positions" >
    <v>       0.52123000       0.50000000       0.63796000 </v>
    <v>       0.47877000       0.50000000       0.36204000 </v>
    <v>       0.97877000       0.50000000       0.63796000 </v>
    <v>       0.02123000       0.50000000       0.36204000 </v>
    <v>       0.60090000       0.50000000       0.89991000 </v>
    <v>       0.39910000       0.50000000       0.10009000 </v>
    <v>       0.89910000       0.50000000       0.89991000 </v>
    <v>       0.10090000       0.50000000       0.10009000 </v>
    <v>       0.75000000       0.79171000       0.72973000 </v>
    <v>       0.25000000       0.20829000       0.27027000 </v>
    <v>       0.75000000       0.20829000       0.72973000 </v>
    <v>       0.25000000       0.79171000       0.27027000 </v>
    <v>       0.25000000       0.50000000       0.52367000 </v>
    <v>       0.75000000       0.50000000       0.47633000 </v>
   </varray>
  </structure>
  <varray name="forces" >
   <v>      -0.01642967       0.00000000       0.05773704 </v>
   <v>       0.01642967       0.00000000      -0.05773704 </v>
   <v>       0.01642967       0.00000000       0.05773704 </v>
   <v>      -0.01642967       0.00000000      -0.05773704 </v>
   <v>      -0.82655157       0.00000000       0.28998218 </v>
   <v>       0.82655157       0.00000000      -0.28998218 </v>
   <v>       0.82655157       0.00000000       0.28998218 </v>
   <v>      -0.82655157       0.00000000      -0.28998218 </v>
   <v>      -0.00000000       0.05085826      -0.08050430 </v>
   <v>      -0.00000000      -0.05085826       0.08050430 </v>
   <v>      -0.00000000      -0.05085826      -0.08050430 </v>
   <v>      -0.00000000       0.05085826       0.08050430 </v>
   <v>      -0.00000000       0.00000000       0.07551621 </v>
   <v>      -0.00000000       0.00000000      -0.07551621 </v>
  </varray>
  <varray name="stress" >
   <v>      14.99143902       0.00000000      -0.00000000 </v>
   <v>       0.00000000       1.01877786       0.00000000 </v>
   <v>      -0.00000000       0.00000000      -5.10265206 </v>
  </varray>
  <energy>
   <i name="e_fr_energy">    -90.57778735 </i>
   <i name="e_wo_entrp">    -90.57376380 </i>
   <i name="e_0_energy">    -90.57577557 </i>
  </energy>
  <time name="totalsc">  261.12  261.28</time>
  <eigenvalues>
   <array>
    <dimension dim="1">band</dimension>
    <dimension dim="2">kpoint</dimension>
    <dimension dim="3">spin</dimension>
    <field>eigene</field>
    <field>occ</field>
    <set>
     <set comment="spin 1">
      <set comment="kpoint 1">
       <r>  -12.7304    1.0000 </r>
       <r>  -11.5783    1.0000 </r>
       <r>   -8.6597    1.0000 </r>
       <r>   -8.4182    1.0000 </r>
       <r>   -6.0941    1.0000 </r>
       <r>   -5.0939    1.0000 </r>
       <r>   -4.5942    1.0000 </r>
       <r>   -4.3332    1.0000 </r>
       <r>   -4.0145    1.0000 </r>
       <r>   -3.5800    1.0000 </r>
       <r>   -2.5110    1.0000 </r>
       <r>   -2.3642    1.0000 </r>
       <r>   -1.9176    1.0000 </r>
       <r>   -1.0588    1.0000 </r>
       <r>   -0.0463    1.0000 </r>
       <r>   -0.0270    1.0000 </r>
       <r>    0.1193    1.0000 </r>
       <r>    0.1899    1.0000 </r>
       <r>    0.5381    1.0000 </r>
       <r>    2.0452    0.0000 </r>
       <r>    2.0924    0.0000 </r>
       <r>    2.2747    0.0000 </r>
       <r>    5.4314    0.0000 </r>
       <r>    5.7673    0.0000 </r>
       <r>    5.8519    0.0000 </r>
       <r>    5.8925    0.0000 </r>
       <r>    6.8285    0.0000 </r>
       <r>    7.6865    0.0000 </r>
       <r>    7.7213    0.0000 </r>
       <r>    8.5726    0.0000 </r>
       <r>    8.7485    0.0000 </r>
       <r>    8.9388    0.0000 </r>
       <r>    9.0548    0.0000 </r>
       <r>   10.0939    0.0000 </r>
       <r>   11.1631    0.0000 </r>
       <r>   11.3883    0.0000 </r>
       <r>   11.6956    0.0000 </r>
       <r>   11.8182    0.0000 </r>
       <r>   11.8969    0.0000 </r>
       <r>   12.3874    0.0000 </r>
       <r>   12.8356    0.0000 </r>
       <r>   13.3403    0.0000 </r>
       <r>   13.6088    0.0000 </r>
       <r>   15.5194    0.0000 </r>
       <r>   15.5635    0.0000 </r>
       <r>   15.8714    0.0000 </r>
       <r>   16.3470    0.0000 </r>
       <r>   16.4396    0.0000 </r>
      </set>
      <set comment="kpoint 2">
       <r>  -12.7174    1.0000 </r>
       <r>  -11.6006    1.0000 </r>
       <r>   -8.6553    1.0000 </r>
       <r>   -8.4134    1.0000 </r>
       <r>   -6.0700    1.0000 </r>
       <r>   -5.2243    1.0000 </r>
       <r>   -4.6779    1.0000 </r>
       <r>   -4.1560    1.0000 </r>
       <r>   -3.9893    1.0000 </r>
       <r>   -3.4573    1.0000 </r>
       <r>   -2.5313    1.0000 </r>
       <r>   -2.3584    1.0000 </r>
       <r>   -1.9427    1.0000 </r>
       <r>   -1.1560    1.0000 </r>
       <r>   -0.0609    1.0000 </r>
       <r>    0.0156    1.0000 </r>
       <r>    0.1232    1.0000 </r>
       <r>    0.1673    1.0000 </r>
       <r>    0.5098    1.0000 </r>
       <r>    1.9922    0.0012 </r>
       <r>    2.0959    0.0000 </r>
       <r>    2.2367    0.0000 </r>
       <r>    5.4566    0.0000 </r>
       <r>    5.7586    0.0000 </r>
       <r>    5.8204    0.0000 </r>
       <r>    6.0511    0.0000 </r>
       <r>    6.7993    0.0000 </r>
       <r>    7.4245    0.0000 </r>
       <r>    7.9244    0.0000 </r>
       <r>    8.6188    0.0000 </r>
       <r>    8.8432    0.0000 </r>
       <r>    9.0168    0.0000 </r>
       <r>    9.0808    0.0000 </r>
       <r>   10.1265    0.0000 </r>
       <r>   11.1821    0.0000 </r>
       <r>   11.2637    0.0000 </r>
       <r>   11.4933    0.0000 </r>
       <r>   11.7517    0.0000 </r>
       <r>   11.9646    0.0000 </r>
       <r>   12.4132    0.0000 </r>
       <r>   12.9752    0.0000 </r>
       <r>   13.4413    0.0000 </r>
       <r>   13.5996    0.0000 </r>
       <r>   15.1925    0.0000 </r>
       <r>   15.6240    0.0000 </r>
       <r>   16.0682    0.0000 </r>
       <r>   16.2092    0.0000 </r>
       <r>   16.3901    0.0000 </r>
      </set>
      <set comment="kpoint 3">
       <r>  -12.6787    1.0000 </r>
       <r>  -11.6650    1.0000 </r>
       <r>   -8.6405    1.0000 </r>
       <r>   -8.4015    1.0000 </r>
       <r>   -6.0230    1.0000 </r>
       <r>   -5.4625    1.0000 </r>
       <r>   -4.7860    1.0000 </r>
       <r>   -3.9650    1.0000 </r>
       <r>   -3.7730    1.0000 </r>
       <r>   -3.1689    1.0000 </r>
       <r>   -2.5945    1.0000 </r>
       <r>   -2.3405    1.0000 </r>
       <r>   -2.0065    1.0000 </r>
       <r>   -1.4233    1.0000 </r>
       <r>   -0.0517    1.0000 </r>
       <r>   -0.0003    1.0000 </r>
       <r>    0.1210    1.0000 </r>
       <r>    0.1915    1.0000 </r>
       <r>    0.4281    1.0000 </r>
       <r>    1.8883    0.4567 </r>
       <r>    2.0589    0.0000 </r>
       <r>    2.1248    0.0000 </r>
       <r>    5.5170    0.0000 </r>
       <r>    5.7613    0.0000 </r>
       <r>    5.8904    0.0000 </r>
       <r>    6.3360    0.0000 </r>
       <r>    6.7204    0.0000 </r>
       <r>    7.1504    0.0000 </r>
       <r>    8.0771    0.0000 </r>
       <r>    8.7380    0.0000 </r>
       <r>    9.0054    0.0000 </r>
       <r>    9.1416    0.0000 </r>
       <r>    9.2947    0.0000 </r>
       <r>   10.2334    0.0000 </r>
       <r>   10.9179    0.0000 </r>
       <r>   11.0647    0.0000 </r>
       <r>   11.2447    0.0000 </r>
       <r>   11.6940    0.0000 </r>
       <r>   12.1422    0.0000 </r>
       <r>   12.4964    0.0000 </r>
       <r>   13.1574    0.0000 </r>
       <r>   13.1817    0.0000 </r>
       <r>   14.0294    0.0000 </r>
       <r>   14.8181    0.0000 </r>
       <r>   15.7421    0.0000 </r>
       <r>   15.8035    0.0000 </r>
       <r>   16.2325    0.0000 </r>
       <r>   16.5098    0.0000 </r>
      </set>
      <set comment="kpoint 4">
       <r>  -12.6153    1.0000 </r>
       <r>  -11.7639    1.0000 </r>
       <r>   -8.6125    1.0000 </r>
       <r>   -8.3891    1.0000 </r>
       <r>   -6.0165    1.0000 </r>
       <r>   -5.6853    1.0000 </r>
       <r>   -4.7762    1.0000 </r>
       <r>   -3.8703    1.0000 </r>
       <r>   -3.3866    1.0000 </r>
       <r>   -2.8226    1.0000 </r>
       <r>   -2.6962    1.0000 </r>
       <r>   -2.3099    1.0000 </r>
       <r>   -2.0846    1.0000 </r>
       <r>   -1.8036    1.0000 </r>
       <r>   -0.1800    1.0000 </r>
       <r>   -0.0071    1.0000 </r>
       <r>    0.1596    1.0000 </r>
       <r>    0.2036    1.0000 </r>
       <r>    0.3842    1.0000 </r>
       <r>    1.7682    0.9995 </r>
       <r>    1.9291    0.1032 </r>
       <r>    1.9893    0.0015 </r>
       <r>    5.5771    0.0000 </r>
       <r>    5.7699    0.0000 </r>
       <r>    6.1154    0.0000 </r>
       <r>    6.6135    0.0000 </r>
       <r>    6.6958    0.0000 </r>
       <r>    6.9321    0.0000 </r>
       <r>    8.1978    0.0000 </r>
       <r>    8.8604    0.0000 </r>
       <r>    9.0030    0.0000 </r>
       <r>    9.4081    0.0000 </r>
       <r>    9.6616    0.0000 </r>
       <r>   10.3945    0.0000 </r>
       <r>   10.4688    0.0000 </r>
       <r>   10.6464    0.0000 </r>
       <r>   11.3301    0.0000 </r>
       <r>   11.7756    0.0000 </r>
       <r>   12.3147    0.0000 </r>
       <r>   12.6945    0.0000 </r>
       <r>   12.7456    0.0000 </r>
       <r>   13.0996    0.0000 </r>
       <r>   14.5242    0.0000 </r>
       <r>   14.7851    0.0000 </r>
       <r>   15.3467    0.0000 </r>
       <r>   15.9342    0.0000 </r>
       <r>   16.1041    0.0000 </r>
       <r>   16.3169    0.0000 </r>
      </set>
      <set comment="kpoint 5">
       <r>  -12.5289    1.0000 </r>
       <r>  -11.8872    1.0000 </r>
       <r>   -8.5709    1.0000 </r>
       <r>   -8.3842    1.0000 </r>
       <r>   -6.0741    1.0000 </r>
       <r>   -5.8676    1.0000 </r>
       <r>   -4.5883    1.0000 </r>
       <r>   -3.7499    1.0000 </r>
       <r>   -3.0233    1.0000 </r>
       <r>   -2.8689    1.0000 </r>
       <r>   -2.4485    1.0000 </r>
       <r>   -2.3150    1.0000 </r>
       <r>   -2.1790    1.0000 </r>
       <r>   -2.1366    1.0000 </r>
       <r>   -0.4049    1.0000 </r>
       <r>   -0.0789    1.0000 </r>
       <r>    0.0908    1.0000 </r>
       <r>    0.2712    1.0000 </r>
       <r>    0.4950    1.0000 </r>
       <r>    1.6550    1.0000 </r>
       <r>    1.6974    1.0000 </r>
       <r>    1.8751    0.6042 </r>
       <r>    5.6189    0.0000 </r>
       <r>    5.7972    0.0000 </r>
       <r>    6.4717    0.0000 </r>
       <r>    6.5158    0.0000 </r>
       <r>    6.7354    0.0000 </r>
       <r>    7.1479    0.0000 </r>
       <r>    8.3012    0.0000 </r>
       <r>    8.8329    0.0000 </r>
       <r>    8.9147    0.0000 </r>
       <r>    9.7191    0.0000 </r>
       <r>    9.8435    0.0000 </r>
       <r>   10.0754    0.0000 </r>
       <r>   10.3822    0.0000 </r>
       <r>   10.8613    0.0000 </r>
       <r>   11.3757    0.0000 </r>
       <r>   12.0009    0.0000 </r>
       <r>   12.2571    0.0000 </r>
       <r>   12.3770    0.0000 </r>
       <r>   12.7222    0.0000 </r>
       <r>   13.0809    0.0000 </r>
       <r>   14.7373    0.0000 </r>
       <r>   15.0289    0.0000 </r>
       <r>   15.1847    0.0000 </r>
       <r>   15.6031    0.0000 </r>
       <r>   15.7278    0.0000 </r>
       <r>   16.2181    0.0000 </r>
      </set>
      <set comment="kpoint 6">
       <r>  -12.4222    1.0000 </r>
       <r>  -12.0238    1.0000 </r>
       <r>   -8.5199    1.0000 </r>
       <r>   -8.3942    1.0000 </r>
       <r>   -6.1378    1.0000 </r>
       <r>   -6.0122    1.0000 </r>
       <r>   -4.2573    1.0000 </r>
       <r>   -3.6020    1.0000 </r>
       <r>   -3.0508    1.0000 </r>
       <r>   -2.9616    1.0000 </r>
       <r>   -2.5003    1.0000 </r>
       <r>   -2.2373    1.0000 </r>
       <r>   -2.1575    1.0000 </r>
       <r>   -2.0393    1.0000 </r>
       <r>   -0.6292    1.0000 </r>
       <r>   -0.3482    1.0000 </r>
       <r>    0.1640    1.0000 </r>
       <r>    0.3083    1.0000 </r>
       <r>    0.6722    1.0000 </r>
       <r>    1.4187    1.0000 </r>
       <r>    1.5975    1.0000 </r>
       <r>    1.7553    0.9999 </r>
       <r>    5.6621    0.0000 </r>
       <r>    5.8057    0.0000 </r>
       <r>    6.4604    0.0000 </r>
       <r>    6.6117    0.0000 </r>
       <r>    6.9317    0.0000 </r>
       <r>    7.6161    0.0000 </r>
       <r>    8.3939    0.0000 </r>
       <r>    8.5611    0.0000 </r>
       <r>    8.7332    0.0000 </r>
       <r>    9.2596    0.0000 </r>
       <r>   10.0542    0.0000 </r>
       <r>   10.4180    0.0000 </r>
       <r>   10.5252    0.0000 </r>
       <r>   11.3020    0.0000 </r>
       <r>   11.4233    0.0000 </r>
       <r>   11.7650    0.0000 </r>
       <r>   12.0940    0.0000 </r>
       <r>   12.3247    0.0000 </r>
       <r>   12.6114    0.0000 </r>
       <r>   13.3462    0.0000 </r>
       <r>   14.5339    0.0000 </r>
       <r>   14.9277    0.0000 </r>
       <r>   15.0942    0.0000 </r>
       <r>   15.2476    0.0000 </r>
       <r>   15.6783    0.0000 </r>
       <r>   16.3679    0.0000 </r>
      </set>
      <set comment="kpoint 7">
       <r>  -12.2988    1.0000 </r>
       <r>  -12.1638    1.0000 </r>
       <r>   -8.4673    1.0000 </r>
       <r>   -8.4227    1.0000 </r>
       <r>   -6.1558    1.0000 </r>
       <r>   -6.1124    1.0000 </r>
       <r>   -3.8388    1.0000 </r>
       <r>   -3.4334    1.0000 </r>
       <r>   -3.3748    1.0000 </r>
       <r>   -3.2431    1.0000 </r>
       <r>   -2.3862    1.0000 </r>
       <r>   -2.2992    1.0000 </r>
       <r>   -1.9669    1.0000 </r>
       <r>   -1.8852    1.0000 </r>
       <r>   -0.7392    1.0000 </r>
       <r>   -0.6138    1.0000 </r>
       <r>    0.2424    1.0000 </r>
       <r>    0.2973    1.0000 </r>
       <r>    0.8927    1.0000 </r>
       <r>    1.1464    1.0000 </r>
       <r>    1.5934    1.0000 </r>
       <r>    1.6528    1.0000 </r>
       <r>    5.7174    0.0000 </r>
       <r>    5.7736    0.0000 </r>
       <r>    6.4655    0.0000 </r>
       <r>    6.5205    0.0000 </r>
       <r>    7.4610    0.0000 </r>
       <r>    7.9674    0.0000 </r>
       <r>    8.2080    0.0000 </r>
       <r>    8.4889    0.0000 </r>
       <r>    8.5977    0.0000 </r>
       <r>    8.6975    0.0000 </r>
       <r>   10.3879    0.0000 </r>
       <r>   10.5972    0.0000 </r>
       <r>   10.8347    0.0000 </r>
       <r>   11.2422    0.0000 </r>
       <r>   11.3734    0.0000 </r>
       <r>   11.6636    0.0000 </r>
       <r>   12.0168    0.0000 </r>
       <r>   12.4275    0.0000 </r>
       <r>   12.7881    0.0000 </r>
       <r>   13.1930    0.0000 </r>
       <r>   14.5246    0.0000 </r>
       <r>   14.6269    0.0000 </r>
       <r>   14.9159    0.0000 </r>
       <r>   14.9735    0.0000 </r>
       <r>   16.0945    0.0000 </r>
       <r>   16.3584    0.0000 </r>
      </set>
      <set comment="kpoint 8">
       <r>  -12.7157    1.0000 </r>
       <r>  -11.5650    1.0000 </r>
       <r>   -8.6482    1.0000 </r>
       <r>   -8.4040    1.0000 </r>
       <r>   -6.0778    1.0000 </r>
       <r>   -5.0717    1.0000 </r>
       <r>   -4.5800    1.0000 </r>
       <r>   -4.4502    1.0000 </r>
       <r>   -4.2047    1.0000 </r>
       <r>   -3.5647    1.0000 </r>
       <r>   -3.0638    1.0000 </r>
       <r>   -2.0034    1.0000 </r>
       <r>   -1.2993    1.0000 </r>
       <r>   -1.0560    1.0000 </r>
       <r>   -0.2017    1.0000 </r>
       <r>   -0.1898    1.0000 </r>
       <r>    0.1273    1.0000 </r>
       <r>    0.2451    1.0000 </r>
       <r>    0.5956    1.0000 </r>
       <r>    1.8682    0.6766 </r>
       <r>    1.9343    0.0792 </r>
       <r>    2.3167    0.0000 </r>
       <r>    5.5864    0.0000 </r>
       <r>    5.6836    0.0000 </r>
       <r>    5.7545    0.0000 </r>
       <r>    5.9370    0.0000 </r>
       <r>    7.0114    0.0000 </r>
       <r>    7.8509    0.0000 </r>
       <r>    7.9220    0.0000 </r>
       <r>    8.2410    0.0000 </r>
       <r>    8.7582    0.0000 </r>
       <r>    9.0621    0.0000 </r>
       <r>    9.0917    0.0000 </r>
       <r>   10.4167    0.0000 </r>
       <r>   11.2776    0.0000 </r>
       <r>   11.3620    0.0000 </r>
       <r>   11.6515    0.0000 </r>
       <r>   11.8770    0.0000 </r>
       <r>   11.9655    0.0000 </r>
       <r>   12.5620    0.0000 </r>
       <r>   12.8344    0.0000 </r>
       <r>   13.1683    0.0000 </r>
       <r>   13.4204    0.0000 </r>
       <r>   15.4225    0.0000 </r>
       <r>   15.4994    0.0000 </r>
       <r>   15.8617    0.0000 </r>
       <r>   16.1237    0.0000 </r>
       <r>   16.2378    0.0000 </r>
      </set>
      <set comment="kpoint 9">
       <r>  -12.7027    1.0000 </r>
       <r>  -11.5874    1.0000 </r>
       <r>   -8.6438    1.0000 </r>
       <r>   -8.3993    1.0000 </r>
       <r>   -6.0534    1.0000 </r>
       <r>   -5.2044    1.0000 </r>
       <r>   -4.6656    1.0000 </r>
       <r>   -4.3794    1.0000 </r>
       <r>   -4.0703    1.0000 </r>
       <r>   -3.4431    1.0000 </r>
       <r>   -3.0824    1.0000 </r>
       <r>   -1.9970    1.0000 </r>
       <r>   -1.3310    1.0000 </r>
       <r>   -1.1528    1.0000 </r>
       <r>   -0.2189    1.0000 </r>
       <r>   -0.1406    1.0000 </r>
       <r>    0.1396    1.0000 </r>
       <r>    0.2159    1.0000 </r>
       <r>    0.5667    1.0000 </r>
       <r>    1.8217    0.9619 </r>
       <r>    1.9329    0.0853 </r>
       <r>    2.2763    0.0000 </r>
       <r>    5.6085    0.0000 </r>
       <r>    5.6646    0.0000 </r>
       <r>    5.8639    0.0000 </r>
       <r>    5.9685    0.0000 </r>
       <r>    6.9824    0.0000 </r>
       <r>    7.6137    0.0000 </r>
       <r>    8.0964    0.0000 </r>
       <r>    8.2891    0.0000 </r>
       <r>    8.8625    0.0000 </r>
       <r>    9.1128    0.0000 </r>
       <r>    9.1513    0.0000 </r>
       <r>   10.4182    0.0000 </r>
       <r>   11.2029    0.0000 </r>
       <r>   11.3262    0.0000 </r>
       <r>   11.4479    0.0000 </r>
       <r>   11.8194    0.0000 </r>
       <r>   12.0340    0.0000 </r>
       <r>   12.5850    0.0000 </r>
       <r>   12.9783    0.0000 </r>
       <r>   13.2547    0.0000 </r>
       <r>   13.4296    0.0000 </r>
       <r>   15.2241    0.0000 </r>
       <r>   15.4671    0.0000 </r>
       <r>   15.9262    0.0000 </r>
       <r>   16.0340    0.0000 </r>
       <r>   16.3283    0.0000 </r>
      </set>
      <set comment="kpoint 10">
       <r>  -12.6641    1.0000 </r>
       <r>  -11.6517    1.0000 </r>
       <r>   -8.6288    1.0000 </r>
       <r>   -8.3877    1.0000 </r>
       <r>   -6.0054    1.0000 </r>
       <r>   -5.4438    1.0000 </r>
       <r>   -4.7741    1.0000 </r>
       <r>   -4.3054    1.0000 </r>
       <r>   -3.7387    1.0000 </r>
       <r>   -3.1906    1.0000 </r>
       <r>   -3.1041    1.0000 </r>
       <r>   -1.9779    1.0000 </r>
       <r>   -1.4293    1.0000 </r>
       <r>   -1.4037    1.0000 </r>
       <r>   -0.2065    1.0000 </r>
       <r>   -0.0937    1.0000 </r>
[...]
       <r>   -2.2277    1.0000 </r>
       <r>   -2.1809    1.0000 </r>
       <r>   -2.0628    1.0000 </r>
       <r>   -1.5822    1.0000 </r>
       <r>   -0.5691    1.0000 </r>
       <r>   -0.0977    1.0000 </r>
       <r>    0.2718    1.0000 </r>
       <r>    0.4174    1.0000 </r>
       <r>    0.5254    1.0000 </r>
       <r>    1.3198    1.0000 </r>
       <r>    1.6261    1.0000 </r>
       <r>    1.8237    0.9571 </r>
       <r>    5.6470    0.0000 </r>
       <r>    6.1297    0.0000 </r>
       <r>    6.6623    0.0000 </r>
       <r>    7.3190    0.0000 </r>
       <r>    7.6801    0.0000 </r>
       <r>    7.9706    0.0000 </r>
       <r>    9.1586    0.0000 </r>
       <r>    9.3807    0.0000 </r>
       <r>    9.7318    0.0000 </r>
       <r>    9.9429    0.0000 </r>
       <r>   10.5479    0.0000 </r>
       <r>   11.0504    0.0000 </r>
       <r>   11.1141    0.0000 </r>
       <r>   11.4659    0.0000 </r>
       <r>   11.5507    0.0000 </r>
       <r>   11.7926    0.0000 </r>
       <r>   12.9292    0.0000 </r>
       <r>   13.2779    0.0000 </r>
       <r>   13.3697    0.0000 </r>
       <r>   13.9381    0.0000 </r>
       <r>   14.0801    0.0000 </r>
       <r>   14.2610    0.0000 </r>
       <r>   14.4575    0.0000 </r>
       <r>   14.8886    0.0000 </r>
       <r>   15.0778    0.0000 </r>
       <r>   15.2844    0.0000 </r>
      </set>
      <set comment="kpoint 378">
       <r>  -12.0035    1.0000 </r>
       <r>  -11.8967    1.0000 </r>
       <r>   -8.5375    1.0000 </r>
       <r>   -8.4510    1.0000 </r>
       <r>   -5.9225    1.0000 </r>
       <r>   -5.8419    1.0000 </r>
       <r>   -4.7919    1.0000 </r>
       <r>   -4.5575    1.0000 </r>
       <r>   -4.4065    1.0000 </r>
       <r>   -4.0811    1.0000 </r>
       <r>   -2.2075    1.0000 </r>
       <r>   -2.1638    1.0000 </r>
       <r>   -2.0235    1.0000 </r>
       <r>   -1.8056    1.0000 </r>
       <r>   -0.1703    1.0000 </r>
       <r>    0.0092    1.0000 </r>
       <r>    0.4156    1.0000 </r>
       <r>    0.4703    1.0000 </r>
       <r>    0.5633    1.0000 </r>
       <r>    0.8072    1.0000 </r>
       <r>    1.6461    1.0000 </r>
       <r>    1.7185    1.0000 </r>
       <r>    5.8815    0.0000 </r>
       <r>    6.0247    0.0000 </r>
       <r>    6.9188    0.0000 </r>
       <r>    7.3906    0.0000 </r>
       <r>    7.4379    0.0000 </r>
       <r>    7.5434    0.0000 </r>
       <r>    9.4514    0.0000 </r>
       <r>    9.6286    0.0000 </r>
       <r>    9.8236    0.0000 </r>
       <r>    9.9703    0.0000 </r>
       <r>   10.4778    0.0000 </r>
       <r>   10.7490    0.0000 </r>
       <r>   11.2560    0.0000 </r>
       <r>   11.4833    0.0000 </r>
       <r>   11.4979    0.0000 </r>
       <r>   11.5547    0.0000 </r>
       <r>   13.1057    0.0000 </r>
       <r>   13.1841    0.0000 </r>
       <r>   13.8184    0.0000 </r>
       <r>   14.1288    0.0000 </r>
       <r>   14.2328    0.0000 </r>
       <r>   14.2663    0.0000 </r>
       <r>   14.6424    0.0000 </r>
       <r>   14.7474    0.0000 </r>
       <r>   14.8568    0.0000 </r>
       <r>   15.0063    0.0000 </r>
      </set>
     </set>
    </set>
   </array>
  </eigenvalues>
  <separator name="orbital magnetization" >
   <v name="MAGDIPOLOUT">      0.00000000      0.00000000      0.00000000</v>
  </separator>
  <dos>
   <i name="efermi">      1.88441219 </i>
   <total>
    <array>
     <dimension dim="1">gridpoints</dimension>
     <dimension dim="2">spin</dimension>
     <field>energy</field>
     <field>total</field>
     <field>integrated</field>
     <set>
      <set comment="spin 1">
       <r>   -14.1941     0.0000     0.0000 </r>
       <r>   -14.0868     0.0000     0.0000 </r>
       <r>   -13.9794     0.0000     0.0000 </r>
       <r>   -13.8721     0.0000     0.0000 </r>
       <r>   -13.7648     0.0000     0.0000 </r>
       <r>   -13.6574     0.0000     0.0000 </r>
       <r>   -13.5501     0.0000     0.0000 </r>
       <r>   -13.4428     0.0000     0.0000 </r>
       <r>   -13.3354     0.0000     0.0000 </r>
       <r>   -13.2281     0.0000     0.0000 </r>
       <r>   -13.1208     0.0000     0.0000 </r>
       <r>   -13.0134     0.0000     0.0000 </r>
       <r>   -12.9061     0.0000     0.0000 </r>
       <r>   -12.7988     0.0026     0.0003 </r>
       <r>   -12.6914     0.4455     0.0481 </r>
       <r>   -12.5841     2.3068     0.2957 </r>
       <r>   -12.4767     3.5387     0.6755 </r>
       <r>   -12.3694     4.3513     1.1426 </r>
       <r>   -12.2621     3.5484     1.5235 </r>
       <r>   -12.1547     2.8394     1.8282 </r>
       <r>   -12.0474     2.6141     2.1088 </r>
       <r>   -11.9401     2.5965     2.3875 </r>
       <r>   -11.8327     2.7580     2.6835 </r>
       <r>   -11.7254     3.3507     3.0432 </r>
       <r>   -11.6181     3.6305     3.4329 </r>
       <r>   -11.5107     3.1111     3.7668 </r>
       <r>   -11.4034     1.7108     3.9504 </r>
       <r>   -11.2960     0.4530     3.9991 </r>
       <r>   -11.1887     0.0088     4.0000 </r>
       <r>   -11.0814     0.0000     4.0000 </r>
       <r>   -10.9740     0.0000     4.0000 </r>
       <r>   -10.8667     0.0000     4.0000 </r>
       <r>   -10.7594     0.0000     4.0000 </r>
       <r>   -10.6520     0.0000     4.0000 </r>
       <r>   -10.5447     0.0000     4.0000 </r>
       <r>   -10.4374     0.0000     4.0000 </r>
       <r>   -10.3300     0.0000     4.0000 </r>
       <r>   -10.2227     0.0000     4.0000 </r>
       <r>   -10.1154     0.0000     4.0000 </r>
       <r>   -10.0080     0.0000     4.0000 </r>
       <r>    -9.9007     0.0000     4.0000 </r>
       <r>    -9.7933     0.0000     4.0000 </r>
       <r>    -9.6860     0.0000     4.0000 </r>
       <r>    -9.5787     0.0000     4.0000 </r>
       <r>    -9.4713     0.0000     4.0000 </r>
       <r>    -9.3640     0.0000     4.0000 </r>
       <r>    -9.2567     0.0000     4.0000 </r>
       <r>    -9.1493     0.0000     4.0000 </r>
       <r>    -9.0420     0.0000     4.0000 </r>
       <r>    -8.9347     0.0005     4.0001 </r>
       <r>    -8.8273     0.2595     4.0279 </r>
       <r>    -8.7200     2.0556     4.2485 </r>
       <r>    -8.6127     5.2513     4.8122 </r>
       <r>    -8.5053     7.0177     5.5654 </r>
       <r>    -8.3980     6.2966     6.2413 </r>
       <r>    -8.2906     5.3152     6.8118 </r>
       <r>    -8.1833     4.8877     7.3364 </r>
       <r>    -8.0760     3.8444     7.7491 </r>
       <r>    -7.9686     1.7005     7.9316 </r>
       <r>    -7.8613     0.5859     7.9945 </r>
       <r>    -7.7540     0.0513     8.0000 </r>
       <r>    -7.6466     0.0000     8.0000 </r>
       <r>    -7.5393     0.0000     8.0000 </r>
       <r>    -7.4320     0.0000     8.0000 </r>
       <r>    -7.3246     0.0000     8.0000 </r>
       <r>    -7.2173     0.0000     8.0000 </r>
       <r>    -7.1100     0.0000     8.0000 </r>
       <r>    -7.0026     0.0032     8.0003 </r>
       <r>    -6.8953     0.0867     8.0097 </r>
       <r>    -6.7879     0.3059     8.0425 </r>
       <r>    -6.6806     0.4003     8.0855 </r>
       <r>    -6.5733     0.7579     8.1668 </r>
       <r>    -6.4659     0.8871     8.2620 </r>
       <r>    -6.3586     1.3384     8.4057 </r>
       <r>    -6.2513     2.2003     8.6418 </r>
       <r>    -6.1439     2.9326     8.9566 </r>
       <r>    -6.0366     3.8299     9.3677 </r>
       <r>    -5.9293     4.0530     9.8027 </r>
       <r>    -5.8219     4.0350    10.2358 </r>
       <r>    -5.7146     4.1051    10.6764 </r>
       <r>    -5.6073     3.9888    11.1046 </r>
       <r>    -5.4999     4.0836    11.5429 </r>
       <r>    -5.3926     4.5068    12.0267 </r>
       <r>    -5.2852     4.8487    12.5471 </r>
       <r>    -5.1779     4.1115    12.9884 </r>
       <r>    -5.0706     4.2928    13.4492 </r>
       <r>    -4.9632     3.2809    13.8013 </r>
       <r>    -4.8559     2.3480    14.0533 </r>
       <r>    -4.7486     2.5268    14.3246 </r>
       <r>    -4.6412     2.9222    14.6382 </r>
       <r>    -4.5339     3.6026    15.0249 </r>
       <r>    -4.4266     3.5919    15.4105 </r>
       <r>    -4.3192     2.8115    15.7122 </r>
       <r>    -4.2119     3.2003    16.0557 </r>
       <r>    -4.1046     3.0274    16.3807 </r>
       <r>    -3.9972     2.6150    16.6614 </r>
       <r>    -3.8899     3.1063    16.9948 </r>
       <r>    -3.7825     3.0597    17.3232 </r>
       <r>    -3.6752     3.0768    17.6534 </r>
       <r>    -3.5679     2.6472    17.9376 </r>
       <r>    -3.4605     2.5367    18.2099 </r>
       <r>    -3.3532     3.0722    18.5396 </r>
       <r>    -3.2459     2.8581    18.8464 </r>
       <r>    -3.1385     2.6782    19.1338 </r>
       <r>    -3.0312     2.7588    19.4300 </r>
       <r>    -2.9239     3.0728    19.7598 </r>
       <r>    -2.8165     2.8603    20.0668 </r>
       <r>    -2.7092     2.6566    20.3520 </r>
       <r>    -2.6019     2.3742    20.6068 </r>
       <r>    -2.4945     3.0365    20.9327 </r>
       <r>    -2.3872     3.0349    21.2585 </r>
       <r>    -2.2798     3.7580    21.6618 </r>
       <r>    -2.1725     3.6701    22.0558 </r>
       <r>    -2.0652     3.2610    22.4058 </r>
       <r>    -1.9578     3.8166    22.8154 </r>
       <r>    -1.8505     4.8409    23.3350 </r>
       <r>    -1.7432     5.7856    23.9560 </r>
       <r>    -1.6358     5.9295    24.5925 </r>
       <r>    -1.5285     5.2353    25.1544 </r>
       <r>    -1.4212     6.6359    25.8667 </r>
       <r>    -1.3138     6.3893    26.5525 </r>
       <r>    -1.2065     4.3585    27.0203 </r>
       <r>    -1.0992     5.1874    27.5771 </r>
       <r>    -0.9918     4.3252    28.0414 </r>
       <r>    -0.8845     3.0318    28.3668 </r>
       <r>    -0.7771     2.1678    28.5995 </r>
       <r>    -0.6698     3.0509    28.9269 </r>
       <r>    -0.5625     4.9811    29.4616 </r>
       <r>    -0.4551     6.2874    30.1364 </r>
       <r>    -0.3478     6.1715    30.7989 </r>
       <r>    -0.2405     6.0462    31.4478 </r>
       <r>    -0.1331     6.8995    32.1884 </r>
       <r>    -0.0258     7.0144    32.9413 </r>
       <r>     0.0815     6.1275    33.5990 </r>
       <r>     0.1889     6.7525    34.3238 </r>
       <r>     0.2962     8.7939    35.2677 </r>
       <r>     0.4035     7.9750    36.1237 </r>
       <r>     0.5109     8.5303    37.0393 </r>
       <r>     0.6182     5.0068    37.5767 </r>
       <r>     0.7256     3.1623    37.9161 </r>
       <r>     0.8329     3.1927    38.2588 </r>
       <r>     0.9402     3.1844    38.6006 </r>
       <r>     1.0476     2.9980    38.9224 </r>
       <r>     1.1549     3.6330    39.3124 </r>
       <r>     1.2622     4.5484    39.8006 </r>
       <r>     1.3696     3.3997    40.1655 </r>
       <r>     1.4769     3.7939    40.5727 </r>
       <r>     1.5842     3.9382    40.9954 </r>
       <r>     1.6916     3.4803    41.3690 </r>
       <r>     1.7989     3.4007    41.7340 </r>
       <r>     1.9062     3.1444    42.0715 </r>
       <r>     2.0136     3.0619    42.4001 </r>
       <r>     2.1209     2.2973    42.6467 </r>
       <r>     2.2283     1.9855    42.8598 </r>
       <r>     2.3356     1.9162    43.0655 </r>
       <r>     2.4429     1.7782    43.2564 </r>
       <r>     2.5503     1.2573    43.3913 </r>
       <r>     2.6576     0.6034    43.4561 </r>
       <r>     2.7649     0.5313    43.5131 </r>
       <r>     2.8723     0.3392    43.5495 </r>
       <r>     2.9796     0.4668    43.5996 </r>
       <r>     3.0869     0.8394    43.6897 </r>
       <r>     3.1943     0.6028    43.7544 </r>
       <r>     3.3016     0.2870    43.7852 </r>
       <r>     3.4090     0.2667    43.8139 </r>
       <r>     3.5163     0.3021    43.8463 </r>
       <r>     3.6236     0.4348    43.8930 </r>
       <r>     3.7310     0.4001    43.9359 </r>
       <r>     3.8383     0.2797    43.9659 </r>
       <r>     3.9456     0.1553    43.9826 </r>
       <r>     4.0530     0.1463    43.9983 </r>
       <r>     4.1603     0.0159    44.0000 </r>
       <r>     4.2676     0.0446    44.0048 </r>
       <r>     4.3750     0.2266    44.0291 </r>
       <r>     4.4823     0.3601    44.0678 </r>
       <r>     4.5896     0.5047    44.1219 </r>
       <r>     4.6970     0.7108    44.1982 </r>
       <r>     4.8043     0.8551    44.2900 </r>
       <r>     4.9117     0.8359    44.3797 </r>
       <r>     5.0190     0.9590    44.4827 </r>
       <r>     5.1263     1.1841    44.6098 </r>
       <r>     5.2337     1.2866    44.7479 </r>
       <r>     5.3410     1.7302    44.9336 </r>
       <r>     5.4483     2.0731    45.1561 </r>
       <r>     5.5557     2.5171    45.4263 </r>
       <r>     5.6630     3.0323    45.7517 </r>
       <r>     5.7703     3.2976    46.1057 </r>
       <r>     5.8777     3.4945    46.4808 </r>
       <r>     5.9850     4.1374    46.9249 </r>
       <r>     6.0923     4.5736    47.4158 </r>
       <r>     6.1997     4.6793    47.9180 </r>
       <r>     6.3070     4.1022    48.3584 </r>
       <r>     6.4144     4.2381    48.8132 </r>
       <r>     6.5217     4.1549    49.2592 </r>
       <r>     6.6290     4.2333    49.7136 </r>
       <r>     6.7364     3.4860    50.0878 </r>
       <r>     6.8437     3.8554    50.5016 </r>
       <r>     6.9510     4.4614    50.9805 </r>
       <r>     7.0584     4.6533    51.4799 </r>
       <r>     7.1657     5.3058    52.0494 </r>
       <r>     7.2730     4.7132    52.5553 </r>
       <r>     7.3804     4.9238    53.0838 </r>
       <r>     7.4877     4.5805    53.5755 </r>
       <r>     7.5950     3.8476    53.9885 </r>
       <r>     7.7024     3.5370    54.3681 </r>
       <r>     7.8097     3.1037    54.7012 </r>
       <r>     7.9171     3.2245    55.0473 </r>
       <r>     8.0244     3.5155    55.4247 </r>
       <r>     8.1317     3.5045    55.8009 </r>
       <r>     8.2391     3.7106    56.1991 </r>
       <r>     8.3464     3.9077    56.6186 </r>
       <r>     8.4537     4.2546    57.0752 </r>
       <r>     8.5611     4.3427    57.5414 </r>
       <r>     8.6684     4.1800    57.9900 </r>
       <r>     8.7757     4.3292    58.4547 </r>
       <r>     8.8831     5.5217    59.0474 </r>
       <r>     8.9904     4.6543    59.5470 </r>
       <r>     9.0977     5.5103    60.1384 </r>
       <r>     9.2051     5.1661    60.6929 </r>
       <r>     9.3124     5.2229    61.2535 </r>
       <r>     9.4198     4.0289    61.6860 </r>
       <r>     9.5271     4.4898    62.1679 </r>
       <r>     9.6344     5.4230    62.7500 </r>
       <r>     9.7418     5.1995    63.3081 </r>
       <r>     9.8491     4.4914    63.7901 </r>
       <r>     9.9564     5.2157    64.3500 </r>
       <r>    10.0638     4.2513    64.8063 </r>
       <r>    10.1711     4.0507    65.2411 </r>
       <r>    10.2784     4.1760    65.6893 </r>
       <r>    10.3858     4.9716    66.2229 </r>
       <r>    10.4931     5.8997    66.8562 </r>
       <r>    10.6004     4.8544    67.3772 </r>
       <r>    10.7078     4.2760    67.8362 </r>
       <r>    10.8151     4.4645    68.3154 </r>
       <r>    10.9225     3.1013    68.6483 </r>
       <r>    11.0298     4.4981    69.1311 </r>
       <r>    11.1371     5.4041    69.7112 </r>
       <r>    11.2445     6.3437    70.3921 </r>
       <r>    11.3518     5.7668    71.0110 </r>
       <r>    11.4591     5.0391    71.5519 </r>
       <r>    11.5665     4.9864    72.0871 </r>
       <r>    11.6738     4.5365    72.5741 </r>
       <r>    11.7811     4.5341    73.0607 </r>
       <r>    11.8885     5.0039    73.5978 </r>
       <r>    11.9958     6.1451    74.2574 </r>
       <r>    12.1031     6.3161    74.9354 </r>
       <r>    12.2105     5.2298    75.4967 </r>
       <r>    12.3178     5.1815    76.0529 </r>
       <r>    12.4252     6.0475    76.7020 </r>
       <r>    12.5325     5.7687    77.3212 </r>
       <r>    12.6398     5.4475    77.9059 </r>
       <r>    12.7472     6.2440    78.5761 </r>
       <r>    12.8545     5.6176    79.1790 </r>
       <r>    12.9618     6.3229    79.8577 </r>
       <r>    13.0692     5.7871    80.4789 </r>
       <r>    13.1765     6.0772    81.1312 </r>
       <r>    13.2838     6.1057    81.7865 </r>
       <r>    13.3912     5.6640    82.3945 </r>
       <r>    13.4985     5.5965    82.9952 </r>
       <r>    13.6058     5.3597    83.5705 </r>
       <r>    13.7132     5.1867    84.1272 </r>
       <r>    13.8205     5.6440    84.7330 </r>
       <r>    13.9279     5.7813    85.3536 </r>
       <r>    14.0352     5.4422    85.9377 </r>
       <r>    14.1425     5.2010    86.4959 </r>
       <r>    14.2499     4.7682    87.0077 </r>
       <r>    14.3572     5.1485    87.5604 </r>
       <r>    14.4645     4.8358    88.0794 </r>
       <r>    14.5719     5.1810    88.6355 </r>
       <r>    14.6792     5.1761    89.1911 </r>
       <r>    14.7865     4.5100    89.6752 </r>
       <r>    14.8939     4.3372    90.1407 </r>
       <r>    15.0012     5.5055    90.7317 </r>
       <r>    15.1085     6.0008    91.3758 </r>
       <r>    15.2159     5.8749    92.0063 </r>
       <r>    15.3232     5.8674    92.6361 </r>
       <r>    15.4306     5.7298    93.2511 </r>
       <r>    15.5379     6.0358    93.8990 </r>
       <r>    15.6452     5.4672    94.4858 </r>
       <r>    15.7526     4.2879    94.9461 </r>
       <r>    15.8599     2.2888    95.1917 </r>
       <r>    15.9672     2.2463    95.4328 </r>
       <r>    16.0746     1.6755    95.6127 </r>
       <r>    16.1819     1.1566    95.7368 </r>
       <r>    16.2892     0.9759    95.8416 </r>
       <r>    16.3966     0.8537    95.9332 </r>
       <r>    16.5039     0.5227    95.9893 </r>
       <r>    16.6113     0.0980    95.9998 </r>
       <r>    16.7186     0.0015    96.0000 </r>
       <r>    16.8259     0.0000    96.0000 </r>
       <r>    16.9333     0.0000    96.0000 </r>
       <r>    17.0406     0.0000    96.0000 </r>
       <r>    17.1479     0.0000    96.0000 </r>
       <r>    17.2553     0.0000    96.0000 </r>
       <r>    17.3626     0.0000    96.0000 </r>
       <r>    17.4699     0.0000    96.0000 </r>
       <r>    17.5773     0.0000    96.0000 </r>
       <r>    17.6846     0.0000    96.0000 </r>
       <r>    17.7919     0.0000    96.0000 </r>
       <r>    17.8993     0.0000    96.0000 </r>
       <r>    18.0066     0.0000    96.0000 </r>
      </set>
     </set>
    </array>
   </total>
  </dos>
 </calculation>
 <structure name="finalpos" >
  <crystal>
   <varray name="basis" >
    <v>       5.69700000       0.00000000       0.00000000 </v>
    <v>       0.00000000       4.04790000       0.00000000 </v>
    <v>       0.00000000       0.00000000       6.20420000 </v>
   </varray>
   <i name="volume">    143.07435078 </i>
   <varray name="rec_basis" >
    <v>       0.17553098       0.00000000       0.00000000 </v>
    <v>       0.00000000       0.24704168       0.00000000 </v>
    <v>       0.00000000       0.00000000       0.16118114 </v>
   </varray>
  </crystal>
  <varray name="positions" >
   <v>       0.52123000       0.50000000       0.63796000 </v>
   <v>       0.47877000       0.50000000       0.36204000 </v>
   <v>       0.97877000       0.50000000       0.63796000 </v>
   <v>       0.02123000       0.50000000       0.36204000 </v>
   <v>       0.60090000       0.50000000       0.89991000 </v>
   <v>       0.39910000       0.50000000       0.10009000 </v>
   <v>       0.89910000       0.50000000       0.89991000 </v>
   <v>       0.10090000       0.50000000       0.10009000 </v>
   <v>       0.75000000       0.79171000       0.72973000 </v>
   <v>       0.25000000       0.20829000       0.27027000 </v>
   <v>       0.75000000       0.20829000       0.72973000 </v>
   <v>       0.25000000       0.79171000       0.27027000 </v>
   <v>       0.25000000       0.50000000       0.52367000 </v>
   <v>       0.75000000       0.50000000       0.47633000 </v>
  </varray>
 </structure>
</modeling>
