       N       E                     dE             d eps       ncg     rms          rms(c)
DAV:   1     0.157787718415E+03    0.15779E+03   -0.27426E+04120960   0.135E+03
DAV:   2    -0.878450872789E+02   -0.24563E+03   -0.22685E+03159264   0.213E+02
DAV:   3    -0.975881260705E+02   -0.97430E+01   -0.96482E+01180792   0.374E+01
DAV:   4    -0.976497678483E+02   -0.61642E-01   -0.61637E-01132912   0.340E+00
DAV:   5    -0.976503835854E+02   -0.61574E-03   -0.61572E-03181080   0.323E-01    0.123E+01
