 running   24 mpi-ranks, with    1 threads/rank, on    1 nodes
 distrk:  each k-point on   24 cores,    1 groups
 distr:  one band on    1 cores,   24 groups
 vasp.6.4.3 19Mar24 (build May 31 2024 16:31:43) complex                        
  
 POSCAR found type information on POSCAR B 
 POSCAR found :  1 types and      14 ions
 Reading from existing POTCAR
 scaLAPACK will be used
 Reading from existing POTCAR
 LDA part: xc-table for (Slater+PW92), standard interpolation
 POSCAR, INCAR and KPOINTS ok, starting setup
 FFT: planning ... GRIDC
 FFT: planning ... GRID_SOFT
 FFT: planning ... GRID
 WAVECAR not read
 entering main loop
       N       E                     dE             d eps       ncg     rms          rms(c)
DAV:   1     0.157787718415E+03    0.15779E+03   -0.27426E+04120960   0.135E+03
DAV:   2    -0.878450872789E+02   -0.24563E+03   -0.22685E+03159264   0.213E+02
DAV:   3    -0.975881260705E+02   -0.97430E+01   -0.96482E+01180792   0.374E+01
DAV:   4    -0.976497678483E+02   -0.61642E-01   -0.61637E-01132912   0.340E+00
DAV:   5    -0.976503835854E+02   -0.61574E-03   -0.61572E-03181080   0.323E-01    0.123E+01
DAV:   6    -0.922358703241E+02    0.54145E+01   -0.39476E+00174816   0.658E+00    0.679E+00
DAV:   7    -0.905848358532E+02    0.16510E+01   -0.32093E+00180456   0.586E+00    0.172E+00
DAV:   8    -0.905959303720E+02   -0.11095E-01   -0.22991E-01132672   0.166E+00    0.751E-01
