   14   14    1    1
  0.1021960E+02  0.5697000E-09  0.4047900E-09  0.6204200E-09  0.5000000E-15
  1.000000000000000E-004
  CAR 
 Kpoints                                 
     42   1260     48
 
  0.0000000E+00  0.0000000E+00  0.0000000E+00  0.1146657E-03
      1        -12.733203   1.000000
      2        -11.576214   1.000000
      3         -8.662147   1.000000
      4         -8.424874   1.000000
      5         -6.077506   1.000000
      6         -5.059496   1.000000
      7         -4.638385   1.000000
      8         -4.349652   1.000000
      9         -3.973601   1.000000
     10         -3.598735   1.000000
     11         -2.422029   1.000000
     12         -2.242628   1.000000
     13         -2.183383   1.000000
     14         -1.053005   1.000000
     15         -0.037477   1.000000
     16         -0.003619   1.000000
     17          0.149292   1.000000
     18          0.172840   1.000000
     19          0.564520   1.000000
     20          2.079419   0.000000
     21          2.125652   0.000000
     22          2.214485   0.000000
     23          5.411288   0.000000
     24          5.801465   0.000000
     25          5.817006   0.000000
     26          5.910410   0.000000
     27          6.785583   0.000000
     28          7.672459   0.000000
     29          7.700929   0.000000
     30          8.633930   0.000000
     31          8.752431   0.000000
     32          8.852822   0.000000
     33          9.040571   0.000000
     34         10.029274   0.000000
     35         11.144197   0.000000
     36         11.399168   0.000000
     37         11.769039   0.000000
     38         11.801761   0.000000
     39         11.898854   0.000000
     40         12.354245   0.000000
     41         12.804336   0.000000
     42         13.394367   0.000000
     43         13.573283   0.000000
     44         15.554134   0.000000
     45         15.567254   0.000000
     46         15.941577   0.000000
     47         16.358043   0.000000
     48         16.598381   0.000000
 
  0.5263158E-01  0.0000000E+00  0.0000000E+00  0.2293315E-03
      1        -12.727106   1.000000
      2        -11.586859   1.000000
      3         -8.659332   1.000000
      4         -8.423060   1.000000
      5         -6.064661   1.000000
      6         -5.141478   1.000000
      7         -4.670218   1.000000
      8         -4.252884   1.000000
      9         -3.965053   1.000000
     10         -3.539567   1.000000
     11         -2.419407   1.000000
     12         -2.244333   1.000000
     13         -2.203358   1.000000
     14         -1.099126   1.000000
     15         -0.031361   1.000000
     16          0.006563   1.000000
     17          0.154088   1.000000
     18          0.156442   1.000000
     19          0.550466   1.000000
     20          2.066483   0.000000
     21          2.114215   0.000000
     22          2.198007   0.000000
     23          5.425179   0.000000
     24          5.793496   0.000000
     25          5.796921   0.000000
     26          5.991675   0.000000
     27          6.772311   0.000000
     28          7.496857   0.000000
     29          7.846537   0.000000
     30          8.654249   0.000000
     31          8.808140   0.000000
     32          8.889702   0.000000
     33          9.043471   0.000000
     34         10.047598   0.000000
     35         11.154498   0.000000
     36         11.339372   0.000000
     37         11.664422   0.000000
     38         11.766187   0.000000
     39         11.931637   0.000000
     40         12.366430   0.000000
     41         12.873979   0.000000
     42         13.503274   0.000000
     43         13.515986   0.000000
     44         15.362548   0.000000
     45         15.601913   0.000000
     46         16.079749   0.000000
     47         16.344790   0.000000
     48         16.373947   0.000000
 
  0.1052632E+00  0.0000000E+00  0.0000000E+00  0.2293315E-03
      1        -12.708862   1.000000
      2        -11.618128   1.000000
      3         -8.650688   1.000000
      4         -8.417935   1.000000
      5         -6.031283   1.000000
      6         -5.313788   1.000000
      7         -4.739090   1.000000
      8         -4.036594   1.000000
      9         -3.939474   1.000000
     10         -3.384771   1.000000
     11         -2.411444   1.000000
     12         -2.261207   1.000000
     13         -2.249413   1.000000
     14         -1.231772   1.000000
     15         -0.013264   1.000000
     16          0.035568   1.000000
     17          0.098690   1.000000
     18          0.175842   1.000000
     19          0.508958   1.000000
     20          2.028854   0.000010
     21          2.080877   0.000000
     22          2.148484   0.000000
     23          5.464039   0.000000
     24          5.771683   0.000000
     25          5.814190   0.000000
     26          6.156004   0.000000
     27          6.734689   0.000000
     28          7.299616   0.000000
     29          7.968865   0.000000
     30          8.712146   0.000000
     31          8.957364   0.000000
     32          8.994984   0.000000
     33          9.050573   0.000000
     34         10.103843   0.000000
     35         11.168516   0.000000
     36         11.185835   0.000000
     37         11.409927   0.000000
     38         11.703360   0.000000
     39         12.026808   0.000000
     40         12.402552   0.000000
     41         13.024143   0.000000
     42         13.356842   0.000000
     43         13.771072   0.000000
     44         15.058816   0.000000
     45         15.695401   0.000000
     46         16.063258   0.000000
     47         16.245884   0.000000
     48         16.420082   0.000000
 
  0.1578947E+00  0.0000000E+00  0.0000000E+00  0.2293315E-03
      1        -12.678679   1.000000
      2        -11.668207   1.000000
      3         -8.635889   1.000000
      4         -8.410483   1.000000
      5         -5.992844   1.000000
      6         -5.502525   1.000000
      7         -4.795053   1.000000
      8         -3.897077   1.000000
      9         -3.776198   1.000000
     10         -3.172730   1.000000
     11         -2.397831   1.000000
     12         -2.351463   1.000000
     13         -2.257712   1.000000
     14         -1.436293   1.000000
     15          0.009083   1.000000
     16          0.016076   1.000000
     17          0.079229   1.000000
     18          0.196155   1.000000
     19          0.448656   1.000000
     20          1.970212   0.004493
     21          2.028457   0.000010
     22          2.065979   0.000000
     23          5.520333   0.000000
     24          5.741528   0.000000
     25          5.896891   0.000000
     26          6.369490   0.000000
     27          6.678530   0.000000
     28          7.113612   0.000000
     29          8.065817   0.000000
     30          8.797284   0.000000
     31          9.030887   0.000000
     32          9.162158   0.000000
     33          9.179995   0.000000
     34         10.203956   0.000000
     35         10.908515   0.000000
     36         11.092459   0.000000
     37         11.237979   0.000000
     38         11.678074   0.000000
     39         12.167461   0.000000
     40         12.468908   0.000000
     41         13.122921   0.000000
     42         13.133536   0.000000
     43         14.114187   0.000000
     44         14.819502   0.000000
     45         15.757623   0.000000
     46         15.826660   0.000000
     47         16.320739   0.000000
     48         16.492516   0.000000
 
  0.2105263E+00  0.0000000E+00  0.0000000E+00  0.2293315E-03
      1        -12.636924   1.000000
      2        -11.734354   1.000000
      3         -8.614763   1.000000
      4         -8.402287   1.000000
      5         -5.971585   1.000000
      6         -5.680889   1.000000
      7         -4.795139   1.000000
      8         -3.838236   1.000000
      9         -3.502050   1.000000
     10         -2.930344   1.000000
     11         -2.466865   1.000000
     12         -2.378063   1.000000
     13         -2.268872   1.000000
     14         -1.693391   1.000000
     15         -0.110777   1.000000
     16          0.055351   1.000000
     17          0.131918   1.000000
     18          0.172460   1.000000
     19          0.413878   1.000000
     20          1.896552   0.298347
     21          1.951955   0.018032
     22          1.961281   0.009139
     23          5.584122   0.000000
     24          5.710641   0.000000
     25          6.046145   0.000000
     26          6.612123   0.000000
     27          6.621926   0.000000
     28          6.949774   0.000000
     29          8.149019   0.000000
     30          8.887023   0.000000
     31          8.995714   0.000000
     32          9.391917   0.000000
     33          9.407270   0.000000
     34         10.360635   0.000000
     35         10.583653   0.000000
     36         10.773381   0.000000
     37         11.305126   0.000000
     38         11.722680   0.000000
     39         12.302939   0.000000
     40         12.600869   0.000000
     41         12.839657   0.000000
     42         13.079429   0.000000
     43         14.487307   0.000000
     44         14.746917   0.000000
     45         15.441529   0.000000
     46         15.977932   0.000000
     47         16.216165   0.000000
     48         16.490349   0.000000
 
  0.2631579E+00  0.0000000E+00  0.0000000E+00  0.2293315E-03
      1        -12.584128   1.000000
      2        -11.813255   1.000000
      3         -8.587650   1.000000
      4         -8.395457   1.000000
      5         -5.983218   1.000000
      6         -5.837785   1.000000
      7         -4.714689   1.000000
      8         -3.763484   1.000000
      9         -3.233794   1.000000
     10         -2.675827   1.000000
     11         -2.599885   1.000000
     12         -2.353258   1.000000
     13         -2.281562   1.000000
     14         -1.978619   1.000000
     15         -0.255147   1.000000
     16          0.058240   1.000000
     17          0.102519   1.000000
     18          0.187457   1.000000
     19          0.454104   1.000000
     20          1.810265   0.972024
     21          1.815880   0.960165
     22          1.884878   0.421143
     23          5.645237   0.000000
     24          5.686427   0.000000
     25          6.257795   0.000000
     26          6.544979   0.000000
     27          6.811449   0.000000
     28          6.906073   0.000000
     29          8.223576   0.000000
     30          8.929747   0.000000
     31          8.935247   0.000000
     32          9.633163   0.000000
     33          9.667883   0.000000
     34         10.213114   0.000000
     35         10.517132   0.000000
     36         10.589071   0.000000
     37         11.369783   0.000000
     38         11.841119   0.000000
     39         12.390155   0.000000
     40         12.525778   0.000000
     41         12.823761   0.000000
     42         12.841504   0.000000
     43         14.831990   0.000000
     44         14.868192   0.000000
     45         15.128849   0.000000
     46         15.966728   0.000000
     47         16.094860   0.000000
     48         16.136449   0.000000
 
  0.3157895E+00  0.0000000E+00  0.0000000E+00  0.2293315E-03
      1        -12.520987   1.000000
      2        -11.901346   1.000000
      3         -8.555672   1.000000
      4         -8.392428   1.000000
      5         -6.023968   1.000000
      6         -5.966972   1.000000
      7         -4.554349   1.000000
      8         -3.673567   1.000000
      9         -3.002836   1.000000
     10         -2.743648   1.000000
     11         -2.434559   1.000000
     12         -2.372100   1.000000
     13         -2.284753   1.000000
     14         -2.207513   1.000000
     15         -0.415214   1.000000
     16         -0.112415   1.000000
     17          0.154553   1.000000
     18          0.239326   1.000000
     19          0.541961   1.000000
     20          1.647304   1.000000
     21          1.737535   0.999964
     22          1.805656   0.979413
     23          5.673949   0.000000
     24          5.694590   0.000000
     25          6.487039   0.000000
     26          6.524876   0.000000
     27          6.697598   0.000000
     28          7.216148   0.000000
     29          8.291211   0.000000
     30          8.841645   0.000000
     31          8.869923   0.000000
     32          9.818841   0.000000
     33          9.883843   0.000000
     34          9.936466   0.000000
     35         10.397673   0.000000
     36         10.897207   0.000000
     37         11.403834   0.000000
     38         12.022002   0.000000
     39         12.194612   0.000000
     40         12.455743   0.000000
     41         12.502531   0.000000
     42         13.082293   0.000000
     43         14.840349   0.000000
     44         14.954333   0.000000
     45         15.243366   0.000000
     46         15.602058   0.000000
     47         15.658848   0.000000
     48         16.288621   0.000000
 
  0.3684211E+00  0.0000000E+00  0.0000000E+00  0.2293315E-03
      1        -12.448409   1.000000
      2        -11.995124   1.000000
      3         -8.520742   1.000000
      4         -8.395525   1.000000
      5         -6.076740   1.000000
      6         -6.064330   1.000000
      7         -4.330588   1.000000
      8         -3.569438   1.000000
      9         -2.920275   1.000000
     10         -2.892293   1.000000
     11         -2.525725   1.000000
     12         -2.349170   1.000000
     13         -2.177362   1.000000
     14         -2.154426   1.000000
     15         -0.575150   1.000000
     16         -0.308210   1.000000
     17          0.207219   1.000000
     18          0.280812   1.000000
     19          0.656931   1.000000
     20          1.471284   1.000000
     21          1.671560   1.000000
     22          1.730890   0.999984
     23          5.674923   0.000000
     24          5.725311   0.000000
     25          6.447585   0.000000
     26          6.605556   0.000000
     27          6.838776   0.000000
     28          7.547524   0.000000
     29          8.354343   0.000000
     30          8.652874   0.000000
     31          8.744253   0.000000
     32          9.419129   0.000000
     33         10.142939   0.000000
     34         10.192040   0.000000
     35         10.450867   0.000000
     36         11.275587   0.000000
     37         11.386504   0.000000
     38         11.856387   0.000000
     39         12.129672   0.000000
     40         12.253262   0.000000
     41         12.509827   0.000000
     42         13.288518   0.000000
     43         14.617836   0.000000
     44         15.013049   0.000000
     45         15.136307   0.000000
     46         15.333848   0.000000
     47         15.601807   0.000000
     48         16.412227   0.000000
 
  0.4210526E+00  0.0000000E+00  0.0000000E+00  0.2293315E-03
      1        -12.367555   1.000000
      2        -12.091340   1.000000
      3         -8.485497   1.000000
      4         -8.406494   1.000000
      5         -6.127597   1.000000
      6         -6.124265   1.000000
      7         -4.061379   1.000000
      8         -3.452340   1.000000
      9         -3.133974   1.000000
     10         -3.041010   1.000000
     11         -2.503797   1.000000
     12         -2.367742   1.000000
     13         -2.058361   1.000000
     14         -1.975203   1.000000
     15         -0.703505   1.000000
     16         -0.505443   1.000000
     17          0.254887   1.000000
     18          0.305544   1.000000
     19          0.792750   1.000000
     20          1.290812   1.000000
     21          1.627323   1.000000
     22          1.668437   1.000000
     23          5.687593   0.000000
     24          5.734626   0.000000
     25          6.432903   0.000000
     26          6.532886   0.000000
     27          7.189606   0.000000
     28          7.896550   0.000000
     29          8.327381   0.000000
     30          8.417174   0.000000
     31          8.648598   0.000000
     32          9.023645   0.000000
     33         10.395230   0.000000
     34         10.416436   0.000000
     35         10.634726   0.000000
     36         11.331531   0.000000
     37         11.520132   0.000000
     38         11.682535   0.000000
     39         11.783326   0.000000
     40         12.509534   0.000000
     41         12.513745   0.000000
     42         13.311287   0.000000
     43         14.539971   0.000000
     44         14.815649   0.000000
     45         14.971967   0.000000
     46         15.027195   0.000000
     47         15.930928   0.000000
     48         16.467524   0.000000
 
  0.4736842E+00  0.0000000E+00  0.0000000E+00  0.2293315E-03
      1        -12.279867   1.000000
      2        -12.187089   1.000000
      3         -8.452929   1.000000
      4         -8.425899   1.000000
      5         -6.156610   1.000000
      6         -6.153746   1.000000
      7         -3.761575   1.000000
      8         -3.445064   1.000000
      9         -3.323833   1.000000
     10         -3.185888   1.000000
     11         -2.444110   1.000000
     12         -2.399881   1.000000
     13         -1.935089   1.000000
     14         -1.890646   1.000000
     15         -0.746858   1.000000
     16         -0.669522   1.000000
     17          0.290969   1.000000
     18          0.309107   1.000000
     19          0.946134   1.000000
     20          1.113689   1.000000
     21          1.611607   1.000000
     22          1.626407   1.000000
     23          5.707082   0.000000
     24          5.725847   0.000000
     25          6.444231   0.000000
     26          6.478671   0.000000
     27          7.565830   0.000000
     28          7.952512   0.000000
     29          8.260353   0.000000
     30          8.484798   0.000000
     31          8.561401   0.000000
     32          8.636676   0.000000
     33         10.573728   0.000000
     34         10.576558   0.000000
     35         10.894009   0.000000
     36         11.195347   0.000000
     37         11.316782   0.000000
     38         11.469620   0.000000
     39         12.092798   0.000000
     40         12.381659   0.000000
     41         12.802537   0.000000
     42         13.101445   0.000000
     43         14.621341   0.000000
     44         14.737016   0.000000
     45         14.779402   0.000000
     46         14.851527   0.000000
     47         16.210560   0.000000
     48         16.403499   0.000000
 
  0.0000000E+00  0.3703704E-01  0.0000000E+00  0.2293315E-03
      1        -12.729895   1.000000
      2        -11.573241   1.000000
      3         -8.659550   1.000000
      4         -8.421669   1.000000
      5         -6.073839   1.000000
      6         -5.054372   1.000000
      7         -4.635340   1.000000
      8         -4.359144   1.000000
      9         -4.049547   1.000000
     10         -3.595305   1.000000
     11         -2.601078   1.000000
     12         -2.324078   1.000000
     13         -1.809931   1.000000
     14         -1.052376   1.000000
     15         -0.077751   1.000000
     16         -0.051139   1.000000
     17          0.151738   1.000000
     18          0.195441   1.000000
     19          0.580642   1.000000
     20          2.026940   0.000012
     21          2.088395   0.000000
     22          2.235249   0.000000
     23          5.447204   0.000000
     24          5.759317   0.000000
     25          5.860647   0.000000
     26          5.877379   0.000000
     27          6.828306   0.000000
     28          7.728048   0.000000
     29          7.729041   0.000000
     30          8.508873   0.000000
     31          8.752193   0.000000
     32          8.920656   0.000000
     33          9.048764   0.000000
     34         10.115110   0.000000
     35         11.177858   0.000000
     36         11.387536   0.000000
     37         11.757874   0.000000
     38         11.817115   0.000000
     39         11.912999   0.000000
     40         12.394154   0.000000
     41         12.805877   0.000000
     42         13.348614   0.000000
     43         13.525982   0.000000
     44         15.538352   0.000000
     45         15.548914   0.000000
     46         15.953037   0.000000
     47         16.331543   0.000000
     48         16.483269   0.000000
 
  0.5263158E-01  0.3703704E-01  0.0000000E+00  0.4586630E-03
      1        -12.723791   1.000000
      2        -11.583877   1.000000
      3         -8.656725   1.000000
      4         -8.419859   1.000000
      5         -6.060955   1.000000
      6         -5.136753   1.000000
      7         -4.667194   1.000000
      8         -4.266745   1.000000
      9         -4.036369   1.000000
     10         -3.536177   1.000000
     11         -2.610582   1.000000
     12         -2.321321   1.000000
     13         -1.822581   1.000000
     14         -1.098487   1.000000
     15         -0.071809   1.000000
     16         -0.042395   1.000000
     17          0.159089   1.000000
     18          0.178588   1.000000
     19          0.566555   1.000000
     20          2.014304   0.000057
     21          2.076965   0.000000
     22          2.218361   0.000000
     23          5.461346   0.000000
     24          5.746769   0.000000
     25          5.839156   0.000000
     26          5.964381   0.000000
     27          6.815086   0.000000
     28          7.540505   0.000000
     29          7.886479   0.000000
     30          8.530222   0.000000
     31          8.808602   0.000000
     32          8.956979   0.000000
     33          9.052963   0.000000
     34         10.129668   0.000000
     35         11.187789   0.000000
     36         11.327814   0.000000
     37         11.654216   0.000000
     38         11.780227   0.000000
     39         11.945879   0.000000
     40         12.406179   0.000000
     41         12.875764   0.000000
     42         13.458157   0.000000
     43         13.468957   0.000000
     44         15.367986   0.000000
     45         15.571696   0.000000
     46         16.067499   0.000000
     47         16.316085   0.000000
     48         16.355999   0.000000
 
  0.1052632E+00  0.3703704E-01  0.0000000E+00  0.4586630E-03
      1        -12.705550   1.000000
      2        -11.615138   1.000000
      3         -8.648073   1.000000
      4         -8.414759   1.000000
      5         -6.027481   1.000000
      6         -5.309446   1.000000
      7         -4.736181   1.000000
      8         -4.093381   1.000000
      9         -3.967914   1.000000
     10         -3.381628   1.000000
     11         -2.639401   1.000000
     12         -2.312996   1.000000
     13         -1.857864   1.000000
     14         -1.231102   1.000000
     15         -0.054523   1.000000
     16         -0.021718   1.000000
     17          0.132694   1.000000
     18          0.179385   1.000000
     19          0.524869   1.000000
     20          1.977457   0.002420
     21          2.043662   0.000001
     22          2.167744   0.000000
     23          5.500886   0.000000
     24          5.753929   0.000000
     25          5.828741   0.000000
     26          6.126461   0.000000
     27          6.777559   0.000000
     28          7.345072   0.000000
     29          8.007315   0.000000
     30          8.590771   0.000000
     31          8.959367   0.000000
     32          9.057623   0.000000
     33          9.067479   0.000000
     34         10.174297   0.000000
     35         11.157123   0.000000
     36         11.218033   0.000000
     37         11.398255   0.000000
     38         11.720538   0.000000
     39         12.041232   0.000000
     40         12.441819   0.000000
     41         13.026765   0.000000
     42         13.310534   0.000000
     43         13.724518   0.000000
     44         15.073347   0.000000
     45         15.660383   0.000000
     46         16.055980   0.000000
     47         16.185054   0.000000
     48         16.431063   0.000000
 
  0.1578947E+00  0.3703704E-01  0.0000000E+00  0.4586630E-03
      1        -12.675378   1.000000
      2        -11.665203   1.000000
      3         -8.633263   1.000000
      4         -8.407340   1.000000
      5         -5.988875   1.000000
      6         -5.498315   1.000000
      7         -4.792336   1.000000
      8         -4.007269   1.000000
      9         -3.751686   1.000000
     10         -3.170410   1.000000
     11         -2.687829   1.000000
     12         -2.298904   1.000000
     13         -1.909006   1.000000
     14         -1.435512   1.000000
     15         -0.027706   1.000000
     16         -0.026450   1.000000
     17          0.093002   1.000000
     18          0.203264   1.000000
     19          0.463428   1.000000
     20          1.919569   0.118964
     21          1.991309   0.000665
     22          2.084033   0.000000
     23          5.558077   0.000000
     24          5.755980   0.000000
     25          5.880036   0.000000
     26          6.337032   0.000000
     27          6.721576   0.000000
     28          7.162820   0.000000
     29          8.102676   0.000000
     30          8.678929   0.000000
     31          9.058857   0.000000
     32          9.165550   0.000000
     33          9.237749   0.000000
     34         10.254143   0.000000
     35         10.897651   0.000000
     36         11.080513   0.000000
     37         11.268330   0.000000
     38         11.701962   0.000000
     39         12.182605   0.000000
     40         12.506853   0.000000
     41         13.077836   0.000000
     42         13.137522   0.000000
     43         14.058319   0.000000
     44         14.846918   0.000000
     45         15.735773   0.000000
     46         15.813725   0.000000
     47         16.219678   0.000000
     48         16.527048   0.000000
 
  0.2105263E+00  0.3703704E-01  0.0000000E+00  0.4586630E-03
      1        -12.633635   1.000000
      2        -11.731330   1.000000
      3         -8.612116   1.000000
      4         -8.399189   1.000000
      5         -5.967401   1.000000
      6         -5.676692   1.000000
      7         -4.792668   1.000000
      8         -3.943627   1.000000
      9         -3.482777   1.000000
     10         -2.933903   1.000000
     11         -2.751520   1.000000
     12         -2.278854   1.000000
     13         -1.967870   1.000000
     14         -1.692436   1.000000
     15         -0.117576   1.000000
     16          0.002992   1.000000
     17          0.118458   1.000000
     18          0.193849   1.000000
     19          0.422841   1.000000
     20          1.845605   0.819076
     21          1.924240   0.094713
     22          1.969773   0.004659
     23          5.622677   0.000000
     24          5.732763   0.000000
     25          6.022292   0.000000
     26          6.581984   0.000000
     27          6.655395   0.000000
     28          7.007937   0.000000
     29          8.184620   0.000000
     30          8.770382   0.000000
     31          9.036004   0.000000
     32          9.396206   0.000000
     33          9.462717   0.000000
     34         10.372468   0.000000
     35         10.580643   0.000000
     36         10.768349   0.000000
     37         11.332559   0.000000
     38         11.754784   0.000000
     39         12.322009   0.000000
     40         12.632346   0.000000
     41         12.798433   0.000000
     42         13.084404   0.000000
     43         14.401332   0.000000
     44         14.807497   0.000000
     45         15.453182   0.000000
     46         15.924241   0.000000
     47         16.144212   0.000000
     48         16.501247   0.000000
 
  0.2631579E+00  0.3703704E-01  0.0000000E+00  0.4586630E-03
      1        -12.580855   1.000000
      2        -11.810210   1.000000
      3         -8.584995   1.000000
      4         -8.392418   1.000000
      5         -5.978867   1.000000
      6         -5.833563   1.000000
      7         -4.712446   1.000000
      8         -3.870031   1.000000
      9         -3.213195   1.000000
     10         -2.862552   1.000000
     11         -2.655902   1.000000
     12         -2.255136   1.000000
     13         -2.027693   1.000000
     14         -1.976823   1.000000
     15         -0.254926   1.000000
     16          0.001600   1.000000
     17          0.133531   1.000000
     18          0.168210   1.000000
     19          0.457711   1.000000
     20          1.759305   0.999600
     21          1.833120   0.897059
     22          1.847957   0.801033
     23          5.684169   0.000000
     24          5.711253   0.000000
     25          6.232060   0.000000
     26          6.588598   0.000000
     27          6.790156   0.000000
     28          6.947143   0.000000
     29          8.258040   0.000000
     30          8.819583   0.000000
     31          8.987138   0.000000
     32          9.638010   0.000000
     33          9.715906   0.000000
     34         10.187364   0.000000
     35         10.461230   0.000000
     36         10.653134   0.000000
     37         11.392459   0.000000
     38         11.880907   0.000000
     39         12.413257   0.000000
     40         12.483754   0.000000
     41         12.847022   0.000000
     42         12.855157   0.000000
     43         14.695851   0.000000
     44         14.982275   0.000000
     45         15.150150   0.000000
     46         15.937540   0.000000
     47         15.949545   0.000000
     48         16.250660   0.000000
 
  0.3157895E+00  0.3703704E-01  0.0000000E+00  0.4586630E-03
      1        -12.517728   1.000000
      2        -11.898276   1.000000
      3         -8.552993   1.000000
      4         -8.389454   1.000000
      5         -6.019508   1.000000
      6         -5.962681   1.000000
      7         -4.552273   1.000000
      8         -3.783799   1.000000