<?xml version="1.0" encoding="ISO-8859-1"?>
<modeling>
 <generator>
  <i name="program" type="string">vasp </i>
  <i name="version" type="string">6.4.3  </i>
  <i name="subversion" type="string">19Mar24 (build May 31 2024 16:31:43) complex                          parallel </i>
  <i name="platform" type="string">LinuxIFC </i>
  <i name="date" type="string">2024 10 31 </i>
  <i name="time" type="string">01:08:06 </i>
 </generator>
 <incar>
  <i type="string" name="SYSTEM">Kpoints</i>
  <i type="int" name="ISTART">     0</i>
  <i type="string" name="PREC">Accurate</i>
  <i type="string" name="ALGO">Normal</i>
  <i type="int" name="ISPIN">     1</i>
  <i type="int" name="ICHARG">     2</i>
  <i type="int" name="NELM">   100</i>
  <i type="int" name="IBRION">    -1</i>
  <i name="EDIFF">      0.00000100</i>
  <i name="EDIFFG">     -0.00100000</i>
  <i type="int" name="NSW">     0</i>
  <i type="int" name="ISIF">     2</i>
  <i name="ENCUT">    640.00000000</i>
  <i name="POTIM">      0.50000000</i>
  <i type="int" name="ISMEAR">     0</i>
  <i name="SIGMA">      0.05000000</i>
  <i type="logical" name="LWAVE"> F  </i>
  <i type="logical" name="LCHARG"> F  </i>
  <i type="string" name="GGA">PE</i>
 </incar>
 <primitive_cell>
  <structure name="primitive_cell" >
   <crystal>
    <varray name="basis" >
     <v>       5.69700000       0.00000000       0.00000000 </v>
     <v>       0.00000000       4.04790000       0.00000000 </v>
     <v>       0.00000000       0.00000000       6.20420000 </v>
    </varray>
    <i name="volume">    143.07435078 </i>
    <varray name="rec_basis" >
     <v>       0.17553098       0.00000000       0.00000000 </v>
     <v>       0.00000000       0.24704168       0.00000000 </v>
     <v>       0.00000000       0.00000000       0.16118114 </v>
    </varray>
   </crystal>
   <varray name="positions" >
    <v>       0.52123000       0.50000000       0.63796000 </v>
    <v>       0.47877000       0.50000000       0.36204000 </v>
    <v>       0.97877000       0.50000000       0.63796000 </v>
    <v>       0.02123000       0.50000000       0.36204000 </v>
    <v>       0.60090000       0.50000000       0.89991000 </v>
    <v>       0.39910000       0.50000000       0.10009000 </v>
    <v>       0.89910000       0.50000000       0.89991000 </v>
    <v>       0.10090000       0.50000000       0.10009000 </v>
    <v>       0.75000000       0.79171000       0.72973000 </v>
    <v>       0.25000000       0.20829000       0.27027000 </v>
    <v>       0.75000000       0.20829000       0.72973000 </v>
    <v>       0.25000000       0.79171000       0.27027000 </v>
    <v>       0.25000000       0.50000000       0.52367000 </v>
    <v>       0.75000000       0.50000000       0.47633000 </v>
   </varray>
  </structure>
  <varray name="primitive_index" >
   <v type="int" >        1 </v>
   <v type="int" >        2 </v>
   <v type="int" >        3 </v>
   <v type="int" >        4 </v>
   <v type="int" >        5 </v>
   <v type="int" >        6 </v>
   <v type="int" >        7 </v>
   <v type="int" >        8 </v>
   <v type="int" >        9 </v>
   <v type="int" >       10 </v>
   <v type="int" >       11 </v>
   <v type="int" >       12 </v>
   <v type="int" >       13 </v>
   <v type="int" >       14 </v>
  </varray>
 </primitive_cell>
 <kpoints>
  <generation param="Monkhorst-Pack">
   <v type="int" name="divisions">      19       27       17 </v>
   <v name="usershift">      0.00000000       0.00000000       0.00000000 </v>
   <v name="genvec1">      0.05263158       0.00000000       0.00000000 </v>
   <v name="genvec2">      0.00000000       0.03703704       0.00000000 </v>
   <v name="genvec3">      0.00000000       0.00000000       0.05882353 </v>
   <v name="shift">      0.00000000       0.00000000       0.00000000 </v>
  </generation>
  <varray name="kpointlist" >
   <v>       0.00000000       0.00000000       0.00000000 </v>
   <v>       0.05263158       0.00000000       0.00000000 </v>
   <v>       0.10526316       0.00000000       0.00000000 </v>
   <v>       0.15789474       0.00000000       0.00000000 </v>
   <v>       0.21052632       0.00000000       0.00000000 </v>
   <v>       0.26315789       0.00000000       0.00000000 </v>
   <v>       0.31578947       0.00000000       0.00000000 </v>
   <v>       0.36842105       0.00000000       0.00000000 </v>
   <v>       0.42105263       0.00000000       0.00000000 </v>
   <v>       0.47368421       0.00000000       0.00000000 </v>
   <v>       0.00000000       0.03703704       0.00000000 </v>
   <v>       0.05263158       0.03703704       0.00000000 </v>
   <v>       0.10526316       0.03703704       0.00000000 </v>
   <v>       0.15789474       0.03703704       0.00000000 </v>
   <v>       0.21052632       0.03703704       0.00000000 </v>
   <v>       0.26315789       0.03703704       0.00000000 </v>
   <v>       0.31578947       0.03703704       0.00000000 </v>
   <v>       0.36842105       0.03703704       0.00000000 </v>
   <v>       0.42105263       0.03703704       0.00000000 </v>
   <v>       0.47368421       0.03703704       0.00000000 </v>
   <v>       0.00000000       0.07407407       0.00000000 </v>
   <v>       0.05263158       0.07407407       0.00000000 </v>
   <v>       0.10526316       0.07407407       0.00000000 </v>
   <v>       0.15789474       0.07407407       0.00000000 </v>
   <v>       0.21052632       0.07407407       0.00000000 </v>
   <v>       0.26315789       0.07407407       0.00000000 </v>
   <v>       0.31578947       0.07407407       0.00000000 </v>
   <v>       0.36842105       0.07407407       0.00000000 </v>
   <v>       0.42105263       0.07407407       0.00000000 </v>
   <v>       0.47368421       0.07407407       0.00000000 </v>
   <v>       0.00000000       0.11111111       0.00000000 </v>
   <v>       0.05263158       0.11111111       0.00000000 </v>
   <v>       0.10526316       0.11111111       0.00000000 </v>
   <v>       0.15789474       0.11111111       0.00000000 </v>
   <v>       0.21052632       0.11111111       0.00000000 </v>
   <v>       0.26315789       0.11111111       0.00000000 </v>
   <v>       0.31578947       0.11111111       0.00000000 </v>
   <v>       0.36842105       0.11111111       0.00000000 </v>
   <v>       0.42105263       0.11111111       0.00000000 </v>
   <v>       0.47368421       0.11111111       0.00000000 </v>
   <v>       0.00000000       0.14814815       0.00000000 </v>
   <v>       0.05263158       0.14814815       0.00000000 </v>
   <v>       0.10526316       0.14814815       0.00000000 </v>
   <v>       0.15789474       0.14814815       0.00000000 </v>
   <v>       0.21052632       0.14814815       0.00000000 </v>
   <v>       0.26315789       0.14814815       0.00000000 </v>
   <v>       0.31578947       0.14814815       0.00000000 </v>
   <v>       0.36842105       0.14814815       0.00000000 </v>
   <v>       0.42105263       0.14814815       0.00000000 </v>
   <v>       0.47368421       0.14814815       0.00000000 </v>
   <v>       0.00000000       0.18518519       0.00000000 </v>
   <v>       0.05263158       0.18518519       0.00000000 </v>
   <v>       0.10526316       0.18518519       0.00000000 </v>
   <v>       0.15789474       0.18518519       0.00000000 </v>
   <v>       0.21052632       0.18518519       0.00000000 </v>
   <v>       0.26315789       0.18518519       0.00000000 </v>
   <v>       0.31578947       0.18518519       0.00000000 </v>
   <v>       0.36842105       0.18518519       0.00000000 </v>
   <v>       0.42105263       0.18518519       0.00000000 </v>
   <v>       0.47368421       0.18518519       0.00000000 </v>
   <v>       0.00000000       0.22222222       0.00000000 </v>
   <v>       0.05263158       0.22222222       0.00000000 </v>
   <v>       0.10526316       0.22222222       0.00000000 </v>
   <v>       0.15789474       0.22222222       0.00000000 </v>
   <v>       0.21052632       0.22222222       0.00000000 </v>
   <v>       0.26315789       0.22222222       0.00000000 </v>
   <v>       0.31578947       0.22222222       0.00000000 </v>
   <v>       0.36842105       0.22222222       0.00000000 </v>
   <v>       0.42105263       0.22222222       0.00000000 </v>
   <v>       0.47368421       0.22222222       0.00000000 </v>
   <v>       0.00000000       0.25925926       0.00000000 </v>
   <v>       0.05263158       0.25925926       0.00000000 </v>
   <v>       0.10526316       0.25925926       0.00000000 </v>
   <v>       0.15789474       0.25925926       0.00000000 </v>
   <v>       0.21052632       0.25925926       0.00000000 </v>
   <v>       0.26315789       0.25925926       0.00000000 </v>
   <v>       0.31578947       0.25925926       0.00000000 </v>
   <v>       0.36842105       0.25925926       0.00000000 </v>
   <v>       0.42105263       0.25925926       0.00000000 </v>
   <v>       0.47368421       0.25925926       0.00000000 </v>
   <v>       0.00000000       0.29629630       0.00000000 </v>
   <v>       0.05263158       0.29629630       0.00000000 </v>
   <v>       0.10526316       0.29629630       0.00000000 </v>
   <v>       0.15789474       0.29629630       0.00000000 </v>
   <v>       0.21052632       0.29629630       0.00000000 </v>
   <v>       0.26315789       0.29629630       0.00000000 </v>
   <v>       0.31578947       0.29629630       0.00000000 </v>
   <v>       0.36842105       0.29629630       0.00000000 </v>
   <v>       0.42105263       0.29629630       0.00000000 </v>
   <v>       0.47368421       0.29629630       0.00000000 </v>
   <v>       0.00000000       0.33333333       0.00000000 </v>
   <v>       0.05263158       0.33333333       0.00000000 </v>
   <v>       0.10526316       0.33333333       0.00000000 </v>
   <v>       0.15789474       0.33333333       0.00000000 </v>
   <v>       0.21052632       0.33333333       0.00000000 </v>
   <v>       0.26315789       0.33333333       0.00000000 </v>
   <v>       0.31578947       0.33333333       0.00000000 </v>
   <v>       0.36842105       0.33333333       0.00000000 </v>
   <v>       0.42105263       0.33333333       0.00000000 </v>
   <v>       0.47368421       0.33333333       0.00000000 </v>
   <v>       0.00000000       0.37037037       0.00000000 </v>
   <v>       0.05263158       0.37037037       0.00000000 </v>
   <v>       0.10526316       0.37037037       0.00000000 </v>
   <v>       0.15789474       0.37037037       0.00000000 </v>
   <v>       0.21052632       0.37037037       0.00000000 </v>
   <v>       0.26315789       0.37037037       0.00000000 </v>
   <v>       0.31578947       0.37037037       0.00000000 </v>
   <v>       0.36842105       0.37037037       0.00000000 </v>
   <v>       0.42105263       0.37037037       0.00000000 </v>
   <v>       0.47368421       0.37037037       0.00000000 </v>
   <v>       0.00000000       0.40740741       0.00000000 </v>
   <v>       0.05263158       0.40740741       0.00000000 </v>
   <v>       0.10526316       0.40740741       0.00000000 </v>
   <v>       0.15789474       0.40740741       0.00000000 </v>
   <v>       0.21052632       0.40740741       0.00000000 </v>
   <v>       0.26315789       0.40740741       0.00000000 </v>
   <v>       0.31578947       0.40740741       0.00000000 </v>
   <v>       0.36842105       0.40740741       0.00000000 </v>
   <v>       0.42105263       0.40740741       0.00000000 </v>
   <v>       0.47368421       0.40740741       0.00000000 </v>
   <v>       0.00000000       0.44444444       0.00000000 </v>
   <v>       0.05263158       0.44444444       0.00000000 </v>
   <v>       0.10526316       0.44444444       0.00000000 </v>
   <v>       0.15789474       0.44444444       0.00000000 </v>
   <v>       0.21052632       0.44444444       0.00000000 </v>
   <v>       0.26315789       0.44444444       0.00000000 </v>
   <v>       0.31578947       0.44444444       0.00000000 </v>
   <v>       0.36842105       0.44444444       0.00000000 </v>
   <v>       0.42105263       0.44444444       0.00000000 </v>
   <v>       0.47368421       0.44444444       0.00000000 </v>
   <v>       0.00000000       0.48148148       0.00000000 </v>
   <v>       0.05263158       0.48148148       0.00000000 </v>
   <v>       0.10526316       0.48148148       0.00000000 </v>
   <v>       0.15789474       0.48148148       0.00000000 </v>
   <v>       0.21052632       0.48148148       0.00000000 </v>
   <v>       0.26315789       0.48148148       0.00000000 </v>
   <v>       0.31578947       0.48148148       0.00000000 </v>
   <v>       0.36842105       0.48148148       0.00000000 </v>
   <v>       0.42105263       0.48148148       0.00000000 </v>
   <v>       0.47368421       0.48148148       0.00000000 </v>
   <v>       0.00000000       0.00000000       0.05882353 </v>
   <v>       0.05263158       0.00000000       0.05882353 </v>
   <v>       0.10526316       0.00000000       0.05882353 </v>
   <v>       0.15789474       0.00000000       0.05882353 </v>
   <v>       0.21052632       0.00000000       0.05882353 </v>
   <v>       0.26315789       0.00000000       0.05882353 </v>
   <v>       0.31578947       0.00000000       0.05882353 </v>
   <v>       0.36842105       0.00000000       0.05882353 </v>
   <v>       0.42105263       0.00000000       0.05882353 </v>
   <v>       0.47368421       0.00000000       0.05882353 </v>
   <v>       0.00000000       0.03703704       0.05882353 </v>
   <v>       0.05263158       0.03703704       0.05882353 </v>
   <v>       0.10526316       0.03703704       0.05882353 </v>
   <v>       0.15789474       0.03703704       0.05882353 </v>
   <v>       0.21052632       0.03703704       0.05882353 </v>
   <v>       0.26315789       0.03703704       0.05882353 </v>
   <v>       0.31578947       0.03703704       0.05882353 </v>
   <v>       0.36842105       0.03703704       0.05882353 </v>
   <v>       0.42105263       0.03703704       0.05882353 </v>
   <v>       0.47368421       0.03703704       0.05882353 </v>
   <v>       0.00000000       0.07407407       0.05882353 </v>
   <v>       0.05263158       0.07407407       0.05882353 </v>
   <v>       0.10526316       0.07407407       0.05882353 </v>
   <v>       0.15789474       0.07407407       0.05882353 </v>
   <v>       0.21052632       0.07407407       0.05882353 </v>
   <v>       0.26315789       0.07407407       0.05882353 </v>
   <v>       0.31578947       0.07407407       0.05882353 </v>
   <v>       0.36842105       0.07407407       0.05882353 </v>
   <v>       0.42105263       0.07407407       0.05882353 </v>
   <v>       0.47368421       0.07407407       0.05882353 </v>
   <v>       0.00000000       0.11111111       0.05882353 </v>
   <v>       0.05263158       0.11111111       0.05882353 </v>
   <v>       0.10526316       0.11111111       0.05882353 </v>
   <v>       0.15789474       0.11111111       0.05882353 </v>
   <v>       0.21052632       0.11111111       0.05882353 </v>
   <v>       0.26315789       0.11111111       0.05882353 </v>
   <v>       0.31578947       0.11111111       0.05882353 </v>
   <v>       0.36842105       0.11111111       0.05882353 </v>
   <v>       0.42105263       0.11111111       0.05882353 </v>
   <v>       0.47368421       0.11111111       0.05882353 </v>
   <v>       0.00000000       0.14814815       0.05882353 </v>
   <v>       0.05263158       0.14814815       0.05882353 </v>
   <v>       0.10526316       0.14814815       0.05882353 </v>
   <v>       0.15789474       0.14814815       0.05882353 </v>
   <v>       0.21052632       0.14814815       0.05882353 </v>
   <v>       0.26315789       0.14814815       0.05882353 </v>
   <v>       0.31578947       0.14814815       0.05882353 </v>
   <v>       0.36842105       0.14814815       0.05882353 </v>
   <v>       0.42105263       0.14814815       0.05882353 </v>
   <v>       0.47368421       0.14814815       0.05882353 </v>
   <v>       0.00000000       0.18518519       0.05882353 </v>
   <v>       0.05263158       0.18518519       0.05882353 </v>
   <v>       0.10526316       0.18518519       0.05882353 </v>
   <v>       0.15789474       0.18518519       0.05882353 </v>
   <v>       0.21052632       0.18518519       0.05882353 </v>
   <v>       0.26315789       0.18518519       0.05882353 </v>
   <v>       0.31578947       0.18518519       0.05882353 </v>
   <v>       0.36842105       0.18518519       0.05882353 </v>
   <v>       0.42105263       0.18518519       0.05882353 </v>
   <v>       0.47368421       0.18518519       0.05882353 </v>
   <v>       0.00000000       0.22222222       0.05882353 </v>
   <v>       0.05263158       0.22222222       0.05882353 </v>
   <v>       0.10526316       0.22222222       0.05882353 </v>
   <v>       0.15789474       0.22222222       0.05882353 </v>
   <v>       0.21052632       0.22222222       0.05882353 </v>
   <v>       0.26315789       0.22222222       0.05882353 </v>
   <v>       0.31578947       0.22222222       0.05882353 </v>
   <v>       0.36842105       0.22222222       0.05882353 </v>
   <v>       0.42105263       0.22222222       0.05882353 </v>
   <v>       0.47368421       0.22222222       0.05882353 </v>
   <v>       0.00000000       0.25925926       0.05882353 </v>
   <v>       0.05263158       0.25925926       0.05882353 </v>
   <v>       0.10526316       0.25925926       0.05882353 </v>
   <v>       0.15789474       0.25925926       0.05882353 </v>
   <v>       0.21052632       0.25925926       0.05882353 </v>
   <v>       0.26315789       0.25925926       0.05882353 </v>
   <v>       0.31578947       0.25925926       0.05882353 </v>
   <v>       0.36842105       0.25925926       0.05882353 </v>
   <v>       0.42105263       0.25925926       0.05882353 </v>
   <v>       0.47368421       0.25925926       0.05882353 </v>
   <v>       0.00000000       0.29629630       0.05882353 </v>
   <v>       0.05263158       0.29629630       0.05882353 </v>
   <v>       0.10526316       0.29629630       0.05882353 </v>
   <v>       0.15789474       0.29629630       0.05882353 </v>
   <v>       0.21052632       0.29629630       0.05882353 </v>
   <v>       0.26315789       0.29629630       0.05882353 </v>
   <v>       0.31578947       0.29629630       0.05882353 </v>
   <v>       0.36842105       0.29629630       0.05882353 </v>
   <v>       0.42105263       0.29629630       0.05882353 </v>
   <v>       0.47368421       0.29629630       0.05882353 </v>
   <v>       0.00000000       0.33333333       0.05882353 </v>
   <v>       0.05263158       0.33333333       0.05882353 </v>
   <v>       0.10526316       0.33333333       0.05882353 </v>
   <v>       0.15789474       0.33333333       0.05882353 </v>
   <v>       0.21052632       0.33333333       0.05882353 </v>
   <v>       0.26315789       0.33333333       0.05882353 </v>
   <v>       0.31578947       0.33333333       0.05882353 </v>
   <v>       0.36842105       0.33333333       0.05882353 </v>
   <v>       0.42105263       0.33333333       0.05882353 </v>
   <v>       0.47368421       0.33333333       0.05882353 </v>
   <v>       0.00000000       0.37037037       0.05882353 </v>
   <v>       0.05263158       0.37037037       0.05882353 </v>
   <v>       0.10526316       0.37037037       0.05882353 </v>
   <v>       0.15789474       0.37037037       0.05882353 </v>
   <v>       0.21052632       0.37037037       0.05882353 </v>
   <v>       0.26315789       0.37037037       0.05882353 </v>
   <v>       0.31578947       0.37037037       0.05882353 </v>
   <v>       0.36842105       0.37037037       0.05882353 </v>
   <v>       0.42105263       0.37037037       0.05882353 </v>
   <v>       0.47368421       0.37037037       0.05882353 </v>
   <v>       0.00000000       0.40740741       0.05882353 </v>
   <v>       0.05263158       0.40740741       0.05882353 </v>
   <v>       0.10526316       0.40740741       0.05882353 </v>
   <v>       0.15789474       0.40740741       0.05882353 </v>
   <v>       0.21052632       0.40740741       0.05882353 </v>
   <v>       0.26315789       0.40740741       0.05882353 </v>
   <v>       0.31578947       0.40740741       0.05882353 </v>
   <v>       0.36842105       0.40740741       0.05882353 </v>
   <v>       0.42105263       0.40740741       0.05882353 </v>
   <v>       0.47368421       0.40740741       0.05882353 </v>
   <v>       0.00000000       0.44444444       0.05882353 </v>
   <v>       0.05263158       0.44444444       0.05882353 </v>
   <v>       0.10526316       0.44444444       0.05882353 </v>
   <v>       0.15789474       0.44444444       0.05882353 </v>
   <v>       0.21052632       0.44444444       0.05882353 </v>
   <v>       0.26315789       0.44444444       0.05882353 </v>
   <v>       0.31578947       0.44444444       0.05882353 </v>
   <v>       0.36842105       0.44444444       0.05882353 </v>
   <v>       0.42105263       0.44444444       0.05882353 </v>
   <v>       0.47368421       0.44444444       0.05882353 </v>
   <v>       0.00000000       0.48148148       0.05882353 </v>
   <v>       0.05263158       0.48148148       0.05882353 </v>
   <v>       0.10526316       0.48148148       0.05882353 </v>
   <v>       0.15789474       0.48148148       0.05882353 </v>
   <v>       0.21052632       0.48148148       0.05882353 </v>
   <v>       0.26315789       0.48148148       0.05882353 </v>
   <v>       0.31578947       0.48148148       0.05882353 </v>
   <v>       0.36842105       0.48148148       0.05882353 </v>
   <v>       0.42105263       0.48148148       0.05882353 </v>
   <v>       0.47368421       0.48148148       0.05882353 </v>
   <v>       0.00000000       0.00000000       0.11764706 </v>
   <v>       0.05263158       0.00000000       0.11764706 </v>
   <v>       0.10526316       0.00000000       0.11764706 </v>
   <v>       0.15789474       0.00000000       0.11764706 </v>
   <v>       0.21052632       0.00000000       0.11764706 </v>
   <v>       0.26315789       0.00000000       0.11764706 </v>
   <v>       0.31578947       0.00000000       0.11764706 </v>
   <v>       0.36842105       0.00000000       0.11764706 </v>
   <v>       0.42105263       0.00000000       0.11764706 </v>
   <v>       0.47368421       0.00000000       0.11764706 </v>
   <v>       0.00000000       0.03703704       0.11764706 </v>
   <v>       0.05263158       0.03703704       0.11764706 </v>
   <v>       0.10526316       0.03703704       0.11764706 </v>
   <v>       0.15789474       0.03703704       0.11764706 </v>
   <v>       0.21052632       0.03703704       0.11764706 </v>
   <v>       0.26315789       0.03703704       0.11764706 </v>
   <v>       0.31578947       0.03703704       0.11764706 </v>
   <v>       0.36842105       0.03703704       0.11764706 </v>
   <v>       0.42105263       0.03703704       0.11764706 </v>
   <v>       0.47368421       0.03703704       0.11764706 </v>
   <v>       0.00000000       0.07407407       0.11764706 </v>
   <v>       0.05263158       0.07407407       0.11764706 </v>
   <v>       0.10526316       0.07407407       0.11764706 </v>
   <v>       0.15789474       0.07407407       0.11764706 </v>
   <v>       0.21052632       0.07407407       0.11764706 </v>
   <v>       0.26315789       0.07407407       0.11764706 </v>
   <v>       0.31578947       0.07407407       0.11764706 </v>
   <v>       0.36842105       0.07407407       0.11764706 </v>
   <v>       0.42105263       0.07407407       0.11764706 </v>
   <v>       0.47368421       0.07407407       0.11764706 </v>
   <v>       0.00000000       0.11111111       0.11764706 </v>
   <v>       0.05263158       0.11111111       0.11764706 </v>
   <v>       0.10526316       0.11111111       0.11764706 </v>
   <v>       0.15789474       0.11111111       0.11764706 </v>
   <v>       0.21052632       0.11111111       0.11764706 </v>
   <v>       0.26315789       0.11111111       0.11764706 </v>
   <v>       0.31578947       0.11111111       0.11764706 </v>
   <v>       0.36842105       0.11111111       0.11764706 </v>
   <v>       0.42105263       0.11111111       0.11764706 </v>
   <v>       0.47368421       0.11111111       0.11764706 </v>
   <v>       0.00000000       0.14814815       0.11764706 </v>
   <v>       0.05263158       0.14814815       0.11764706 </v>
   <v>       0.10526316       0.14814815       0.11764706 </v>
   <v>       0.15789474       0.14814815       0.11764706 </v>
   <v>       0.21052632       0.14814815       0.11764706 </v>
   <v>       0.26315789       0.14814815       0.11764706 </v>
   <v>       0.31578947       0.14814815       0.11764706 </v>
   <v>       0.36842105       0.14814815       0.11764706 </v>
   <v>       0.42105263       0.14814815       0.11764706 </v>
   <v>       0.47368421       0.14814815       0.11764706 </v>
   <v>       0.00000000       0.18518519       0.11764706 </v>
   <v>       0.05263158       0.18518519       0.11764706 </v>
   <v>       0.10526316       0.18518519       0.11764706 </v>
   <v>       0.15789474       0.18518519       0.11764706 </v>
   <v>       0.21052632       0.18518519       0.11764706 </v>
   <v>       0.26315789       0.18518519       0.11764706 </v>
   <v>       0.31578947       0.18518519       0.11764706 </v>
   <v>       0.36842105       0.18518519       0.11764706 </v>
   <v>       0.42105263       0.18518519       0.11764706 </v>
   <v>       0.47368421       0.18518519       0.11764706 </v>
   <v>       0.00000000       0.22222222       0.11764706 </v>
   <v>       0.05263158       0.22222222       0.11764706 </v>
   <v>       0.10526316       0.22222222       0.11764706 </v>
   <v>       0.15789474       0.22222222       0.11764706 </v>
   <v>       0.21052632       0.22222222       0.11764706 </v>
   <v>       0.26315789       0.22222222       0.11764706 </v>
   <v>       0.31578947       0.22222222       0.11764706 </v>
   <v>       0.36842105       0.22222222       0.11764706 </v>
   <v>       0.42105263       0.22222222       0.11764706 </v>
   <v>       0.47368421       0.22222222       0.11764706 </v>
   <v>       0.00000000       0.25925926       0.11764706 </v>
   <v>       0.05263158       0.25925926       0.11764706 </v>
   <v>       0.10526316       0.25925926       0.11764706 </v>
   <v>       0.15789474       0.25925926       0.11764706 </v>
   <v>       0.21052632       0.25925926       0.11764706 </v>
   <v>       0.26315789       0.25925926       0.11764706 </v>
   <v>       0.31578947       0.25925926       0.11764706 </v>
   <v>       0.36842105       0.25925926       0.11764706 </v>
   <v>       0.42105263       0.25925926       0.11764706 </v>
   <v>       0.47368421       0.25925926       0.11764706 </v>
   <v>       0.00000000       0.29629630       0.11764706 </v>
   <v>       0.05263158       0.29629630       0.11764706 </v>
   <v>       0.10526316       0.29629630       0.11764706 </v>
   <v>       0.15789474       0.29629630       0.11764706 </v>
   <v>       0.21052632       0.29629630       0.11764706 </v>
   <v>       0.26315789       0.29629630       0.11764706 </v>
   <v>       0.31578947       0.29629630       0.11764706 </v>
   <v>       0.36842105       0.29629630       0.11764706 </v>
   <v>       0.42105263       0.29629630       0.11764706 </v>
   <v>       0.47368421       0.29629630       0.11764706 </v>
   <v>       0.00000000       0.33333333       0.11764706 </v>
   <v>       0.05263158       0.33333333       0.11764706 </v>
   <v>       0.10526316       0.33333333       0.11764706 </v>
   <v>       0.15789474       0.33333333       0.11764706 </v>
   <v>       0.21052632       0.33333333       0.11764706 </v>
   <v>       0.26315789       0.33333333       0.11764706 </v>
   <v>       0.31578947       0.33333333       0.11764706 </v>
   <v>       0.36842105       0.33333333       0.11764706 </v>
   <v>       0.42105263       0.33333333       0.11764706 </v>
   <v>       0.47368421       0.33333333       0.11764706 </v>
   <v>       0.00000000       0.37037037       0.11764706 </v>
   <v>       0.05263158       0.37037037       0.11764706 </v>
   <v>       0.10526316       0.37037037       0.11764706 </v>
   <v>       0.15789474       0.37037037       0.11764706 </v>
   <v>       0.21052632       0.37037037       0.11764706 </v>
   <v>       0.26315789       0.37037037       0.11764706 </v>
   <v>       0.31578947       0.37037037       0.11764706 </v>
   <v>       0.36842105       0.37037037       0.11764706 </v>
   <v>       0.42105263       0.37037037       0.11764706 </v>
   <v>       0.47368421       0.37037037       0.11764706 </v>
   <v>       0.00000000       0.40740741       0.11764706 </v>
   <v>       0.05263158       0.40740741       0.11764706 </v>
   <v>       0.10526316       0.40740741       0.11764706 </v>
   <v>       0.15789474       0.40740741       0.11764706 </v>
   <v>       0.21052632       0.40740741       0.11764706 </v>
   <v>       0.26315789       0.40740741       0.11764706 </v>
   <v>       0.31578947       0.40740741       0.11764706 </v>
   <v>       0.36842105       0.40740741       0.11764706 </v>
   <v>       0.42105263       0.40740741       0.11764706 </v>
   <v>       0.47368421       0.40740741       0.11764706 </v>
   <v>       0.00000000       0.44444444       0.11764706 </v>
   <v>       0.05263158       0.44444444       0.11764706 </v>
   <v>       0.10526316       0.44444444       0.11764706 </v>
   <v>       0.15789474       0.44444444       0.11764706 </v>
   <v>       0.21052632       0.44444444       0.11764706 </v>
   <v>       0.26315789       0.44444444       0.11764706 </v>
   <v>       0.31578947       0.44444444       0.11764706 </v>
   <v>       0.36842105       0.44444444       0.11764706 </v>
   <v>       0.42105263       0.44444444       0.11764706 </v>
   <v>       0.47368421       0.44444444       0.11764706 </v>
   <v>       0.00000000       0.48148148       0.11764706 </v>
   <v>       0.05263158       0.48148148       0.11764706 </v>
   <v>       0.10526316       0.48148148       0.11764706 </v>
   <v>       0.15789474       0.48148148       0.11764706 </v>
   <v>       0.21052632       0.48148148       0.11764706 </v>
   <v>       0.26315789       0.48148148       0.11764706 </v>
   <v>       0.31578947       0.48148148       0.11764706 </v>
   <v>       0.36842105       0.48148148       0.11764706 </v>
   <v>       0.42105263       0.48148148       0.11764706 </v>
   <v>       0.47368421       0.48148148       0.11764706 </v>
   <v>       0.00000000       0.00000000       0.17647059 </v>
   <v>       0.05263158       0.00000000       0.17647059 </v>
   <v>       0.10526316       0.00000000       0.17647059 </v>
   <v>       0.15789474       0.00000000       0.17647059 </v>
   <v>       0.21052632       0.00000000       0.17647059 </v>
   <v>       0.26315789       0.00000000       0.17647059 </v>
   <v>       0.31578947       0.00000000       0.17647059 </v>
   <v>       0.36842105       0.00000000       0.17647059 </v>
   <v>       0.42105263       0.00000000       0.17647059 </v>
   <v>       0.47368421       0.00000000       0.17647059 </v>
   <v>       0.00000000       0.03703704       0.17647059 </v>
   <v>       0.05263158       0.03703704       0.17647059 </v>
   <v>       0.10526316       0.03703704       0.17647059 </v>
   <v>       0.15789474       0.03703704       0.17647059 </v>
   <v>       0.21052632       0.03703704       0.17647059 </v>
   <v>       0.26315789       0.03703704       0.17647059 </v>
   <v>       0.31578947       0.03703704       0.17647059 </v>
   <v>       0.36842105       0.03703704       0.17647059 </v>
   <v>       0.42105263       0.03703704       0.17647059 </v>
   <v>       0.47368421       0.03703704       0.17647059 </v>
   <v>       0.00000000       0.07407407       0.17647059 </v>
   <v>       0.05263158       0.07407407       0.17647059 </v>
   <v>       0.10526316       0.07407407       0.17647059 </v>
   <v>       0.15789474       0.07407407       0.17647059 </v>
   <v>       0.21052632       0.07407407       0.17647059 </v>
   <v>       0.26315789       0.07407407       0.17647059 </v>
   <v>       0.31578947       0.07407407       0.17647059 </v>
   <v>       0.36842105       0.07407407       0.17647059 </v>
   <v>       0.42105263       0.07407407       0.17647059 </v>
   <v>       0.47368421       0.07407407       0.17647059 </v>
   <v>       0.00000000       0.11111111       0.17647059 </v>
   <v>       0.05263158       0.11111111       0.17647059 </v>
   <v>       0.10526316       0.11111111       0.17647059 </v>
   <v>       0.15789474       0.11111111       0.17647059 </v>
   <v>       0.21052632       0.11111111       0.17647059 </v>
   <v>       0.26315789       0.11111111       0.17647059 </v>
   <v>       0.31578947       0.11111111       0.17647059 </v>
   <v>       0.36842105       0.11111111       0.17647059 </v>
   <v>       0.42105263       0.11111111       0.17647059 </v>
   <v>       0.47368421       0.11111111       0.17647059 </v>
   <v>       0.00000000       0.14814815       0.17647059 </v>
   <v>       0.05263158       0.14814815       0.17647059 </v>
   <v>       0.10526316       0.14814815       0.17647059 </v>
   <v>       0.15789474       0.14814815       0.17647059 </v>
   <v>       0.21052632       0.14814815       0.17647059 </v>
   <v>       0.26315789       0.14814815       0.17647059 </v>
   <v>       0.31578947       0.14814815       0.17647059 </v>
   <v>       0.36842105       0.14814815       0.17647059 </v>
   <v>       0.42105263       0.14814815       0.17647059 </v>
   <v>       0.47368421       0.14814815       0.17647059 </v>
   <v>       0.00000000       0.18518519       0.17647059 </v>
   <v>       0.05263158       0.18518519       0.17647059 </v>
   <v>       0.10526316       0.18518519       0.17647059 </v>
   <v>       0.15789474       0.18518519       0.17647059 </v>
   <v>       0.21052632       0.18518519       0.17647059 </v>
   <v>       0.26315789       0.18518519       0.17647059 </v>
   <v>       0.31578947       0.18518519       0.17647059 </v>
   <v>       0.36842105       0.18518519       0.17647059 </v>
   <v>       0.42105263       0.18518519       0.17647059 </v>
   <v>       0.47368421       0.18518519       0.17647059 </v>
   <v>       0.00000000       0.22222222       0.17647059 </v>
   <v>       0.05263158       0.22222222       0.17647059 </v>
   <v>       0.10526316       0.22222222       0.17647059 </v>
   <v>       0.15789474       0.22222222       0.17647059 </v>
   <v>       0.21052632       0.22222222       0.17647059 </v>
   <v>       0.26315789       0.22222222       0.17647059 </v>
   <v>       0.31578947       0.22222222       0.17647059 </v>
   <v>       0.36842105       0.22222222       0.17647059 </v>
   <v>       0.42105263       0.22222222       0.17647059 </v>
   <v>       0.47368421       0.22222222       0.17647059 </v>
   <v>       0.00000000       0.25925926       0.17647059 </v>
   <v>       0.05263158       0.25925926       0.17647059 </v>
   <v>       0.10526316       0.25925926       0.17647059 </v>
   <v>       0.15789474       0.25925926       0.17647059 </v>
   <v>       0.21052632       0.25925926       0.17647059 </v>
   <v>       0.26315789       0.25925926       0.17647059 </v>
   <v>       0.31578947       0.25925926       0.17647059 </v>
   <v>       0.36842105       0.25925926       0.17647059 </v>
   <v>       0.42105263       0.25925926       0.17647059 </v>
   <v>       0.47368421       0.25925926       0.17647059 </v>
   <v>       0.00000000       0.29629630       0.17647059 </v>
   <v>       0.05263158       0.29629630       0.17647059 </v>
   <v>       0.10526316       0.29629630       0.17647059 </v>
   <v>       0.15789474       0.29629630       0.17647059 </v>
   <v>       0.21052632       0.29629630       0.17647059 </v>
   <v>       0.26315789       0.29629630       0.17647059 </v>
   <v>       0.31578947       0.29629630       0.17647059 </v>
   <v>       0.36842105       0.29629630       0.17647059 </v>
   <v>       0.42105263       0.29629630       0.17647059 </v>
   <v>       0.47368421       0.29629630       0.17647059 </v>
   <v>       0.00000000       0.33333333       0.17647059 </v>
   <v>       0.05263158       0.33333333       0.17647059 </v>
   <v>       0.10526316       0.33333333       0.17647059 </v>
   <v>       0.15789474       0.33333333       0.17647059 </v>
   <v>       0.21052632       0.33333333       0.17647059 </v>
   <v>       0.26315789       0.33333333       0.17647059 </v>
   <v>       0.31578947       0.33333333       0.17647059 </v>
   <v>       0.36842105       0.33333333       0.17647059 </v>
   <v>       0.42105263       0.33333333       0.17647059 </v>
   <v>       0.47368421       0.33333333       0.17647059 </v>
   <v>       0.00000000       0.37037037       0.17647059 </v>
   <v>       0.05263158       0.37037037       0.17647059 </v>
   <v>       0.10526316       0.37037037       0.17647059 </v>
   <v>       0.15789474       0.37037037       0.17647059 </v>
   <v>       0.21052632       0.37037037       0.17647059 </v>
   <v>       0.26315789       0.37037037       0.17647059 </v>
   <v>       0.31578947       0.37037037       0.17647059 </v>
   <v>       0.36842105       0.37037037       0.17647059 </v>
   <v>       0.42105263       0.37037037       0.17647059 </v>
   <v>       0.47368421       0.37037037       0.17647059 </v>
   <v>       0.00000000       0.40740741       0.17647059 </v>
   <v>       0.05263158       0.40740741       0.17647059 </v>
   <v>       0.10526316       0.40740741       0.17647059 </v>
   <v>       0.15789474       0.40740741       0.17647059 </v>
   <v>       0.21052632       0.40740741       0.17647059 </v>
   <v>       0.26315789       0.40740741       0.17647059 </v>
   <v>       0.31578947       0.40740741       0.17647059 </v>
   <v>       0.36842105       0.40740741       0.17647059 </v>
   <v>       0.42105263       0.40740741       0.17647059 </v>
   <v>       0.47368421       0.40740741       0.17647059 </v>
   <v>       0.00000000       0.44444444       0.17647059 </v>
   <v>       0.05263158       0.44444444       0.17647059 </v>
   <v>       0.10526316       0.44444444       0.17647059 </v>
   <v>       0.15789474       0.44444444       0.17647059 </v>
   <v>       0.21052632       0.44444444       0.17647059 </v>
   <v>       0.26315789       0.44444444       0.17647059 </v>
   <v>       0.31578947       0.44444444       0.17647059 </v>
   <v>       0.36842105       0.44444444       0.17647059 </v>
   <v>       0.42105263       0.44444444       0.17647059 </v>
   <v>       0.47368421       0.44444444       0.17647059 </v>
   <v>       0.00000000       0.48148148       0.17647059 </v>
   <v>       0.05263158       0.48148148       0.17647059 </v>
   <v>       0.10526316       0.48148148       0.17647059 </v>
   <v>       0.15789474       0.48148148       0.17647059 </v>
   <v>       0.21052632       0.48148148       0.17647059 </v>
   <v>       0.26315789       0.48148148       0.17647059 </v>
   <v>       0.31578947       0.48148148       0.17647059 </v>
   <v>       0.36842105       0.48148148       0.17647059 </v>
   <v>       0.42105263       0.48148148       0.17647059 </v>
   <v>       0.47368421       0.48148148       0.17647059 </v>
   <v>       0.00000000       0.00000000       0.23529412 </v>
   <v>       0.05263158       0.00000000       0.23529412 </v>
   <v>       0.10526316       0.00000000       0.23529412 </v>
   <v>       0.15789474       0.00000000       0.23529412 </v>
   <v>       0.21052632       0.00000000       0.23529412 </v>
   <v>       0.26315789       0.00000000       0.23529412 </v>
   <v>       0.31578947       0.00000000       0.23529412 </v>
   <v>       0.36842105       0.00000000       0.23529412 </v>
   <v>       0.42105263       0.00000000       0.23529412 </v>
   <v>       0.47368421       0.00000000       0.23529412 </v>
   <v>       0.00000000       0.03703704       0.23529412 </v>
   <v>       0.05263158       0.03703704       0.23529412 </v>
   <v>       0.10526316       0.03703704       0.23529412 </v>
   <v>       0.15789474       0.03703704       0.23529412 </v>
   <v>       0.21052632       0.03703704       0.23529412 </v>
   <v>       0.26315789       0.03703704       0.23529412 </v>
   <v>       0.31578947       0.03703704       0.23529412 </v>
   <v>       0.36842105       0.03703704       0.23529412 </v>
   <v>       0.42105263       0.03703704       0.23529412 </v>
   <v>       0.47368421       0.03703704       0.23529412 </v>
   <v>       0.00000000       0.07407407       0.23529412 </v>
   <v>       0.05263158       0.07407407       0.23529412 </v>
   <v>       0.10526316       0.07407407       0.23529412 </v>
   <v>       0.15789474       0.07407407       0.23529412 </v>
   <v>       0.21052632       0.07407407       0.23529412 </v>
   <v>       0.26315789       0.07407407       0.23529412 </v>
   <v>       0.31578947       0.07407407       0.23529412 </v>
   <v>       0.36842105       0.07407407       0.23529412 </v>
   <v>       0.42105263       0.07407407       0.23529412 </v>
   <v>       0.47368421       0.07407407       0.23529412 </v>
   <v>       0.00000000       0.11111111       0.23529412 </v>
   <v>       0.05263158       0.11111111       0.23529412 </v>
   <v>       0.10526316       0.11111111       0.23529412 </v>
   <v>       0.15789474       0.11111111       0.23529412 </v>
   <v>       0.21052632       0.11111111       0.23529412 </v>
   <v>       0.26315789       0.11111111       0.23529412 </v>
   <v>       0.31578947       0.11111111       0.23529412 </v>
   <v>       0.36842105       0.11111111       0.23529412 </v>
   <v>       0.42105263       0.11111111       0.23529412 </v>
   <v>       0.47368421       0.11111111       0.23529412 </v>
   <v>       0.00000000       0.14814815       0.23529412 </v>
   <v>       0.05263158       0.14814815       0.23529412 </v>
   <v>       0.10526316       0.14814815       0.23529412 </v>
   <v>       0.15789474       0.14814815       0.23529412 </v>
   <v>       0.21052632       0.14814815       0.23529412 </v>
   <v>       0.26315789       0.14814815       0.23529412 </v>
   <v>       0.31578947       0.14814815       0.23529412 </v>
   <v>       0.36842105       0.14814815       0.23529412 </v>
   <v>       0.42105263       0.14814815       0.23529412 </v>
   <v>       0.47368421       0.14814815       0.23529412 </v>
   <v>       0.00000000       0.18518519       0.23529412 </v>
   <v>       0.05263158       0.18518519       0.23529412 </v>
   <v>       0.10526316       0.18518519       0.23529412 </v>
   <v>       0.15789474       0.18518519       0.23529412 </v>
   <v>       0.21052632       0.18518519       0.23529412 </v>
   <v>       0.26315789       0.18518519       0.23529412 </v>
   <v>       0.31578947       0.18518519       0.23529412 </v>
   <v>       0.36842105       0.18518519       0.23529412 </v>
   <v>       0.42105263       0.18518519       0.23529412 </v>
   <v>       0.47368421       0.18518519       0.23529412 </v>
   <v>       0.00000000       0.22222222       0.23529412 </v>
   <v>       0.05263158       0.22222222       0.23529412 </v>
   <v>       0.10526316       0.22222222       0.23529412 </v>
   <v>       0.15789474       0.22222222       0.23529412 </v>
   <v>       0.21052632       0.22222222       0.23529412 </v>
   <v>       0.26315789       0.22222222       0.23529412 </v>
   <v>       0.31578947       0.22222222       0.23529412 </v>
   <v>       0.36842105       0.22222222       0.23529412 </v>
   <v>       0.42105263       0.22222222       0.23529412 </v>
   <v>       0.47368421       0.22222222       0.23529412 </v>
   <v>       0.00000000       0.25925926       0.23529412 </v>
   <v>       0.05263158       0.25925926       0.23529412 </v>
   <v>       0.10526316       0.25925926       0.23529412 </v>
   <v>       0.15789474       0.25925926       0.23529412 </v>
   <v>       0.21052632       0.25925926       0.23529412 </v>
   <v>       0.26315789       0.25925926       0.23529412 </v>
   <v>       0.31578947       0.25925926       0.23529412 </v>
   <v>       0.36842105       0.25925926       0.23529412 </v>
   <v>       0.42105263       0.25925926       0.23529412 </v>
   <v>       0.47368421       0.25925926       0.23529412 </v>
   <v>       0.00000000       0.29629630       0.23529412 </v>
   <v>       0.05263158       0.29629630       0.23529412 </v>
   <v>       0.10526316       0.29629630       0.23529412 </v>
   <v>       0.15789474       0.29629630       0.23529412 </v>
   <v>       0.21052632       0.29629630       0.23529412 </v>
   <v>       0.26315789       0.29629630       0.23529412 </v>
   <v>       0.31578947       0.29629630       0.23529412 </v>
   <v>       0.36842105       0.29629630       0.23529412 </v>
   <v>       0.42105263       0.29629630       0.23529412 </v>
   <v>       0.47368421       0.29629630       0.23529412 </v>
   <v>       0.00000000       0.33333333       0.23529412 </v>
   <v>       0.05263158       0.33333333       0.23529412 </v>
   <v>       0.10526316       0.33333333       0.23529412 </v>
   <v>       0.15789474       0.33333333       0.23529412 </v>
   <v>       0.21052632       0.33333333       0.23529412 </v>
   <v>       0.26315789       0.33333333       0.23529412 </v>
   <v>       0.31578947       0.33333333       0.23529412 </v>
   <v>       0.36842105       0.33333333       0.23529412 </v>
   <v>       0.42105263       0.33333333       0.23529412 </v>
   <v>       0.47368421       0.33333333       0.23529412 </v>
   <v>       0.00000000       0.37037037       0.23529412 </v>
   <v>       0.05263158       0.37037037       0.23529412 </v>
   <v>       0.10526316       0.37037037       0.23529412 </v>
   <v>       0.15789474       0.37037037       0.23529412 </v>
   <v>       0.21052632       0.37037037       0.23529412 </v>
   <v>       0.26315789       0.37037037       0.23529412 </v>
   <v>       0.31578947       0.37037037       0.23529412 </v>
   <v>       0.36842105       0.37037037       0.23529412 </v>
   <v>       0.42105263       0.37037037       0.23529412 </v>
   <v>       0.47368421       0.37037037       0.23529412 </v>
   <v>       0.00000000       0.40740741       0.23529412 </v>
   <v>       0.05263158       0.40740741       0.23529412 </v>
   <v>       0.10526316       0.40740741       0.23529412 </v>
   <v>       0.15789474       0.40740741       0.23529412 </v>
   <v>       0.21052632       0.40740741       0.23529412 </v>
   <v>       0.26315789       0.40740741       0.23529412 </v>
   <v>       0.31578947       0.40740741       0.23529412 </v>
   <v>       0.36842105       0.40740741       0.23529412 </v>
   <v>       0.42105263       0.40740741       0.23529412 </v>
   <v>       0.47368421       0.40740741       0.23529412 </v>
   <v>       0.00000000       0.44444444       0.23529412 </v>
   <v>       0.05263158       0.44444444       0.23529412 </v>
   <v>       0.10526316       0.44444444       0.23529412 </v>
   <v>       0.15789474       0.44444444       0.23529412 </v>
   <v>       0.21052632       0.44444444       0.23529412 </v>
   <v>       0.26315789       0.44444444       0.23529412 </v>
   <v>       0.31578947       0.44444444       0.23529412 </v>
   <v>       0.36842105       0.44444444       0.23529412 </v>
   <v>       0.42105263       0.44444444       0.23529412 </v>
   <v>       0.47368421       0.44444444       0.23529412 </v>
   <v>       0.00000000       0.48148148       0.23529412 </v>
   <v>       0.05263158       0.48148148       0.23529412 </v>
   <v>       0.10526316       0.48148148       0.23529412 </v>
   <v>       0.15789474       0.48148148       0.23529412 </v>
   <v>       0.21052632       0.48148148       0.23529412 </v>
   <v>       0.26315789       0.48148148       0.23529412 </v>
   <v>       0.31578947       0.48148148       0.23529412 </v>
   <v>       0.36842105       0.48148148       0.23529412 </v>
   <v>       0.42105263       0.48148148       0.23529412 </v>
   <v>       0.47368421       0.48148148       0.23529412 </v>
   <v>       0.00000000       0.00000000       0.29411765 </v>
   <v>       0.05263158       0.00000000       0.29411765 </v>
   <v>       0.10526316       0.00000000       0.29411765 </v>
   <v>       0.15789474       0.00000000       0.29411765 </v>
   <v>       0.21052632       0.00000000       0.29411765 </v>
   <v>       0.26315789       0.00000000       0.29411765 </v>
   <v>       0.31578947       0.00000000       0.29411765 </v>
   <v>       0.36842105       0.00000000       0.29411765 </v>
   <v>       0.42105263       0.00000000       0.29411765 </v>
   <v>       0.47368421       0.00000000       0.29411765 </v>
   <v>       0.00000000       0.03703704       0.29411765 </v>
   <v>       0.05263158       0.03703704       0.29411765 </v>
   <v>       0.10526316       0.03703704       0.29411765 </v>
   <v>       0.15789474       0.03703704       0.29411765 </v>
   <v>       0.21052632       0.03703704       0.29411765 </v>
   <v>       0.26315789       0.03703704       0.29411765 </v>
   <v>       0.31578947       0.03703704       0.29411765 </v>
   <v>       0.36842105       0.03703704       0.29411765 </v>
   <v>       0.42105263       0.03703704       0.29411765 </v>
   <v>       0.47368421       0.03703704       0.29411765 </v>
   <v>       0.00000000       0.07407407       0.29411765 </v>
   <v>       0.05263158       0.07407407       0.29411765 </v>
   <v>       0.10526316       0.07407407       0.29411765 </v>
   <v>       0.15789474       0.07407407       0.29411765 </v>
   <v>       0.21052632       0.07407407       0.29411765 </v>
   <v>       0.26315789       0.07407407       0.29411765 </v>
   <v>       0.31578947       0.07407407       0.29411765 </v>
   <v>       0.36842105       0.07407407       0.29411765 </v>
   <v>       0.42105263       0.07407407       0.29411765 </v>
   <v>       0.47368421       0.07407407       0.29411765 </v>
   <v>       0.00000000       0.11111111       0.29411765 </v>
   <v>       0.05263158       0.11111111       0.29411765 </v>
   <v>       0.10526316       0.11111111       0.29411765 </v>
   <v>       0.15789474       0.11111111       0.29411765 </v>
   <v>       0.21052632       0.11111111       0.29411765 </v>
   <v>       0.26315789       0.11111111       0.29411765 </v>
   <v>       0.31578947       0.11111111       0.29411765 </v>
   <v>       0.36842105       0.11111111       0.29411765 </v>
   <v>       0.42105263       0.11111111       0.29411765 </v>
   <v>       0.47368421       0.11111111       0.29411765 </v>
   <v>       0.00000000       0.14814815       0.29411765 </v>
   <v>       0.05263158       0.14814815       0.29411765 </v>
   <v>       0.10526316       0.14814815       0.29411765 </v>
   <v>       0.15789474       0.14814815       0.29411765 </v>
   <v>       0.21052632       0.14814815       0.29411765 </v>
   <v>       0.26315789       0.14814815       0.29411765 </v>
   <v>       0.31578947       0.14814815       0.29411765 </v>
   <v>       0.36842105       0.14814815       0.29411765 </v>
   <v>       0.42105263       0.14814815       0.29411765 </v>
   <v>       0.47368421       0.14814815       0.29411765 </v>
   <v>       0.00000000       0.18518519       0.29411765 </v>
   <v>       0.05263158       0.18518519       0.29411765 </v>
   <v>       0.10526316       0.18518519       0.29411765 </v>
   <v>       0.15789474       0.18518519       0.29411765 </v>
   <v>       0.21052632       0.18518519       0.29411765 </v>
   <v>       0.26315789       0.18518519       0.29411765 </v>
   <v>       0.31578947       0.18518519       0.29411765 </v>
   <v>       0.36842105       0.18518519       0.29411765 </v>
   <v>       0.42105263       0.18518519       0.29411765 </v>
   <v>       0.47368421       0.18518519       0.29411765 </v>
   <v>       0.00000000       0.22222222       0.29411765 </v>
   <v>       0.05263158       0.22222222       0.29411765 </v>
   <v>       0.10526316       0.22222222       0.29411765 </v>
   <v>       0.15789474       0.22222222       0.29411765 </v>
   <v>       0.21052632       0.22222222       0.29411765 </v>
   <v>       0.26315789       0.22222222       0.29411765 </v>
   <v>       0.31578947       0.22222222       0.29411765 </v>
   <v>       0.36842105       0.22222222       0.29411765 </v>
   <v>       0.42105263       0.22222222       0.29411765 </v>
   <v>       0.47368421       0.22222222       0.29411765 </v>
   <v>       0.00000000       0.25925926       0.29411765 </v>
   <v>       0.05263158       0.25925926       0.29411765 </v>
   <v>       0.10526316       0.25925926       0.29411765 </v>
   <v>       0.15789474       0.25925926       0.29411765 </v>
   <v>       0.21052632       0.25925926       0.29411765 </v>
   <v>       0.26315789       0.25925926       0.29411765 </v>
   <v>       0.31578947       0.25925926       0.29411765 </v>
   <v>       0.36842105       0.25925926       0.29411765 </v>
   <v>       0.42105263       0.25925926       0.29411765 </v>
   <v>       0.47368421       0.25925926       0.29411765 </v>
   <v>       0.00000000       0.29629630       0.29411765 </v>
   <v>       0.05263158       0.29629630       0.29411765 </v>
   <v>       0.10526316       0.29629630       0.29411765 </v>
   <v>       0.15789474       0.29629630       0.29411765 </v>
   <v>       0.21052632       0.29629630       0.29411765 </v>
   <v>       0.26315789       0.29629630       0.29411765 </v>
   <v>       0.31578947       0.29629630       0.29411765 </v>
   <v>       0.36842105       0.29629630       0.29411765 </v>
   <v>       0.42105263       0.29629630       0.29411765 </v>
   <v>       0.47368421       0.29629630       0.29411765 </v>
   <v>       0.00000000       0.33333333       0.29411765 </v>
   <v>       0.05263158       0.33333333       0.29411765 </v>
   <v>       0.10526316       0.33333333       0.29411765 </v>
   <v>       0.15789474       0.33333333       0.29411765 </v>
   <v>       0.21052632       0.33333333       0.29411765 </v>
   <v>       0.26315789       0.33333333       0.29411765 </v>
   <v>       0.31578947       0.33333333       0.29411765 </v>
   <v>       0.36842105       0.33333333       0.29411765 </v>
   <v>       0.42105263       0.33333333       0.29411765 </v>
   <v>       0.47368421       0.33333333       0.29411765 </v>
   <v>       0.00000000       0.37037037       0.29411765 </v>
   <v>       0.05263158       0.37037037       0.29411765 </v>
   <v>       0.10526316       0.37037037       0.29411765 </v>
   <v>       0.15789474       0.37037037       0.29411765 </v>
   <v>       0.21052632       0.37037037       0.29411765 </v>
   <v>       0.26315789       0.37037037       0.29411765 </v>
   <v>       0.31578947       0.37037037       0.29411765 </v>
   <v>       0.36842105       0.37037037       0.29411765 </v>
   <v>       0.42105263       0.37037037       0.29411765 </v>
   <v>       0.47368421       0.37037037       0.29411765 </v>
   <v>       0.00000000       0.40740741       0.29411765 </v>
   <v>       0.05263158       0.40740741       0.29411765 </v>
   <v>       0.10526316       0.40740741       0.29411765 </v>
   <v>       0.15789474       0.40740741       0.29411765 </v>
   <v>       0.21052632       0.40740741       0.29411765 </v>
   <v>       0.26315789       0.40740741       0.29411765 </v>
   <v>       0.31578947       0.40740741       0.29411765 </v>
   <v>       0.36842105       0.40740741       0.29411765 </v>
   <v>       0.42105263       0.40740741       0.29411765 </v>
   <v>       0.47368421       0.40740741       0.29411765 </v>
   <v>       0.00000000       0.44444444       0.29411765 </v>
   <v>       0.05263158       0.44444444       0.29411765 </v>
   <v>       0.10526316       0.44444444       0.29411765 </v>
   <v>       0.15789474       0.44444444       0.29411765 </v>
   <v>       0.21052632       0.44444444       0.29411765 </v>
   <v>       0.26315789       0.44444444       0.29411765 </v>
   <v>       0.31578947       0.44444444       0.29411765 </v>
   <v>       0.36842105       0.44444444       0.29411765 </v>
   <v>       0.42105263       0.44444444       0.29411765 </v>
   <v>       0.47368421       0.44444444       0.29411765 </v>
   <v>       0.00000000       0.48148148       0.29411765 </v>
   <v>       0.05263158       0.48148148       0.29411765 </v>
   <v>       0.10526316       0.48148148       0.29411765 </v>
   <v>       0.15789474       0.48148148       0.29411765 </v>
   <v>       0.21052632       0.48148148       0.29411765 </v>
   <v>       0.26315789       0.48148148       0.29411765 </v>
   <v>       0.31578947       0.48148148       0.29411765 </v>
   <v>       0.36842105       0.48148148       0.29411765 </v>
   <v>       0.42105263       0.48148148       0.29411765 </v>
   <v>       0.47368421       0.48148148       0.29411765 </v>
   <v>       0.00000000       0.00000000       0.35294118 </v>
   <v>       0.05263158       0.00000000       0.35294118 </v>
   <v>       0.10526316       0.00000000       0.35294118 </v>
   <v>       0.15789474       0.00000000       0.35294118 </v>
   <v>       0.21052632       0.00000000       0.35294118 </v>
   <v>       0.26315789       0.00000000       0.35294118 </v>
   <v>       0.31578947       0.00000000       0.35294118 </v>
   <v>       0.36842105       0.00000000       0.35294118 </v>
   <v>       0.42105263       0.00000000       0.35294118 </v>
   <v>       0.47368421       0.00000000       0.35294118 </v>
   <v>       0.00000000       0.03703704       0.35294118 </v>
   <v>       0.05263158       0.03703704       0.35294118 </v>
   <v>       0.10526316       0.03703704       0.35294118 </v>
   <v>       0.15789474       0.03703704       0.35294118 </v>
   <v>       0.21052632       0.03703704       0.35294118 </v>
   <v>       0.26315789       0.03703704       0.35294118 </v>
   <v>       0.31578947       0.03703704       0.35294118 </v>
   <v>       0.36842105       0.03703704       0.35294118 </v>
   <v>       0.42105263       0.03703704       0.35294118 </v>
   <v>       0.47368421       0.03703704       0.35294118 </v>
   <v>       0.00000000       0.07407407       0.35294118 </v>
   <v>       0.05263158       0.07407407       0.35294118 </v>
   <v>       0.10526316       0.07407407       0.35294118 </v>
   <v>       0.15789474       0.07407407       0.35294118 </v>
   <v>       0.21052632       0.07407407       0.35294118 </v>
   <v>       0.26315789       0.07407407       0.35294118 </v>
   <v>       0.31578947       0.07407407       0.35294118 </v>
   <v>       0.36842105       0.07407407       0.35294118 </v>
   <v>       0.42105263       0.07407407       0.35294118 </v>
   <v>       0.47368421       0.07407407       0.35294118 </v>
   <v>       0.00000000       0.11111111       0.35294118 </v>
   <v>       0.05263158       0.11111111       0.35294118 </v>
   <v>       0.10526316       0.11111111       0.35294118 </v>
   <v>       0.15789474       0.11111111       0.35294118 </v>
   <v>       0.21052632       0.11111111       0.35294118 </v>
   <v>       0.26315789       0.11111111       0.35294118 </v>
   <v>       0.31578947       0.11111111       0.35294118 </v>
   <v>       0.36842105       0.11111111       0.35294118 </v>
   <v>       0.42105263       0.11111111       0.35294118 </v>
   <v>       0.47368421       0.11111111       0.35294118 </v>
   <v>       0.00000000       0.14814815       0.35294118 </v>
   <v>       0.05263158       0.14814815       0.35294118 </v>
   <v>       0.10526316       0.14814815       0.35294118 </v>
   <v>       0.15789474       0.14814815       0.35294118 </v>
   <v>       0.21052632       0.14814815       0.35294118 </v>
   <v>       0.26315789       0.14814815       0.35294118 </v>
   <v>       0.31578947       0.14814815       0.35294118 </v>
   <v>       0.36842105       0.14814815       0.35294118 </v>
   <v>       0.42105263       0.14814815       0.35294118 </v>
   <v>       0.47368421       0.14814815       0.35294118 </v>
   <v>       0.00000000       0.18518519       0.35294118 </v>
   <v>       0.05263158       0.18518519       0.35294118 </v>
   <v>       0.10526316       0.18518519       0.35294118 </v>
   <v>       0.15789474       0.18518519       0.35294118 </v>
   <v>       0.21052632       0.18518519       0.35294118 </v>
   <v>       0.26315789       0.18518519       0.35294118 </v>
   <v>       0.31578947       0.18518519       0.35294118 </v>
   <v>       0.36842105       0.18518519       0.35294118 </v>
   <v>       0.42105263       0.18518519       0.35294118 </v>
   <v>       0.47368421       0.18518519       0.35294118 </v>
   <v>       0.00000000       0.22222222       0.35294118 </v>
   <v>       0.05263158       0.22222222       0.35294118 </v>
   <v>       0.10526316       0.22222222       0.35294118 </v>
   <v>       0.15789474       0.22222222       0.35294118 </v>
   <v>       0.21052632       0.22222222       0.35294118 </v>
   <v>       0.26315789       0.22222222       0.35294118 </v>
   <v>       0.31578947       0.22222222       0.35294118 </v>
   <v>       0.36842105       0.22222222       0.35294118 </v>
   <v>       0.42105263       0.22222222       0.35294118 </v>
   <v>       0.47368421       0.22222222       0.35294118 </v>
   <v>       0.00000000       0.25925926       0.35294118 </v>
   <v>       0.05263158       0.25925926       0.35294118 </v>
   <v>       0.10526316       0.25925926       0.35294118 </v>
   <v>       0.15789474       0.25925926       0.35294118 </v>
   <v>       0.21052632       0.25925926       0.35294118 </v>
   <v>       0.26315789       0.25925926       0.35294118 </v>
   <v>       0.31578947       0.25925926       0.35294118 </v>
   <v>       0.36842105       0.25925926       0.35294118 </v>
   <v>       0.42105263       0.25925926       0.35294118 </v>
   <v>       0.47368421       0.25925926       0.35294118 </v>
   <v>       0.00000000       0.29629630       0.35294118 </v>
   <v>       0.05263158       0.29629630       0.35294118 </v>
   <v>       0.10526316       0.29629630       0.35294118 </v>
   <v>       0.15789474       0.29629630       0.35294118 </v>
   <v>       0.21052632       0.29629630       0.35294118 </v>
   <v>       0.26315789       0.29629630       0.35294118 </v>
   <v>       0.31578947       0.29629630       0.35294118 </v>
   <v>       0.36842105       0.29629630       0.35294118 </v>
   <v>       0.42105263       0.29629630       0.35294118 </v>
   <v>       0.47368421       0.29629630       0.35294118 </v>
   <v>       0.00000000       0.33333333       0.35294118 </v>
   <v>       0.05263158       0.33333333       0.35294118 </v>
   <v>       0.10526316       0.33333333       0.35294118 </v>
   <v>       0.15789474       0.33333333       0.35294118 </v>
   <v>       0.21052632       0.33333333       0.35294118 </v>
   <v>       0.26315789       0.33333333       0.35294118 </v>
   <v>       0.31578947       0.33333333       0.35294118 </v>
   <v>       0.36842105       0.33333333       0.35294118 </v>
   <v>       0.42105263       0.33333333       0.35294118 </v>
   <v>       0.47368421       0.33333333       0.35294118 </v>
   <v>       0.00000000       0.37037037       0.35294118 </v>
   <v>       0.05263158       0.37037037       0.35294118 </v>
   <v>       0.10526316       0.37037037       0.35294118 </v>
   <v>       0.15789474       0.37037037       0.35294118 </v>
   <v>       0.21052632       0.37037037       0.35294118 </v>
   <v>       0.26315789       0.37037037       0.35294118 </v>
   <v>       0.31578947       0.37037037       0.35294118 </v>
   <v>       0.36842105       0.37037037       0.35294118 </v>
   <v>       0.42105263       0.37037037       0.35294118 </v>
   <v>       0.47368421       0.37037037       0.35294118 </v>
   <v>       0.00000000       0.40740741       0.35294118 </v>
   <v>       0.05263158       0.40740741       0.35294118 </v>
   <v>       0.10526316       0.40740741       0.35294118 </v>
   <v>       0.15789474       0.40740741       0.35294118 </v>
   <v>       0.21052632       0.40740741       0.35294118 </v>
   <v>       0.26315789       0.40740741       0.35294118 </v>
   <v>       0.31578947       0.40740741       0.35294118 </v>
   <v>       0.36842105       0.40740741       0.35294118 </v>
   <v>       0.42105263       0.40740741       0.35294118 </v>
   <v>       0.47368421       0.40740741       0.35294118 </v>
   <v>       0.00000000       0.44444444       0.35294118 </v>
   <v>       0.05263158       0.44444444       0.35294118 </v>
   <v>       0.10526316       0.44444444       0.35294118 </v>
   <v>       0.15789474       0.44444444       0.35294118 </v>
   <v>       0.21052632       0.44444444       0.35294118 </v>
   <v>       0.26315789       0.44444444       0.35294118 </v>
   <v>       0.31578947       0.44444444       0.35294118 </v>
   <v>       0.36842105       0.44444444       0.35294118 </v>
   <v>       0.42105263       0.44444444       0.35294118 </v>
   <v>       0.47368421       0.44444444       0.35294118 </v>
   <v>       0.00000000       0.48148148       0.35294118 </v>
   <v>       0.05263158       0.48148148       0.35294118 </v>
   <v>       0.10526316       0.48148148       0.35294118 </v>
   <v>       0.15789474       0.48148148       0.35294118 </v>
   <v>       0.21052632       0.48148148       0.35294118 </v>
   <v>       0.26315789       0.48148148       0.35294118 </v>
   <v>       0.31578947       0.48148148       0.35294118 </v>
   <v>       0.36842105       0.48148148       0.35294118 </v>
   <v>       0.42105263       0.48148148       0.35294118 </v>
   <v>       0.47368421       0.48148148       0.35294118 </v>
   <v>       0.00000000       0.00000000       0.41176471 </v>
   <v>       0.05263158       0.00000000       0.41176471 </v>
   <v>       0.10526316       0.00000000       0.41176471 </v>
   <v>       0.15789474       0.00000000       0.41176471 </v>
   <v>       0.21052632       0.00000000       0.41176471 </v>
   <v>       0.26315789       0.00000000       0.41176471 </v>
   <v>       0.31578947       0.00000000       0.41176471 </v>
   <v>       0.36842105       0.00000000       0.41176471 </v>
   <v>       0.42105263       0.00000000       0.41176471 </v>
   <v>       0.47368421       0.00000000       0.41176471 </v>
   <v>       0.00000000       0.03703704       0.41176471 </v>
   <v>       0.05263158       0.03703704       0.41176471 </v>
   <v>       0.10526316       0.03703704       0.41176471 </v>
   <v>       0.15789474       0.03703704       0.41176471 </v>
   <v>       0.21052632       0.03703704       0.41176471 </v>
   <v>       0.26315789       0.03703704       0.41176471 </v>
   <v>       0.31578947       0.03703704       0.41176471 </v>
   <v>       0.36842105       0.03703704       0.41176471 </v>
   <v>       0.42105263       0.03703704       0.41176471 </v>
   <v>       0.47368421       0.03703704       0.41176471 </v>
   <v>       0.00000000       0.07407407       0.41176471 </v>
   <v>       0.05263158       0.07407407       0.41176471 </v>
   <v>       0.10526316       0.07407407       0.41176471 </v>
   <v>       0.15789474       0.07407407       0.41176471 </v>
   <v>       0.21052632       0.07407407       0.41176471 </v>
   <v>       0.26315789       0.07407407       0.41176471 </v>
   <v>       0.31578947       0.07407407       0.41176471 </v>
   <v>       0.36842105       0.07407407       0.41176471 </v>
   <v>       0.42105263       0.07407407       0.41176471 </v>
   <v>       0.47368421       0.07407407       0.41176471 </v>
   <v>       0.00000000       0.11111111       0.41176471 </v>
   <v>       0.05263158       0.11111111       0.41176471 </v>
   <v>       0.10526316       0.11111111       0.41176471 </v>
   <v>       0.15789474       0.11111111       0.41176471 </v>
   <v>       0.21052632       0.11111111       0.41176471 </v>
   <v>       0.26315789       0.11111111       0.41176471 </v>
   <v>       0.31578947       0.11111111       0.41176471 </v>
   <v>       0.36842105       0.11111111       0.41176471 </v>
   <v>       0.42105263       0.11111111       0.41176471 </v>
   <v>       0.47368421       0.11111111       0.41176471 </v>
   <v>       0.00000000       0.14814815       0.41176471 </v>
   <v>       0.05263158       0.14814815       0.41176471 </v>
   <v>       0.10526316       0.14814815       0.41176471 </v>
   <v>       0.15789474       0.14814815       0.41176471 </v>
   <v>       0.21052632       0.14814815       0.41176471 </v>
   <v>       0.26315789       0.14814815       0.41176471 </v>
   <v>       0.31578947       0.14814815       0.41176471 </v>
   <v>       0.36842105       0.14814815       0.41176471 </v>
   <v>       0.42105263       0.14814815       0.41176471 </v>
   <v>       0.47368421       0.14814815       0.41176471 </v>
   <v>       0.00000000       0.18518519       0.41176471 </v>
   <v>       0.05263158       0.18518519       0.41176471 </v>
   <v>       0.10526316       0.18518519       0.41176471 </v>
   <v>       0.15789474       0.18518519       0.41176471 </v>
   <v>       0.21052632       0.18518519       0.41176471 </v>
   <v>       0.26315789       0.18518519       0.41176471 </v>
   <v>       0.31578947       0.18518519       0.41176471 </v>
   <v>       0.36842105       0.18518519       0.41176471 </v>
   <v>       0.42105263       0.18518519       0.41176471 </v>
   <v>       0.47368421       0.18518519       0.41176471 </v>
   <v>       0.00000000       0.22222222       0.41176471 </v>
   <v>       0.05263158       0.22222222       0.41176471 </v>
   <v>       0.10526316       0.22222222       0.41176471 </v>
   <v>       0.15789474       0.22222222       0.41176471 </v>
   <v>       0.21052632       0.22222222       0.41176471 </v>
   <v>       0.26315789       0.22222222       0.41176471 </v>
   <v>       0.31578947       0.22222222       0.41176471 </v>
   <v>       0.36842105       0.22222222       0.41176471 </v>
   <v>       0.42105263       0.22222222       0.41176471 </v>
   <v>       0.47368421       0.22222222       0.41176471 </v>
   <v>       0.00000000       0.25925926       0.41176471 </v>
   <v>       0.05263158       0.25925926       0.41176471 </v>
   <v>       0.10526316       0.25925926       0.41176471 </v>
   <v>       0.15789474       0.25925926       0.41176471 </v>
   <v>       0.21052632       0.25925926       0.41176471 </v>
   <v>       0.26315789       0.25925926       0.41176471 </v>
   <v>       0.31578947       0.25925926       0.41176471 </v>
   <v>       0.36842105       0.25925926       0.41176471 </v>
   <v>       0.42105263       0.25925926       0.41176471 </v>
   <v>       0.47368421       0.25925926       0.41176471 </v>
   <v>       0.00000000       0.29629630       0.41176471 </v>
   <v>       0.05263158       0.29629630       0.41176471 </v>
   <v>       0.10526316       0.29629630       0.41176471 </v>
   <v>       0.15789474       0.29629630       0.41176471 </v>
   <v>       0.21052632       0.29629630       0.41176471 </v>
   <v>       0.26315789       0.29629630       0.41176471 </v>
   <v>       0.31578947       0.29629630       0.41176471 </v>
   <v>       0.36842105       0.29629630       0.41176471 </v>
   <v>       0.42105263       0.29629630       0.41176471 </v>
   <v>       0.47368421       0.29629630       0.41176471 </v>
   <v>       0.00000000       0.33333333       0.41176471 </v>
   <v>       0.05263158       0.33333333       0.41176471 </v>
   <v>       0.10526316       0.33333333       0.41176471 </v>
   <v>       0.15789474       0.33333333       0.41176471 </v>
   <v>       0.21052632       0.33333333       0.41176471 </v>
   <v>       0.26315789       0.33333333       0.41176471 </v>
   <v>       0.31578947       0.33333333       0.41176471 </v>
   <v>       0.36842105       0.33333333       0.41176471 </v>
   <v>       0.42105263       0.33333333       0.41176471 </v>
   <v>       0.47368421       0.33333333       0.41176471 </v>
   <v>       0.00000000       0.37037037       0.41176471 </v>
   <v>       0.05263158       0.37037037       0.41176471 </v>
   <v>       0.10526316       0.37037037       0.41176471 </v>
   <v>       0.15789474       0.37037037       0.41176471 </v>
   <v>       0.21052632       0.37037037       0.41176471 </v>
   <v>       0.26315789       0.37037037       0.41176471 </v>
   <v>       0.31578947       0.37037037       0.41176471 </v>
   <v>       0.36842105       0.37037037       0.41176471 </v>
   <v>       0.42105263       0.37037037       0.41176471 </v>
   <v>       0.47368421       0.37037037       0.41176471 </v>
   <v>       0.00000000       0.40740741       0.41176471 </v>
   <v>       0.05263158       0.40740741       0.41176471 </v>
   <v>       0.10526316       0.40740741       0.41176471 </v>
   <v>       0.15789474       0.40740741       0.41176471 </v>
   <v>       0.21052632       0.40740741       0.41176471 </v>
   <v>       0.26315789       0.40740741       0.41176471 </v>
   <v>       0.31578947       0.40740741       0.41176471 </v>
   <v>       0.36842105       0.40740741       0.41176471 </v>
   <v>       0.42105263       0.40740741       0.41176471 </v>
   <v>       0.47368421       0.40740741       0.41176471 </v>
   <v>       0.00000000       0.44444444       0.41176471 </v>
   <v>       0.05263158       0.44444444       0.41176471 </v>
   <v>       0.10526316       0.44444444       0.41176471 </v>
   <v>       0.15789474       0.44444444       0.41176471 </v>
   <v>       0.21052632       0.44444444       0.41176471 </v>
   <v>       0.26315789       0.44444444       0.41176471 </v>
   <v>       0.31578947       0.44444444       0.41176471 </v>
   <v>       0.36842105       0.44444444       0.41176471 </v>
   <v>       0.42105263       0.44444444       0.41176471 </v>
   <v>       0.47368421       0.44444444       0.41176471 </v>
   <v>       0.00000000       0.48148148       0.41176471 </v>
   <v>       0.05263158       0.48148148       0.41176471 </v>
   <v>       0.10526316       0.48148148       0.41176471 </v>
   <v>       0.15789474       0.48148148       0.41176471 </v>
   <v>       0.21052632       0.48148148       0.41176471 </v>
   <v>       0.26315789       0.48148148       0.41176471 </v>
   <v>       0.31578947       0.48148148       0.41176471 </v>
   <v>       0.36842105       0.48148148       0.41176471 </v>
   <v>       0.42105263       0.48148148       0.41176471 </v>
   <v>       0.47368421       0.48148148       0.41176471 </v>
   <v>       0.00000000       0.00000000       0.47058824 </v>
   <v>       0.05263158       0.00000000       0.47058824 </v>
   <v>       0.10526316       0.00000000       0.47058824 </v>
   <v>       0.15789474       0.00000000       0.47058824 </v>
   <v>       0.21052632       0.00000000       0.47058824 </v>
   <v>       0.26315789       0.00000000       0.47058824 </v>
   <v>       0.31578947       0.00000000       0.47058824 </v>
   <v>       0.36842105       0.00000000       0.47058824 </v>
   <v>       0.42105263       0.00000000       0.47058824 </v>
   <v>       0.47368421       0.00000000       0.47058824 </v>
   <v>       0.00000000       0.03703704       0.47058824 </v>
   <v>       0.05263158       0.03703704       0.47058824 </v>
   <v>       0.10526316       0.03703704       0.47058824 </v>
   <v>       0.15789474       0.03703704       0.47058824 </v>
   <v>       0.21052632       0.03703704       0.47058824 </v>
   <v>       0.26315789       0.03703704       0.47058824 </v>
   <v>       0.31578947       0.03703704       0.47058824 </v>
   <v>       0.36842105       0.03703704       0.47058824 </v>
   <v>       0.42105263       0.03703704       0.47058824 </v>
   <v>       0.47368421       0.03703704       0.47058824 </v>
   <v>       0.00000000       0.07407407       0.47058824 </v>
   <v>       0.05263158       0.07407407       0.47058824 </v>
   <v>       0.10526316       0.07407407       0.47058824 </v>
   <v>       0.15789474       0.07407407       0.47058824 </v>
   <v>       0.21052632       0.07407407       0.47058824 </v>
   <v>       0.26315789       0.07407407       0.47058824 </v>
   <v>       0.31578947       0.07407407       0.47058824 </v>
   <v>       0.36842105       0.07407407       0.47058824 </v>
   <v>       0.42105263       0.07407407       0.47058824 </v>
   <v>       0.47368421       0.07407407       0.47058824 </v>
   <v>       0.00000000       0.11111111       0.47058824 </v>
   <v>       0.05263158       0.11111111       0.47058824 </v>
   <v>       0.10526316       0.11111111       0.47058824 </v>
   <v>       0.15789474       0.11111111       0.47058824 </v>
   <v>       0.21052632       0.11111111       0.47058824 </v>
   <v>       0.26315789       0.11111111       0.47058824 </v>
   <v>       0.31578947       0.11111111       0.47058824 </v>
   <v>       0.36842105       0.11111111       0.47058824 </v>
   <v>       0.42105263       0.11111111       0.47058824 </v>
   <v>       0.47368421       0.11111111       0.47058824 </v>
   <v>       0.00000000       0.14814815       0.47058824 </v>
   <v>       0.05263158       0.14814815       0.47058824 </v>
   <v>       0.10526316       0.14814815       0.47058824 </v>
   <v>       0.15789474       0.14814815       0.47058824 </v>
   <v>       0.21052632       0.14814815       0.47058824 </v>
   <v>       0.26315789       0.14814815       0.47058824 </v>
   <v>       0.31578947       0.14814815       0.47058824 </v>
   <v>       0.36842105       0.14814815       0.47058824 </v>
   <v>       0.42105263       0.14814815       0.47058824 </v>
   <v>       0.47368421       0.14814815       0.47058824 </v>
   <v>       0.00000000       0.18518519       0.47058824 </v>
   <v>       0.05263158       0.18518519       0.47058824 </v>
   <v>       0.10526316       0.18518519       0.47058824 </v>
   <v>       0.15789474       0.18518519       0.47058824 </v>
   <v>       0.21052632       0.18518519       0.47058824 </v>
   <v>       0.26315789       0.18518519       0.47058824 </v>
   <v>       0.31578947       0.18518519       0.47058824 </v>
   <v>       0.36842105       0.18518519       0.47058824 </v>
   <v>       0.42105263       0.18518519       0.47058824 </v>
   <v>       0.47368421       0.18518519       0.47058824 </v>
   <v>       0.00000000       0.22222222       0.47058824 </v>
   <v>       0.05263158       0.22222222       0.47058824 </v>
   <v>       0.10526316       0.22222222       0.47058824 </v>
   <v>       0.15789474       0.22222222       0.47058824 </v>
   <v>       0.21052632       0.22222222       0.47058824 </v>
   <v>       0.26315789       0.22222222       0.47058824 </v>
   <v>       0.31578947       0.22222222       0.47058824 </v>
   <v>       0.36842105       0.22222222       0.47058824 </v>
   <v>       0.42105263       0.22222222       0.47058824 </v>
   <v>       0.47368421       0.22222222       0.47058824 </v>
   <v>       0.00000000       0.25925926       0.47058824 </v>
   <v>       0.05263158       0.25925926       0.47058824 </v>
   <v>       0.10526316       0.25925926       0.47058824 </v>
   <v>       0.15789474       0.25925926       0.47058824 </v>
   <v>       0.21052632       0.25925926       0.47058824 </v>
   <v>       0.26315789       0.25925926       0.47058824 </v>
   <v>       0.31578947       0.25925926       0.47058824 </v>
   <v>       0.36842105       0.25925926       0.47058824 </v>
   <v>       0.42105263       0.25925926       0.47058824 </v>
   <v>       0.47368421       0.25925926       0.47058824 </v>
   <v>       0.00000000       0.29629630       0.47058824 </v>
   <v>       0.05263158       0.29629630       0.47058824 </v>
   <v>       0.10526316       0.29629630       0.47058824 </v>
   <v>       0.15789474       0.29629630       0.47058824 </v>
   <v>       0.21052632       0.29629630       0.47058824 </v>
   <v>       0.26315789       0.29629630       0.47058824 </v>
   <v>       0.31578947       0.29629630       0.47058824 </v>
   <v>       0.36842105       0.29629630       0.47058824 </v>
[...]
       <r>   -2.2128    1.0000 </r>
       <r>   -2.1296    1.0000 </r>
       <r>   -2.1293    1.0000 </r>
       <r>   -1.6890    1.0000 </r>
       <r>   -0.3800    1.0000 </r>
       <r>   -0.0181    1.0000 </r>
       <r>    0.3596    1.0000 </r>
       <r>    0.4437    1.0000 </r>
       <r>    0.5364    1.0000 </r>
       <r>    1.0534    1.0000 </r>
       <r>    1.6410    1.0000 </r>
       <r>    1.7769    0.9978 </r>
       <r>    5.7671    0.0000 </r>
       <r>    6.0830    0.0000 </r>
       <r>    6.7411    0.0000 </r>
       <r>    7.3906    0.0000 </r>
       <r>    7.5920    0.0000 </r>
       <r>    7.6932    0.0000 </r>
       <r>    9.3178    0.0000 </r>
       <r>    9.6183    0.0000 </r>
       <r>    9.7378    0.0000 </r>
       <r>    9.9367    0.0000 </r>
       <r>   10.5004    0.0000 </r>
       <r>   10.9299    0.0000 </r>
       <r>   11.1449    0.0000 </r>
       <r>   11.4610    0.0000 </r>
       <r>   11.5260    0.0000 </r>
       <r>   11.6437    0.0000 </r>
       <r>   13.0235    0.0000 </r>
       <r>   13.2187    0.0000 </r>
       <r>   13.6006    0.0000 </r>
       <r>   14.1041    0.0000 </r>
       <r>   14.2228    0.0000 </r>
       <r>   14.3795    0.0000 </r>
       <r>   14.4604    0.0000 </r>
       <r>   14.8110    0.0000 </r>
       <r>   15.0229    0.0000 </r>
       <r>   15.1384    0.0000 </r>
      </set>
      <set comment="kpoint 1260">
       <r>  -11.9847    1.0000 </r>
       <r>  -11.9117    1.0000 </r>
       <r>   -8.5271    1.0000 </r>
       <r>   -8.4679    1.0000 </r>
       <r>   -5.9149    1.0000 </r>
       <r>   -5.8602    1.0000 </r>
       <r>   -4.6963    1.0000 </r>
       <r>   -4.5486    1.0000 </r>
       <r>   -4.4027    1.0000 </r>
       <r>   -4.1847    1.0000 </r>
       <r>   -2.2136    1.0000 </r>
       <r>   -2.1853    1.0000 </r>
       <r>   -1.9912    1.0000 </r>
       <r>   -1.8426    1.0000 </r>
       <r>   -0.1224    1.0000 </r>
       <r>    0.0083    1.0000 </r>
       <r>    0.4350    1.0000 </r>
       <r>    0.4648    1.0000 </r>
       <r>    0.5805    1.0000 </r>
       <r>    0.7433    1.0000 </r>
       <r>    1.6633    1.0000 </r>
       <r>    1.7107    1.0000 </r>
       <r>    5.9032    0.0000 </r>
       <r>    6.0012    0.0000 </r>
       <r>    6.9786    0.0000 </r>
       <r>    7.3075    0.0000 </r>
       <r>    7.4539    0.0000 </r>
       <r>    7.5160    0.0000 </r>
       <r>    9.5040    0.0000 </r>
       <r>    9.6405    0.0000 </r>
       <r>    9.8767    0.0000 </r>
       <r>    9.9668    0.0000 </r>
       <r>   10.4934    0.0000 </r>
       <r>   10.6801    0.0000 </r>
       <r>   11.2843    0.0000 </r>
       <r>   11.4497    0.0000 </r>
       <r>   11.4832    0.0000 </r>
       <r>   11.5126    0.0000 </r>
       <r>   13.1276    0.0000 </r>
       <r>   13.1784    0.0000 </r>
       <r>   13.9069    0.0000 </r>
       <r>   14.1688    0.0000 </r>
       <r>   14.2454    0.0000 </r>
       <r>   14.2918    0.0000 </r>
       <r>   14.6835    0.0000 </r>
       <r>   14.7642    0.0000 </r>
       <r>   14.8292    0.0000 </r>
       <r>   14.9490    0.0000 </r>
      </set>
     </set>
    </set>
   </array>
  </eigenvalues>
  <separator name="orbital magnetization" >
   <v name="MAGDIPOLOUT">      0.00000000      0.00000000      0.00000000</v>
  </separator>
  <dos>
   <i name="efermi">      1.87784372 </i>
   <total>
    <array>
     <dimension dim="1">gridpoints</dimension>
     <dimension dim="2">spin</dimension>
     <field>energy</field>
     <field>total</field>
     <field>integrated</field>
     <set>
      <set comment="spin 1">
       <r>   -14.1998     0.0000     0.0000 </r>
       <r>   -14.0922     0.0000     0.0000 </r>
       <r>   -13.9847     0.0000     0.0000 </r>
       <r>   -13.8771     0.0000     0.0000 </r>
       <r>   -13.7696     0.0000     0.0000 </r>
       <r>   -13.6620     0.0000     0.0000 </r>
       <r>   -13.5545     0.0000     0.0000 </r>
       <r>   -13.4469     0.0000     0.0000 </r>
       <r>   -13.3394     0.0000     0.0000 </r>
       <r>   -13.2318     0.0000     0.0000 </r>
       <r>   -13.1243     0.0000     0.0000 </r>
       <r>   -13.0167     0.0000     0.0000 </r>
       <r>   -12.9092     0.0000     0.0000 </r>
       <r>   -12.8016     0.0019     0.0002 </r>
       <r>   -12.6941     0.4068     0.0440 </r>
       <r>   -12.5865     2.2503     0.2860 </r>
       <r>   -12.4790     3.5092     0.6634 </r>
       <r>   -12.3714     4.3409     1.1303 </r>
       <r>   -12.2639     3.5750     1.5147 </r>
       <r>   -12.1563     2.8738     1.8238 </r>
       <r>   -12.0488     2.6347     2.1072 </r>
       <r>   -11.9412     2.5883     2.3855 </r>
       <r>   -11.8337     2.7440     2.6806 </r>
       <r>   -11.7262     3.3240     3.0381 </r>
       <r>   -11.6186     3.6211     3.4276 </r>
       <r>   -11.5111     3.1253     3.7637 </r>
       <r>   -11.4035     1.7277     3.9495 </r>
       <r>   -11.2960     0.4602     3.9990 </r>
       <r>   -11.1884     0.0091     4.0000 </r>
       <r>   -11.0809     0.0000     4.0000 </r>
       <r>   -10.9733     0.0000     4.0000 </r>
       <r>   -10.8658     0.0000     4.0000 </r>
       <r>   -10.7582     0.0000     4.0000 </r>
       <r>   -10.6507     0.0000     4.0000 </r>
       <r>   -10.5431     0.0000     4.0000 </r>
       <r>   -10.4356     0.0000     4.0000 </r>
       <r>   -10.3280     0.0000     4.0000 </r>
       <r>   -10.2205     0.0000     4.0000 </r>
       <r>   -10.1129     0.0000     4.0000 </r>
       <r>   -10.0054     0.0000     4.0000 </r>
       <r>    -9.8978     0.0000     4.0000 </r>
       <r>    -9.7903     0.0000     4.0000 </r>
       <r>    -9.6827     0.0000     4.0000 </r>
       <r>    -9.5752     0.0000     4.0000 </r>
       <r>    -9.4676     0.0000     4.0000 </r>
       <r>    -9.3601     0.0000     4.0000 </r>
       <r>    -9.2525     0.0000     4.0000 </r>
       <r>    -9.1450     0.0000     4.0000 </r>
       <r>    -9.0374     0.0000     4.0000 </r>
       <r>    -8.9299     0.0007     4.0001 </r>
       <r>    -8.8223     0.3059     4.0330 </r>
       <r>    -8.7148     2.1775     4.2672 </r>
       <r>    -8.6072     5.4340     4.8516 </r>
       <r>    -8.4997     7.0082     5.6053 </r>
       <r>    -8.3921     6.2158     6.2738 </r>
       <r>    -8.2846     5.2969     6.8435 </r>
       <r>    -8.1770     4.8665     7.3669 </r>
       <r>    -8.0695     3.7114     7.7660 </r>
       <r>    -7.9619     1.6037     7.9385 </r>
       <r>    -7.8544     0.5333     7.9959 </r>
       <r>    -7.7468     0.0385     8.0000 </r>
       <r>    -7.6393     0.0000     8.0000 </r>
       <r>    -7.5317     0.0000     8.0000 </r>
       <r>    -7.4242     0.0000     8.0000 </r>
       <r>    -7.3166     0.0000     8.0000 </r>
       <r>    -7.2091     0.0000     8.0000 </r>
       <r>    -7.1015     0.0000     8.0000 </r>
       <r>    -6.9940     0.0043     8.0005 </r>
       <r>    -6.8864     0.1139     8.0127 </r>
       <r>    -6.7789     0.2898     8.0439 </r>
       <r>    -6.6713     0.4676     8.0942 </r>
       <r>    -6.5638     0.7279     8.1725 </r>
       <r>    -6.4562     0.9148     8.2708 </r>
       <r>    -6.3487     1.5043     8.4326 </r>
       <r>    -6.2411     2.1300     8.6617 </r>
       <r>    -6.1336     3.0723     8.9921 </r>
       <r>    -6.0260     3.9607     9.4181 </r>
       <r>    -5.9185     3.9693     9.8450 </r>
       <r>    -5.8109     4.0462    10.2802 </r>
       <r>    -5.7034     4.0737    10.7183 </r>
       <r>    -5.5959     4.0812    11.1572 </r>
       <r>    -5.4883     4.0678    11.5947 </r>
       <r>    -5.3808     4.5167    12.0805 </r>
       <r>    -5.2732     4.7679    12.5933 </r>
       <r>    -5.1657     4.3529    13.0614 </r>
       <r>    -5.0581     3.8726    13.4779 </r>
       <r>    -4.9506     3.3350    13.8366 </r>
       <r>    -4.8430     2.3771    14.0922 </r>
       <r>    -4.7355     2.4943    14.3605 </r>
       <r>    -4.6279     2.9845    14.6815 </r>
       <r>    -4.5204     3.7147    15.0810 </r>
       <r>    -4.4128     3.3154    15.4376 </r>
       <r>    -4.3053     3.1859    15.7802 </r>
       <r>    -4.1977     2.9064    16.0928 </r>
       <r>    -4.0902     2.8439    16.3986 </r>
       <r>    -3.9826     3.0346    16.7250 </r>
       <r>    -3.8751     3.0373    17.0517 </r>
       <r>    -3.7675     2.8461    17.3578 </r>
       <r>    -3.6600     3.0595    17.6868 </r>
       <r>    -3.5524     2.7439    17.9819 </r>
       <r>    -3.4449     2.7387    18.2765 </r>
       <r>    -3.3373     2.8870    18.5870 </r>
       <r>    -3.2298     2.6578    18.8728 </r>
       <r>    -3.1222     2.8025    19.1742 </r>
       <r>    -3.0147     2.9538    19.4919 </r>
       <r>    -2.9071     3.0682    19.8219 </r>
       <r>    -2.7996     2.7297    20.1154 </r>
       <r>    -2.6920     2.4460    20.3785 </r>
       <r>    -2.5845     2.6195    20.6602 </r>
       <r>    -2.4769     3.0124    20.9842 </r>
       <r>    -2.3694     3.2413    21.3328 </r>
       <r>    -2.2618     3.8255    21.7442 </r>
       <r>    -2.1543     3.2588    22.0947 </r>
       <r>    -2.0467     3.4674    22.4676 </r>
       <r>    -1.9392     4.2326    22.9228 </r>
       <r>    -1.8316     4.8085    23.4400 </r>
       <r>    -1.7241     5.7101    24.0541 </r>
       <r>    -1.6165     5.9125    24.6900 </r>
       <r>    -1.5090     6.0061    25.3359 </r>
       <r>    -1.4014     6.0291    25.9844 </r>
       <r>    -1.2939     5.7859    26.6066 </r>
       <r>    -1.1863     4.9976    27.1441 </r>
       <r>    -1.0788     5.1912    27.7024 </r>
       <r>    -0.9712     3.8213    28.1134 </r>
       <r>    -0.8637     2.6952    28.4033 </r>
       <r>    -0.7561     2.1580    28.6354 </r>
       <r>    -0.6486     3.7784    29.0417 </r>
       <r>    -0.5410     5.3125    29.6131 </r>
       <r>    -0.4335     5.9016    30.2478 </r>
       <r>    -0.3259     6.4589    30.9424 </r>
       <r>    -0.2184     6.1854    31.6077 </r>
       <r>    -0.1108     6.8893    32.3486 </r>
       <r>    -0.0033     6.9154    33.0924 </r>
       <r>     0.1043     6.2645    33.7661 </r>
       <r>     0.2118     6.8851    34.5066 </r>
       <r>     0.3194     8.6795    35.4401 </r>
       <r>     0.4269     8.5455    36.3591 </r>
       <r>     0.5345     7.9642    37.2157 </r>
       <r>     0.6420     4.1740    37.6646 </r>
       <r>     0.7495     2.8595    37.9721 </r>
       <r>     0.8571     3.2225    38.3187 </r>
       <r>     0.9646     3.3169    38.6754 </r>
       <r>     1.0722     3.3686    39.0377 </r>
       <r>     1.1797     4.0345    39.4716 </r>
       <r>     1.2873     3.4119    39.8386 </r>
       <r>     1.3948     3.7591    40.2428 </r>
       <r>     1.5024     4.1147    40.6854 </r>
       <r>     1.6099     3.8776    41.1024 </r>
       <r>     1.7175     3.4601    41.4745 </r>
       <r>     1.8250     3.4056    41.8408 </r>
       <r>     1.9326     2.9076    42.1535 </r>
       <r>     2.0401     2.4478    42.4168 </r>
       <r>     2.1477     2.5876    42.6951 </r>
       <r>     2.2552     2.4161    42.9549 </r>
       <r>     2.3628     1.8845    43.1576 </r>
       <r>     2.4703     1.1259    43.2787 </r>
       <r>     2.5779     0.9341    43.3791 </r>
       <r>     2.6854     0.8090    43.4661 </r>
       <r>     2.7930     0.6003    43.5307 </r>
       <r>     2.9005     0.4480    43.5789 </r>
       <r>     3.0081     0.5750    43.6407 </r>
       <r>     3.1156     0.5567    43.7006 </r>
       <r>     3.2232     0.4395    43.7479 </r>
       <r>     3.3307     0.3557    43.7861 </r>
       <r>     3.4383     0.3934    43.8284 </r>
       <r>     3.5458     0.4415    43.8759 </r>
       <r>     3.6534     0.2751    43.9055 </r>
       <r>     3.7609     0.2793    43.9355 </r>
       <r>     3.8685     0.3209    43.9701 </r>
       <r>     3.9760     0.2057    43.9922 </r>
       <r>     4.0836     0.0701    43.9997 </r>
       <r>     4.1911     0.0041    44.0002 </r>
       <r>     4.2987     0.0926    44.0101 </r>
       <r>     4.4062     0.2718    44.0394 </r>
       <r>     4.5138     0.3988    44.0822 </r>
       <r>     4.6213     0.5815    44.1448 </r>
       <r>     4.7289     0.7427    44.2247 </r>
       <r>     4.8364     0.8449    44.3155 </r>
       <r>     4.9440     0.8992    44.4122 </r>
       <r>     5.0515     1.0137    44.5213 </r>
       <r>     5.1591     1.1836    44.6486 </r>
       <r>     5.2666     1.4413    44.8036 </r>
       <r>     5.3742     1.8141    44.9987 </r>
       <r>     5.4817     2.2584    45.2416 </r>
       <r>     5.5893     2.6946    45.5314 </r>
       <r>     5.6968     2.9819    45.8521 </r>
       <r>     5.8044     3.4560    46.2238 </r>
       <r>     5.9119     3.7984    46.6323 </r>
       <r>     6.0195     4.2144    47.0855 </r>
       <r>     6.1270     4.6665    47.5874 </r>
       <r>     6.2346     4.4262    48.0634 </r>
       <r>     6.3421     4.1371    48.5084 </r>
       <r>     6.4497     4.2408    48.9645 </r>
       <r>     6.5572     4.3248    49.4296 </r>
       <r>     6.6648     3.8251    49.8410 </r>
       <r>     6.7723     3.5006    50.2175 </r>
       <r>     6.8798     4.2281    50.6722 </r>
       <r>     6.9874     4.4370    51.1494 </r>
       <r>     7.0949     4.9726    51.6842 </r>
       <r>     7.2025     5.0732    52.2298 </r>
       <r>     7.3100     4.9592    52.7632 </r>
       <r>     7.4176     4.4416    53.2409 </r>
       <r>     7.5251     4.4834    53.7231 </r>
       <r>     7.6327     3.9517    54.1480 </r>
       <r>     7.7402     3.2196    54.4943 </r>
       <r>     7.8478     3.1406    54.8321 </r>
       <r>     7.9553     3.2747    55.1843 </r>
       <r>     8.0629     3.3360    55.5431 </r>
       <r>     8.1704     3.6499    55.9356 </r>
       <r>     8.2780     4.1119    56.3778 </r>
       <r>     8.3855     3.9970    56.8077 </r>
       <r>     8.4931     4.0295    57.2411 </r>
       <r>     8.6006     4.1061    57.6827 </r>
       <r>     8.7082     4.4679    58.1632 </r>
       <r>     8.8157     4.9246    58.6929 </r>
       <r>     8.9233     5.2413    59.2565 </r>
       <r>     9.0308     4.9257    59.7863 </r>
       <r>     9.1384     5.1279    60.3378 </r>
       <r>     9.2459     5.2034    60.8974 </r>
       <r>     9.3535     4.7327    61.4064 </r>
       <r>     9.4610     4.9003    61.9335 </r>
       <r>     9.5686     4.3810    62.4046 </r>
       <r>     9.6761     4.9665    62.9388 </r>
       <r>     9.7837     5.1736    63.4952 </r>
       <r>     9.8912     5.0124    64.0343 </r>
       <r>     9.9988     4.8430    64.5551 </r>
       <r>    10.1063     3.7835    64.9620 </r>
       <r>    10.2139     4.2940    65.4239 </r>
       <r>    10.3214     4.4404    65.9014 </r>
       <r>    10.4290     5.4908    66.4920 </r>
       <r>    10.5365     5.4563    67.0788 </r>
       <r>    10.6441     4.7540    67.5901 </r>
       <r>    10.7516     4.1352    68.0348 </r>
       <r>    10.8592     3.8020    68.4437 </r>
       <r>    10.9667     3.6666    68.8380 </r>
       <r>    11.0743     4.9756    69.3732 </r>
       <r>    11.1818     5.8373    70.0010 </r>
       <r>    11.2894     6.3090    70.6795 </r>
       <r>    11.3969     5.4884    71.2698 </r>
       <r>    11.5045     4.6132    71.7659 </r>
       <r>    11.6120     4.7222    72.2738 </r>
       <r>    11.7196     4.7484    72.7845 </r>
       <r>    11.8271     4.7825    73.2988 </r>
       <r>    11.9347     5.6026    73.9014 </r>
       <r>    12.0422     6.1070    74.5582 </r>
       <r>    12.1498     5.8053    75.1825 </r>
       <r>    12.2573     5.5059    75.7747 </r>
       <r>    12.3649     5.1417    76.3277 </r>
       <r>    12.4724     5.7888    76.9503 </r>
       <r>    12.5800     6.0707    77.6032 </r>
       <r>    12.6875     5.7047    78.2167 </r>
       <r>    12.7951     5.9150    78.8528 </r>
       <r>    12.9026     5.9841    79.4964 </r>
       <r>    13.0102     5.8215    80.1225 </r>
       <r>    13.1177     6.3010    80.8002 </r>
       <r>    13.2252     6.0078    81.4463 </r>
       <r>    13.3328     5.9589    82.0872 </r>
       <r>    13.4403     5.4117    82.6692 </r>
       <r>    13.5479     5.3899    83.2489 </r>
       <r>    13.6554     5.3244    83.8215 </r>
       <r>    13.7630     5.7011    84.4347 </r>
       <r>    13.8705     5.7146    85.0493 </r>
       <r>    13.9781     5.4371    85.6340 </r>
       <r>    14.0856     5.2612    86.1999 </r>
       <r>    14.1932     5.1333    86.7520 </r>
       <r>    14.3007     5.0828    87.2986 </r>
       <r>    14.4083     4.5820    87.7914 </r>
       <r>    14.5158     5.1104    88.3410 </r>
       <r>    14.6234     5.4120    88.9231 </r>
       <r>    14.7309     4.9171    89.4519 </r>
       <r>    14.8385     4.1733    89.9007 </r>
       <r>    14.9460     4.8105    90.4181 </r>
       <r>    15.0536     5.8877    91.0513 </r>
       <r>    15.1611     6.0965    91.7070 </r>
       <r>    15.2687     5.6879    92.3187 </r>
       <r>    15.3762     5.8970    92.9529 </r>
       <r>    15.4838     5.8501    93.5821 </r>
       <r>    15.5913     5.9454    94.2215 </r>
       <r>    15.6989     4.6553    94.7222 </r>
       <r>    15.8064     3.2991    95.0770 </r>
       <r>    15.9140     2.4271    95.3380 </r>
       <r>    16.0215     1.8442    95.5364 </r>
       <r>    16.1291     1.3678    95.6835 </r>
       <r>    16.2366     1.0099    95.7921 </r>
       <r>    16.3442     0.9315    95.8923 </r>
       <r>    16.4517     0.6979    95.9673 </r>
       <r>    16.5593     0.2883    95.9983 </r>
       <r>    16.6668     0.0153    96.0000 </r>
       <r>    16.7744     0.0001    96.0000 </r>
       <r>    16.8819     0.0000    96.0000 </r>
       <r>    16.9895     0.0000    96.0000 </r>
       <r>    17.0970     0.0000    96.0000 </r>
       <r>    17.2046     0.0000    96.0000 </r>
       <r>    17.3121     0.0000    96.0000 </r>
       <r>    17.4197     0.0000    96.0000 </r>
       <r>    17.5272     0.0000    96.0000 </r>
       <r>    17.6348     0.0000    96.0000 </r>
       <r>    17.7423     0.0000    96.0000 </r>
       <r>    17.8499     0.0000    96.0000 </r>
       <r>    17.9574     0.0000    96.0000 </r>
       <r>    18.0650     0.0000    96.0000 </r>
      </set>
     </set>
    </array>
   </total>
  </dos>
 </calculation>
 <structure name="finalpos" >
  <crystal>
   <varray name="basis" >
    <v>       5.69700000       0.00000000       0.00000000 </v>
    <v>       0.00000000       4.04790000       0.00000000 </v>
    <v>       0.00000000       0.00000000       6.20420000 </v>
   </varray>
   <i name="volume">    143.07435078 </i>
   <varray name="rec_basis" >
    <v>       0.17553098       0.00000000       0.00000000 </v>
    <v>       0.00000000       0.24704168       0.00000000 </v>
    <v>       0.00000000       0.00000000       0.16118114 </v>
   </varray>
  </crystal>
  <varray name="positions" >
   <v>       0.52123000       0.50000000       0.63796000 </v>
   <v>       0.47877000       0.50000000       0.36204000 </v>
   <v>       0.97877000       0.50000000       0.63796000 </v>
   <v>       0.02123000       0.50000000       0.36204000 </v>
   <v>       0.60090000       0.50000000       0.89991000 </v>
   <v>       0.39910000       0.50000000       0.10009000 </v>
   <v>       0.89910000       0.50000000       0.89991000 </v>
   <v>       0.10090000       0.50000000       0.10009000 </v>
   <v>       0.75000000       0.79171000       0.72973000 </v>
   <v>       0.25000000       0.20829000       0.27027000 </v>
   <v>       0.75000000       0.20829000       0.72973000 </v>
   <v>       0.25000000       0.79171000       0.27027000 </v>
   <v>       0.25000000       0.50000000       0.52367000 </v>
   <v>       0.75000000       0.50000000       0.47633000 </v>
  </varray>
 </structure>
</modeling>
