  14  14   0   0
  0.1021960E+02  0.5697000E-09  0.4047900E-09  0.6204200E-09  0.5000000E-15
  1.000000000000000E-004
  CAR 
 Kpoints                                 
     17.89150482    -14.16039077  301      1.95977275      1.00000000
    -14.160  0.0000E+00  0.0000E+00
    -14.054  0.0000E+00  0.0000E+00
    -13.947  0.0000E+00  0.0000E+00
    -13.840  0.0000E+00  0.0000E+00
    -13.733  0.0000E+00  0.0000E+00
    -13.626  0.0000E+00  0.0000E+00
    -13.519  0.0000E+00  0.0000E+00
    -13.413  0.0000E+00  0.0000E+00
    -13.306  0.0000E+00  0.0000E+00
    -13.199  0.0000E+00  0.0000E+00
    -13.092  0.0000E+00  0.0000E+00
    -12.985  0.4330E-15  0.4626E-16
    -12.878  0.1983E-06  0.2119E-07
    -12.771  0.1468E-01  0.1568E-02
    -12.665  0.8369E+00  0.9099E-01
    -12.558  0.2681E+01  0.3775E+00
    -12.451  0.3908E+01  0.7950E+00
    -12.344  0.4030E+01  0.1226E+01
    -12.237  0.3776E+01  0.1629E+01
    -12.130  0.2120E+01  0.1855E+01
    -12.024  0.3320E+01  0.2210E+01
    -11.917  0.1960E+01  0.2420E+01
    -11.810  0.3327E+01  0.2775E+01
    -11.703  0.3121E+01  0.3109E+01
    -11.596  0.3706E+01  0.3504E+01
    -11.489  0.2917E+01  0.3816E+01
    -11.383  0.1404E+01  0.3966E+01
    -11.276  0.3160E+00  0.4000E+01
    -11.169  0.9085E-03  0.4000E+01
    -11.062  0.7292E-09  0.4000E+01
    -10.955  0.0000E+00  0.4000E+01
    -10.848  0.0000E+00  0.4000E+01
    -10.742  0.0000E+00  0.4000E+01
    -10.635  0.0000E+00  0.4000E+01
    -10.528  0.0000E+00  0.4000E+01
    -10.421  0.0000E+00  0.4000E+01
    -10.314  0.0000E+00  0.4000E+01
    -10.207  0.0000E+00  0.4000E+01
    -10.100  0.0000E+00  0.4000E+01
     -9.994  0.0000E+00  0.4000E+01
     -9.887  0.0000E+00  0.4000E+01
     -9.780  0.0000E+00  0.4000E+01
     -9.673  0.0000E+00  0.4000E+01
     -9.566  0.0000E+00  0.4000E+01
     -9.459  0.0000E+00  0.4000E+01
     -9.353  0.0000E+00  0.4000E+01
     -9.246  0.0000E+00  0.4000E+01
     -9.139  0.0000E+00  0.4000E+01
     -9.032  0.1912E-09  0.4000E+01
     -8.925  0.5906E-03  0.4000E+01
     -8.818  0.4560E+00  0.4049E+01
     -8.712  0.2388E+01  0.4304E+01
     -8.605  0.5910E+01  0.4935E+01
     -8.498  0.6929E+01  0.5676E+01
     -8.391  0.5922E+01  0.6308E+01
     -8.284  0.5413E+01  0.6887E+01
     -8.177  0.4652E+01  0.7384E+01
     -8.071  0.3810E+01  0.7791E+01
     -7.964  0.1351E+01  0.7935E+01
     -7.857  0.5906E+00  0.7998E+01
     -7.750  0.1751E-01  0.8000E+01
     -7.643  0.3159E-06  0.8000E+01
     -7.536  0.9237E-15  0.8000E+01
     -7.429  0.0000E+00  0.8000E+01
     -7.323  0.0000E+00  0.8000E+01
     -7.216  0.0000E+00  0.8000E+01
     -7.109  0.1155E-15  0.8000E+01
     -7.002  0.8452E-07  0.8000E+01
     -6.895  0.9609E-02  0.8001E+01
     -6.788  0.4719E+00  0.8051E+01
     -6.682  0.5620E+00  0.8111E+01
     -6.575  0.5398E+00  0.8169E+01
     -6.468  0.1062E+01  0.8283E+01
     -6.361  0.9391E+00  0.8383E+01
     -6.254  0.1980E+01  0.8594E+01
     -6.147  0.3411E+01  0.8959E+01
     -6.041  0.3524E+01  0.9335E+01
     -5.934  0.4344E+01  0.9799E+01
     -5.827  0.4159E+01  0.1024E+02
     -5.720  0.4320E+01  0.1071E+02
     -5.613  0.3361E+01  0.1106E+02
     -5.506  0.4033E+01  0.1150E+02
     -5.400  0.4606E+01  0.1199E+02
     -5.293  0.4017E+01  0.1242E+02
     -5.186  0.4809E+01  0.1293E+02
     -5.079  0.4195E+01  0.1338E+02
     -4.972  0.3610E+01  0.1376E+02
     -4.865  0.3270E+01  0.1411E+02
     -4.759  0.1816E+01  0.1431E+02
     -4.652  0.3498E+01  0.1468E+02
     -4.545  0.3400E+01  0.1504E+02
     -4.438  0.3066E+01  0.1537E+02
     -4.331  0.2499E+01  0.1564E+02
     -4.224  0.2230E+01  0.1588E+02
     -4.117  0.3410E+01  0.1624E+02
     -4.011  0.4004E+01  0.1667E+02
     -3.904  0.4450E+01  0.1714E+02
     -3.797  0.2859E+01  0.1745E+02
     -3.690  0.1942E+01  0.1766E+02
     -3.583  0.2331E+01  0.1791E+02
     -3.476  0.1313E+01  0.1805E+02
     -3.370  0.3159E+01  0.1838E+02
     -3.263  0.2680E+01  0.1867E+02
     -3.156  0.3381E+01  0.1903E+02
     -3.049  0.4424E+01  0.1950E+02
     -2.942  0.4077E+01  0.1994E+02
     -2.835  0.2804E+01  0.2024E+02
     -2.729  0.1680E+01  0.2042E+02
     -2.622  0.1917E+01  0.2062E+02
     -2.515  0.2258E+01  0.2087E+02
     -2.408  0.2304E+01  0.2111E+02
     -2.301  0.3382E+01  0.2147E+02
     -2.194  0.2701E+01  0.2176E+02
     -2.088  0.3669E+01  0.2215E+02
     -1.981  0.4988E+01  0.2269E+02
     -1.874  0.5278E+01  0.2325E+02
     -1.767  0.7663E+01  0.2407E+02
     -1.660  0.5694E+01  0.2468E+02
     -1.553  0.5189E+01  0.2523E+02
     -1.446  0.5600E+01  0.2583E+02
     -1.340  0.4492E+01  0.2631E+02
     -1.233  0.3830E+01  0.2672E+02
     -1.126  0.6084E+01  0.2737E+02
     -1.019  0.5388E+01  0.2795E+02
     -0.912  0.2414E+01  0.2820E+02
     -0.805  0.2076E+01  0.2842E+02
     -0.699  0.3744E+01  0.2882E+02
     -0.592  0.4771E+01  0.2933E+02
     -0.485  0.6309E+01  0.3001E+02
     -0.378  0.6768E+01  0.3073E+02
     -0.271  0.5715E+01  0.3134E+02
     -0.164  0.6045E+01  0.3199E+02
     -0.058  0.6936E+01  0.3273E+02
      0.049  0.6650E+01  0.3344E+02
      0.156  0.6762E+01  0.3416E+02
      0.263  0.7369E+01  0.3495E+02
      0.370  0.9045E+01  0.3592E+02
      0.477  0.9330E+01  0.3691E+02
      0.583  0.4112E+01  0.3735E+02
      0.690  0.3012E+01  0.3767E+02
      0.797  0.3483E+01  0.3805E+02
      0.904  0.3107E+01  0.3838E+02
      1.011  0.4064E+01  0.3881E+02
      1.118  0.3023E+01  0.3913E+02
      1.225  0.3962E+01  0.3956E+02
      1.331  0.6063E+01  0.4021E+02
      1.438  0.3472E+01  0.4058E+02
      1.545  0.3407E+01  0.4094E+02
      1.652  0.3492E+01  0.4131E+02
      1.759  0.2258E+01  0.4156E+02
      1.866  0.2038E+01  0.4177E+02
      1.972  0.2505E+01  0.4204E+02
      2.079  0.2991E+01  0.4236E+02
      2.186  0.3000E+01  0.4268E+02
      2.293  0.3702E+01  0.4308E+02
      2.400  0.2497E+01  0.4334E+02
      2.507  0.1505E+01  0.4350E+02
      2.613  0.4809E+00  0.4356E+02
      2.720  0.2393E-02  0.4356E+02
      2.827  0.4588E-08  0.4356E+02
      2.934  0.1917E-03  0.4356E+02
      3.041  0.1942E+00  0.4358E+02
      3.148  0.8279E+00  0.4366E+02
      3.254  0.9708E+00  0.4377E+02
      3.361  0.8689E-01  0.4378E+02
      3.468  0.7753E-01  0.4379E+02
      3.575  0.8049E+00  0.4387E+02
      3.682  0.1025E+01  0.4398E+02
      3.789  0.1728E+00  0.4400E+02
      3.896  0.8463E-04  0.4400E+02
      4.002  0.9446E-11  0.4400E+02
      4.109  0.9916E-11  0.4400E+02
      4.216  0.8622E-04  0.4400E+02
      4.323  0.1482E+00  0.4402E+02
      4.430  0.3788E+00  0.4406E+02
      4.537  0.4283E+00  0.4410E+02
      4.643  0.2225E+00  0.4413E+02
      4.750  0.1005E+01  0.4423E+02
      4.857  0.1257E+01  0.4437E+02
      4.964  0.6206E+00  0.4443E+02
      5.071  0.9287E+00  0.4453E+02
      5.178  0.1342E+01  0.4468E+02
      5.284  0.1360E+01  0.4482E+02
      5.391  0.1694E+01  0.4500E+02
      5.498  0.2668E+01  0.4529E+02
      5.605  0.3170E+01  0.4563E+02
      5.712  0.2628E+01  0.4591E+02
      5.819  0.3760E+01  0.4631E+02
      5.925  0.3841E+01  0.4672E+02
      6.032  0.3213E+01  0.4706E+02
      6.139  0.5417E+01  0.4764E+02
      6.246  0.4464E+01  0.4812E+02
      6.353  0.5466E+01  0.4870E+02
      6.460  0.2504E+01  0.4897E+02
      6.567  0.4109E+01  0.4941E+02
      6.673  0.4476E+01  0.4989E+02
      6.780  0.4017E+01  0.5032E+02
      6.887  0.3529E+01  0.5069E+02
      6.994  0.4156E+01  0.5114E+02
      7.101  0.6091E+01  0.5179E+02
      7.208  0.4244E+01  0.5224E+02
      7.314  0.5344E+01  0.5281E+02
      7.421  0.2932E+01  0.5313E+02
      7.528  0.5180E+01  0.5368E+02
      7.635  0.4489E+01  0.5416E+02
      7.742  0.3892E+01  0.5457E+02
      7.849  0.2296E+01  0.5482E+02
      7.955  0.3130E+01  0.5515E+02
      8.062  0.4711E+01  0.5566E+02
      8.169  0.2518E+01  0.5593E+02
      8.276  0.3332E+01  0.5628E+02
      8.383  0.4948E+01  0.5681E+02
      8.490  0.4286E+01  0.5727E+02
      8.596  0.3413E+01  0.5763E+02
      8.703  0.3435E+01  0.5800E+02
      8.810  0.6569E+01  0.5870E+02
      8.917  0.4371E+01  0.5917E+02
      9.024  0.5605E+01  0.5977E+02
      9.131  0.5572E+01  0.6036E+02
      9.237  0.6923E+01  0.6110E+02
      9.344  0.3240E+01  0.6145E+02
      9.451  0.2407E+01  0.6171E+02
      9.558  0.5031E+01  0.6224E+02
      9.665  0.5414E+01  0.6282E+02
      9.772  0.5908E+01  0.6345E+02
      9.879  0.3597E+01  0.6384E+02
      9.985  0.4511E+01  0.6432E+02
     10.092  0.5746E+01  0.6493E+02
     10.199  0.5227E+01  0.6549E+02
     10.306  0.4361E+01  0.6596E+02
     10.413  0.4355E+01  0.6642E+02
     10.520  0.6363E+01  0.6710E+02
     10.626  0.4386E+01  0.6757E+02
     10.733  0.5498E+01  0.6816E+02
     10.840  0.1726E+01  0.6834E+02
     10.947  0.2769E+01  0.6864E+02
     11.054  0.4867E+01  0.6916E+02
     11.161  0.5628E+01  0.6976E+02
     11.267  0.5712E+01  0.7037E+02
     11.374  0.7479E+01  0.7117E+02
     11.481  0.4325E+01  0.7163E+02
     11.588  0.5595E+01  0.7223E+02
     11.695  0.4930E+01  0.7276E+02
     11.802  0.4743E+01  0.7326E+02
     11.908  0.4924E+01  0.7379E+02
     12.015  0.6130E+01  0.7444E+02
     12.122  0.5000E+01  0.7498E+02
     12.229  0.5256E+01  0.7554E+02
     12.336  0.4597E+01  0.7603E+02
     12.443  0.5922E+01  0.7666E+02
     12.550  0.6853E+01  0.7740E+02
     12.656  0.5668E+01  0.7800E+02
     12.763  0.7178E+01  0.7877E+02
     12.870  0.5896E+01  0.7940E+02
     12.977  0.4364E+01  0.7986E+02
     13.084  0.6674E+01  0.8058E+02
     13.191  0.5461E+01  0.8116E+02
     13.297  0.5798E+01  0.8178E+02
     13.404  0.7006E+01  0.8253E+02
     13.511  0.5853E+01  0.8315E+02
     13.618  0.5285E+01  0.8372E+02
     13.725  0.4838E+01  0.8424E+02
     13.832  0.5152E+01  0.8479E+02
     13.938  0.6764E+01  0.8551E+02
     14.045  0.3608E+01  0.8589E+02
     14.152  0.4268E+01  0.8635E+02
     14.259  0.5953E+01  0.8699E+02
     14.366  0.5486E+01  0.8757E+02
     14.473  0.6816E+01  0.8830E+02
     14.579  0.3964E+01  0.8872E+02
     14.686  0.4226E+01  0.8918E+02
     14.793  0.3750E+01  0.8958E+02
     14.900  0.6425E+01  0.9026E+02
     15.007  0.4824E+01  0.9078E+02
     15.114  0.4808E+01  0.9129E+02
     15.221  0.6945E+01  0.9203E+02
     15.327  0.6550E+01  0.9273E+02
     15.434  0.5576E+01  0.9333E+02
     15.541  0.5033E+01  0.9387E+02
     15.648  0.5655E+01  0.9447E+02
     15.755  0.4459E+01  0.9495E+02
     15.862  0.3079E+01  0.9528E+02
     15.968  0.1929E+01  0.9548E+02
     16.075  0.1268E+01  0.9562E+02
     16.182  0.1179E+01  0.9574E+02
     16.289  0.1175E+01  0.9587E+02
     16.396  0.6820E+00  0.9594E+02
     16.503  0.5225E+00  0.9600E+02
     16.609  0.1418E-01  0.9600E+02
     16.716  0.1981E-06  0.9600E+02
     16.823  0.4618E-15  0.9600E+02
     16.930  0.0000E+00  0.9600E+02
     17.037  0.0000E+00  0.9600E+02
     17.144  0.0000E+00  0.9600E+02
     17.250  0.0000E+00  0.9600E+02
     17.357  0.0000E+00  0.9600E+02
     17.464  0.0000E+00  0.9600E+02
     17.571  0.0000E+00  0.9600E+02
     17.678  0.0000E+00  0.9600E+02
     17.785  0.0000E+00  0.9600E+02
     17.892  0.0000E+00  0.9600E+02
