   1   1   0   0
  0.3375000E+04  0.1500000E-08  0.1250000E-08  0.1800000E-08  0.5000000E-15
  1.000000000000000E-004
  CAR 
 Convergence                             
      2.46681537     -9.97545530  301     -3.60676063      1.00000000
     -9.975  0.0000E+00  0.0000E+00
     -9.934  0.0000E+00  0.0000E+00
     -9.893  0.0000E+00  0.0000E+00
     -9.851  0.0000E+00  0.0000E+00
     -9.810  0.0000E+00  0.0000E+00
     -9.768  0.0000E+00  0.0000E+00
     -9.727  0.0000E+00  0.0000E+00
     -9.685  0.1686E-12  0.6994E-14
     -9.644  0.9149E-09  0.3795E-10
     -9.602  0.1292E-05  0.5364E-07
     -9.561  0.4791E-03  0.1992E-04
     -9.519  0.4735E-01  0.1984E-02
     -9.478  0.1276E+01  0.5491E-01
     -9.436  0.9655E+01  0.4553E+00
     -9.395  0.2110E+02  0.1330E+01
     -9.353  0.1350E+02  0.1890E+01
     -9.312  0.2511E+01  0.1994E+01
     -9.270  0.1321E+00  0.2000E+01
     -9.229  0.1911E-02  0.2000E+01
     -9.187  0.7406E-05  0.2000E+01
     -9.146  0.7560E-08  0.2000E+01
     -9.104  0.2013E-11  0.2000E+01
     -9.063  0.0000E+00  0.2000E+01
     -9.022  0.0000E+00  0.2000E+01
     -8.980  0.0000E+00  0.2000E+01
     -8.939  0.0000E+00  0.2000E+01
     -8.897  0.0000E+00  0.2000E+01
     -8.856  0.0000E+00  0.2000E+01
     -8.814  0.0000E+00  0.2000E+01
     -8.773  0.0000E+00  0.2000E+01
     -8.731  0.0000E+00  0.2000E+01
     -8.690  0.0000E+00  0.2000E+01
     -8.648  0.0000E+00  0.2000E+01
     -8.607  0.0000E+00  0.2000E+01
     -8.565  0.0000E+00  0.2000E+01
     -8.524  0.0000E+00  0.2000E+01
     -8.482  0.0000E+00  0.2000E+01
     -8.441  0.0000E+00  0.2000E+01
     -8.399  0.0000E+00  0.2000E+01
     -8.358  0.0000E+00  0.2000E+01
     -8.316  0.0000E+00  0.2000E+01
     -8.275  0.0000E+00  0.2000E+01
     -8.234  0.0000E+00  0.2000E+01
     -8.192  0.0000E+00  0.2000E+01
     -8.151  0.0000E+00  0.2000E+01
     -8.109  0.0000E+00  0.2000E+01
     -8.068  0.0000E+00  0.2000E+01
     -8.026  0.0000E+00  0.2000E+01
     -7.985  0.0000E+00  0.2000E+01
     -7.943  0.0000E+00  0.2000E+01
     -7.902  0.0000E+00  0.2000E+01
     -7.860  0.0000E+00  0.2000E+01
     -7.819  0.0000E+00  0.2000E+01
     -7.777  0.0000E+00  0.2000E+01
     -7.736  0.0000E+00  0.2000E+01
     -7.694  0.0000E+00  0.2000E+01
     -7.653  0.0000E+00  0.2000E+01
     -7.611  0.0000E+00  0.2000E+01
     -7.570  0.0000E+00  0.2000E+01
     -7.528  0.0000E+00  0.2000E+01
     -7.487  0.0000E+00  0.2000E+01
     -7.446  0.0000E+00  0.2000E+01
     -7.404  0.0000E+00  0.2000E+01
     -7.363  0.0000E+00  0.2000E+01
     -7.321  0.0000E+00  0.2000E+01
     -7.280  0.0000E+00  0.2000E+01
     -7.238  0.0000E+00  0.2000E+01
     -7.197  0.0000E+00  0.2000E+01
     -7.155  0.0000E+00  0.2000E+01
     -7.114  0.0000E+00  0.2000E+01
     -7.072  0.0000E+00  0.2000E+01
     -7.031  0.0000E+00  0.2000E+01
     -6.989  0.0000E+00  0.2000E+01
     -6.948  0.0000E+00  0.2000E+01
     -6.906  0.0000E+00  0.2000E+01
     -6.865  0.0000E+00  0.2000E+01
     -6.823  0.0000E+00  0.2000E+01
     -6.782  0.0000E+00  0.2000E+01
     -6.740  0.0000E+00  0.2000E+01
     -6.699  0.0000E+00  0.2000E+01
     -6.658  0.0000E+00  0.2000E+01
     -6.616  0.0000E+00  0.2000E+01
     -6.575  0.0000E+00  0.2000E+01
     -6.533  0.0000E+00  0.2000E+01
     -6.492  0.0000E+00  0.2000E+01
     -6.450  0.0000E+00  0.2000E+01
     -6.409  0.0000E+00  0.2000E+01
     -6.367  0.0000E+00  0.2000E+01
     -6.326  0.0000E+00  0.2000E+01
     -6.284  0.0000E+00  0.2000E+01
     -6.243  0.0000E+00  0.2000E+01
     -6.201  0.0000E+00  0.2000E+01
     -6.160  0.0000E+00  0.2000E+01
     -6.118  0.0000E+00  0.2000E+01
     -6.077  0.0000E+00  0.2000E+01
     -6.035  0.0000E+00  0.2000E+01
     -5.994  0.0000E+00  0.2000E+01
     -5.952  0.0000E+00  0.2000E+01
     -5.911  0.0000E+00  0.2000E+01
     -5.870  0.0000E+00  0.2000E+01
     -5.828  0.0000E+00  0.2000E+01
     -5.787  0.0000E+00  0.2000E+01
     -5.745  0.0000E+00  0.2000E+01
     -5.704  0.0000E+00  0.2000E+01
     -5.662  0.0000E+00  0.2000E+01
     -5.621  0.0000E+00  0.2000E+01
     -5.579  0.0000E+00  0.2000E+01
     -5.538  0.0000E+00  0.2000E+01
     -5.496  0.0000E+00  0.2000E+01
     -5.455  0.0000E+00  0.2000E+01
     -5.413  0.0000E+00  0.2000E+01
     -5.372  0.0000E+00  0.2000E+01
     -5.330  0.0000E+00  0.2000E+01
     -5.289  0.0000E+00  0.2000E+01
     -5.247  0.0000E+00  0.2000E+01
     -5.206  0.0000E+00  0.2000E+01
     -5.164  0.0000E+00  0.2000E+01
     -5.123  0.0000E+00  0.2000E+01
     -5.081  0.0000E+00  0.2000E+01
     -5.040  0.0000E+00  0.2000E+01
     -4.999  0.0000E+00  0.2000E+01
     -4.957  0.0000E+00  0.2000E+01
     -4.916  0.0000E+00  0.2000E+01
     -4.874  0.0000E+00  0.2000E+01
     -4.833  0.0000E+00  0.2000E+01
     -4.791  0.0000E+00  0.2000E+01
     -4.750  0.0000E+00  0.2000E+01
     -4.708  0.0000E+00  0.2000E+01
     -4.667  0.0000E+00  0.2000E+01
     -4.625  0.0000E+00  0.2000E+01
     -4.584  0.0000E+00  0.2000E+01
     -4.542  0.0000E+00  0.2000E+01
     -4.501  0.0000E+00  0.2000E+01
     -4.459  0.0000E+00  0.2000E+01
     -4.418  0.0000E+00  0.2000E+01
     -4.376  0.0000E+00  0.2000E+01
     -4.335  0.0000E+00  0.2000E+01
     -4.293  0.0000E+00  0.2000E+01
     -4.252  0.0000E+00  0.2000E+01
     -4.211  0.0000E+00  0.2000E+01
     -4.169  0.0000E+00  0.2000E+01
     -4.128  0.0000E+00  0.2000E+01
     -4.086  0.0000E+00  0.2000E+01
     -4.045  0.0000E+00  0.2000E+01
     -4.003  0.0000E+00  0.2000E+01
     -3.962  0.0000E+00  0.2000E+01
     -3.920  0.0000E+00  0.2000E+01
     -3.879  0.0000E+00  0.2000E+01
     -3.837  0.5091E-11  0.2000E+01
     -3.796  0.1965E-07  0.2000E+01
     -3.754  0.1975E-04  0.2000E+01
     -3.713  0.5224E-02  0.2000E+01
     -3.671  0.3703E+00  0.2016E+01
     -3.630  0.7208E+01  0.2315E+01
     -3.588  0.3969E+02  0.3961E+01
     -3.547  0.6347E+02  0.6593E+01
     -3.505  0.2974E+02  0.7827E+01
     -3.464  0.4025E+01  0.7994E+01
     -3.423  0.1530E+00  0.8000E+01
     -3.381  0.1587E-02  0.8000E+01
     -3.340  0.4391E-05  0.8000E+01
     -3.298  0.3188E-08  0.8000E+01
     -3.257  0.6062E-12  0.8000E+01
     -3.215  0.0000E+00  0.8000E+01
     -3.174  0.0000E+00  0.8000E+01
     -3.132  0.0000E+00  0.8000E+01
     -3.091  0.0000E+00  0.8000E+01
     -3.049  0.0000E+00  0.8000E+01
     -3.008  0.0000E+00  0.8000E+01
     -2.966  0.0000E+00  0.8000E+01
     -2.925  0.0000E+00  0.8000E+01
     -2.883  0.0000E+00  0.8000E+01
     -2.842  0.0000E+00  0.8000E+01
     -2.800  0.0000E+00  0.8000E+01
     -2.759  0.0000E+00  0.8000E+01
     -2.717  0.0000E+00  0.8000E+01
     -2.676  0.0000E+00  0.8000E+01
     -2.635  0.0000E+00  0.8000E+01
     -2.593  0.0000E+00  0.8000E+01
     -2.552  0.0000E+00  0.8000E+01
     -2.510  0.0000E+00  0.8000E+01
     -2.469  0.0000E+00  0.8000E+01
     -2.427  0.0000E+00  0.8000E+01
     -2.386  0.0000E+00  0.8000E+01
     -2.344  0.0000E+00  0.8000E+01
     -2.303  0.0000E+00  0.8000E+01
     -2.261  0.0000E+00  0.8000E+01
     -2.220  0.0000E+00  0.8000E+01
     -2.178  0.0000E+00  0.8000E+01
     -2.137  0.0000E+00  0.8000E+01
     -2.095  0.0000E+00  0.8000E+01
     -2.054  0.0000E+00  0.8000E+01
     -2.012  0.0000E+00  0.8000E+01
     -1.971  0.0000E+00  0.8000E+01
     -1.929  0.0000E+00  0.8000E+01
     -1.888  0.0000E+00  0.8000E+01
     -1.847  0.0000E+00  0.8000E+01
     -1.805  0.0000E+00  0.8000E+01
     -1.764  0.0000E+00  0.8000E+01
     -1.722  0.0000E+00  0.8000E+01
     -1.681  0.0000E+00  0.8000E+01
     -1.639  0.0000E+00  0.8000E+01
     -1.598  0.0000E+00  0.8000E+01
     -1.556  0.0000E+00  0.8000E+01
     -1.515  0.0000E+00  0.8000E+01
     -1.473  0.0000E+00  0.8000E+01
     -1.432  0.0000E+00  0.8000E+01
     -1.390  0.0000E+00  0.8000E+01
     -1.349  0.0000E+00  0.8000E+01
     -1.307  0.0000E+00  0.8000E+01
     -1.266  0.0000E+00  0.8000E+01
     -1.224  0.0000E+00  0.8000E+01
     -1.183  0.0000E+00  0.8000E+01
     -1.141  0.0000E+00  0.8000E+01
     -1.100  0.0000E+00  0.8000E+01
     -1.058  0.0000E+00  0.8000E+01
     -1.017  0.0000E+00  0.8000E+01
     -0.976  0.0000E+00  0.8000E+01
     -0.934  0.0000E+00  0.8000E+01
     -0.893  0.0000E+00  0.8000E+01
     -0.851  0.0000E+00  0.8000E+01
     -0.810  0.0000E+00  0.8000E+01
     -0.768  0.0000E+00  0.8000E+01
     -0.727  0.0000E+00  0.8000E+01
     -0.685  0.0000E+00  0.8000E+01
     -0.644  0.0000E+00  0.8000E+01
     -0.602  0.0000E+00  0.8000E+01
     -0.561  0.0000E+00  0.8000E+01
     -0.519  0.7295E-13  0.8000E+01
     -0.478  0.2643E-09  0.8000E+01
     -0.436  0.2619E-06  0.8000E+01
     -0.395  0.7315E-04  0.8000E+01
     -0.353  0.6029E-02  0.8000E+01
     -0.312  0.1571E+00  0.8007E+01
     -0.270  0.1431E+01  0.8066E+01
     -0.229  0.5286E+01  0.8285E+01
     -0.188  0.9636E+01  0.8685E+01
     -0.146  0.1088E+02  0.9136E+01
     -0.105  0.9631E+01  0.9536E+01
     -0.063  0.7025E+01  0.9827E+01
     -0.022  0.3323E+01  0.9965E+01
      0.020  0.9030E+00  0.1000E+02
      0.061  0.1049E+01  0.1005E+02
      0.103  0.3619E+01  0.1020E+02
      0.144  0.7948E+01  0.1053E+02
      0.186  0.1233E+02  0.1104E+02
      0.227  0.1499E+02  0.1166E+02
      0.269  0.1577E+02  0.1231E+02
      0.310  0.1590E+02  0.1297E+02
      0.352  0.1589E+02  0.1363E+02
      0.393  0.1638E+02  0.1431E+02
      0.435  0.1715E+02  0.1502E+02
      0.476  0.1774E+02  0.1576E+02
      0.518  0.1857E+02  0.1653E+02
      0.559  0.1908E+02  0.1732E+02
      0.600  0.1909E+02  0.1811E+02
      0.642  0.1970E+02  0.1893E+02
      0.683  0.2115E+02  0.1981E+02
      0.725  0.2204E+02  0.2072E+02
      0.766  0.2167E+02  0.2162E+02
      0.808  0.2211E+02  0.2253E+02
      0.849  0.2324E+02  0.2350E+02
      0.891  0.2357E+02  0.2448E+02
      0.932  0.2402E+02  0.2547E+02
      0.974  0.2492E+02  0.2651E+02
      1.015  0.2514E+02  0.2755E+02
      1.057  0.2587E+02  0.2862E+02
      1.098  0.2649E+02  0.2972E+02
      1.140  0.2619E+02  0.3081E+02
      1.181  0.2684E+02  0.3192E+02
      1.223  0.2754E+02  0.3306E+02
      1.264  0.2797E+02  0.3422E+02
      1.306  0.2812E+02  0.3539E+02
      1.347  0.2783E+02  0.3654E+02
      1.388  0.2847E+02  0.3772E+02
      1.430  0.2923E+02  0.3894E+02
      1.471  0.2977E+02  0.4017E+02
      1.513  0.3041E+02  0.4143E+02
      1.554  0.3042E+02  0.4269E+02
      1.596  0.3017E+02  0.4394E+02
      1.637  0.2859E+02  0.4513E+02
      1.679  0.2532E+02  0.4618E+02
      1.720  0.1888E+02  0.4696E+02
      1.762  0.1183E+02  0.4745E+02
      1.803  0.6791E+01  0.4774E+02
      1.845  0.3758E+01  0.4789E+02
      1.886  0.1796E+01  0.4797E+02
      1.928  0.6592E+00  0.4799E+02
      1.969  0.1505E+00  0.4800E+02
      2.011  0.1451E-01  0.4800E+02
      2.052  0.4630E-03  0.4800E+02
      2.094  0.4358E-05  0.4800E+02
      2.135  0.1137E-07  0.4800E+02
      2.176  0.7922E-11  0.4800E+02
      2.218  0.1464E-14  0.4800E+02
      2.259  0.0000E+00  0.4800E+02
      2.301  0.0000E+00  0.4800E+02
      2.342  0.0000E+00  0.4800E+02
      2.384  0.0000E+00  0.4800E+02
      2.425  0.0000E+00  0.4800E+02
      2.467  0.0000E+00  0.4800E+02
