<?xml version="1.0" encoding="ISO-8859-1"?>
<modeling>
 <generator>
  <i name="program" type="string">vasp </i>
  <i name="version" type="string">6.4.3  </i>
  <i name="subversion" type="string">19Mar24 (build May 31 2024 16:31:43) complex                          parallel </i>
  <i name="platform" type="string">LinuxIFC </i>
  <i name="date" type="string">2024 11 05 </i>
  <i name="time" type="string">22:41:48 </i>
 </generator>
 <incar>
  <i type="string" name="SYSTEM">Convergence</i>
  <i type="int" name="ISTART">     0</i>
  <i type="string" name="PREC">Accurate</i>
  <i type="string" name="ALGO">Normal</i>
  <i type="int" name="ISPIN">     1</i>
  <i type="int" name="ICHARG">     2</i>
  <i type="int" name="NELM">   100</i>
  <i type="int" name="IBRION">    -1</i>
  <i name="EDIFF">      0.00000100</i>
  <i name="EDIFFG">     -0.00100000</i>
  <i type="int" name="NSW">     0</i>
  <i type="int" name="ISIF">     2</i>
  <i name="ENCUT">    600.00000000</i>
  <i name="POTIM">      0.50000000</i>
  <i type="int" name="ISMEAR">     0</i>
  <i name="SIGMA">      0.05000000</i>
  <i type="logical" name="LWAVE"> F  </i>
  <i type="logical" name="LCHARG"> F  </i>
  <i type="string" name="GGA">PE</i>
 </incar>
 <primitive_cell>
  <structure name="primitive_cell" >
   <crystal>
    <varray name="basis" >
     <v>      15.01500000       0.00000000       0.00000000 </v>
     <v>       0.00000000      12.51250000       0.00000000 </v>
     <v>       0.00000000       0.00000000      18.01800000 </v>
    </varray>
    <i name="volume">   3385.13512837 </i>
    <varray name="rec_basis" >
     <v>       0.06660007       0.00000000       0.00000000 </v>
     <v>       0.00000000       0.07992008       0.00000000 </v>
     <v>       0.00000000       0.00000000       0.05550006 </v>
    </varray>
   </crystal>
   <varray name="positions" >
    <v>       0.52123000       0.54500000       0.63796000 </v>
   </varray>
  </structure>
  <varray name="primitive_index" >
   <v type="int" >        1 </v>
  </varray>
 </primitive_cell>
 <kpoints>
  <generation param="Monkhorst-Pack">
   <v type="int" name="divisions">      10       14        9 </v>
   <v name="usershift">      0.00000000       0.00000000       0.00000000 </v>
   <v name="genvec1">      0.10000000       0.00000000       0.00000000 </v>
   <v name="genvec2">      0.00000000       0.07142857       0.00000000 </v>
   <v name="genvec3">      0.00000000       0.00000000       0.11111111 </v>
   <v name="shift">      0.50000000       0.50000000       0.00000000 </v>
  </generation>
  <varray name="kpointlist" >
   <v>       0.05000000       0.03571429       0.00000000 </v>
   <v>       0.15000000       0.03571429       0.00000000 </v>
   <v>       0.25000000       0.03571429       0.00000000 </v>
   <v>       0.35000000       0.03571429       0.00000000 </v>
   <v>       0.45000000       0.03571429       0.00000000 </v>
   <v>       0.05000000       0.10714286       0.00000000 </v>
   <v>       0.15000000       0.10714286       0.00000000 </v>
   <v>       0.25000000       0.10714286       0.00000000 </v>
   <v>       0.35000000       0.10714286       0.00000000 </v>
   <v>       0.45000000       0.10714286       0.00000000 </v>
   <v>       0.05000000       0.17857143       0.00000000 </v>
   <v>       0.15000000       0.17857143       0.00000000 </v>
   <v>       0.25000000       0.17857143       0.00000000 </v>
   <v>       0.35000000       0.17857143       0.00000000 </v>
   <v>       0.45000000       0.17857143       0.00000000 </v>
   <v>       0.05000000       0.25000000       0.00000000 </v>
   <v>       0.15000000       0.25000000       0.00000000 </v>
   <v>       0.25000000       0.25000000       0.00000000 </v>
   <v>       0.35000000       0.25000000       0.00000000 </v>
   <v>       0.45000000       0.25000000       0.00000000 </v>
   <v>       0.05000000       0.32142857       0.00000000 </v>
   <v>       0.15000000       0.32142857       0.00000000 </v>
   <v>       0.25000000       0.32142857       0.00000000 </v>
   <v>       0.35000000       0.32142857       0.00000000 </v>
   <v>       0.45000000       0.32142857       0.00000000 </v>
   <v>       0.05000000       0.39285714       0.00000000 </v>
   <v>       0.15000000       0.39285714       0.00000000 </v>
   <v>       0.25000000       0.39285714       0.00000000 </v>
   <v>       0.35000000       0.39285714       0.00000000 </v>
   <v>       0.45000000       0.39285714       0.00000000 </v>
   <v>       0.05000000       0.46428571       0.00000000 </v>
   <v>       0.15000000       0.46428571       0.00000000 </v>
   <v>       0.25000000       0.46428571       0.00000000 </v>
   <v>       0.35000000       0.46428571       0.00000000 </v>
   <v>       0.45000000       0.46428571       0.00000000 </v>
   <v>       0.05000000       0.03571429       0.11111111 </v>
   <v>       0.15000000       0.03571429       0.11111111 </v>
   <v>       0.25000000       0.03571429       0.11111111 </v>
   <v>       0.35000000       0.03571429       0.11111111 </v>
   <v>       0.45000000       0.03571429       0.11111111 </v>
   <v>       0.05000000       0.10714286       0.11111111 </v>
   <v>       0.15000000       0.10714286       0.11111111 </v>
   <v>       0.25000000       0.10714286       0.11111111 </v>
   <v>       0.35000000       0.10714286       0.11111111 </v>
   <v>       0.45000000       0.10714286       0.11111111 </v>
   <v>       0.05000000       0.17857143       0.11111111 </v>
   <v>       0.15000000       0.17857143       0.11111111 </v>
   <v>       0.25000000       0.17857143       0.11111111 </v>
   <v>       0.35000000       0.17857143       0.11111111 </v>
   <v>       0.45000000       0.17857143       0.11111111 </v>
   <v>       0.05000000       0.25000000       0.11111111 </v>
   <v>       0.15000000       0.25000000       0.11111111 </v>
   <v>       0.25000000       0.25000000       0.11111111 </v>
   <v>       0.35000000       0.25000000       0.11111111 </v>
   <v>       0.45000000       0.25000000       0.11111111 </v>
   <v>       0.05000000       0.32142857       0.11111111 </v>
   <v>       0.15000000       0.32142857       0.11111111 </v>
   <v>       0.25000000       0.32142857       0.11111111 </v>
   <v>       0.35000000       0.32142857       0.11111111 </v>
   <v>       0.45000000       0.32142857       0.11111111 </v>
   <v>       0.05000000       0.39285714       0.11111111 </v>
   <v>       0.15000000       0.39285714       0.11111111 </v>
   <v>       0.25000000       0.39285714       0.11111111 </v>
   <v>       0.35000000       0.39285714       0.11111111 </v>
   <v>       0.45000000       0.39285714       0.11111111 </v>
   <v>       0.05000000       0.46428571       0.11111111 </v>
   <v>       0.15000000       0.46428571       0.11111111 </v>
   <v>       0.25000000       0.46428571       0.11111111 </v>
   <v>       0.35000000       0.46428571       0.11111111 </v>
   <v>       0.45000000       0.46428571       0.11111111 </v>
   <v>       0.05000000       0.03571429       0.22222222 </v>
   <v>       0.15000000       0.03571429       0.22222222 </v>
   <v>       0.25000000       0.03571429       0.22222222 </v>
   <v>       0.35000000       0.03571429       0.22222222 </v>
   <v>       0.45000000       0.03571429       0.22222222 </v>
   <v>       0.05000000       0.10714286       0.22222222 </v>
   <v>       0.15000000       0.10714286       0.22222222 </v>
   <v>       0.25000000       0.10714286       0.22222222 </v>
   <v>       0.35000000       0.10714286       0.22222222 </v>
   <v>       0.45000000       0.10714286       0.22222222 </v>
   <v>       0.05000000       0.17857143       0.22222222 </v>
   <v>       0.15000000       0.17857143       0.22222222 </v>
   <v>       0.25000000       0.17857143       0.22222222 </v>
   <v>       0.35000000       0.17857143       0.22222222 </v>
   <v>       0.45000000       0.17857143       0.22222222 </v>
   <v>       0.05000000       0.25000000       0.22222222 </v>
   <v>       0.15000000       0.25000000       0.22222222 </v>
   <v>       0.25000000       0.25000000       0.22222222 </v>
   <v>       0.35000000       0.25000000       0.22222222 </v>
   <v>       0.45000000       0.25000000       0.22222222 </v>
   <v>       0.05000000       0.32142857       0.22222222 </v>
   <v>       0.15000000       0.32142857       0.22222222 </v>
   <v>       0.25000000       0.32142857       0.22222222 </v>
   <v>       0.35000000       0.32142857       0.22222222 </v>
   <v>       0.45000000       0.32142857       0.22222222 </v>
   <v>       0.05000000       0.39285714       0.22222222 </v>
   <v>       0.15000000       0.39285714       0.22222222 </v>
   <v>       0.25000000       0.39285714       0.22222222 </v>
   <v>       0.35000000       0.39285714       0.22222222 </v>
   <v>       0.45000000       0.39285714       0.22222222 </v>
   <v>       0.05000000       0.46428571       0.22222222 </v>
   <v>       0.15000000       0.46428571       0.22222222 </v>
   <v>       0.25000000       0.46428571       0.22222222 </v>
   <v>       0.35000000       0.46428571       0.22222222 </v>
   <v>       0.45000000       0.46428571       0.22222222 </v>
   <v>       0.05000000       0.03571429       0.33333333 </v>
   <v>       0.15000000       0.03571429       0.33333333 </v>
   <v>       0.25000000       0.03571429       0.33333333 </v>
   <v>       0.35000000       0.03571429       0.33333333 </v>
   <v>       0.45000000       0.03571429       0.33333333 </v>
   <v>       0.05000000       0.10714286       0.33333333 </v>
   <v>       0.15000000       0.10714286       0.33333333 </v>
   <v>       0.25000000       0.10714286       0.33333333 </v>
   <v>       0.35000000       0.10714286       0.33333333 </v>
   <v>       0.45000000       0.10714286       0.33333333 </v>
   <v>       0.05000000       0.17857143       0.33333333 </v>
   <v>       0.15000000       0.17857143       0.33333333 </v>
   <v>       0.25000000       0.17857143       0.33333333 </v>
   <v>       0.35000000       0.17857143       0.33333333 </v>
   <v>       0.45000000       0.17857143       0.33333333 </v>
   <v>       0.05000000       0.25000000       0.33333333 </v>
   <v>       0.15000000       0.25000000       0.33333333 </v>
   <v>       0.25000000       0.25000000       0.33333333 </v>
   <v>       0.35000000       0.25000000       0.33333333 </v>
   <v>       0.45000000       0.25000000       0.33333333 </v>
   <v>       0.05000000       0.32142857       0.33333333 </v>
   <v>       0.15000000       0.32142857       0.33333333 </v>
   <v>       0.25000000       0.32142857       0.33333333 </v>
   <v>       0.35000000       0.32142857       0.33333333 </v>
   <v>       0.45000000       0.32142857       0.33333333 </v>
   <v>       0.05000000       0.39285714       0.33333333 </v>
   <v>       0.15000000       0.39285714       0.33333333 </v>
   <v>       0.25000000       0.39285714       0.33333333 </v>
   <v>       0.35000000       0.39285714       0.33333333 </v>
   <v>       0.45000000       0.39285714       0.33333333 </v>
   <v>       0.05000000       0.46428571       0.33333333 </v>
   <v>       0.15000000       0.46428571       0.33333333 </v>
   <v>       0.25000000       0.46428571       0.33333333 </v>
   <v>       0.35000000       0.46428571       0.33333333 </v>
   <v>       0.45000000       0.46428571       0.33333333 </v>
   <v>       0.05000000       0.03571429       0.44444444 </v>
   <v>       0.15000000       0.03571429       0.44444444 </v>
   <v>       0.25000000       0.03571429       0.44444444 </v>
   <v>       0.35000000       0.03571429       0.44444444 </v>
   <v>       0.45000000       0.03571429       0.44444444 </v>
   <v>       0.05000000       0.10714286       0.44444444 </v>
   <v>       0.15000000       0.10714286       0.44444444 </v>
   <v>       0.25000000       0.10714286       0.44444444 </v>
   <v>       0.35000000       0.10714286       0.44444444 </v>
   <v>       0.45000000       0.10714286       0.44444444 </v>
   <v>       0.05000000       0.17857143       0.44444444 </v>
   <v>       0.15000000       0.17857143       0.44444444 </v>
   <v>       0.25000000       0.17857143       0.44444444 </v>
   <v>       0.35000000       0.17857143       0.44444444 </v>
   <v>       0.45000000       0.17857143       0.44444444 </v>
   <v>       0.05000000       0.25000000       0.44444444 </v>
   <v>       0.15000000       0.25000000       0.44444444 </v>
   <v>       0.25000000       0.25000000       0.44444444 </v>
   <v>       0.35000000       0.25000000       0.44444444 </v>
   <v>       0.45000000       0.25000000       0.44444444 </v>
   <v>       0.05000000       0.32142857       0.44444444 </v>
   <v>       0.15000000       0.32142857       0.44444444 </v>
   <v>       0.25000000       0.32142857       0.44444444 </v>
   <v>       0.35000000       0.32142857       0.44444444 </v>
   <v>       0.45000000       0.32142857       0.44444444 </v>
   <v>       0.05000000       0.39285714       0.44444444 </v>
   <v>       0.15000000       0.39285714       0.44444444 </v>
   <v>       0.25000000       0.39285714       0.44444444 </v>
   <v>       0.35000000       0.39285714       0.44444444 </v>
   <v>       0.45000000       0.39285714       0.44444444 </v>
   <v>       0.05000000       0.46428571       0.44444444 </v>
   <v>       0.15000000       0.46428571       0.44444444 </v>
   <v>       0.25000000       0.46428571       0.44444444 </v>
   <v>       0.35000000       0.46428571       0.44444444 </v>
   <v>       0.45000000       0.46428571       0.44444444 </v>
  </varray>
  <varray name="weights" >
   <v>       0.00317460 </v>
   <v>       0.00317460 </v>
   <v>       0.00317460 </v>
   <v>       0.00317460 </v>
   <v>       0.00317460 </v>
   <v>       0.00317460 </v>
   <v>       0.00317460 </v>
   <v>       0.00317460 </v>
   <v>       0.00317460 </v>
   <v>       0.00317460 </v>
   <v>       0.00317460 </v>
   <v>       0.00317460 </v>
   <v>       0.00317460 </v>
   <v>       0.00317460 </v>
   <v>       0.00317460 </v>
   <v>       0.00317460 </v>
   <v>       0.00317460 </v>
   <v>       0.00317460 </v>
   <v>       0.00317460 </v>
   <v>       0.00317460 </v>
   <v>       0.00317460 </v>
   <v>       0.00317460 </v>
   <v>       0.00317460 </v>
   <v>       0.00317460 </v>
   <v>       0.00317460 </v>
   <v>       0.00317460 </v>
   <v>       0.00317460 </v>
   <v>       0.00317460 </v>
   <v>       0.00317460 </v>
   <v>       0.00317460 </v>
   <v>       0.00317460 </v>
   <v>       0.00317460 </v>
   <v>       0.00317460 </v>
   <v>       0.00317460 </v>
   <v>       0.00317460 </v>
   <v>       0.00634921 </v>
   <v>       0.00634921 </v>
   <v>       0.00634921 </v>
   <v>       0.00634921 </v>
   <v>       0.00634921 </v>
   <v>       0.00634921 </v>
   <v>       0.00634921 </v>
   <v>       0.00634921 </v>
   <v>       0.00634921 </v>
   <v>       0.00634921 </v>
   <v>       0.00634921 </v>
   <v>       0.00634921 </v>
   <v>       0.00634921 </v>
   <v>       0.00634921 </v>
   <v>       0.00634921 </v>
   <v>       0.00634921 </v>
   <v>       0.00634921 </v>
   <v>       0.00634921 </v>
   <v>       0.00634921 </v>
   <v>       0.00634921 </v>
   <v>       0.00634921 </v>
   <v>       0.00634921 </v>
   <v>       0.00634921 </v>
   <v>       0.00634921 </v>
   <v>       0.00634921 </v>
   <v>       0.00634921 </v>
   <v>       0.00634921 </v>
   <v>       0.00634921 </v>
   <v>       0.00634921 </v>
   <v>       0.00634921 </v>
   <v>       0.00634921 </v>
   <v>       0.00634921 </v>
   <v>       0.00634921 </v>
   <v>       0.00634921 </v>
   <v>       0.00634921 </v>
   <v>       0.00634921 </v>
   <v>       0.00634921 </v>
   <v>       0.00634921 </v>
   <v>       0.00634921 </v>
   <v>       0.00634921 </v>
   <v>       0.00634921 </v>
   <v>       0.00634921 </v>
   <v>       0.00634921 </v>
   <v>       0.00634921 </v>
   <v>       0.00634921 </v>
   <v>       0.00634921 </v>
   <v>       0.00634921 </v>
   <v>       0.00634921 </v>
   <v>       0.00634921 </v>
   <v>       0.00634921 </v>
   <v>       0.00634921 </v>
   <v>       0.00634921 </v>
   <v>       0.00634921 </v>
   <v>       0.00634921 </v>
   <v>       0.00634921 </v>
   <v>       0.00634921 </v>
   <v>       0.00634921 </v>
   <v>       0.00634921 </v>
   <v>       0.00634921 </v>
   <v>       0.00634921 </v>
   <v>       0.00634921 </v>
   <v>       0.00634921 </v>
   <v>       0.00634921 </v>
   <v>       0.00634921 </v>
   <v>       0.00634921 </v>
   <v>       0.00634921 </v>
   <v>       0.00634921 </v>
   <v>       0.00634921 </v>
   <v>       0.00634921 </v>
   <v>       0.00634921 </v>
   <v>       0.00634921 </v>
   <v>       0.00634921 </v>
   <v>       0.00634921 </v>
   <v>       0.00634921 </v>
   <v>       0.00634921 </v>
   <v>       0.00634921 </v>
   <v>       0.00634921 </v>
   <v>       0.00634921 </v>
   <v>       0.00634921 </v>
   <v>       0.00634921 </v>
   <v>       0.00634921 </v>
   <v>       0.00634921 </v>
   <v>       0.00634921 </v>
   <v>       0.00634921 </v>
   <v>       0.00634921 </v>
   <v>       0.00634921 </v>
   <v>       0.00634921 </v>
   <v>       0.00634921 </v>
   <v>       0.00634921 </v>
   <v>       0.00634921 </v>
   <v>       0.00634921 </v>
   <v>       0.00634921 </v>
   <v>       0.00634921 </v>
   <v>       0.00634921 </v>
   <v>       0.00634921 </v>
   <v>       0.00634921 </v>
   <v>       0.00634921 </v>
   <v>       0.00634921 </v>
   <v>       0.00634921 </v>
   <v>       0.00634921 </v>
   <v>       0.00634921 </v>
   <v>       0.00634921 </v>
   <v>       0.00634921 </v>
   <v>       0.00634921 </v>
   <v>       0.00634921 </v>
   <v>       0.00634921 </v>
   <v>       0.00634921 </v>
   <v>       0.00634921 </v>
   <v>       0.00634921 </v>
   <v>       0.00634921 </v>
   <v>       0.00634921 </v>
   <v>       0.00634921 </v>
   <v>       0.00634921 </v>
   <v>       0.00634921 </v>
   <v>       0.00634921 </v>
   <v>       0.00634921 </v>
   <v>       0.00634921 </v>
   <v>       0.00634921 </v>
   <v>       0.00634921 </v>
   <v>       0.00634921 </v>
   <v>       0.00634921 </v>
   <v>       0.00634921 </v>
   <v>       0.00634921 </v>
   <v>       0.00634921 </v>
   <v>       0.00634921 </v>
   <v>       0.00634921 </v>
   <v>       0.00634921 </v>
   <v>       0.00634921 </v>
   <v>       0.00634921 </v>
   <v>       0.00634921 </v>
   <v>       0.00634921 </v>
   <v>       0.00634921 </v>
   <v>       0.00634921 </v>
   <v>       0.00634921 </v>
   <v>       0.00634921 </v>
   <v>       0.00634921 </v>
   <v>       0.00634921 </v>
   <v>       0.00634921 </v>
   <v>       0.00634921 </v>
   <v>       0.00634921 </v>
  </varray>
 </kpoints>
 <parameters>
  <separator name="general" >
   <i type="string" name="SYSTEM">Convergence</i>
   <i type="logical" name="LCOMPAT"> F  </i>
  </separator>
  <separator name="electronic" >
   <i type="string" name="PREC">accura</i>
   <i name="ENMAX">    600.00000000</i>
   <i name="ENAUG">    535.51400000</i>
   <i name="EDIFF">      0.00000100</i>
   <i type="int" name="IALGO">    38</i>
   <i type="int" name="IWAVPR">    10</i>
   <i type="int" name="NBANDS">    24</i>
   <i type="int" name="NBANDSLOW">    -1</i>
   <i type="int" name="NBANDSHIGH">    -1</i>
   <i name="NELECT">      3.00000000</i>
   <i type="int" name="TURBO">     0</i>
   <i type="int" name="IRESTART">     0</i>
   <i type="int" name="NREBOOT">     0</i>
   <i type="int" name="NMIN">     0</i>
   <i name="EREF">      0.00000000</i>
   <separator name="electronic smearing" >
    <i type="int" name="ISMEAR">     0</i>
    <i name="SIGMA">      0.05000000</i>
    <i name="KSPACING">      0.50000000</i>
    <i type="logical" name="KGAMMA"> T  </i>
    <i type="logical" name="KBLOWUP"> T  </i>
   </separator>
   <separator name="electronic projectors" >
    <i type="logical" name="LREAL"> F  </i>
    <v name="ROPT">      0.00000000</v>
    <i type="int" name="LMAXPAW">  -100</i>
    <i type="int" name="LMAXMIX">     2</i>
    <i type="logical" name="NLSPLINE"> F  </i>
   </separator>
   <separator name="electronic startup" >
    <i type="int" name="ISTART">     0</i>
    <i type="int" name="ICHARG">     2</i>
    <i type="int" name="INIWAV">     1</i>
   </separator>
   <separator name="electronic spin" >
    <i type="int" name="ISPIN">     1</i>
    <i type="logical" name="LNONCOLLINEAR"> F  </i>
    <v name="MAGMOM">      1.00000000</v>
    <i name="NUPDOWN">     -1.00000000</i>
    <i type="logical" name="LSORBIT"> F  </i>
    <v name="SAXIS">      0.00000000      0.00000000      1.00000000</v>
    <i type="logical" name="LSPIRAL"> F  </i>
    <v name="QSPIRAL">      0.00000000      0.00000000      0.00000000</v>
    <i type="logical" name="LZEROZ"> F  </i>
   </separator>
   <separator name="electronic exchange-correlation" >
    <i type="logical" name="LASPH"> F  </i>
   </separator>
   <separator name="electronic convergence" >
    <i type="int" name="NELM">   100</i>
    <i type="int" name="NELMDL">    -5</i>
    <i type="int" name="NELMIN">     2</i>
    <i name="ENINI">    600.00000000</i>
    <separator name="electronic convergence detail" >
     <i type="logical" name="LDIAG"> T  </i>
     <i type="logical" name="LSUBROT"> F  </i>
     <i name="WEIMIN">      0.00000000</i>
     <i name="EBREAK">      0.00000001</i>
     <i name="DEPER">      0.30000000</i>
     <i type="int" name="NRMM">     4</i>
     <i name="TIME">      0.40000000</i>
    </separator>
   </separator>
   <separator name="electronic mixer" >
    <i name="AMIX">      0.40000000</i>
    <i name="BMIX">      1.00000000</i>
    <i name="AMIN">      0.10000000</i>
    <i name="AMIX_MAG">      1.60000000</i>
    <i name="BMIX_MAG">      1.00000000</i>
    <separator name="electronic mixer details" >
     <i type="int" name="IMIX">     4</i>
     <i type="logical" name="MIXFIRST"> F  </i>
     <i type="int" name="MAXMIX">   -45</i>
     <i name="WC">    100.00000000</i>
     <i type="int" name="INIMIX">     1</i>
     <i type="int" name="MIXPRE">     1</i>
     <i type="int" name="MREMOVE">     5</i>
    </separator>
   </separator>
   <separator name="electronic dipolcorrection" >
    <i type="logical" name="LDIPOL"> F  </i>
    <i type="logical" name="LMONO"> F  </i>
    <i type="int" name="IDIPOL">     0</i>
    <i name="EPSILON">      1.00000000</i>
    <v name="DIPOL">   -100.00000000   -100.00000000   -100.00000000</v>
    <i name="EFIELD">      0.00000000</i>
    <i type="logical" name="LVACPOTAV"> F  </i>
   </separator>
  </separator>
  <separator name="grids" >
   <i type="int" name="NGX">   120</i>
   <i type="int" name="NGY">   100</i>
   <i type="int" name="NGZ">   144</i>
   <i type="int" name="NGXF">   240</i>
   <i type="int" name="NGYF">   200</i>
   <i type="int" name="NGZF">   288</i>
   <i type="logical" name="ADDGRID"> F  </i>
  </separator>
  <separator name="ionic" >
   <i type="int" name="NSW">     0</i>
   <i type="int" name="IBRION">    -1</i>
   <i type="int" name="MDALGO">     0</i>
   <i type="int" name="ISIF">     2</i>
   <i name="PSTRESS">      0.00000000</i>
   <i name="EDIFFG">     -0.00100000</i>
   <i type="int" name="NFREE">     0</i>
   <i name="POTIM">      0.50000000</i>
   <i name="SMASS">     -3.00000000</i>
   <i name="SCALEE">      1.00000000</i>
  </separator>
  <separator name="ionic md" >
   <i name="TEBEG">      0.00010000</i>
   <i name="TEEND">      0.00010000</i>
   <i type="int" name="NBLOCK">     1</i>
   <i type="int" name="KBLOCK">     1</i>
   <i type="int" name="NPACO">   256</i>
   <i name="APACO">     10.00000000</i>
  </separator>
  <separator name="symmetry" >
   <i type="int" name="ISYM">     2</i>
   <i name="SYMPREC">      0.00001000</i>
  </separator>
  <separator name="dos" >
   <i type="int" name="LORBIT">     0</i>
   <v name="RWIGS">     -1.00000000</v>
   <i type="int" name="NEDOS">   301</i>
   <i name="EMIN">     10.00000000</i>
   <i name="EMAX">    -10.00000000</i>
   <i name="EFERMI">      0.00000000</i>
  </separator>
  <separator name="writing" >
   <i type="int" name="NWRITE">     2</i>
   <i type="logical" name="LWAVE"> F  </i>
   <i type="logical" name="LDOWNSAMPLE"> F  </i>
   <i type="logical" name="LCHARG"> F  </i>
   <i type="logical" name="LPARD"> F  </i>
   <i type="logical" name="LVTOT"> F  </i>
   <i type="logical" name="LVHAR"> F  </i>
   <i type="logical" name="LELF"> F  </i>
   <i type="logical" name="LOPTICS"> F  </i>
   <v name="STM">      0.00000000      0.00000000      0.00000000      0.00000000      0.00000000      0.00000000      0.00000000</v>
  </separator>
  <separator name="performance" >
   <i type="int" name="NPAR">    24</i>
   <i type="int" name="NSIM">     4</i>
   <i type="int" name="NBLK">    -1</i>
   <i type="logical" name="LPLANE"> T  </i>
   <i type="logical" name="LSCALAPACK"> T  </i>
   <i type="logical" name="LSCAAWARE"> F  </i>
   <i type="logical" name="LSCALU"> F  </i>
   <i type="logical" name="LASYNC"> F  </i>
   <i type="logical" name="LORBITALREAL"> F  </i>
  </separator>
  <separator name="miscellaneous" >
   <i type="int" name="IDIOT">     3</i>
   <i type="int" name="PHON_NSTRUCT">    -1</i>
   <i type="logical" name="LMUSIC"> F  </i>
   <v name="POMASS">     10.81100000</v>
   <v name="DARWINR">      0.00000000</v>
   <v name="DARWINV">      1.00000000</v>
   <i type="logical" name="LCORR"> T  </i>
  </separator>
  <i type="logical" name="GGA_COMPAT"> T  </i>
  <i type="logical" name="LBERRY"> F  </i>
  <i type="int" name="ICORELEVEL">     0</i>
  <i type="logical" name="LDAU"> F  </i>
  <i type="int" name="I_CONSTRAINED_M">     0</i>
  <separator name="electronic exchange-correlation" >
   <i type="string" name="GGA    ">PE</i>
   <i type="string" name="XC_C">1</i>
   <i type="int" name="VOSKOWN">     0</i>
   <i type="logical" name="LHFCALC"> F  </i>
   <i type="string" name="PRECFOCK"></i>
   <i type="logical" name="LSYMGRAD"> F  </i>
   <i type="logical" name="LHFONE"> F  </i>
   <i type="logical" name="LRHFCALC"> F  </i>
   <i type="logical" name="LTHOMAS"> F  </i>
   <i type="logical" name="LMODELHF"> F  </i>
   <i type="logical" name="LFOCKACE"> F  </i>
   <i name="ENCUT4O">     -1.00000000</i>
   <i type="int" name="EXXOEP">     0</i>
   <i type="int" name="FOURORBIT">     0</i>
   <i name="AEXX">      0.00000000</i>
   <i name="HFALPHA">      0.00000000</i>
   <i name="MCALPHA">      0.00000000</i>
   <i name="ALDAX">      1.00000000</i>
   <i name="AGGAX">      1.00000000</i>
   <i name="AMGGAX">      1.00000000</i>
   <i name="ALDAC">      1.00000000</i>
   <i name="AGGAC">      1.00000000</i>
   <i name="AMGGAC">      1.00000000</i>
   <i type="int" name="NKREDX">     1</i>
   <i type="int" name="NKREDY">     1</i>
   <i type="int" name="NKREDZ">     1</i>
   <i type="logical" name="SHIFTRED"> F  </i>
   <i type="logical" name="ODDONLY"> F  </i>
   <i type="logical" name="EVENONLY"> F  </i>
   <i type="int" name="LMAXFOCK">     0</i>
   <i type="int" name="NMAXFOCKAE">     0</i>
   <i type="logical" name="LFOCKAEDFT"> F  </i>
   <i name="HFSCREEN">      0.00000000</i>
   <i name="HFSCREENC">      0.00000000</i>
   <i type="int" name="NBANDSGWLOW">     0</i>
  </separator>
  <separator name="vdW DFT" >
   <i type="logical" name="LUSE_VDW"> F  </i>
   <i type="int" name="IVDW_NL">    -1</i>
   <i type="logical" name="LSPIN_VDW"> F  </i>
   <i name="ZAB_VDW">     -0.84910000</i>
   <i name="GAMMA_VDW">      1.39626340</i>
   <i name="ALPHA_VDW">      0.00000000</i>
   <i name="PARAM1">      0.12340000</i>
   <i name="PARAM2">      1.00000000</i>
   <i name="BPARAM">      6.30000000</i>
   <i name="CPARAM">      0.00930000</i>
  </separator>
  <separator name="model GW" >
   <i type="int" name="MODEL_GW">     0</i>
   <i name="MODEL_EPS0">   2031.08107702</i>
   <i name="MODEL_ALPHA">      1.00000000</i>
  </separator>
  <separator name="linear response parameters" >
   <i type="logical" name="LEPSILON"> F  </i>
   <i type="logical" name="LRPA"> F  </i>
   <i type="logical" name="LNABLA"> F  </i>
   <i type="logical" name="LVEL"> F  </i>
   <i name="CSHIFT">      0.10000000</i>
   <i name="OMEGAMAX">     -1.00000000</i>
   <i name="DEG_THRESHOLD">      0.00200000</i>
   <i name="RTIME">     -0.10000000</i>
   <i name="WPLASMAI">      0.00000000</i>
   <v name="DFIELD">      0.00000000      0.00000000      0.00000000</v>
   <v name="WPLASMA">      0.00000000      0.00000000      0.00000000      0.00000000      0.00000000      0.00000000      0.00000000      0.00000000      0.00000000</v>
  </separator>
  <separator name="orbital magnetization" >
   <i type="logical" name="NUCIND"> F  </i>
   <v name="MAGPOS">      0.00000000      0.00000000      0.00000000</v>
   <i type="logical" name="LNICSALL"> T  </i>
   <i type="logical" name="ORBITALMAG"> F  </i>
   <i type="logical" name="LMAGBLOCH"> F  </i>
   <i type="logical" name="LCHIMAG"> F  </i>
   <i type="logical" name="LGAUGE"> T  </i>
   <i type="int" name="MAGATOM">     0</i>
   <v name="MAGDIPOL">      0.00000000      0.00000000      0.00000000</v>
   <v name="AVECCONST">      0.00000000      0.00000000      0.00000000</v>
  </separator>
  <separator name="response functions" >
   <i type="logical" name="LALL_IN_ONE"> F  </i>
   <i type="int" name="IALL_IN_ONE">    -1</i>
   <i type="int" name="NBANDS_WAVE">    -1</i>
   <i type="logical" name="LFINITE_TEMPERATURE"> F  </i>
   <i type="logical" name="LADDER"> F  </i>
   <i type="logical" name="LRPAFORCE"> F  </i>
   <i type="logical" name="LFXC"> F  </i>
   <i type="logical" name="LHARTREE"> T  </i>
   <i type="int" name="IBSE">     0</i>
   <v type="int" name="KPOINT">    -1     0     0     0</v>
   <i type="logical" name="LTCTC"> F  </i>
   <i type="logical" name="LTCTE"> F  </i>
   <i type="logical" name="LTETE"> F  </i>
   <i type="logical" name="LTRIPLET"> F  </i>
   <i type="logical" name="LFXCEPS"> F  </i>
   <i type="logical" name="LFXHEG"> F  </i>
   <i type="int" name="NATURALO">     2</i>
   <i type="logical" name="LHOLEGF"> F  </i>
   <i type="logical" name="L2ORDER"> F  </i>
   <i type="logical" name="LDMP1"> F  </i>
   <i type="logical" name="LMP2LT"> F  </i>
   <i type="logical" name="LSMP2LT"> F  </i>
   <i type="logical" name="LGWLF"> F  </i>
   <i name="ENCUTGW">     -1.60000002</i>
   <i name="ENCUTGWSOFT">     -1.60000002</i>
   <i name="ENCUTLF">     -1.00000000</i>
   <i type="logical" name="ESF_SPLINES"> F  </i>
   <i name="ESF_CONV">      0.01000000</i>
   <i type="int" name="ESF_NINTER">    15</i>
   <i type="int" name="LMAXMP2">    -1</i>
   <i name="SCISSOR">      0.00000000</i>
   <i type="int" name="NOMEGA">     0</i>
   <i type="int" name="NOMEGAR">     0</i>
   <i type="int" name="NBANDSGW">    -1</i>
   <i type="int" name="NBANDSO">    -1</i>
   <i type="int" name="NBANDSV">    -1</i>
   <i type="int" name="NELMGW">     1</i>
   <i type="int" name="NELMHF">     1</i>
   <i type="int" name="DIM">     3</i>
   <i type="int" name="IESPILON">     4</i>
   <i type="int" name="ANTIRES">     0</i>
   <i name="OMEGAMAX">    -30.00000000</i>
   <i name="OMEGAMIN">    -30.00000000</i>
   <i name="OMEGATL">   -200.00000000</i>
   <i type="int" name="OMEGAGRID">     0</i>
   <i name="CSHIFT">     -0.10000000</i>
   <i type="logical" name="LSELFENERGY"> F  </i>
   <i type="logical" name="LSPECTRAL"> F  </i>
   <i type="logical" name="LSPECTRALGW"> F  </i>
   <i type="logical" name="LSINGLES"> F  </i>
   <i type="logical" name="LFERMIGW"> F  </i>
   <i type="logical" name="ODDONLYGW"> F  </i>
   <i type="logical" name="EVENONLYGW"> F  </i>
   <i type="int" name="NKREDLFX">     1</i>
   <i type="int" name="NKREDLFY">     1</i>
   <i type="int" name="NKREDLFZ">     1</i>
   <i type="int" name="MAXMEM">  2800</i>
   <i type="int" name="TELESCOPE">     0</i>
   <i type="int" name="NTAUPAR">    -1</i>
   <i type="int" name="NOMEGAPAR">    -1</i>
   <i name="DAMP_NEWTON">      0.80000001</i>
   <i name="LAMBDA">      1.00000000</i>
  </separator>
  <separator name="External order field" >
   <i name="OFIELD_KAPPA">      0.00000000</i>
   <v name="OFIELD_K">      0.00000000      0.00000000      0.00000000</v>
   <i name="OFIELD_Q6_NEAR">      0.00000000</i>
   <i name="OFIELD_Q6_FAR">      0.00000000</i>
   <i name="OFIELD_A">      0.00000000</i>
  </separator>
  <separator name="optional k-points parameters" >
   <i type="int" name="KPOINTS_OPT_MODE">     1</i>
   <i type="logical" name="LKPOINTS_OPT"> F  </i>
  </separator>
 </parameters>
 <atominfo>
  <atoms>       1 </atoms>
  <types>       1 </types>
  <array name="atoms" >
   <dimension dim="1">ion</dimension>
   <field type="string">element</field>
   <field type="int">atomtype</field>
   <set>
    <rc><c>B </c><c>   1</c></rc>
   </set>
  </array>
  <array name="atomtypes" >
   <dimension dim="1">type</dimension>
   <field type="int">atomspertype</field>
   <field type="string">element</field>
   <field>mass</field>
   <field>valence</field>
   <field type="string">pseudopotential</field>
   <set>
    <rc><c>   1</c><c>B </c><c>     10.81100000</c><c>      3.00000000</c><c>  PAW_PBE B 06Sep2000                   </c></rc>
   </set>
  </array>
 </atominfo>
 <structure name="initialpos" >
  <crystal>
   <varray name="basis" >
    <v>      15.01500000       0.00000000       0.00000000 </v>
    <v>       0.00000000      12.51250000       0.00000000 </v>
    <v>       0.00000000       0.00000000      18.01800000 </v>
   </varray>
   <i name="volume">   3385.13512837 </i>
   <varray name="rec_basis" >
    <v>       0.06660007       0.00000000       0.00000000 </v>
    <v>       0.00000000       0.07992008       0.00000000 </v>
    <v>       0.00000000       0.00000000       0.05550006 </v>
   </varray>
  </crystal>
  <varray name="positions" >
   <v>       0.52123000       0.54500000       0.63796000 </v>
  </varray>
 </structure>
 <calculation>
  <scstep>
   <time name="dav">   66.23   66.99</time>
   <time name="total">   66.74   67.51</time>
   <energy>
    <i name="alphaZ">      0.02032270 </i>
    <i name="ewald">    -11.81719944 </i>
    <i name="hartreedc">    -42.59542038 </i>
    <i name="XCdc">      4.75549672 </i>
    <i name="pawpsdc">     43.49986551 </i>
    <i name="pawaedc">    -42.64454556 </i>
    <i name="eentropy">     -0.00999385 </i>
    <i name="bandstr">    -14.30421350 </i>
    <i name="atom">     71.16960075 </i>
    <i name="e_fr_energy">      8.07391296 </i>
    <i name="e_wo_entrp">      8.08390681 </i>
    <i name="e_0_energy">      8.07890988 </i>
   </energy>
  </scstep>
  <scstep>
   <time name="dav">  107.37  108.31</time>
   <time name="total">  107.37  108.31</time>
   <energy>
    <i name="e_fr_energy">      0.10927022 </i>
    <i name="e_wo_entrp">      0.13771358 </i>
    <i name="e_0_energy">      0.12349190 </i>
   </energy>
  </scstep>
  <scstep>
   <time name="dav">   67.07   67.68</time>
   <time name="total">   67.07   67.69</time>
   <energy>
    <i name="e_fr_energy">     -0.05481329 </i>
    <i name="e_wo_entrp">     -0.00199717 </i>
    <i name="e_0_energy">     -0.02840523 </i>
   </energy>
  </scstep>
  <scstep>
   <time name="dav">   71.60   72.25</time>
   <time name="total">   71.60   72.25</time>
   <energy>
    <i name="e_fr_energy">     -0.05821329 </i>
    <i name="e_wo_entrp">     -0.00521199 </i>
    <i name="e_0_energy">     -0.03171264 </i>
   </energy>
  </scstep>
  <scstep>
   <time name="dav">   90.69   91.49</time>
   <time name="total">   94.75   95.57</time>
   <energy>
    <i name="e_fr_energy">     -0.05825219 </i>
    <i name="e_wo_entrp">     -0.00525085 </i>
    <i name="e_0_energy">     -0.03175152 </i>
   </energy>
  </scstep>
  <scstep>
   <time name="dav">   82.14   83.07</time>
   <time name="total">   82.64   83.58</time>
   <energy>
    <i name="alphaZ">      0.02032270 </i>
    <i name="ewald">    -11.81719944 </i>
    <i name="hartreedc">    -42.59562465 </i>
    <i name="XCdc">      4.75548562 </i>
    <i name="pawpsdc">     43.56777481 </i>
    <i name="pawaedc">    -42.71248755 </i>
    <i name="eentropy">     -0.05300134 </i>
    <i name="bandstr">    -22.39312351 </i>
    <i name="atom">     71.16960075 </i>
    <i name="e_fr_energy">     -0.05825261 </i>
    <i name="e_wo_entrp">     -0.00525127 </i>
    <i name="e_0_energy">     -0.03175194 </i>
   </energy>
  </scstep>
  <structure>
   <crystal>
    <varray name="basis" >
     <v>      15.01500000       0.00000000       0.00000000 </v>
     <v>       0.00000000      12.51250000       0.00000000 </v>
     <v>       0.00000000       0.00000000      18.01800000 </v>
    </varray>
    <i name="volume">   3385.13512837 </i>
    <varray name="rec_basis" >
     <v>       0.06660007       0.00000000       0.00000000 </v>
     <v>       0.00000000       0.07992008       0.00000000 </v>
     <v>       0.00000000       0.00000000       0.05550006 </v>
    </varray>
   </crystal>
   <varray name="positions" >
    <v>       0.52123000       0.54500000       0.63796000 </v>
   </varray>
  </structure>
  <varray name="forces" >
   <v>       0.00000000       0.00000000      -0.00000000 </v>
  </varray>
  <varray name="stress" >
   <v>      -0.00046446       0.00000000       0.00000000 </v>
   <v>      -0.00000000      -0.00047164       0.00000000 </v>
   <v>       0.00000000       0.00000000      -0.00045440 </v>
  </varray>
  <energy>
   <i name="e_fr_energy">     -0.05825261 </i>
   <i name="e_wo_entrp">     -0.00525127 </i>
   <i name="e_0_energy">     -0.03175194 </i>
  </energy>
  <time name="totalsc">  553.34  558.40</time>
  <eigenvalues>
   <array>
    <dimension dim="1">band</dimension>
    <dimension dim="2">kpoint</dimension>
    <dimension dim="3">spin</dimension>
    <field>eigene</field>
    <field>occ</field>
    <set>
     <set comment="spin 1">
      <set comment="kpoint 1">
       <r>   -9.4100    1.0000 </r>
       <r>   -3.5731    0.1667 </r>
       <r>   -3.5731    0.1667 </r>
       <r>   -3.5730    0.1659 </r>
       <r>   -0.2617    0.0000 </r>
       <r>    0.2935    0.0000 </r>
       <r>    0.3090    0.0000 </r>
       <r>    0.4382    0.0000 </r>
       <r>    0.5723    0.0000 </r>
       <r>    0.6851    0.0000 </r>
       <r>    0.8270    0.0000 </r>
       <r>    0.9088    0.0000 </r>
       <r>    0.9419    0.0000 </r>
       <r>    1.0337    0.0000 </r>
       <r>    1.0763    0.0000 </r>
       <r>    1.1717    0.0000 </r>
       <r>    1.2059    0.0000 </r>
       <r>    1.2870    0.0000 </r>
       <r>    1.3318    0.0000 </r>
       <r>    1.3495    0.0000 </r>
       <r>    1.4252    0.0000 </r>
       <r>    1.4954    0.0000 </r>
       <r>    1.5731    0.0000 </r>
       <r>    1.7043    0.0000 </r>
      </set>
      <set comment="kpoint 2">
       <r>   -9.4100    1.0000 </r>
       <r>   -3.5731    0.1667 </r>
       <r>   -3.5731    0.1667 </r>
       <r>   -3.5730    0.1659 </r>
       <r>   -0.2519    0.0000 </r>
       <r>    0.2682    0.0000 </r>
       <r>    0.3202    0.0000 </r>
       <r>    0.3727    0.0000 </r>
       <r>    0.6878    0.0000 </r>
       <r>    0.7065    0.0000 </r>
       <r>    0.7992    0.0000 </r>
       <r>    0.8286    0.0000 </r>
       <r>    0.8394    0.0000 </r>
       <r>    1.1495    0.0000 </r>
       <r>    1.1625    0.0000 </r>
       <r>    1.1954    0.0000 </r>
       <r>    1.2168    0.0000 </r>
       <r>    1.2544    0.0000 </r>
       <r>    1.3291    0.0000 </r>
       <r>    1.3485    0.0000 </r>
       <r>    1.3850    0.0000 </r>
       <r>    1.5734    0.0000 </r>
       <r>    1.6345    0.0000 </r>
       <r>    1.6843    0.0000 </r>
      </set>
      <set comment="kpoint 3">
       <r>   -9.4100    1.0000 </r>
       <r>   -3.5731    0.1667 </r>
       <r>   -3.5731    0.1667 </r>
       <r>   -3.5730    0.1659 </r>
       <r>   -0.2338    0.0000 </r>
       <r>    0.1986    0.0000 </r>
       <r>    0.3417    0.0000 </r>
       <r>    0.3745    0.0000 </r>
       <r>    0.7025    0.0000 </r>
       <r>    0.7099    0.0000 </r>
       <r>    0.7141    0.0000 </r>
       <r>    0.8524    0.0000 </r>
       <r>    0.8705    0.0000 </r>
       <r>    1.0874    0.0000 </r>
       <r>    1.1913    0.0000 </r>
       <r>    1.2314    0.0000 </r>
       <r>    1.2702    0.0000 </r>
       <r>    1.2929    0.0000 </r>
       <r>    1.3846    0.0000 </r>
       <r>    1.3958    0.0000 </r>
       <r>    1.4030    0.0000 </r>
       <r>    1.5927    0.0000 </r>
       <r>    1.5935    0.0000 </r>
       <r>    1.6463    0.0000 </r>
      </set>
      <set comment="kpoint 4">
       <r>   -9.4100    1.0000 </r>
       <r>   -3.5731    0.1668 </r>
       <r>   -3.5731    0.1667 </r>
       <r>   -3.5730    0.1659 </r>
       <r>   -0.2116    0.0000 </r>
       <r>    0.1310    0.0000 </r>
       <r>    0.3708    0.0000 </r>
       <r>    0.4057    0.0000 </r>
       <r>    0.6231    0.0000 </r>
       <r>    0.6254    0.0000 </r>
       <r>    0.7377    0.0000 </r>
       <r>    0.8854    0.0000 </r>
       <r>    0.9991    0.0000 </r>
       <r>    1.0382    0.0000 </r>
       <r>    1.1645    0.0000 </r>
       <r>    1.2172    0.0000 </r>
       <r>    1.3042    0.0000 </r>
       <r>    1.3600    0.0000 </r>
       <r>    1.4332    0.0000 </r>
       <r>    1.4823    0.0000 </r>
       <r>    1.5023    0.0000 </r>
       <r>    1.5422    0.0000 </r>
       <r>    1.5557    0.0000 </r>
       <r>    1.6019    0.0000 </r>
      </set>
      <set comment="kpoint 5">
       <r>   -9.4100    1.0000 </r>
       <r>   -3.5731    0.1668 </r>
       <r>   -3.5731    0.1667 </r>
       <r>   -3.5730    0.1659 </r>
       <r>   -0.1946    0.0000 </r>
       <r>    0.0899    0.0000 </r>
       <r>    0.3972    0.0000 </r>
       <r>    0.4437    0.0000 </r>
       <r>    0.5599    0.0000 </r>
       <r>    0.5714    0.0000 </r>
       <r>    0.7580    0.0000 </r>
       <r>    0.9103    0.0000 </r>
       <r>    0.9688    0.0000 </r>
       <r>    1.0989    0.0000 </r>
       <r>    1.2095    0.0000 </r>
       <r>    1.2370    0.0000 </r>
       <r>    1.3388    0.0000 </r>
       <r>    1.4004    0.0000 </r>
       <r>    1.4009    0.0000 </r>
       <r>    1.4452    0.0000 </r>
       <r>    1.4505    0.0000 </r>
       <r>    1.5124    0.0000 </r>
       <r>    1.5779    0.0000 </r>
       <r>    1.5801    0.0000 </r>
      </set>
      <set comment="kpoint 6">
       <r>   -9.4100    1.0000 </r>
       <r>   -3.5731    0.1667 </r>
       <r>   -3.5731    0.1666 </r>
       <r>   -3.5730    0.1660 </r>
       <r>   -0.2526    0.0000 </r>
       <r>    0.3016    0.0000 </r>
       <r>    0.3179    0.0000 </r>
       <r>    0.4471    0.0000 </r>
       <r>    0.5606    0.0000 </r>
       <r>    0.5908    0.0000 </r>
       <r>    0.9164    0.0000 </r>
       <r>    0.9444    0.0000 </r>
       <r>    0.9617    0.0000 </r>
       <r>    1.0229    0.0000 </r>
       <r>    1.0822    0.0000 </r>
       <r>    1.0852    0.0000 </r>
       <r>    1.0930    0.0000 </r>
       <r>    1.1868    0.0000 </r>
       <r>    1.3314    0.0000 </r>
       <r>    1.4530    0.0000 </r>
       <r>    1.4900    0.0000 </r>
       <r>    1.5813    0.0000 </r>
       <r>    1.6347    0.0000 </r>
       <r>    1.6759    0.0000 </r>
      </set>
      <set comment="kpoint 7">
       <r>   -9.4100    1.0000 </r>
       <r>   -3.5731    0.1667 </r>
       <r>   -3.5731    0.1667 </r>
       <r>   -3.5730    0.1660 </r>
       <r>   -0.2428    0.0000 </r>
       <r>    0.2767    0.0000 </r>
       <r>    0.3291    0.0000 </r>
       <r>    0.3816    0.0000 </r>
       <r>    0.5775    0.0000 </r>
       <r>    0.7106    0.0000 </r>
       <r>    0.8079    0.0000 </r>
       <r>    0.8384    0.0000 </r>
       <r>    0.9655    0.0000 </r>
       <r>    1.0567    0.0000 </r>
       <r>    1.0596    0.0000 </r>
       <r>    1.1332    0.0000 </r>
       <r>    1.1906    0.0000 </r>
       <r>    1.2315    0.0000 </r>
       <r>    1.4177    0.0000 </r>
       <r>    1.4630    0.0000 </r>
       <r>    1.4672    0.0000 </r>
       <r>    1.5553    0.0000 </r>
       <r>    1.5715    0.0000 </r>
       <r>    1.6016    0.0000 </r>
      </set>
      <set comment="kpoint 8">
       <r>   -9.4100    1.0000 </r>
       <r>   -3.5731    0.1667 </r>
       <r>   -3.5731    0.1667 </r>
       <r>   -3.5730    0.1660 </r>
       <r>   -0.2247    0.0000 </r>
       <r>    0.2077    0.0000 </r>
       <r>    0.3506    0.0000 </r>
       <r>    0.3831    0.0000 </r>
       <r>    0.5980    0.0000 </r>
       <r>    0.7116    0.0000 </r>
       <r>    0.7195    0.0000 </r>
       <r>    0.8722    0.0000 </r>
       <r>    0.9629    0.0000 </r>
       <r>    1.0010    0.0000 </r>
       <r>    1.0827    0.0000 </r>
       <r>    1.1496    0.0000 </r>
       <r>    1.3225    0.0000 </r>
       <r>    1.3475    0.0000 </r>
       <r>    1.3936    0.0000 </r>
       <r>    1.4657    0.0000 </r>
       <r>    1.4944    0.0000 </r>
       <r>    1.5063    0.0000 </r>
       <r>    1.5286    0.0000 </r>
       <r>    1.6288    0.0000 </r>
      </set>
      <set comment="kpoint 9">
       <r>   -9.4100    1.0000 </r>
       <r>   -3.5731    0.1668 </r>
       <r>   -3.5731    0.1667 </r>
       <r>   -3.5730    0.1660 </r>
       <r>   -0.2026    0.0000 </r>
       <r>    0.1402    0.0000 </r>
       <r>    0.3796    0.0000 </r>
       <r>    0.4141    0.0000 </r>
       <r>    0.6238    0.0000 </r>
       <r>    0.6324    0.0000 </r>
       <r>    0.6346    0.0000 </r>
       <r>    0.8921    0.0000 </r>
       <r>    1.0164    0.0000 </r>
       <r>    1.0372    0.0000 </r>
       <r>    1.1101    0.0000 </r>
       <r>    1.1850    0.0000 </r>
       <r>    1.2893    0.0000 </r>
       <r>    1.3661    0.0000 </r>
       <r>    1.3960    0.0000 </r>
       <r>    1.4818    0.0000 </r>
       <r>    1.5423    0.0000 </r>
       <r>    1.5484    0.0000 </r>
       <r>    1.5673    0.0000 </r>
       <r>    1.6374    0.0000 </r>
      </set>
      <set comment="kpoint 10">
       <r>   -9.4100    1.0000 </r>
       <r>   -3.5731    0.1668 </r>
       <r>   -3.5731    0.1667 </r>
       <r>   -3.5730    0.1660 </r>
       <r>   -0.1857    0.0000 </r>
       <r>    0.0993    0.0000 </r>
       <r>    0.4058    0.0000 </r>
       <r>    0.4521    0.0000 </r>
       <r>    0.5686    0.0000 </r>
       <r>    0.5809    0.0000 </r>
       <r>    0.6468    0.0000 </r>
       <r>    0.8484    0.0000 </r>
       <r>    1.0361    0.0000 </r>
       <r>    1.1333    0.0000 </r>
       <r>    1.1885    0.0000 </r>
       <r>    1.2277    0.0000 </r>
       <r>    1.2565    0.0000 </r>
       <r>    1.3289    0.0000 </r>
       <r>    1.3327    0.0000 </r>
       <r>    1.4169    0.0000 </r>
       <r>    1.5220    0.0000 </r>
       <r>    1.6387    0.0000 </r>
       <r>    1.6450    0.0000 </r>
       <r>    1.7028    0.0000 </r>
      </set>
      <set comment="kpoint 11">
       <r>   -9.4100    1.0000 </r>
       <r>   -3.5731    0.1667 </r>
       <r>   -3.5731    0.1666 </r>
       <r>   -3.5731    0.1663 </r>
       <r>   -0.2347    0.0000 </r>
       <r>    0.3144    0.0000 </r>
       <r>    0.3357    0.0000 </r>
       <r>    0.4601    0.0000 </r>
       <r>    0.4667    0.0000 </r>
       <r>    0.6033    0.0000 </r>
       <r>    0.9162    0.0000 </r>
       <r>    0.9525    0.0000 </r>
       <r>    0.9589    0.0000 </r>
       <r>    0.9723    0.0000 </r>
       <r>    1.0703    0.0000 </r>
       <r>    1.0774    0.0000 </r>
       <r>    1.1010    0.0000 </r>
       <r>    1.1323    0.0000 </r>
       <r>    1.2271    0.0000 </r>
       <r>    1.5434    0.0000 </r>
       <r>    1.5719    0.0000 </r>
       <r>    1.6055    0.0000 </r>
       <r>    1.6404    0.0000 </r>
       <r>    1.6570    0.0000 </r>
      </set>
      <set comment="kpoint 12">
       <r>   -9.4100    1.0000 </r>
       <r>   -3.5731    0.1667 </r>
       <r>   -3.5731    0.1667 </r>
       <r>   -3.5731    0.1663 </r>
       <r>   -0.2249    0.0000 </r>
       <r>    0.2918    0.0000 </r>
       <r>    0.3469    0.0000 </r>
       <r>    0.3981    0.0000 </r>
       <r>    0.4726    0.0000 </r>
       <r>    0.7275    0.0000 </r>
       <r>    0.8243    0.0000 </r>
       <r>    0.8549    0.0000 </r>
       <r>    0.9374    0.0000 </r>
       <r>    0.9562    0.0000 </r>
       <r>    1.0160    0.0000 </r>
       <r>    1.1251    0.0000 </r>
       <r>    1.2059    0.0000 </r>
       <r>    1.2502    0.0000 </r>
       <r>    1.3400    0.0000 </r>
       <r>    1.4489    0.0000 </r>
       <r>    1.4768    0.0000 </r>
       <r>    1.6070    0.0000 </r>
       <r>    1.6104    0.0000 </r>
       <r>    1.6707    0.0000 </r>
      </set>
      <set comment="kpoint 13">
       <r>   -9.4100    1.0000 </r>
       <r>   -3.5731    0.1667 </r>
       <r>   -3.5731    0.1667 </r>
       <r>   -3.5731    0.1663 </r>
       <r>   -0.2069    0.0000 </r>
       <r>    0.2252    0.0000 </r>
       <r>    0.3683    0.0000 </r>
       <r>    0.3972    0.0000 </r>
       <r>    0.4933    0.0000 </r>
       <r>    0.7296    0.0000 </r>
       <r>    0.7341    0.0000 </r>
       <r>    0.8555    0.0000 </r>
       <r>    0.9001    0.0000 </r>
       <r>    0.9761    0.0000 </r>
       <r>    1.0241    0.0000 </r>
       <r>    1.1457    0.0000 </r>
       <r>    1.3162    0.0000 </r>
       <r>    1.3433    0.0000 </r>
       <r>    1.3894    0.0000 </r>
       <r>    1.4046    0.0000 </r>
       <r>    1.4979    0.0000 </r>
       <r>    1.5518    0.0000 </r>
       <r>    1.6269    0.0000 </r>
       <r>    1.6869    0.0000 </r>
      </set>
      <set comment="kpoint 14">
       <r>   -9.4100    1.0000 </r>
       <r>   -3.5731    0.1667 </r>
       <r>   -3.5731    0.1667 </r>
       <r>   -3.5731    0.1663 </r>
       <r>   -0.1850    0.0000 </r>
       <r>    0.1586    0.0000 </r>
       <r>    0.3970    0.0000 </r>
       <r>    0.4270    0.0000 </r>
       <r>    0.5205    0.0000 </r>
       <r>    0.6498    0.0000 </r>
       <r>    0.6510    0.0000 </r>
       <r>    0.7856    0.0000 </r>
       <r>    1.0038    0.0000 </r>
       <r>    1.0484    0.0000 </r>
       <r>    1.0615    0.0000 </r>
       <r>    1.1709    0.0000 </r>
       <r>    1.2646    0.0000 </r>
       <r>    1.2707    0.0000 </r>
       <r>    1.4451    0.0000 </r>
       <r>    1.5129    0.0000 </r>
       <r>    1.5764    0.0000 </r>
       <r>    1.6001    0.0000 </r>
       <r>    1.6554    0.0000 </r>
       <r>    1.6783    0.0000 </r>
      </set>
      <set comment="kpoint 15">
       <r>   -9.4100    1.0000 </r>
       <r>   -3.5731    0.1668 </r>
       <r>   -3.5731    0.1667 </r>
       <r>   -3.5731    0.1663 </r>
       <r>   -0.1682    0.0000 </r>
       <r>    0.1180    0.0000 </r>
       <r>    0.4229    0.0000 </r>
       <r>    0.4632    0.0000 </r>
       <r>    0.5451    0.0000 </r>
       <r>    0.5851    0.0000 </r>
       <r>    0.6000    0.0000 </r>
       <r>    0.7384    0.0000 </r>
       <r>    1.0282    0.0000 </r>
       <r>    1.0913    0.0000 </r>
       <r>    1.1867    0.0000 </r>
       <r>    1.1927    0.0000 </r>
       <r>    1.2169    0.0000 </r>
       <r>    1.2470    0.0000 </r>
       <r>    1.3844    0.0000 </r>
       <r>    1.4563    0.0000 </r>
       <r>    1.6317    0.0000 </r>
       <r>    1.6897    0.0000 </r>
       <r>    1.7365    0.0000 </r>
       <r>    1.7615    0.0000 </r>
      </set>
      <set comment="kpoint 16">
       <r>   -9.4100    1.0000 </r>
       <r>   -3.5731    0.1667 </r>
       <r>   -3.5731    0.1667 </r>
       <r>   -3.5731    0.1666 </r>
       <r>   -0.2088    0.0000 </r>
       <r>    0.3064    0.0000 </r>
       <r>    0.3621    0.0000 </r>
       <r>    0.3985    0.0000 </r>
       <r>    0.4909    0.0000 </r>
       <r>    0.6304    0.0000 </r>
       <r>    0.8367    0.0000 </r>
       <r>    0.8561    0.0000 </r>
       <r>    0.9564    0.0000 </r>
       <r>    0.9684    0.0000 </r>
       <r>    1.0184    0.0000 </r>
       <r>    1.1006    0.0000 </r>
       <r>    1.1059    0.0000 </r>
       <r>    1.1485    0.0000 </r>
       <r>    1.2729    0.0000 </r>
       <r>    1.4585    0.0000 </r>
       <r>    1.4804    0.0000 </r>
       <r>    1.5808    0.0000 </r>
       <r>    1.6182    0.0000 </r>
       <r>    1.6911    0.0000 </r>
      </set>
      <set comment="kpoint 17">
       <r>   -9.4100    1.0000 </r>
       <r>   -3.5731    0.1667 </r>
       <r>   -3.5731    0.1666 </r>
       <r>   -3.5731    0.1666 </r>
       <r>   -0.1991    0.0000 </r>
       <r>    0.2996    0.0000 </r>
       <r>    0.3731    0.0000 </r>
       <r>    0.3835    0.0000 </r>
       <r>    0.4343    0.0000 </r>
       <r>    0.7502    0.0000 </r>
       <r>    0.8282    0.0000 </r>
       <r>    0.8314    0.0000 </r>
       <r>    0.8772    0.0000 </r>
       <r>    0.8907    0.0000 </r>
       <r>    0.9191    0.0000 </r>
       <r>    1.2194    0.0000 </r>
       <r>    1.2279    0.0000 </r>
       <r>    1.2767    0.0000 </r>
       <r>    1.2941    0.0000 </r>
       <r>    1.3531    0.0000 </r>
       <r>    1.3842    0.0000 </r>
       <r>    1.6901    0.0000 </r>
       <r>    1.6959    0.0000 </r>
       <r>    1.7425    0.0000 </r>
      </set>
      <set comment="kpoint 18">
       <r>   -9.4100    1.0000 </r>
       <r>   -3.5731    0.1667 </r>
       <r>   -3.5731    0.1667 </r>
       <r>   -3.5731    0.1667 </r>
       <r>   -0.1813    0.0000 </r>
       <r>    0.2492    0.0000 </r>
       <r>    0.3734    0.0000 </r>
       <r>    0.3943    0.0000 </r>
       <r>    0.4485    0.0000 </r>
       <r>    0.7261    0.0000 </r>
       <r>    0.7552    0.0000 </r>
       <r>    0.7941    0.0000 </r>
       <r>    0.8789    0.0000 </r>
       <r>    0.9207    0.0000 </r>
       <r>    0.9243    0.0000 </r>
       <r>    1.2384    0.0000 </r>
       <r>    1.2434    0.0000 </r>
       <r>    1.2885    0.0000 </r>
       <r>    1.3917    0.0000 </r>
       <r>    1.4160    0.0000 </r>
       <r>    1.4415    0.0000 </r>
       <r>    1.6718    0.0000 </r>
       <r>    1.7370    0.0000 </r>
       <r>    1.7375    0.0000 </r>
      </set>
      <set comment="kpoint 19">
       <r>   -9.4100    1.0000 </r>
       <r>   -3.5731    0.1667 </r>
       <r>   -3.5731    0.1667 </r>
       <r>   -3.5731    0.1667 </r>
       <r>   -0.1596    0.0000 </r>
       <r>    0.1856    0.0000 </r>
       <r>    0.3958    0.0000 </r>
       <r>    0.4227    0.0000 </r>
       <r>    0.4809    0.0000 </r>
       <r>    0.6489    0.0000 </r>
       <r>    0.6785    0.0000 </r>
       <r>    0.7124    0.0000 </r>
       <r>    0.9058    0.0000 </r>
       <r>    0.9552    0.0000 </r>
       <r>    1.0782    0.0000 </r>
       <r>    1.1631    0.0000 </r>
       <r>    1.1672    0.0000 </r>
       <r>    1.3175    0.0000 </r>
       <r>    1.5374    0.0000 </r>
       <r>    1.5406    0.0000 </r>
       <r>    1.5793    0.0000 </r>
       <r>    1.6456    0.0000 </r>
       <r>    1.6651    0.0000 </r>
       <r>    1.7643    0.0000 </r>
      </set>
      <set comment="kpoint 20">
       <r>   -9.4100    1.0000 </r>
       <r>   -3.5731    0.1667 </r>
       <r>   -3.5731    0.1667 </r>
       <r>   -3.5731    0.1667 </r>
       <r>   -0.1430    0.0000 </r>
       <r>    0.1459    0.0000 </r>
       <r>    0.4203    0.0000 </r>
       <r>    0.4480    0.0000 </r>
       <r>    0.5175    0.0000 </r>
       <r>    0.5920    0.0000 </r>
       <r>    0.6283    0.0000 </r>
       <r>    0.6560    0.0000 </r>
       <r>    0.9311    0.0000 </r>
       <r>    0.9955    0.0000 </r>
       <r>    1.0942    0.0000 </r>
       <r>    1.1126    0.0000 </r>
       <r>    1.2538    0.0000 </r>
       <r>    1.3390    0.0000 </r>
       <r>    1.4424    0.0000 </r>
       <r>    1.5766    0.0000 </r>
       <r>    1.6837    0.0000 </r>
       <r>    1.7184    0.0000 </r>
       <r>    1.7689    0.0000 </r>
       <r>    1.7977    0.0000 </r>
      </set>
      <set comment="kpoint 21">
       <r>   -9.4100    1.0000 </r>
       <r>   -3.5732    0.1670 </r>
       <r>   -3.5731    0.1666 </r>
       <r>   -3.5731    0.1666 </r>
       <r>   -0.1768    0.0000 </r>
       <r>    0.2424    0.0000 </r>
       <r>    0.3962    0.0000 </r>
       <r>    0.4126    0.0000 </r>
       <r>    0.5243    0.0000 </r>
       <r>    0.6661    0.0000 </r>
       <r>    0.7497    0.0000 </r>
       <r>    0.7604    0.0000 </r>
       <r>    0.8802    0.0000 </r>
       <r>    1.0007    0.0000 </r>
       <r>    1.0211    0.0000 </r>
       <r>    1.0477    0.0000 </r>
       <r>    1.1338    0.0000 </r>
       <r>    1.1782    0.0000 </r>
       <r>    1.3696    0.0000 </r>
       <r>    1.3723    0.0000 </r>
       <r>    1.4337    0.0000 </r>
       <r>    1.4945    0.0000 </r>
       <r>    1.5371    0.0000 </r>
       <r>    1.7278    0.0000 </r>
      </set>
      <set comment="kpoint 22">
       <r>   -9.4100    1.0000 </r>
       <r>   -3.5732    0.1670 </r>
       <r>   -3.5731    0.1666 </r>
       <r>   -3.5731    0.1666 </r>
       <r>   -0.1672    0.0000 </r>
       <r>    0.2512    0.0000 </r>
       <r>    0.3833    0.0000 </r>
       <r>    0.4071    0.0000 </r>
       <r>    0.4676    0.0000 </r>
       <r>    0.7264    0.0000 </r>
       <r>    0.7599    0.0000 </r>
       <r>    0.7936    0.0000 </r>
       <r>    0.8223    0.0000 </r>
       <r>    0.8947    0.0000 </r>
       <r>    0.9325    0.0000 </r>
       <r>    1.1457    0.0000 </r>
       <r>    1.2298    0.0000 </r>
       <r>    1.2715    0.0000 </r>
       <r>    1.2936    0.0000 </r>
       <r>    1.3187    0.0000 </r>
       <r>    1.4478    0.0000 </r>
       <r>    1.6307    0.0000 </r>
       <r>    1.6643    0.0000 </r>
       <r>    1.7352    0.0000 </r>
      </set>
      <set comment="kpoint 23">
       <r>   -9.4100    1.0000 </r>
       <r>   -3.5732    0.1670 </r>
       <r>   -3.5731    0.1666 </r>
       <r>   -3.5731    0.1666 </r>
       <r>   -0.1496    0.0000 </r>
       <r>    0.2577    0.0000 </r>
       <r>    0.3206    0.0000 </r>
       <r>    0.4279    0.0000 </r>
       <r>    0.4783    0.0000 </r>
       <r>    0.6502    0.0000 </r>
       <r>    0.7694    0.0000 </r>
       <r>    0.8116    0.0000 </r>
       <r>    0.8148    0.0000 </r>
       <r>    0.8274    0.0000 </r>
       <r>    0.9573    0.0000 </r>
       <r>    1.1498    0.0000 </r>
       <r>    1.1549    0.0000 </r>
       <r>    1.3070    0.0000 </r>
       <r>    1.4214    0.0000 </r>
       <r>    1.4474    0.0000 </r>
       <r>    1.4937    0.0000 </r>
       <r>    1.7293    0.0000 </r>
       <r>    1.7685    0.0000 </r>
       <r>    1.8150    0.0000 </r>
      </set>
      <set comment="kpoint 24">
       <r>   -9.4100    1.0000 </r>
       <r>   -3.5732    0.1670 </r>
       <r>   -3.5731    0.1667 </r>
       <r>   -3.5731    0.1666 </r>
       <r>   -0.1284    0.0000 </r>
       <r>    0.2192    0.0000 </r>
       <r>    0.3185    0.0000 </r>
       <r>    0.4556    0.0000 </r>
       <r>    0.5109    0.0000 </r>
       <r>    0.5758    0.0000 </r>
       <r>    0.7136    0.0000 </r>
       <r>    0.7308    0.0000 </r>
       <r>    0.8191    0.0000 </r>
       <r>    0.8602    0.0000 </r>
       <r>    1.0614    0.0000 </r>
       <r>    1.0703    0.0000 </r>
       <r>    1.1254    0.0000 </r>
       <r>    1.4358    0.0000 </r>
       <r>    1.5038    0.0000 </r>
       <r>    1.5733    0.0000 </r>
       <r>    1.6333    0.0000 </r>
       <r>    1.6663    0.0000 </r>
       <r>    1.7979    0.0000 </r>
       <r>    1.8291    0.0000 </r>
      </set>
      <set comment="kpoint 25">
       <r>   -9.4100    1.0000 </r>
       <r>   -3.5732    0.1670 </r>
       <r>   -3.5731    0.1667 </r>
       <r>   -3.5731    0.1666 </r>
       <r>   -0.1123    0.0000 </r>
       <r>    0.1824    0.0000 </r>
       <r>    0.3394    0.0000 </r>
       <r>    0.4801    0.0000 </r>
       <r>    0.5245    0.0000 </r>
       <r>    0.5513    0.0000 </r>
       <r>    0.6656    0.0000 </r>
       <r>    0.6661    0.0000 </r>
       <r>    0.8445    0.0000 </r>
       <r>    0.9008    0.0000 </r>
       <r>    1.0007    0.0000 </r>
       <r>    1.0179    0.0000 </r>
       <r>    1.2892    0.0000 </r>
       <r>    1.4520    0.0000 </r>
       <r>    1.5087    0.0000 </r>
       <r>    1.6402    0.0000 </r>
       <r>    1.7180    0.0000 </r>
       <r>    1.7345    0.0000 </r>
       <r>    1.8105    0.0000 </r>
       <r>    1.8302    0.0000 </r>
      </set>
      <set comment="kpoint 26">
       <r>   -9.4100    1.0000 </r>
       <r>   -3.5732    0.1673 </r>
       <r>   -3.5731    0.1666 </r>
       <r>   -3.5731    0.1666 </r>
       <r>   -0.1429    0.0000 </r>
       <r>    0.1755    0.0000 </r>
       <r>    0.4356    0.0000 </r>
       <r>    0.4547    0.0000 </r>
       <r>    0.5625    0.0000 </r>
       <r>    0.6741    0.0000 </r>
       <r>    0.6743    0.0000 </r>
       <r>    0.7086    0.0000 </r>
       <r>    0.8075    0.0000 </r>
       <r>    0.9439    0.0000 </r>
       <r>    1.0386    0.0000 </r>
       <r>    1.0912    0.0000 </r>
       <r>    1.1730    0.0000 </r>
       <r>    1.2246    0.0000 </r>
       <r>    1.2934    0.0000 </r>
       <r>    1.2974    0.0000 </r>
       <r>    1.4188    0.0000 </r>
       <r>    1.4273    0.0000 </r>
       <r>    1.6045    0.0000 </r>
       <r>    1.7728    0.0000 </r>
      </set>
      <set comment="kpoint 27">
       <r>   -9.4100    1.0000 </r>
       <r>   -3.5732    0.1673 </r>
       <r>   -3.5731    0.1666 </r>
       <r>   -3.5731    0.1666 </r>
       <r>   -0.1335    0.0000 </r>
       <r>    0.1865    0.0000 </r>
       <r>    0.4206    0.0000 </r>
       <r>    0.4462    0.0000 </r>
       <r>    0.5106    0.0000 </r>
       <r>    0.6496    0.0000 </r>
       <r>    0.6856    0.0000 </r>
       <r>    0.7360    0.0000 </r>
       <r>    0.8344    0.0000 </r>
       <r>    0.9336    0.0000 </r>
       <r>    0.9793    0.0000 </r>
       <r>    1.0713    0.0000 </r>
       <r>    1.1681    0.0000 </r>
       <r>    1.1882    0.0000 </r>
       <r>    1.3154    0.0000 </r>
       <r>    1.3658    0.0000 </r>
       <r>    1.5509    0.0000 </r>
       <r>    1.5575    0.0000 </r>
       <r>    1.6286    0.0000 </r>
       <r>    1.7782    0.0000 </r>
      </set>
      <set comment="kpoint 28">
       <r>   -9.4100    1.0000 </r>
       <r>   -3.5732    0.1673 </r>
       <r>   -3.5731    0.1666 </r>
       <r>   -3.5731    0.1666 </r>
       <r>   -0.1165    0.0000 </r>
       <r>    0.2073    0.0000 </r>
       <r>    0.3438    0.0000 </r>
       <r>    0.4665    0.0000 </r>
       <r>    0.5220    0.0000 </r>
       <r>    0.5736    0.0000 </r>
       <r>    0.7075    0.0000 </r>
       <r>    0.7424    0.0000 </r>
       <r>    0.8399    0.0000 </r>
       <r>    0.8577    0.0000 </r>
       <r>    0.9963    0.0000 </r>
       <r>    1.0711    0.0000 </r>
       <r>    1.0758    0.0000 </r>
       <r>    1.2345    0.0000 </r>
       <r>    1.4578    0.0000 </r>
       <r>    1.5147    0.0000 </r>
       <r>    1.6126    0.0000 </r>
       <r>    1.7059    0.0000 </r>
       <r>    1.7329    0.0000 </r>
       <r>    1.7780    0.0000 </r>
      </set>
      <set comment="kpoint 29">
       <r>   -9.4100    1.0000 </r>
       <r>   -3.5732    0.1673 </r>
       <r>   -3.5731    0.1667 </r>
       <r>   -3.5731    0.1666 </r>
       <r>   -0.0960    0.0000 </r>
       <r>    0.2313    0.0000 </r>
       <r>    0.2806    0.0000 </r>
       <r>    0.4931    0.0000 </r>
       <r>    0.4963    0.0000 </r>
       <r>    0.5575    0.0000 </r>
       <r>    0.7327    0.0000 </r>
       <r>    0.7690    0.0000 </r>
       <r>    0.7732    0.0000 </r>
       <r>    0.7763    0.0000 </r>
       <r>    0.9826    0.0000 </r>
       <r>    0.9891    0.0000 </r>
       <r>    1.1599    0.0000 </r>
       <r>    1.3921    0.0000 </r>
       <r>    1.6091    0.0000 </r>
       <r>    1.6108    0.0000 </r>
       <r>    1.6796    0.0000 </r>
       <r>    1.7062    0.0000 </r>
       <r>    1.8457    0.0000 </r>
       <r>    1.8792    0.0000 </r>
      </set>
      <set comment="kpoint 30">
       <r>   -9.4100    1.0000 </r>
       <r>   -3.5732    0.1673 </r>
       <r>   -3.5731    0.1667 </r>
       <r>   -3.5731    0.1666 </r>
       <r>   -0.0808    0.0000 </r>
       <r>    0.2256    0.0000 </r>
       <r>    0.2724    0.0000 </r>
       <r>    0.4465    0.0000 </r>
       <r>    0.5161    0.0000 </r>
       <r>    0.5962    0.0000 </r>
       <r>    0.7089    0.0000 </r>
       <r>    0.7101    0.0000 </r>
       <r>    0.7724    0.0000 </r>
       <r>    0.8158    0.0000 </r>
       <r>    0.9167    0.0000 </r>
       <r>    0.9345    0.0000 </r>
       <r>    1.3270    0.0000 </r>
       <r>    1.4980    0.0000 </r>
       <r>    1.5773    0.0000 </r>
       <r>    1.6359    0.0000 </r>
       <r>    1.7479    0.0000 </r>
       <r>    1.7505    0.0000 </r>
       <r>    1.8711    0.0000 </r>
       <r>    1.8763    0.0000 </r>
      </set>
      <set comment="kpoint 31">
       <r>   -9.4100    1.0000 </r>
       <r>   -3.5732    0.1675 </r>
       <r>   -3.5731    0.1666 </r>
       <r>   -3.5731    0.1666 </r>
       <r>   -0.1177    0.0000 </r>
       <r>    0.1328    0.0000 </r>
       <r>    0.4705    0.0000 </r>
       <r>    0.5024    0.0000 </r>
       <r>    0.5948    0.0000 </r>
       <r>    0.6068    0.0000 </r>
       <r>    0.6209    0.0000 </r>
       <r>    0.7450    0.0000 </r>
       <r>    0.7593    0.0000 </r>
       <r>    0.8862    0.0000 </r>
       <r>    1.0709    0.0000 </r>
       <r>    1.1431    0.0000 </r>
       <r>    1.2095    0.0000 </r>
       <r>    1.2256    0.0000 </r>
       <r>    1.2394    0.0000 </r>
       <r>    1.2797    0.0000 </r>
       <r>    1.3585    0.0000 </r>
       <r>    1.3665    0.0000 </r>
       <r>    1.7095    0.0000 </r>
       <r>    1.8500    0.0000 </r>
      </set>
      <set comment="kpoint 32">
       <r>   -9.4100    1.0000 </r>
       <r>   -3.5732    0.1675 </r>
       <r>   -3.5731    0.1666 </r>
       <r>   -3.5731    0.1666 </r>
       <r>   -0.1086    0.0000 </r>
       <r>    0.1444    0.0000 </r>
       <r>    0.4604    0.0000 </r>
       <r>    0.4808    0.0000 </r>
       <r>    0.5538    0.0000 </r>
       <r>    0.5886    0.0000 </r>
       <r>    0.6330    0.0000 </r>
       <r>    0.6757    0.0000 </r>
       <r>    0.8682    0.0000 </r>
       <r>    0.9697    0.0000 </r>
       <r>    1.0180    0.0000 </r>
       <r>    1.0340    0.0000 </r>
       <r>    1.1150    0.0000 </r>
       <r>    1.1150    0.0000 </r>
       <r>    1.3462    0.0000 </r>
       <r>    1.4185    0.0000 </r>
       <r>    1.4981    0.0000 </r>
       <r>    1.5064    0.0000 </r>
       <r>    1.7174    0.0000 </r>
       <r>    1.8503    0.0000 </r>
      </set>
      <set comment="kpoint 33">
       <r>   -9.4100    1.0000 </r>
       <r>   -3.5732    0.1675 </r>
       <r>   -3.5731    0.1666 </r>
       <r>   -3.5731    0.1666 </r>
       <r>   -0.0922    0.0000 </r>
       <r>    0.1671    0.0000 </r>
       <r>    0.3805    0.0000 </r>
       <r>    0.5000    0.0000 </r>
       <r>    0.5139    0.0000 </r>
       <r>    0.5717    0.0000 </r>
       <r>    0.6567    0.0000 </r>
       <r>    0.6752    0.0000 </r>
       <r>    0.8776    0.0000 </r>
       <r>    0.9037    0.0000 </r>
       <r>    0.9972    0.0000 </r>
       <r>    1.0136    0.0000 </r>
       <r>    1.0480    0.0000 </r>
       <r>    1.1787    0.0000 </r>
       <r>    1.4887    0.0000 </r>
       <r>    1.5677    0.0000 </r>
       <r>    1.6466    0.0000 </r>
       <r>    1.6584    0.0000 </r>
       <r>    1.7351    0.0000 </r>
       <r>    1.8250    0.0000 </r>
      </set>
      <set comment="kpoint 34">
       <r>   -9.4100    1.0000 </r>
       <r>   -3.5732    0.1675 </r>
       <r>   -3.5731    0.1666 </r>
       <r>   -3.5731    0.1666 </r>
       <r>   -0.0727    0.0000 </r>
       <r>    0.1982    0.0000 </r>
       <r>    0.3128    0.0000 </r>
       <r>    0.4376    0.0000 </r>
       <r>    0.5249    0.0000 </r>
       <r>    0.6057    0.0000 </r>
       <r>    0.6896    0.0000 </r>
       <r>    0.7068    0.0000 </r>
       <r>    0.8033    0.0000 </r>
       <r>    0.8237    0.0000 </r>
       <r>    0.9143    0.0000 </r>
       <r>    0.9286    0.0000 </r>
       <r>    1.1942    0.0000 </r>
       <r>    1.3421    0.0000 </r>
       <r>    1.6378    0.0000 </r>
       <r>    1.6934    0.0000 </r>
       <r>    1.7064    0.0000 </r>
       <r>    1.7685    0.0000 </r>
       <r>    1.8132    0.0000 </r>
       <r>    1.8231    0.0000 </r>
      </set>
      <set comment="kpoint 35">
       <r>   -9.4100    1.0000 </r>
       <r>   -3.5732    0.1675 </r>
       <r>   -3.5731    0.1667 </r>
       <r>   -3.5731    0.1666 </r>
       <r>   -0.0584    0.0000 </r>
       <r>    0.2287    0.0000 </r>
       <r>    0.2725    0.0000 </r>
       <r>    0.3843    0.0000 </r>
       <r>    0.5457    0.0000 </r>
       <r>    0.6451    0.0000 </r>
       <r>    0.7227    0.0000 </r>
       <r>    0.7471    0.0000 </r>
       <r>    0.7571    0.0000 </r>
       <r>    0.7587    0.0000 </r>
       <r>    0.8473    0.0000 </r>
       <r>    0.8702    0.0000 </r>
       <r>    1.3584    0.0000 </r>
       <r>    1.5106    0.0000 </r>
       <r>    1.5497    0.0000 </r>
       <r>    1.7136    0.0000 </r>
       <r>    1.7283    0.0000 </r>
       <r>    1.7738    0.0000 </r>
       <r>    1.9163    0.0000 </r>
       <r>    1.9229    0.0000 </r>
      </set>
      <set comment="kpoint 36">
       <r>   -9.4100    1.0000 </r>
       <r>   -3.5731    0.1667 </r>
       <r>   -3.5731    0.1667 </r>
       <r>   -3.5730    0.1659 </r>
       <r>   -0.2587    0.0000 </r>
       <r>    0.2168    0.0000 </r>
       <r>    0.3870    0.0000 </r>
       <r>    0.4514    0.0000 </r>
       <r>    0.5791    0.0000 </r>
       <r>    0.6885    0.0000 </r>
       <r>    0.8297    0.0000 </r>
       <r>    0.8355    0.0000 </r>
       <r>    0.9629    0.0000 </r>
       <r>    1.0272    0.0000 </r>
       <r>    1.1019    0.0000 </r>
       <r>    1.1609    0.0000 </r>
       <r>    1.2511    0.0000 </r>
       <r>    1.2674    0.0000 </r>
       <r>    1.3094    0.0000 </r>
       <r>    1.4115    0.0000 </r>
       <r>    1.4357    0.0000 </r>
       <r>    1.4942    0.0000 </r>
       <r>    1.5161    0.0000 </r>
       <r>    1.6230    0.0000 </r>
      </set>
      <set comment="kpoint 37">
       <r>   -9.4100    1.0000 </r>
       <r>   -3.5731    0.1667 </r>
       <r>   -3.5731    0.1667 </r>
       <r>   -3.5730    0.1659 </r>
       <r>   -0.2489    0.0000 </r>
       <r>    0.2221    0.0000 </r>
       <r>    0.3182    0.0000 </r>
       <r>    0.4373    0.0000 </r>
       <r>    0.6905    0.0000 </r>
       <r>    0.7042    0.0000 </r>
       <r>    0.7314    0.0000 </r>
       <r>    0.8421    0.0000 </r>
       <r>    0.9172    0.0000 </r>
       <r>    1.0905    0.0000 </r>
       <r>    1.1182    0.0000 </r>
       <r>    1.1900    0.0000 </r>
       <r>    1.2454    0.0000 </r>
       <r>    1.2959    0.0000 </r>
       <r>    1.3328    0.0000 </r>
       <r>    1.3449    0.0000 </r>
       <r>    1.4587    0.0000 </r>
       <r>    1.4969    0.0000 </r>
       <r>    1.5836    0.0000 </r>
       <r>    1.6286    0.0000 </r>
      </set>
      <set comment="kpoint 38">
       <r>   -9.4100    1.0000 </r>
       <r>   -3.5731    0.1667 </r>
       <r>   -3.5731    0.1667 </r>
       <r>   -3.5730    0.1659 </r>
       <r>   -0.2309    0.0000 </r>
       <r>    0.1966    0.0000 </r>
       <r>    0.2779    0.0000 </r>
       <r>    0.4571    0.0000 </r>
       <r>    0.6184    0.0000 </r>
       <r>    0.7162    0.0000 </r>
       <r>    0.8016    0.0000 </r>
       <r>    0.8600    0.0000 </r>
       <r>    0.8772    0.0000 </r>
       <r>    1.0878    0.0000 </r>
       <r>    1.1425    0.0000 </r>
       <r>    1.2309    0.0000 </r>
       <r>    1.2417    0.0000 </r>
       <r>    1.3006    0.0000 </r>
       <r>    1.3435    0.0000 </r>
       <r>    1.4519    0.0000 </r>
       <r>    1.4894    0.0000 </r>
       <r>    1.5119    0.0000 </r>
       <r>    1.5220    0.0000 </r>
       <r>    1.6376    0.0000 </r>
      </set>
      <set comment="kpoint 39">
       <r>   -9.4100    1.0000 </r>
       <r>   -3.5731    0.1668 </r>
       <r>   -3.5731    0.1667 </r>
       <r>   -3.5730    0.1659 </r>
       <r>   -0.2089    0.0000 </r>
       <r>    0.1350    0.0000 </r>
       <r>    0.3003    0.0000 </r>
       <r>    0.4860    0.0000 </r>
       <r>    0.5374    0.0000 </r>
       <r>    0.7266    0.0000 </r>
       <r>    0.7409    0.0000 </r>
       <r>    0.8890    0.0000 </r>
       <r>    1.0032    0.0000 </r>
       <r>    1.0424    0.0000 </r>
       <r>    1.1656    0.0000 </r>
       <r>    1.1720    0.0000 </r>
       <r>    1.2994    0.0000 </r>
       <r>    1.3618    0.0000 </r>
       <r>    1.4027    0.0000 </r>
       <r>    1.4610    0.0000 </r>
       <r>    1.4959    0.0000 </r>
       <r>    1.5334    0.0000 </r>
       <r>    1.5667    0.0000 </r>
       <r>    1.6042    0.0000 </r>
      </set>
      <set comment="kpoint 40">
       <r>   -9.4100    1.0000 </r>
       <r>   -3.5731    0.1668 </r>
       <r>   -3.5731    0.1667 </r>
       <r>   -3.5730    0.1659 </r>
       <r>   -0.1921    0.0000 </r>
       <r>    0.0948    0.0000 </r>
       <r>    0.3306    0.0000 </r>
       <r>    0.4709    0.0000 </r>
       <r>    0.5262    0.0000 </r>
       <r>    0.6696    0.0000 </r>
       <r>    0.7608    0.0000 </r>
       <r>    0.9136    0.0000 </r>
       <r>    0.9735    0.0000 </r>
       <r>    1.1035    0.0000 </r>
       <r>    1.1914    0.0000 </r>
       <r>    1.2165    0.0000 </r>
       <r>    1.3246    0.0000 </r>
       <r>    1.3645    0.0000 </r>
       <r>    1.4004    0.0000 </r>
       <r>    1.4236    0.0000 </r>
       <r>    1.4771    0.0000 </r>
       <r>    1.5372    0.0000 </r>
       <r>    1.5628    0.0000 </r>
       <r>    1.6076    0.0000 </r>
      </set>
      <set comment="kpoint 41">
       <r>   -9.4100    1.0000 </r>
       <r>   -3.5731    0.1667 </r>
       <r>   -3.5731    0.1666 </r>
       <r>   -3.5730    0.1660 </r>
       <r>   -0.2496    0.0000 </r>
       <r>    0.2258    0.0000 </r>
       <r>    0.3945    0.0000 </r>
       <r>    0.4602    0.0000 </r>
       <r>    0.5667    0.0000 </r>
       <r>    0.5958    0.0000 </r>
       <r>    0.8426    0.0000 </r>
       <r>    0.9479    0.0000 </r>
       <r>    0.9713    0.0000 </r>
       <r>    0.9982    0.0000 </r>
       <r>    1.0393    0.0000 </r>
       <r>    1.1602    0.0000 </r>
       <r>    1.1655    0.0000 </r>
       <r>    1.2065    0.0000 </r>
       <r>    1.3315    0.0000 </r>
       <r>    1.3927    0.0000 </r>
       <r>    1.4891    0.0000 </r>
       <r>    1.5665    0.0000 </r>
       <r>    1.5852    0.0000 </r>
       <r>    1.6249    0.0000 </r>
      </set>
      <set comment="kpoint 42">
       <r>   -9.4100    1.0000 </r>
       <r>   -3.5731    0.1667 </r>
       <r>   -3.5731    0.1667 </r>
       <r>   -3.5730    0.1660 </r>
       <r>   -0.2398    0.0000 </r>
       <r>    0.2311    0.0000 </r>
       <r>    0.3270    0.0000 </r>
       <r>    0.4453    0.0000 </r>
       <r>    0.5818    0.0000 </r>
       <r>    0.7076    0.0000 </r>
       <r>    0.7406    0.0000 </r>
       <r>    0.9240    0.0000 </r>
       <r>    0.9624    0.0000 </r>
       <r>    1.0027    0.0000 </r>
       <r>    1.0712    0.0000 </r>
       <r>    1.1230    0.0000 </r>
       <r>    1.1961    0.0000 </r>
       <r>    1.3059    0.0000 </r>
       <r>    1.3997    0.0000 </r>
       <r>    1.4096    0.0000 </r>
       <r>    1.4928    0.0000 </r>
       <r>    1.5105    0.0000 </r>
       <r>    1.5302    0.0000 </r>
       <r>    1.6035    0.0000 </r>
      </set>
      <set comment="kpoint 43">
       <r>   -9.4100    1.0000 </r>
       <r>   -3.5731    0.1667 </r>
       <r>   -3.5731    0.1667 </r>
       <r>   -3.5730    0.1660 </r>
       <r>   -0.2218    0.0000 </r>
       <r>    0.2056    0.0000 </r>
       <r>    0.2870    0.0000 </r>
       <r>    0.4649    0.0000 </r>
       <r>    0.6018    0.0000 </r>
       <r>    0.6279    0.0000 </r>
       <r>    0.8097    0.0000 </r>
       <r>    0.8826    0.0000 </r>
       <r>    0.9623    0.0000 </r>
       <r>    1.0047    0.0000 </r>
       <r>    1.0304    0.0000 </r>
       <r>    1.2148    0.0000 </r>
       <r>    1.2617    0.0000 </r>
       <r>    1.3447    0.0000 </r>
       <r>    1.4089    0.0000 </r>
       <r>    1.4136    0.0000 </r>
       <r>    1.4782    0.0000 </r>
       <r>    1.5313    0.0000 </r>
       <r>    1.5759    0.0000 </r>
       <r>    1.5969    0.0000 </r>
      </set>
      <set comment="kpoint 44">
       <r>   -9.4100    1.0000 </r>
       <r>   -3.5731    0.1668 </r>
       <r>   -3.5731    0.1667 </r>
       <r>   -3.5730    0.1660 </r>
       <r>   -0.1999    0.0000 </r>
       <r>    0.1442    0.0000 </r>
       <r>    0.3093    0.0000 </r>
       <r>    0.4938    0.0000 </r>
       <r>    0.5464    0.0000 </r>
       <r>    0.6284    0.0000 </r>
       <r>    0.7348    0.0000 </r>
       <r>    0.8969    0.0000 </r>
       <r>    1.0170    0.0000 </r>
       <r>    1.0407    0.0000 </r>
       <r>    1.0595    0.0000 </r>
       <r>    1.2396    0.0000 </r>
       <r>    1.2816    0.0000 </r>
       <r>    1.3171    0.0000 </r>
       <r>    1.4130    0.0000 </r>
       <r>    1.4710    0.0000 </r>
       <r>    1.4883    0.0000 </r>
       <r>    1.5515    0.0000 </r>
       <r>    1.5991    0.0000 </r>
       <r>    1.6486    0.0000 </r>
      </set>
      <set comment="kpoint 45">
       <r>   -9.4100    1.0000 </r>
       <r>   -3.5731    0.1668 </r>
       <r>   -3.5731    0.1667 </r>
       <r>   -3.5730    0.1660 </r>
       <r>   -0.1832    0.0000 </r>
       <r>    0.1042    0.0000 </r>
       <r>    0.3395    0.0000 </r>
       <r>    0.4802    0.0000 </r>
       <r>    0.5336    0.0000 </r>
       <r>    0.6504    0.0000 </r>
       <r>    0.6781    0.0000 </r>
       <r>    0.8538    0.0000 </r>
       <r>    1.0365    0.0000 </r>
       <r>    1.0870    0.0000 </r>
       <r>    1.1974    0.0000 </r>
       <r>    1.2207    0.0000 </r>
       <r>    1.2598    0.0000 </r>
       <r>    1.3080    0.0000 </r>
       <r>    1.4118    0.0000 </r>
       <r>    1.4275    0.0000 </r>
       <r>    1.4828    0.0000 </r>
       <r>    1.5794    0.0000 </r>
       <r>    1.5975    0.0000 </r>
       <r>    1.6560    0.0000 </r>
      </set>
      <set comment="kpoint 46">
       <r>   -9.4100    1.0000 </r>
       <r>   -3.5731    0.1667 </r>
       <r>   -3.5731    0.1666 </r>
       <r>   -3.5731    0.1663 </r>
       <r>   -0.2317    0.0000 </r>
       <r>    0.2431    0.0000 </r>
       <r>    0.4012    0.0000 </r>
       <r>    0.4701    0.0000 </r>
       <r>    0.4814    0.0000 </r>
       <r>    0.6095    0.0000 </r>
       <r>    0.8480    0.0000 </r>
       <r>    0.8791    0.0000 </r>
       <r>    0.9921    0.0000 </r>
       <r>    1.0229    0.0000 </r>
       <r>    1.0624    0.0000 </r>
       <r>    1.0930    0.0000 </r>
       <r>    1.1249    0.0000 </r>
       <r>    1.1982    0.0000 </r>
       <r>    1.2329    0.0000 </r>
       <r>    1.4738    0.0000 </r>
       <r>    1.5024    0.0000 </r>
       <r>    1.5483    0.0000 </r>
       <r>    1.6187    0.0000 </r>
       <r>    1.6612    0.0000 </r>
      </set>
      <set comment="kpoint 47">
       <r>   -9.4100    1.0000 </r>
       <r>   -3.5731    0.1667 </r>
       <r>   -3.5731    0.1667 </r>
       <r>   -3.5731    0.1663 </r>
       <r>   -0.2220    0.0000 </r>
       <r>    0.2483    0.0000 </r>
       <r>    0.3439    0.0000 </r>
       <r>    0.4482    0.0000 </r>
[...]
       <r>    1.0308    0.0000 </r>
       <r>    1.0686    0.0000 </r>
       <r>    1.1341    0.0000 </r>
       <r>    1.1563    0.0000 </r>
       <r>    1.2793    0.0000 </r>
       <r>    1.5635    0.0000 </r>
       <r>    1.6800    0.0000 </r>
       <r>    1.7129    0.0000 </r>
       <r>    1.7594    0.0000 </r>
      </set>
      <set comment="kpoint 172">
       <r>   -9.4100    1.0000 </r>
       <r>   -3.5732    0.1675 </r>
       <r>   -3.5731    0.1666 </r>
       <r>   -3.5731    0.1666 </r>
       <r>   -0.0853    0.0000 </r>
       <r>    0.1968    0.0000 </r>
       <r>    0.2645    0.0000 </r>
       <r>    0.3629    0.0000 </r>
       <r>    0.5231    0.0000 </r>
       <r>    0.6846    0.0000 </r>
       <r>    0.7302    0.0000 </r>
       <r>    0.8289    0.0000 </r>
       <r>    0.9136    0.0000 </r>
       <r>    0.9837    0.0000 </r>
       <r>    1.0533    0.0000 </r>
       <r>    1.1064    0.0000 </r>
       <r>    1.1289    0.0000 </r>
       <r>    1.1866    0.0000 </r>
       <r>    1.2294    0.0000 </r>
       <r>    1.3021    0.0000 </r>
       <r>    1.4699    0.0000 </r>
       <r>    1.5990    0.0000 </r>
       <r>    1.6261    0.0000 </r>
       <r>    1.7453    0.0000 </r>
      </set>
      <set comment="kpoint 173">
       <r>   -9.4100    1.0000 </r>
       <r>   -3.5732    0.1675 </r>
       <r>   -3.5731    0.1666 </r>
       <r>   -3.5731    0.1666 </r>
       <r>   -0.0699    0.0000 </r>
       <r>    0.2179    0.0000 </r>
       <r>    0.2884    0.0000 </r>
       <r>    0.3884    0.0000 </r>
       <r>    0.4338    0.0000 </r>
       <r>    0.5883    0.0000 </r>
       <r>    0.6317    0.0000 </r>
       <r>    0.7258    0.0000 </r>
       <r>    1.0099    0.0000 </r>
       <r>    1.0572    0.0000 </r>
       <r>    1.1339    0.0000 </r>
       <r>    1.1549    0.0000 </r>
       <r>    1.2198    0.0000 </r>
       <r>    1.2934    0.0000 </r>
       <r>    1.3073    0.0000 </r>
       <r>    1.3827    0.0000 </r>
       <r>    1.4139    0.0000 </r>
       <r>    1.5014    0.0000 </r>
       <r>    1.5402    0.0000 </r>
       <r>    1.6512    0.0000 </r>
      </set>
      <set comment="kpoint 174">
       <r>   -9.4100    1.0000 </r>
       <r>   -3.5732    0.1675 </r>
       <r>   -3.5731    0.1666 </r>
       <r>   -3.5731    0.1666 </r>
       <r>   -0.0518    0.0000 </r>
       <r>    0.2460    0.0000 </r>
       <r>    0.3218    0.0000 </r>
       <r>    0.3654    0.0000 </r>
       <r>    0.4255    0.0000 </r>
       <r>    0.5101    0.0000 </r>
       <r>    0.5475    0.0000 </r>
       <r>    0.6360    0.0000 </r>
       <r>    1.0410    0.0000 </r>
       <r>    1.1708    0.0000 </r>
       <r>    1.1792    0.0000 </r>
       <r>    1.2143    0.0000 </r>
       <r>    1.2947    0.0000 </r>
       <r>    1.3152    0.0000 </r>
       <r>    1.3939    0.0000 </r>
       <r>    1.4198    0.0000 </r>
       <r>    1.4488    0.0000 </r>
       <r>    1.5018    0.0000 </r>
       <r>    1.5648    0.0000 </r>
       <r>    1.5815    0.0000 </r>
      </set>
      <set comment="kpoint 175">
       <r>   -9.4100    1.0000 </r>
       <r>   -3.5732    0.1675 </r>
       <r>   -3.5731    0.1667 </r>
       <r>   -3.5731    0.1666 </r>
       <r>   -0.0389    0.0000 </r>
       <r>    0.2713    0.0000 </r>
       <r>    0.3249    0.0000 </r>
       <r>    0.3581    0.0000 </r>
       <r>    0.4543    0.0000 </r>
       <r>    0.4739    0.0000 </r>
       <r>    0.4888    0.0000 </r>
       <r>    0.5655    0.0000 </r>
       <r>    1.0684    0.0000 </r>
       <r>    1.2044    0.0000 </r>
       <r>    1.2118    0.0000 </r>
       <r>    1.2278    0.0000 </r>
       <r>    1.3385    0.0000 </r>
       <r>    1.3597    0.0000 </r>
       <r>    1.3723    0.0000 </r>
       <r>    1.4388    0.0000 </r>
       <r>    1.4922    0.0000 </r>
       <r>    1.5747    0.0000 </r>
       <r>    1.6030    0.0000 </r>
       <r>    1.6632    0.0000 </r>
      </set>
     </set>
    </set>
   </array>
  </eigenvalues>
  <separator name="orbital magnetization" >
   <v name="MAGDIPOLOUT">      0.00000000      0.00000000      0.00000000</v>
  </separator>
  <dos>
   <i name="efermi">     -3.60730482 </i>
   <total>
    <array>
     <dimension dim="1">gridpoints</dimension>
     <dimension dim="2">spin</dimension>
     <field>energy</field>
     <field>total</field>
     <field>integrated</field>
     <set>
      <set comment="spin 1">
       <r>    -9.9767     0.0000     0.0000 </r>
       <r>    -9.9351     0.0000     0.0000 </r>
       <r>    -9.8936     0.0000     0.0000 </r>
       <r>    -9.8520     0.0000     0.0000 </r>
       <r>    -9.8104     0.0000     0.0000 </r>
       <r>    -9.7689     0.0000     0.0000 </r>
       <r>    -9.7273     0.0000     0.0000 </r>
       <r>    -9.6858     0.0000     0.0000 </r>
       <r>    -9.6442     0.0000     0.0000 </r>
       <r>    -9.6027     0.0000     0.0000 </r>
       <r>    -9.5611     0.0005     0.0000 </r>
       <r>    -9.5196     0.0463     0.0019 </r>
       <r>    -9.4780     1.2634     0.0544 </r>
       <r>    -9.4365     9.6271     0.4545 </r>
       <r>    -9.3949    21.0907     1.3309 </r>
       <r>    -9.3533    13.4789     1.8910 </r>
       <r>    -9.3118     2.4915     1.9945 </r>
       <r>    -9.2702     0.1298     1.9999 </r>
       <r>    -9.2287     0.0018     2.0000 </r>
       <r>    -9.1871     0.0000     2.0000 </r>
       <r>    -9.1456     0.0000     2.0000 </r>
       <r>    -9.1040     0.0000     2.0000 </r>
       <r>    -9.0625     0.0000     2.0000 </r>
       <r>    -9.0209     0.0000     2.0000 </r>
       <r>    -8.9794     0.0000     2.0000 </r>
       <r>    -8.9378     0.0000     2.0000 </r>
       <r>    -8.8963     0.0000     2.0000 </r>
       <r>    -8.8547     0.0000     2.0000 </r>
       <r>    -8.8131     0.0000     2.0000 </r>
       <r>    -8.7716     0.0000     2.0000 </r>
       <r>    -8.7300     0.0000     2.0000 </r>
       <r>    -8.6885     0.0000     2.0000 </r>
       <r>    -8.6469     0.0000     2.0000 </r>
       <r>    -8.6054     0.0000     2.0000 </r>
       <r>    -8.5638     0.0000     2.0000 </r>
       <r>    -8.5223     0.0000     2.0000 </r>
       <r>    -8.4807     0.0000     2.0000 </r>
       <r>    -8.4392     0.0000     2.0000 </r>
       <r>    -8.3976     0.0000     2.0000 </r>
       <r>    -8.3560     0.0000     2.0000 </r>
       <r>    -8.3145     0.0000     2.0000 </r>
       <r>    -8.2729     0.0000     2.0000 </r>
       <r>    -8.2314     0.0000     2.0000 </r>
       <r>    -8.1898     0.0000     2.0000 </r>
       <r>    -8.1483     0.0000     2.0000 </r>
       <r>    -8.1067     0.0000     2.0000 </r>
       <r>    -8.0652     0.0000     2.0000 </r>
       <r>    -8.0236     0.0000     2.0000 </r>
       <r>    -7.9821     0.0000     2.0000 </r>
       <r>    -7.9405     0.0000     2.0000 </r>
       <r>    -7.8990     0.0000     2.0000 </r>
       <r>    -7.8574     0.0000     2.0000 </r>
       <r>    -7.8158     0.0000     2.0000 </r>
       <r>    -7.7743     0.0000     2.0000 </r>
       <r>    -7.7327     0.0000     2.0000 </r>
       <r>    -7.6912     0.0000     2.0000 </r>
       <r>    -7.6496     0.0000     2.0000 </r>
       <r>    -7.6081     0.0000     2.0000 </r>
       <r>    -7.5665     0.0000     2.0000 </r>
       <r>    -7.5250     0.0000     2.0000 </r>
       <r>    -7.4834     0.0000     2.0000 </r>
       <r>    -7.4419     0.0000     2.0000 </r>
       <r>    -7.4003     0.0000     2.0000 </r>
       <r>    -7.3587     0.0000     2.0000 </r>
       <r>    -7.3172     0.0000     2.0000 </r>
       <r>    -7.2756     0.0000     2.0000 </r>
       <r>    -7.2341     0.0000     2.0000 </r>
       <r>    -7.1925     0.0000     2.0000 </r>
       <r>    -7.1510     0.0000     2.0000 </r>
       <r>    -7.1094     0.0000     2.0000 </r>
       <r>    -7.0679     0.0000     2.0000 </r>
       <r>    -7.0263     0.0000     2.0000 </r>
       <r>    -6.9848     0.0000     2.0000 </r>
       <r>    -6.9432     0.0000     2.0000 </r>
       <r>    -6.9017     0.0000     2.0000 </r>
       <r>    -6.8601     0.0000     2.0000 </r>
       <r>    -6.8185     0.0000     2.0000 </r>
       <r>    -6.7770     0.0000     2.0000 </r>
       <r>    -6.7354     0.0000     2.0000 </r>
       <r>    -6.6939     0.0000     2.0000 </r>
       <r>    -6.6523     0.0000     2.0000 </r>
       <r>    -6.6108     0.0000     2.0000 </r>
       <r>    -6.5692     0.0000     2.0000 </r>
       <r>    -6.5277     0.0000     2.0000 </r>
       <r>    -6.4861     0.0000     2.0000 </r>
       <r>    -6.4446     0.0000     2.0000 </r>
       <r>    -6.4030     0.0000     2.0000 </r>
       <r>    -6.3614     0.0000     2.0000 </r>
       <r>    -6.3199     0.0000     2.0000 </r>
       <r>    -6.2783     0.0000     2.0000 </r>
       <r>    -6.2368     0.0000     2.0000 </r>
       <r>    -6.1952     0.0000     2.0000 </r>
       <r>    -6.1537     0.0000     2.0000 </r>
       <r>    -6.1121     0.0000     2.0000 </r>
       <r>    -6.0706     0.0000     2.0000 </r>
       <r>    -6.0290     0.0000     2.0000 </r>
       <r>    -5.9875     0.0000     2.0000 </r>
       <r>    -5.9459     0.0000     2.0000 </r>
       <r>    -5.9044     0.0000     2.0000 </r>
       <r>    -5.8628     0.0000     2.0000 </r>
       <r>    -5.8212     0.0000     2.0000 </r>
       <r>    -5.7797     0.0000     2.0000 </r>
       <r>    -5.7381     0.0000     2.0000 </r>
       <r>    -5.6966     0.0000     2.0000 </r>
       <r>    -5.6550     0.0000     2.0000 </r>
       <r>    -5.6135     0.0000     2.0000 </r>
       <r>    -5.5719     0.0000     2.0000 </r>
       <r>    -5.5304     0.0000     2.0000 </r>
       <r>    -5.4888     0.0000     2.0000 </r>
       <r>    -5.4473     0.0000     2.0000 </r>
       <r>    -5.4057     0.0000     2.0000 </r>
       <r>    -5.3641     0.0000     2.0000 </r>
       <r>    -5.3226     0.0000     2.0000 </r>
       <r>    -5.2810     0.0000     2.0000 </r>
       <r>    -5.2395     0.0000     2.0000 </r>
       <r>    -5.1979     0.0000     2.0000 </r>
       <r>    -5.1564     0.0000     2.0000 </r>
       <r>    -5.1148     0.0000     2.0000 </r>
       <r>    -5.0733     0.0000     2.0000 </r>
       <r>    -5.0317     0.0000     2.0000 </r>
       <r>    -4.9902     0.0000     2.0000 </r>
       <r>    -4.9486     0.0000     2.0000 </r>
       <r>    -4.9071     0.0000     2.0000 </r>
       <r>    -4.8655     0.0000     2.0000 </r>
       <r>    -4.8239     0.0000     2.0000 </r>
       <r>    -4.7824     0.0000     2.0000 </r>
       <r>    -4.7408     0.0000     2.0000 </r>
       <r>    -4.6993     0.0000     2.0000 </r>
       <r>    -4.6577     0.0000     2.0000 </r>
       <r>    -4.6162     0.0000     2.0000 </r>
       <r>    -4.5746     0.0000     2.0000 </r>
       <r>    -4.5331     0.0000     2.0000 </r>
       <r>    -4.4915     0.0000     2.0000 </r>
       <r>    -4.4500     0.0000     2.0000 </r>
       <r>    -4.4084     0.0000     2.0000 </r>
       <r>    -4.3668     0.0000     2.0000 </r>
       <r>    -4.3253     0.0000     2.0000 </r>
       <r>    -4.2837     0.0000     2.0000 </r>
       <r>    -4.2422     0.0000     2.0000 </r>
       <r>    -4.2006     0.0000     2.0000 </r>
       <r>    -4.1591     0.0000     2.0000 </r>
       <r>    -4.1175     0.0000     2.0000 </r>
       <r>    -4.0760     0.0000     2.0000 </r>
       <r>    -4.0344     0.0000     2.0000 </r>
       <r>    -3.9929     0.0000     2.0000 </r>
       <r>    -3.9513     0.0000     2.0000 </r>
       <r>    -3.9098     0.0000     2.0000 </r>
       <r>    -3.8682     0.0000     2.0000 </r>
       <r>    -3.8266     0.0000     2.0000 </r>
       <r>    -3.7851     0.0000     2.0000 </r>
       <r>    -3.7435     0.0001     2.0000 </r>
       <r>    -3.7020     0.0192     2.0008 </r>
       <r>    -3.6604     0.9565     2.0405 </r>
       <r>    -3.6189    13.1363     2.5864 </r>
       <r>    -3.5773    51.2309     4.7153 </r>
       <r>    -3.5358    58.0436     7.1272 </r>
       <r>    -3.4942    19.1512     7.9230 </r>
       <r>    -3.4527     1.8046     7.9980 </r>
       <r>    -3.4111     0.0471     8.0000 </r>
       <r>    -3.3695     0.0003     8.0000 </r>
       <r>    -3.3280     0.0000     8.0000 </r>
       <r>    -3.2864     0.0000     8.0000 </r>
       <r>    -3.2449     0.0000     8.0000 </r>
       <r>    -3.2033     0.0000     8.0000 </r>
       <r>    -3.1618     0.0000     8.0000 </r>
       <r>    -3.1202     0.0000     8.0000 </r>
       <r>    -3.0787     0.0000     8.0000 </r>
       <r>    -3.0371     0.0000     8.0000 </r>
       <r>    -2.9956     0.0000     8.0000 </r>
       <r>    -2.9540     0.0000     8.0000 </r>
       <r>    -2.9124     0.0000     8.0000 </r>
       <r>    -2.8709     0.0000     8.0000 </r>
       <r>    -2.8293     0.0000     8.0000 </r>
       <r>    -2.7878     0.0000     8.0000 </r>
       <r>    -2.7462     0.0000     8.0000 </r>
       <r>    -2.7047     0.0000     8.0000 </r>
       <r>    -2.6631     0.0000     8.0000 </r>
       <r>    -2.6216     0.0000     8.0000 </r>
       <r>    -2.5800     0.0000     8.0000 </r>
       <r>    -2.5385     0.0000     8.0000 </r>
       <r>    -2.4969     0.0000     8.0000 </r>
       <r>    -2.4554     0.0000     8.0000 </r>
       <r>    -2.4138     0.0000     8.0000 </r>
       <r>    -2.3722     0.0000     8.0000 </r>
       <r>    -2.3307     0.0000     8.0000 </r>
       <r>    -2.2891     0.0000     8.0000 </r>
       <r>    -2.2476     0.0000     8.0000 </r>
       <r>    -2.2060     0.0000     8.0000 </r>
       <r>    -2.1645     0.0000     8.0000 </r>
       <r>    -2.1229     0.0000     8.0000 </r>
       <r>    -2.0814     0.0000     8.0000 </r>
       <r>    -2.0398     0.0000     8.0000 </r>
       <r>    -1.9983     0.0000     8.0000 </r>
       <r>    -1.9567     0.0000     8.0000 </r>
       <r>    -1.9151     0.0000     8.0000 </r>
       <r>    -1.8736     0.0000     8.0000 </r>
       <r>    -1.8320     0.0000     8.0000 </r>
       <r>    -1.7905     0.0000     8.0000 </r>
       <r>    -1.7489     0.0000     8.0000 </r>
       <r>    -1.7074     0.0000     8.0000 </r>
       <r>    -1.6658     0.0000     8.0000 </r>
       <r>    -1.6243     0.0000     8.0000 </r>
       <r>    -1.5827     0.0000     8.0000 </r>
       <r>    -1.5412     0.0000     8.0000 </r>
       <r>    -1.4996     0.0000     8.0000 </r>
       <r>    -1.4581     0.0000     8.0000 </r>
       <r>    -1.4165     0.0000     8.0000 </r>
       <r>    -1.3749     0.0000     8.0000 </r>
       <r>    -1.3334     0.0000     8.0000 </r>
       <r>    -1.2918     0.0000     8.0000 </r>
       <r>    -1.2503     0.0000     8.0000 </r>
       <r>    -1.2087     0.0000     8.0000 </r>
       <r>    -1.1672     0.0000     8.0000 </r>
       <r>    -1.1256     0.0000     8.0000 </r>
       <r>    -1.0841     0.0000     8.0000 </r>
       <r>    -1.0425     0.0000     8.0000 </r>
       <r>    -1.0010     0.0000     8.0000 </r>
       <r>    -0.9594     0.0000     8.0000 </r>
       <r>    -0.9178     0.0000     8.0000 </r>
       <r>    -0.8763     0.0000     8.0000 </r>
       <r>    -0.8347     0.0000     8.0000 </r>
       <r>    -0.7932     0.0000     8.0000 </r>
       <r>    -0.7516     0.0000     8.0000 </r>
       <r>    -0.7101     0.0000     8.0000 </r>
       <r>    -0.6685     0.0000     8.0000 </r>
       <r>    -0.6270     0.0000     8.0000 </r>
       <r>    -0.5854     0.0000     8.0000 </r>
       <r>    -0.5439     0.0000     8.0000 </r>
       <r>    -0.5023     0.0000     8.0000 </r>
       <r>    -0.4608     0.0000     8.0000 </r>
       <r>    -0.4192     0.0000     8.0000 </r>
       <r>    -0.3776     0.0005     8.0000 </r>
       <r>    -0.3361     0.0266     8.0011 </r>
       <r>    -0.2945     0.4452     8.0196 </r>
       <r>    -0.2530     2.7380     8.1334 </r>
       <r>    -0.2114     7.3445     8.4386 </r>
       <r>    -0.1699    10.6335     8.8805 </r>
       <r>    -0.1283    10.5462     9.3187 </r>
       <r>    -0.0868     8.7113     9.6807 </r>
       <r>    -0.0452     5.4296     9.9063 </r>
       <r>    -0.0037     1.9547     9.9875 </r>
       <r>     0.0379     0.6479    10.0145 </r>
       <r>     0.0795     1.8980    10.0933 </r>
       <r>     0.1210     5.4139    10.3183 </r>
       <r>     0.1626    10.0461    10.7358 </r>
       <r>     0.2041    13.8164    11.3099 </r>
       <r>     0.2457    15.6013    11.9582 </r>
       <r>     0.2872    15.8193    12.6156 </r>
       <r>     0.3288    15.9335    13.2777 </r>
       <r>     0.3703    16.2218    13.9517 </r>
       <r>     0.4119    16.5126    14.6379 </r>
       <r>     0.4534    17.5215    15.3660 </r>
       <r>     0.4950    18.4995    16.1347 </r>
       <r>     0.5365    18.5219    16.9044 </r>
       <r>     0.5781    18.9665    17.6925 </r>
       <r>     0.6197    19.8931    18.5192 </r>
       <r>     0.6612    20.3817    19.3661 </r>
       <r>     0.7028    20.9939    20.2385 </r>
       <r>     0.7443    22.3908    21.1689 </r>
       <r>     0.7859    22.4991    22.1039 </r>
       <r>     0.8274    21.8961    23.0137 </r>
       <r>     0.8690    23.2905    23.9816 </r>
       <r>     0.9105    24.5649    25.0023 </r>
       <r>     0.9521    24.2898    26.0117 </r>
       <r>     0.9936    24.8552    27.0445 </r>
       <r>     1.0352    25.9341    28.1222 </r>
       <r>     1.0768    26.0620    29.2052 </r>
       <r>     1.1183    26.1134    30.2903 </r>
       <r>     1.1599    26.8418    31.4057 </r>
       <r>     1.2014    27.7546    32.5590 </r>
       <r>     1.2430    27.4053    33.6978 </r>
       <r>     1.2845    27.5214    34.8414 </r>
       <r>     1.3261    28.5993    36.0298 </r>
       <r>     1.3676    28.6891    37.2220 </r>
       <r>     1.4092    28.3739    38.4010 </r>
       <r>     1.4507    29.3545    39.6208 </r>
       <r>     1.4923    30.9400    40.9065 </r>
       <r>     1.5338    30.1276    42.1585 </r>
       <r>     1.5754    29.6234    43.3894 </r>
       <r>     1.6170    30.1475    44.6422 </r>
       <r>     1.6585    27.8409    45.7991 </r>
       <r>     1.7001    21.3865    46.6878 </r>
       <r>     1.7416    14.1895    47.2774 </r>
       <r>     1.7832     8.4157    47.6271 </r>
       <r>     1.8247     4.8443    47.8284 </r>
       <r>     1.8663     2.5973    47.9364 </r>
       <r>     1.9078     1.1012    47.9821 </r>
       <r>     1.9494     0.3493    47.9966 </r>
       <r>     1.9909     0.0736    47.9997 </r>
       <r>     2.0325     0.0071    48.0000 </r>
       <r>     2.0741     0.0002    48.0000 </r>
       <r>     2.1156     0.0000    48.0000 </r>
       <r>     2.1572     0.0000    48.0000 </r>
       <r>     2.1987     0.0000    48.0000 </r>
       <r>     2.2403     0.0000    48.0000 </r>
       <r>     2.2818     0.0000    48.0000 </r>
       <r>     2.3234     0.0000    48.0000 </r>
       <r>     2.3649     0.0000    48.0000 </r>
       <r>     2.4065     0.0000    48.0000 </r>
       <r>     2.4480     0.0000    48.0000 </r>
       <r>     2.4896     0.0000    48.0000 </r>
      </set>
     </set>
    </array>
   </total>
  </dos>
 </calculation>
 <structure name="finalpos" >
  <crystal>
   <varray name="basis" >
    <v>      15.01500000       0.00000000       0.00000000 </v>
    <v>       0.00000000      12.51250000       0.00000000 </v>
    <v>       0.00000000       0.00000000      18.01800000 </v>
   </varray>
   <i name="volume">   3385.13512837 </i>
   <varray name="rec_basis" >
    <v>       0.06660007       0.00000000       0.00000000 </v>
    <v>       0.00000000       0.07992008       0.00000000 </v>
    <v>       0.00000000       0.00000000       0.05550006 </v>
   </varray>
  </crystal>
  <varray name="positions" >
   <v>       0.52123000       0.54500000       0.63796000 </v>
  </varray>
 </structure>
</modeling>
