 running   24 mpi-ranks, with    1 threads/rank, on    1 nodes
 distrk:  each k-point on   24 cores,    1 groups
 distr:  one band on    1 cores,   24 groups
 vasp.6.4.3 19Mar24 (build May 31 2024 16:31:43) complex                        
  
 POSCAR found type information on POSCAR B 
 POSCAR found :  1 types and       1 ions
 Reading from existing POTCAR
 scaLAPACK will be used
 Reading from existing POTCAR
 LDA part: xc-table for (Slater+PW92), standard interpolation
 POSCAR, INCAR and KPOINTS ok, starting setup
 FFT: planning ... GRIDC
 FFT: planning ... GRID_SOFT
 FFT: planning ... GRID
 WAVECAR not read
 entering main loop
       N       E                     dE             d eps       ncg     rms          rms(c)
DAV:   1     0.807391295749E+01    0.80739E+01   -0.34001E+02  8400   0.390E+01
DAV:   2     0.109270219339E+00   -0.79646E+01   -0.79355E+01 16464   0.575E+00
DAV:   3    -0.548132909237E-01   -0.16408E+00   -0.14152E+00  8568   0.148E+00
DAV:   4    -0.582132944261E-01   -0.34000E-02   -0.32199E-02  9432   0.179E-01
DAV:   5    -0.582521894437E-01   -0.38895E-04   -0.38874E-04 13152   0.217E-02    0.848E-03
DAV:   6    -0.582526112885E-01   -0.42184E-06   -0.29127E-06 11424   0.343E-03
   1 F= -.58252611E-01 E0= -.31751941E-01  d E =-.530013E-01
