<?xml version="1.0" encoding="ISO-8859-1"?>
<modeling>
 <generator>
  <i name="program" type="string">vasp </i>
  <i name="version" type="string">6.4.3  </i>
  <i name="subversion" type="string">19Mar24 (build May 31 2024 16:31:43) complex                          parallel </i>
  <i name="platform" type="string">LinuxIFC </i>
  <i name="date" type="string">2024 11 02 </i>
  <i name="time" type="string">01:41:14 </i>
 </generator>
 <incar>
  <i type="string" name="SYSTEM">Convergence</i>
  <i type="int" name="ISTART">     0</i>
  <i type="string" name="PREC">Accurate</i>
  <i type="string" name="ALGO">Normal</i>
  <i type="int" name="ISPIN">     1</i>
  <i type="int" name="ICHARG">     2</i>
  <i type="int" name="NELM">   100</i>
  <i type="int" name="IBRION">    -1</i>
  <i name="EDIFF">      0.00000100</i>
  <i name="EDIFFG">     -0.00100000</i>
  <i type="int" name="NSW">     0</i>
  <i type="int" name="ISIF">     2</i>
  <i name="ENCUT">    480.00000000</i>
  <i name="POTIM">      0.50000000</i>
  <i type="int" name="ISMEAR">     0</i>
  <i name="SIGMA">      0.05000000</i>
  <i type="logical" name="LWAVE"> F  </i>
  <i type="logical" name="LCHARG"> F  </i>
  <i type="string" name="GGA">PE</i>
 </incar>
 <primitive_cell>
  <structure name="primitive_cell" >
   <crystal>
    <varray name="basis" >
     <v>      15.00000000       0.00000000       0.00000000 </v>
     <v>       0.00000000      12.50000000       0.00000000 </v>
     <v>       0.00000000       0.00000000      18.00000000 </v>
    </varray>
    <i name="volume">   3375.00000000 </i>
    <varray name="rec_basis" >
     <v>       0.06666667       0.00000000       0.00000000 </v>
     <v>       0.00000000       0.08000000       0.00000000 </v>
     <v>       0.00000000       0.00000000       0.05555556 </v>
    </varray>
   </crystal>
   <varray name="positions" >
    <v>       0.52123000       0.54500000       0.63796000 </v>
   </varray>
  </structure>
  <varray name="primitive_index" >
   <v type="int" >        1 </v>
  </varray>
 </primitive_cell>
 <kpoints>
  <generation param="Monkhorst-Pack">
   <v type="int" name="divisions">       6        8        6 </v>
   <v name="usershift">      0.00000000       0.00000000       0.00000000 </v>
   <v name="genvec1">      0.16666667       0.00000000       0.00000000 </v>
   <v name="genvec2">      0.00000000       0.12500000       0.00000000 </v>
   <v name="genvec3">      0.00000000       0.00000000       0.16666667 </v>
   <v name="shift">      0.50000000       0.50000000       0.50000000 </v>
  </generation>
  <varray name="kpointlist" >
   <v>       0.08333333       0.06250000       0.08333333 </v>
   <v>       0.25000000       0.06250000       0.08333333 </v>
   <v>       0.41666667       0.06250000       0.08333333 </v>
   <v>       0.08333333       0.18750000       0.08333333 </v>
   <v>       0.25000000       0.18750000       0.08333333 </v>
   <v>       0.41666667       0.18750000       0.08333333 </v>
   <v>       0.08333333       0.31250000       0.08333333 </v>
   <v>       0.25000000       0.31250000       0.08333333 </v>
   <v>       0.41666667       0.31250000       0.08333333 </v>
   <v>       0.08333333       0.43750000       0.08333333 </v>
   <v>       0.25000000       0.43750000       0.08333333 </v>
   <v>       0.41666667       0.43750000       0.08333333 </v>
   <v>       0.08333333       0.06250000       0.25000000 </v>
   <v>       0.25000000       0.06250000       0.25000000 </v>
   <v>       0.41666667       0.06250000       0.25000000 </v>
   <v>       0.08333333       0.18750000       0.25000000 </v>
   <v>       0.25000000       0.18750000       0.25000000 </v>
   <v>       0.41666667       0.18750000       0.25000000 </v>
   <v>       0.08333333       0.31250000       0.25000000 </v>
   <v>       0.25000000       0.31250000       0.25000000 </v>
   <v>       0.41666667       0.31250000       0.25000000 </v>
   <v>       0.08333333       0.43750000       0.25000000 </v>
   <v>       0.25000000       0.43750000       0.25000000 </v>
   <v>       0.41666667       0.43750000       0.25000000 </v>
   <v>       0.08333333       0.06250000       0.41666667 </v>
   <v>       0.25000000       0.06250000       0.41666667 </v>
   <v>       0.41666667       0.06250000       0.41666667 </v>
   <v>       0.08333333       0.18750000       0.41666667 </v>
   <v>       0.25000000       0.18750000       0.41666667 </v>
   <v>       0.41666667       0.18750000       0.41666667 </v>
   <v>       0.08333333       0.31250000       0.41666667 </v>
   <v>       0.25000000       0.31250000       0.41666667 </v>
   <v>       0.41666667       0.31250000       0.41666667 </v>
   <v>       0.08333333       0.43750000       0.41666667 </v>
   <v>       0.25000000       0.43750000       0.41666667 </v>
   <v>       0.41666667       0.43750000       0.41666667 </v>
  </varray>
  <varray name="weights" >
   <v>       0.02777778 </v>
   <v>       0.02777778 </v>
   <v>       0.02777778 </v>
   <v>       0.02777778 </v>
   <v>       0.02777778 </v>
   <v>       0.02777778 </v>
   <v>       0.02777778 </v>
   <v>       0.02777778 </v>
   <v>       0.02777778 </v>
   <v>       0.02777778 </v>
   <v>       0.02777778 </v>
   <v>       0.02777778 </v>
   <v>       0.02777778 </v>
   <v>       0.02777778 </v>
   <v>       0.02777778 </v>
   <v>       0.02777778 </v>
   <v>       0.02777778 </v>
   <v>       0.02777778 </v>
   <v>       0.02777778 </v>
   <v>       0.02777778 </v>
   <v>       0.02777778 </v>
   <v>       0.02777778 </v>
   <v>       0.02777778 </v>
   <v>       0.02777778 </v>
   <v>       0.02777778 </v>
   <v>       0.02777778 </v>
   <v>       0.02777778 </v>
   <v>       0.02777778 </v>
   <v>       0.02777778 </v>
   <v>       0.02777778 </v>
   <v>       0.02777778 </v>
   <v>       0.02777778 </v>
   <v>       0.02777778 </v>
   <v>       0.02777778 </v>
   <v>       0.02777778 </v>
   <v>       0.02777778 </v>
  </varray>
 </kpoints>
 <parameters>
  <separator name="general" >
   <i type="string" name="SYSTEM">Convergence</i>
   <i type="logical" name="LCOMPAT"> F  </i>
  </separator>
  <separator name="electronic" >
   <i type="string" name="PREC">accura</i>
   <i name="ENMAX">    480.00000000</i>
   <i name="ENAUG">    535.51400000</i>
   <i name="EDIFF">      0.00000100</i>
   <i type="int" name="IALGO">    38</i>
   <i type="int" name="IWAVPR">    10</i>
   <i type="int" name="NBANDS">    24</i>
   <i type="int" name="NBANDSLOW">    -1</i>
   <i type="int" name="NBANDSHIGH">    -1</i>
   <i name="NELECT">      3.00000000</i>
   <i type="int" name="TURBO">     0</i>
   <i type="int" name="IRESTART">     0</i>
   <i type="int" name="NREBOOT">     0</i>
   <i type="int" name="NMIN">     0</i>
   <i name="EREF">      0.00000000</i>
   <separator name="electronic smearing" >
    <i type="int" name="ISMEAR">     0</i>
    <i name="SIGMA">      0.05000000</i>
    <i name="KSPACING">      0.50000000</i>
    <i type="logical" name="KGAMMA"> T  </i>
    <i type="logical" name="KBLOWUP"> T  </i>
   </separator>
   <separator name="electronic projectors" >
    <i type="logical" name="LREAL"> F  </i>
    <v name="ROPT">      0.00000000</v>
    <i type="int" name="LMAXPAW">  -100</i>
    <i type="int" name="LMAXMIX">     2</i>
    <i type="logical" name="NLSPLINE"> F  </i>
   </separator>
   <separator name="electronic startup" >
    <i type="int" name="ISTART">     0</i>
    <i type="int" name="ICHARG">     2</i>
    <i type="int" name="INIWAV">     1</i>
   </separator>
   <separator name="electronic spin" >
    <i type="int" name="ISPIN">     1</i>
    <i type="logical" name="LNONCOLLINEAR"> F  </i>
    <v name="MAGMOM">      1.00000000</v>
    <i name="NUPDOWN">     -1.00000000</i>
    <i type="logical" name="LSORBIT"> F  </i>
    <v name="SAXIS">      0.00000000      0.00000000      1.00000000</v>
    <i type="logical" name="LSPIRAL"> F  </i>
    <v name="QSPIRAL">      0.00000000      0.00000000      0.00000000</v>
    <i type="logical" name="LZEROZ"> F  </i>
   </separator>
   <separator name="electronic exchange-correlation" >
    <i type="logical" name="LASPH"> F  </i>
   </separator>
   <separator name="electronic convergence" >
    <i type="int" name="NELM">   100</i>
    <i type="int" name="NELMDL">    -5</i>
    <i type="int" name="NELMIN">     2</i>
    <i name="ENINI">    480.00000000</i>
    <separator name="electronic convergence detail" >
     <i type="logical" name="LDIAG"> T  </i>
     <i type="logical" name="LSUBROT"> F  </i>
     <i name="WEIMIN">      0.00000000</i>
     <i name="EBREAK">      0.00000001</i>
     <i name="DEPER">      0.30000000</i>
     <i type="int" name="NRMM">     4</i>
     <i name="TIME">      0.40000000</i>
    </separator>
   </separator>
   <separator name="electronic mixer" >
    <i name="AMIX">      0.40000000</i>
    <i name="BMIX">      1.00000000</i>
    <i name="AMIN">      0.10000000</i>
    <i name="AMIX_MAG">      1.60000000</i>
    <i name="BMIX_MAG">      1.00000000</i>
    <separator name="electronic mixer details" >
     <i type="int" name="IMIX">     4</i>
     <i type="logical" name="MIXFIRST"> F  </i>
     <i type="int" name="MAXMIX">   -45</i>
     <i name="WC">    100.00000000</i>
     <i type="int" name="INIMIX">     1</i>
     <i type="int" name="MIXPRE">     1</i>
     <i type="int" name="MREMOVE">     5</i>
    </separator>
   </separator>
   <separator name="electronic dipolcorrection" >
    <i type="logical" name="LDIPOL"> F  </i>
    <i type="logical" name="LMONO"> F  </i>
    <i type="int" name="IDIPOL">     0</i>
    <i name="EPSILON">      1.00000000</i>
    <v name="DIPOL">   -100.00000000   -100.00000000   -100.00000000</v>
    <i name="EFIELD">      0.00000000</i>
    <i type="logical" name="LVACPOTAV"> F  </i>
   </separator>
  </separator>
  <separator name="grids" >
   <i type="int" name="NGX">   108</i>
   <i type="int" name="NGY">    90</i>
   <i type="int" name="NGZ">   140</i>
   <i type="int" name="NGXF">   216</i>
   <i type="int" name="NGYF">   180</i>
   <i type="int" name="NGZF">   280</i>
   <i type="logical" name="ADDGRID"> F  </i>
  </separator>
  <separator name="ionic" >
   <i type="int" name="NSW">     0</i>
   <i type="int" name="IBRION">    -1</i>
   <i type="int" name="MDALGO">     0</i>
   <i type="int" name="ISIF">     2</i>
   <i name="PSTRESS">      0.00000000</i>
   <i name="EDIFFG">     -0.00100000</i>
   <i type="int" name="NFREE">     0</i>
   <i name="POTIM">      0.50000000</i>
   <i name="SMASS">     -3.00000000</i>
   <i name="SCALEE">      1.00000000</i>
  </separator>
  <separator name="ionic md" >
   <i name="TEBEG">      0.00010000</i>
   <i name="TEEND">      0.00010000</i>
   <i type="int" name="NBLOCK">     1</i>
   <i type="int" name="KBLOCK">     1</i>
   <i type="int" name="NPACO">   256</i>
   <i name="APACO">     10.00000000</i>
  </separator>
  <separator name="symmetry" >
   <i type="int" name="ISYM">     2</i>
   <i name="SYMPREC">      0.00001000</i>
  </separator>
  <separator name="dos" >
   <i type="int" name="LORBIT">     0</i>
   <v name="RWIGS">     -1.00000000</v>
   <i type="int" name="NEDOS">   301</i>
   <i name="EMIN">     10.00000000</i>
   <i name="EMAX">    -10.00000000</i>
   <i name="EFERMI">      0.00000000</i>
  </separator>
  <separator name="writing" >
   <i type="int" name="NWRITE">     2</i>
   <i type="logical" name="LWAVE"> F  </i>
   <i type="logical" name="LDOWNSAMPLE"> F  </i>
   <i type="logical" name="LCHARG"> F  </i>
   <i type="logical" name="LPARD"> F  </i>
   <i type="logical" name="LVTOT"> F  </i>
   <i type="logical" name="LVHAR"> F  </i>
   <i type="logical" name="LELF"> F  </i>
   <i type="logical" name="LOPTICS"> F  </i>
   <v name="STM">      0.00000000      0.00000000      0.00000000      0.00000000      0.00000000      0.00000000      0.00000000</v>
  </separator>
  <separator name="performance" >
   <i type="int" name="NPAR">    24</i>
   <i type="int" name="NSIM">     4</i>
   <i type="int" name="NBLK">    -1</i>
   <i type="logical" name="LPLANE"> T  </i>
   <i type="logical" name="LSCALAPACK"> T  </i>
   <i type="logical" name="LSCAAWARE"> F  </i>
   <i type="logical" name="LSCALU"> F  </i>
   <i type="logical" name="LASYNC"> F  </i>
   <i type="logical" name="LORBITALREAL"> F  </i>
  </separator>
  <separator name="miscellaneous" >
   <i type="int" name="IDIOT">     3</i>
   <i type="int" name="PHON_NSTRUCT">    -1</i>
   <i type="logical" name="LMUSIC"> F  </i>
   <v name="POMASS">     10.81100000</v>
   <v name="DARWINR">      0.00000000</v>
   <v name="DARWINV">      1.00000000</v>
   <i type="logical" name="LCORR"> T  </i>
  </separator>
  <i type="logical" name="GGA_COMPAT"> T  </i>
  <i type="logical" name="LBERRY"> F  </i>
  <i type="int" name="ICORELEVEL">     0</i>
  <i type="logical" name="LDAU"> F  </i>
  <i type="int" name="I_CONSTRAINED_M">     0</i>
  <separator name="electronic exchange-correlation" >
   <i type="string" name="GGA    ">PE</i>
   <i type="string" name="XC_C">1</i>
   <i type="int" name="VOSKOWN">     0</i>
   <i type="logical" name="LHFCALC"> F  </i>
   <i type="string" name="PRECFOCK"></i>
   <i type="logical" name="LSYMGRAD"> F  </i>
   <i type="logical" name="LHFONE"> F  </i>
   <i type="logical" name="LRHFCALC"> F  </i>
   <i type="logical" name="LTHOMAS"> F  </i>
   <i type="logical" name="LMODELHF"> F  </i>
   <i type="logical" name="LFOCKACE"> F  </i>
   <i name="ENCUT4O">     -1.00000000</i>
   <i type="int" name="EXXOEP">     0</i>
   <i type="int" name="FOURORBIT">     0</i>
   <i name="AEXX">      0.00000000</i>
   <i name="HFALPHA">      0.00000000</i>
   <i name="MCALPHA">      0.00000000</i>
   <i name="ALDAX">      1.00000000</i>
   <i name="AGGAX">      1.00000000</i>
   <i name="AMGGAX">      1.00000000</i>
   <i name="ALDAC">      1.00000000</i>
   <i name="AGGAC">      1.00000000</i>
   <i name="AMGGAC">      1.00000000</i>
   <i type="int" name="NKREDX">     1</i>
   <i type="int" name="NKREDY">     1</i>
   <i type="int" name="NKREDZ">     1</i>
   <i type="logical" name="SHIFTRED"> F  </i>
   <i type="logical" name="ODDONLY"> F  </i>
   <i type="logical" name="EVENONLY"> F  </i>
   <i type="int" name="LMAXFOCK">     0</i>
   <i type="int" name="NMAXFOCKAE">     0</i>
   <i type="logical" name="LFOCKAEDFT"> F  </i>
   <i name="HFSCREEN">      0.00000000</i>
   <i name="HFSCREENC">      0.00000000</i>
   <i type="int" name="NBANDSGWLOW">     0</i>
  </separator>
  <separator name="vdW DFT" >
   <i type="logical" name="LUSE_VDW"> F  </i>
   <i type="int" name="IVDW_NL">    -1</i>
   <i type="logical" name="LSPIN_VDW"> F  </i>
   <i name="ZAB_VDW">     -0.84910000</i>
   <i name="GAMMA_VDW">      1.39626340</i>
   <i name="ALPHA_VDW">      0.00000000</i>
   <i name="PARAM1">      0.12340000</i>
   <i name="PARAM2">      1.00000000</i>
   <i name="BPARAM">      6.30000000</i>
   <i name="CPARAM">      0.00930000</i>
  </separator>
  <separator name="model GW" >
   <i type="int" name="MODEL_GW">     0</i>
   <i name="MODEL_EPS0">   2025.00000000</i>
   <i name="MODEL_ALPHA">      1.00000000</i>
  </separator>
  <separator name="linear response parameters" >
   <i type="logical" name="LEPSILON"> F  </i>
   <i type="logical" name="LRPA"> F  </i>
   <i type="logical" name="LNABLA"> F  </i>
   <i type="logical" name="LVEL"> F  </i>
   <i name="CSHIFT">      0.10000000</i>
   <i name="OMEGAMAX">     -1.00000000</i>
   <i name="DEG_THRESHOLD">      0.00200000</i>
   <i name="RTIME">     -0.10000000</i>
   <i name="WPLASMAI">      0.00000000</i>
   <v name="DFIELD">      0.00000000      0.00000000      0.00000000</v>
   <v name="WPLASMA">      0.00000000      0.00000000      0.00000000      0.00000000      0.00000000      0.00000000      0.00000000      0.00000000      0.00000000</v>
  </separator>
  <separator name="orbital magnetization" >
   <i type="logical" name="NUCIND"> F  </i>
   <v name="MAGPOS">      0.00000000      0.00000000      0.00000000</v>
   <i type="logical" name="LNICSALL"> T  </i>
   <i type="logical" name="ORBITALMAG"> F  </i>
   <i type="logical" name="LMAGBLOCH"> F  </i>
   <i type="logical" name="LCHIMAG"> F  </i>
   <i type="logical" name="LGAUGE"> T  </i>
   <i type="int" name="MAGATOM">     0</i>
   <v name="MAGDIPOL">      0.00000000      0.00000000      0.00000000</v>
   <v name="AVECCONST">      0.00000000      0.00000000      0.00000000</v>
  </separator>
  <separator name="response functions" >
   <i type="logical" name="LALL_IN_ONE"> F  </i>
   <i type="int" name="IALL_IN_ONE">    -1</i>
   <i type="int" name="NBANDS_WAVE">    -1</i>
   <i type="logical" name="LFINITE_TEMPERATURE"> F  </i>
   <i type="logical" name="LADDER"> F  </i>
   <i type="logical" name="LRPAFORCE"> F  </i>
   <i type="logical" name="LFXC"> F  </i>
   <i type="logical" name="LHARTREE"> T  </i>
   <i type="int" name="IBSE">     0</i>
   <v type="int" name="KPOINT">    -1     0     0     0</v>
   <i type="logical" name="LTCTC"> F  </i>
   <i type="logical" name="LTCTE"> F  </i>
   <i type="logical" name="LTETE"> F  </i>
   <i type="logical" name="LTRIPLET"> F  </i>
   <i type="logical" name="LFXCEPS"> F  </i>
   <i type="logical" name="LFXHEG"> F  </i>
   <i type="int" name="NATURALO">     2</i>
   <i type="logical" name="LHOLEGF"> F  </i>
   <i type="logical" name="L2ORDER"> F  </i>
   <i type="logical" name="LDMP1"> F  </i>
   <i type="logical" name="LMP2LT"> F  </i>
   <i type="logical" name="LSMP2LT"> F  </i>
   <i type="logical" name="LGWLF"> F  </i>
   <i name="ENCUTGW">     -1.60000002</i>
   <i name="ENCUTGWSOFT">     -1.60000002</i>
   <i name="ENCUTLF">     -1.00000000</i>
   <i type="logical" name="ESF_SPLINES"> F  </i>
   <i name="ESF_CONV">      0.01000000</i>
   <i type="int" name="ESF_NINTER">    15</i>
   <i type="int" name="LMAXMP2">    -1</i>
   <i name="SCISSOR">      0.00000000</i>
   <i type="int" name="NOMEGA">     0</i>
   <i type="int" name="NOMEGAR">     0</i>
   <i type="int" name="NBANDSGW">    -1</i>
   <i type="int" name="NBANDSO">    -1</i>
   <i type="int" name="NBANDSV">    -1</i>
   <i type="int" name="NELMGW">     1</i>
   <i type="int" name="NELMHF">     1</i>
   <i type="int" name="DIM">     3</i>
   <i type="int" name="IESPILON">     4</i>
   <i type="int" name="ANTIRES">     0</i>
   <i name="OMEGAMAX">    -30.00000000</i>
   <i name="OMEGAMIN">    -30.00000000</i>
   <i name="OMEGATL">   -200.00000000</i>
   <i type="int" name="OMEGAGRID">     0</i>
   <i name="CSHIFT">     -0.10000000</i>
   <i type="logical" name="LSELFENERGY"> F  </i>
   <i type="logical" name="LSPECTRAL"> F  </i>
   <i type="logical" name="LSPECTRALGW"> F  </i>
   <i type="logical" name="LSINGLES"> F  </i>
   <i type="logical" name="LFERMIGW"> F  </i>
   <i type="logical" name="ODDONLYGW"> F  </i>
   <i type="logical" name="EVENONLYGW"> F  </i>
   <i type="int" name="NKREDLFX">     1</i>
   <i type="int" name="NKREDLFY">     1</i>
   <i type="int" name="NKREDLFZ">     1</i>
   <i type="int" name="MAXMEM">  2800</i>
   <i type="int" name="TELESCOPE">     0</i>
   <i type="int" name="NTAUPAR">    -1</i>
   <i type="int" name="NOMEGAPAR">    -1</i>
   <i name="DAMP_NEWTON">      0.80000001</i>
   <i name="LAMBDA">      1.00000000</i>
  </separator>
  <separator name="External order field" >
   <i name="OFIELD_KAPPA">      0.00000000</i>
   <v name="OFIELD_K">      0.00000000      0.00000000      0.00000000</v>
   <i name="OFIELD_Q6_NEAR">      0.00000000</i>
   <i name="OFIELD_Q6_FAR">      0.00000000</i>
   <i name="OFIELD_A">      0.00000000</i>
  </separator>
  <separator name="optional k-points parameters" >
   <i type="int" name="KPOINTS_OPT_MODE">     1</i>
   <i type="logical" name="LKPOINTS_OPT"> F  </i>
  </separator>
 </parameters>
 <atominfo>
  <atoms>       1 </atoms>
  <types>       1 </types>
  <array name="atoms" >
   <dimension dim="1">ion</dimension>
   <field type="string">element</field>
   <field type="int">atomtype</field>
   <set>
    <rc><c>B </c><c>   1</c></rc>
   </set>
  </array>
  <array name="atomtypes" >
   <dimension dim="1">type</dimension>
   <field type="int">atomspertype</field>
   <field type="string">element</field>
   <field>mass</field>
   <field>valence</field>
   <field type="string">pseudopotential</field>
   <set>
    <rc><c>   1</c><c>B </c><c>     10.81100000</c><c>      3.00000000</c><c>  PAW_PBE B 06Sep2000                   </c></rc>
   </set>
  </array>
 </atominfo>
 <structure name="initialpos" >
  <crystal>
   <varray name="basis" >
    <v>      15.00000000       0.00000000       0.00000000 </v>
    <v>       0.00000000      12.50000000       0.00000000 </v>
    <v>       0.00000000       0.00000000      18.00000000 </v>
   </varray>
   <i name="volume">   3375.00000000 </i>
   <varray name="rec_basis" >
    <v>       0.06666667       0.00000000       0.00000000 </v>
    <v>       0.00000000       0.08000000       0.00000000 </v>
    <v>       0.00000000       0.00000000       0.05555556 </v>
   </varray>
  </crystal>
  <varray name="positions" >
   <v>       0.52123000       0.54500000       0.63796000 </v>
  </varray>
 </structure>
 <calculation>
  <scstep>
   <time name="dav">    8.32    8.57</time>
   <time name="total">    8.64    8.90</time>
   <energy>
    <i name="alphaZ">      0.02038373 </i>
    <i name="ewald">    -11.82901664 </i>
    <i name="hartreedc">    -42.58396533 </i>
    <i name="XCdc">      4.75549673 </i>
    <i name="pawpsdc">     43.49986551 </i>
    <i name="pawaedc">    -42.64454556 </i>
    <i name="eentropy">     -0.01065012 </i>
    <i name="bandstr">    -14.98493438 </i>
    <i name="atom">     71.16900941 </i>
    <i name="e_fr_energy">      7.39164335 </i>
    <i name="e_wo_entrp">      7.40229347 </i>
    <i name="e_0_energy">      7.39696841 </i>
   </energy>
  </scstep>
  <scstep>
   <time name="dav">   13.65   13.93</time>
   <time name="total">   13.65   13.93</time>
   <energy>
    <i name="e_fr_energy">      0.07125828 </i>
    <i name="e_wo_entrp">      0.10373926 </i>
    <i name="e_0_energy">      0.08749877 </i>
   </energy>
  </scstep>
  <scstep>
   <time name="dav">    8.30    8.60</time>
   <time name="total">    8.30    8.60</time>
   <energy>
    <i name="e_fr_energy">     -0.05565970 </i>
    <i name="e_wo_entrp">     -0.00272828 </i>
    <i name="e_0_energy">     -0.02919399 </i>
   </energy>
  </scstep>
  <scstep>
   <time name="dav">    8.99    9.39</time>
   <time name="total">    8.99    9.40</time>
   <energy>
    <i name="e_fr_energy">     -0.05824189 </i>
    <i name="e_wo_entrp">     -0.00524058 </i>
    <i name="e_0_energy">     -0.03174124 </i>
   </energy>
  </scstep>
  <scstep>
   <time name="dav">   10.80   11.39</time>
   <time name="total">   11.58   12.21</time>
   <energy>
    <i name="e_fr_energy">     -0.05827181 </i>
    <i name="e_wo_entrp">     -0.00527047 </i>
    <i name="e_0_energy">     -0.03177114 </i>
   </energy>
  </scstep>
  <scstep>
   <time name="dav">   10.30   10.79</time>
   <time name="total">   10.58   11.10</time>
   <energy>
    <i name="alphaZ">      0.02038373 </i>
    <i name="ewald">    -11.82901664 </i>
    <i name="hartreedc">    -42.58387316 </i>
    <i name="XCdc">      4.75536928 </i>
    <i name="pawpsdc">     43.51353252 </i>
    <i name="pawaedc">    -42.65831881 </i>
    <i name="eentropy">     -0.05300134 </i>
    <i name="bandstr">    -22.39235714 </i>
    <i name="atom">     71.16900941 </i>
    <i name="e_fr_energy">     -0.05827214 </i>
    <i name="e_wo_entrp">     -0.00527080 </i>
    <i name="e_0_energy">     -0.03177147 </i>
   </energy>
  </scstep>
  <structure>
   <crystal>
    <varray name="basis" >
     <v>      15.00000000       0.00000000       0.00000000 </v>
     <v>       0.00000000      12.50000000       0.00000000 </v>
     <v>       0.00000000       0.00000000      18.00000000 </v>
    </varray>
    <i name="volume">   3375.00000000 </i>
    <varray name="rec_basis" >
     <v>       0.06666667       0.00000000       0.00000000 </v>
     <v>       0.00000000       0.08000000       0.00000000 </v>
     <v>       0.00000000       0.00000000       0.05555556 </v>
    </varray>
   </crystal>
   <varray name="positions" >
    <v>       0.52123000       0.54500000       0.63796000 </v>
   </varray>
  </structure>
  <varray name="forces" >
   <v>       0.00000000      -0.00000000       0.00000000 </v>
  </varray>
  <varray name="stress" >
   <v>      -0.00062882      -0.00000000       0.00000000 </v>
   <v>       0.00000000      -0.00056905       0.00000000 </v>
   <v>       0.00000000       0.00000000      -0.00062100 </v>
  </varray>
  <energy>
   <i name="e_fr_energy">     -0.05827214 </i>
   <i name="e_wo_entrp">     -0.00527080 </i>
   <i name="e_0_energy">     -0.03177147 </i>
  </energy>
  <time name="totalsc">   70.63   73.08</time>
  <eigenvalues>
   <array>
    <dimension dim="1">band</dimension>
    <dimension dim="2">kpoint</dimension>
    <dimension dim="3">spin</dimension>
    <field>eigene</field>
    <field>occ</field>
    <set>
     <set comment="spin 1">
      <set comment="kpoint 1">
       <r>   -9.4099    1.0000 </r>
       <r>   -3.5726    0.1667 </r>
       <r>   -3.5726    0.1667 </r>
       <r>   -3.5725    0.1659 </r>
       <r>   -0.2556    0.0000 </r>
       <r>    0.2408    0.0000 </r>
       <r>    0.3604    0.0000 </r>
       <r>    0.4281    0.0000 </r>
       <r>    0.6163    0.0000 </r>
       <r>    0.6504    0.0000 </r>
       <r>    0.8201    0.0000 </r>
       <r>    0.8807    0.0000 </r>
       <r>    0.9676    0.0000 </r>
       <r>    1.0284    0.0000 </r>
       <r>    1.0861    0.0000 </r>
       <r>    1.1830    0.0000 </r>
       <r>    1.1999    0.0000 </r>
       <r>    1.2496    0.0000 </r>
       <r>    1.3301    0.0000 </r>
       <r>    1.4160    0.0000 </r>
       <r>    1.4508    0.0000 </r>
       <r>    1.5201    0.0000 </r>
       <r>    1.5491    0.0000 </r>
       <r>    1.6645    0.0000 </r>
      </set>
      <set comment="kpoint 2">
       <r>   -9.4099    1.0000 </r>
       <r>   -3.5726    0.1667 </r>
       <r>   -3.5726    0.1667 </r>
       <r>   -3.5725    0.1659 </r>
       <r>   -0.2299    0.0000 </r>
       <r>    0.2006    0.0000 </r>
       <r>    0.2974    0.0000 </r>
       <r>    0.4352    0.0000 </r>
       <r>    0.6427    0.0000 </r>
       <r>    0.6734    0.0000 </r>
       <r>    0.7823    0.0000 </r>
       <r>    0.8723    0.0000 </r>
       <r>    0.9101    0.0000 </r>
       <r>    1.0486    0.0000 </r>
       <r>    1.1181    0.0000 </r>
       <r>    1.2638    0.0000 </r>
       <r>    1.2708    0.0000 </r>
       <r>    1.2853    0.0000 </r>
       <r>    1.3695    0.0000 </r>
       <r>    1.4449    0.0000 </r>
       <r>    1.4862    0.0000 </r>
       <r>    1.5123    0.0000 </r>
       <r>    1.5646    0.0000 </r>
       <r>    1.6191    0.0000 </r>
      </set>
      <set comment="kpoint 3">
       <r>   -9.4099    1.0000 </r>
       <r>   -3.5726    0.1668 </r>
       <r>   -3.5726    0.1667 </r>
       <r>   -3.5725    0.1659 </r>
       <r>   -0.1951    0.0000 </r>
       <r>    0.1048    0.0000 </r>
       <r>    0.3445    0.0000 </r>
       <r>    0.4871    0.0000 </r>
       <r>    0.5186    0.0000 </r>
       <r>    0.6609    0.0000 </r>
       <r>    0.7147    0.0000 </r>
       <r>    0.9341    0.0000 </r>
       <r>    0.9572    0.0000 </r>
       <r>    1.1301    0.0000 </r>
       <r>    1.1647    0.0000 </r>
       <r>    1.1956    0.0000 </r>
       <r>    1.3108    0.0000 </r>
       <r>    1.3631    0.0000 </r>
       <r>    1.4036    0.0000 </r>
       <r>    1.4654    0.0000 </r>
       <r>    1.4925    0.0000 </r>
       <r>    1.5555    0.0000 </r>
       <r>    1.5657    0.0000 </r>
       <r>    1.6402    0.0000 </r>
      </set>
      <set comment="kpoint 4">
       <r>   -9.4099    1.0000 </r>
       <r>   -3.5726    0.1667 </r>
       <r>   -3.5726    0.1666 </r>
       <r>   -3.5725    0.1664 </r>
       <r>   -0.2281    0.0000 </r>
       <r>    0.2667    0.0000 </r>
       <r>    0.3795    0.0000 </r>
       <r>    0.4490    0.0000 </r>
       <r>    0.4658    0.0000 </r>
       <r>    0.6497    0.0000 </r>
       <r>    0.8412    0.0000 </r>
       <r>    0.8841    0.0000 </r>
       <r>    0.9723    0.0000 </r>
       <r>    1.0152    0.0000 </r>
       <r>    1.0517    0.0000 </r>
       <r>    1.0711    0.0000 </r>
       <r>    1.1410    0.0000 </r>
       <r>    1.2191    0.0000 </r>
       <r>    1.2569    0.0000 </r>
       <r>    1.4528    0.0000 </r>
       <r>    1.5482    0.0000 </r>
       <r>    1.5823    0.0000 </r>
       <r>    1.5980    0.0000 </r>
       <r>    1.6803    0.0000 </r>
      </set>
      <set comment="kpoint 5">
       <r>   -9.4099    1.0000 </r>
       <r>   -3.5726    0.1667 </r>
       <r>   -3.5726    0.1667 </r>
       <r>   -3.5725    0.1664 </r>
       <r>   -0.2025    0.0000 </r>
       <r>    0.2277    0.0000 </r>
       <r>    0.3249    0.0000 </r>
       <r>    0.4473    0.0000 </r>
       <r>    0.4943    0.0000 </r>
       <r>    0.6701    0.0000 </r>
       <r>    0.7990    0.0000 </r>
       <r>    0.8533    0.0000 </r>
       <r>    0.9069    0.0000 </r>
       <r>    0.9243    0.0000 </r>
       <r>    1.0628    0.0000 </r>
       <r>    1.1673    0.0000 </r>
       <r>    1.2609    0.0000 </r>
       <r>    1.3256    0.0000 </r>
       <r>    1.3962    0.0000 </r>
       <r>    1.4660    0.0000 </r>
       <r>    1.4932    0.0000 </r>
       <r>    1.5694    0.0000 </r>
       <r>    1.5935    0.0000 </r>
       <r>    1.6514    0.0000 </r>
      </set>
      <set comment="kpoint 6">
       <r>   -9.4099    1.0000 </r>
       <r>   -3.5726    0.1667 </r>
       <r>   -3.5726    0.1667 </r>
       <r>   -3.5725    0.1664 </r>
       <r>   -0.1680    0.0000 </r>
       <r>    0.1334    0.0000 </r>
       <r>    0.3710    0.0000 </r>
       <r>    0.4960    0.0000 </r>
       <r>    0.5328    0.0000 </r>
       <r>    0.5546    0.0000 </r>
       <r>    0.6824    0.0000 </r>
       <r>    0.7455    0.0000 </r>
       <r>    0.9708    0.0000 </r>
       <r>    1.1109    0.0000 </r>
       <r>    1.1400    0.0000 </r>
       <r>    1.1749    0.0000 </r>
       <r>    1.2222    0.0000 </r>
       <r>    1.2900    0.0000 </r>
       <r>    1.4280    0.0000 </r>
       <r>    1.5075    0.0000 </r>
       <r>    1.5747    0.0000 </r>
       <r>    1.6379    0.0000 </r>
       <r>    1.6898    0.0000 </r>
       <r>    1.7432    0.0000 </r>
      </set>
      <set comment="kpoint 7">
       <r>   -9.4099    1.0000 </r>
       <r>   -3.5726    0.1670 </r>
       <r>   -3.5726    0.1666 </r>
       <r>   -3.5725    0.1666 </r>
       <r>   -0.1771    0.0000 </r>
       <r>    0.2535    0.0000 </r>
       <r>    0.3426    0.0000 </r>
       <r>    0.4536    0.0000 </r>
       <r>    0.5103    0.0000 </r>
       <r>    0.7016    0.0000 </r>
       <r>    0.7060    0.0000 </r>
       <r>    0.8247    0.0000 </r>
       <r>    0.8749    0.0000 </r>
       <r>    0.9171    0.0000 </r>
       <r>    1.0563    0.0000 </r>
       <r>    1.0772    0.0000 </r>
       <r>    1.1274    0.0000 </r>
       <r>    1.2671    0.0000 </r>
       <r>    1.2890    0.0000 </r>
       <r>    1.4027    0.0000 </r>
       <r>    1.4377    0.0000 </r>
       <r>    1.5067    0.0000 </r>
       <r>    1.6154    0.0000 </r>
       <r>    1.6475    0.0000 </r>
      </set>
      <set comment="kpoint 8">
       <r>   -9.4099    1.0000 </r>
       <r>   -3.5726    0.1670 </r>
       <r>   -3.5726    0.1666 </r>
       <r>   -3.5726    0.1666 </r>
       <r>   -0.1521    0.0000 </r>
       <r>    0.2609    0.0000 </r>
       <r>    0.3258    0.0000 </r>
       <r>    0.3827    0.0000 </r>
       <r>    0.5247    0.0000 </r>
       <r>    0.6603    0.0000 </r>
       <r>    0.7331    0.0000 </r>
       <r>    0.7541    0.0000 </r>
       <r>    0.8718    0.0000 </r>
       <r>    0.8981    0.0000 </r>
       <r>    0.9592    0.0000 </r>
       <r>    1.0993    0.0000 </r>
       <r>    1.2361    0.0000 </r>
       <r>    1.3200    0.0000 </r>
       <r>    1.3756    0.0000 </r>
       <r>    1.4479    0.0000 </r>
       <r>    1.5273    0.0000 </r>
       <r>    1.6436    0.0000 </r>
       <r>    1.7388    0.0000 </r>
       <r>    1.8224    0.0000 </r>
      </set>
      <set comment="kpoint 9">
       <r>   -9.4099    1.0000 </r>
       <r>   -3.5726    0.1670 </r>
       <r>   -3.5726    0.1667 </r>
       <r>   -3.5726    0.1666 </r>
       <r>   -0.1187    0.0000 </r>
       <r>    0.1893    0.0000 </r>
       <r>    0.3448    0.0000 </r>
       <r>    0.4311    0.0000 </r>
       <r>    0.5458    0.0000 </r>
       <r>    0.5812    0.0000 </r>
       <r>    0.6151    0.0000 </r>
       <r>    0.7516    0.0000 </r>
       <r>    0.8053    0.0000 </r>
       <r>    0.9450    0.0000 </r>
       <r>    0.9761    0.0000 </r>
       <r>    1.1141    0.0000 </r>
       <r>    1.2329    0.0000 </r>
       <r>    1.4548    0.0000 </r>
       <r>    1.5289    0.0000 </r>
       <r>    1.6109    0.0000 </r>
       <r>    1.6364    0.0000 </r>
       <r>    1.7135    0.0000 </r>
       <r>    1.7497    0.0000 </r>
       <r>    1.8175    0.0000 </r>
      </set>
      <set comment="kpoint 10">
       <r>   -9.4099    1.0000 </r>
       <r>   -3.5727    0.1674 </r>
       <r>   -3.5726    0.1666 </r>
       <r>   -3.5725    0.1666 </r>
       <r>   -0.1212    0.0000 </r>
       <r>    0.1500    0.0000 </r>
       <r>    0.4103    0.0000 </r>
       <r>    0.5236    0.0000 </r>
       <r>    0.5632    0.0000 </r>
       <r>    0.5886    0.0000 </r>
       <r>    0.6922    0.0000 </r>
       <r>    0.7507    0.0000 </r>
       <r>    0.7819    0.0000 </r>
       <r>    0.9500    0.0000 </r>
       <r>    0.9859    0.0000 </r>
       <r>    1.1196    0.0000 </r>
       <r>    1.1579    0.0000 </r>
       <r>    1.2051    0.0000 </r>
       <r>    1.2867    0.0000 </r>
       <r>    1.3407    0.0000 </r>
       <r>    1.3806    0.0000 </r>
       <r>    1.5041    0.0000 </r>
       <r>    1.6456    0.0000 </r>
       <r>    1.7556    0.0000 </r>
      </set>
      <set comment="kpoint 11">
       <r>   -9.4099    1.0000 </r>
       <r>   -3.5727    0.1674 </r>
       <r>   -3.5726    0.1666 </r>
       <r>   -3.5726    0.1666 </r>
       <r>   -0.0975    0.0000 </r>
       <r>    0.1811    0.0000 </r>
       <r>    0.3692    0.0000 </r>
       <r>    0.4531    0.0000 </r>
       <r>    0.5317    0.0000 </r>
       <r>    0.5979    0.0000 </r>
       <r>    0.6258    0.0000 </r>
       <r>    0.7594    0.0000 </r>
       <r>    0.8130    0.0000 </r>
       <r>    0.9430    0.0000 </r>
       <r>    0.9605    0.0000 </r>
       <r>    1.0395    0.0000 </r>
       <r>    1.1068    0.0000 </r>
       <r>    1.2018    0.0000 </r>
       <r>    1.4427    0.0000 </r>
       <r>    1.5830    0.0000 </r>
       <r>    1.6148    0.0000 </r>
       <r>    1.6702    0.0000 </r>
       <r>    1.7385    0.0000 </r>
       <r>    1.7853    0.0000 </r>
      </set>
      <set comment="kpoint 12">
       <r>   -9.4099    1.0000 </r>
       <r>   -3.5727    0.1674 </r>
       <r>   -3.5726    0.1667 </r>
       <r>   -3.5726    0.1666 </r>
       <r>   -0.0667    0.0000 </r>
       <r>    0.2321    0.0000 </r>
       <r>    0.2725    0.0000 </r>
       <r>    0.4205    0.0000 </r>
       <r>    0.4976    0.0000 </r>
       <r>    0.6452    0.0000 </r>
       <r>    0.6831    0.0000 </r>
       <r>    0.6938    0.0000 </r>
       <r>    0.8083    0.0000 </r>
       <r>    0.8327    0.0000 </r>
       <r>    0.8385    0.0000 </r>
       <r>    0.9767    0.0000 </r>
       <r>    1.2976    0.0000 </r>
       <r>    1.4743    0.0000 </r>
       <r>    1.5956    0.0000 </r>
       <r>    1.6644    0.0000 </r>
       <r>    1.7172    0.0000 </r>
       <r>    1.7781    0.0000 </r>
       <r>    1.8352    0.0000 </r>
       <r>    1.8614    0.0000 </r>
      </set>
      <set comment="kpoint 13">
       <r>   -9.4099    1.0000 </r>
       <r>   -3.5726    0.1667 </r>
       <r>   -3.5726    0.1667 </r>
       <r>   -3.5725    0.1659 </r>
       <r>   -0.2434    0.0000 </r>
       <r>    0.1356    0.0000 </r>
       <r>    0.4049    0.0000 </r>
       <r>    0.5514    0.0000 </r>
       <r>    0.6468    0.0000 </r>
       <r>    0.6647    0.0000 </r>
       <r>    0.7088    0.0000 </r>
       <r>    0.8942    0.0000 </r>
       <r>    0.9180    0.0000 </r>
       <r>    0.9803    0.0000 </r>
       <r>    1.1333    0.0000 </r>
       <r>    1.2028    0.0000 </r>
       <r>    1.2273    0.0000 </r>
       <r>    1.2714    0.0000 </r>
       <r>    1.3537    0.0000 </r>
       <r>    1.3869    0.0000 </r>
       <r>    1.4674    0.0000 </r>
       <r>    1.5166    0.0000 </r>
       <r>    1.5591    0.0000 </r>
       <r>    1.6312    0.0000 </r>
      </set>
      <set comment="kpoint 14">
       <r>   -9.4099    1.0000 </r>
       <r>   -3.5726    0.1667 </r>
       <r>   -3.5726    0.1667 </r>
       <r>   -3.5725    0.1659 </r>
       <r>   -0.2184    0.0000 </r>
       <r>    0.1622    0.0000 </r>
       <r>    0.2486    0.0000 </r>
       <r>    0.5191    0.0000 </r>
       <r>    0.6086    0.0000 </r>
       <r>    0.6888    0.0000 </r>
       <r>    0.8695    0.0000 </r>
       <r>    0.9236    0.0000 </r>
       <r>    0.9698    0.0000 </r>
       <r>    1.0075    0.0000 </r>
       <r>    1.0763    0.0000 </r>
       <r>    1.1623    0.0000 </r>
       <r>    1.2413    0.0000 </r>
       <r>    1.2830    0.0000 </r>
       <r>    1.3433    0.0000 </r>
       <r>    1.3557    0.0000 </r>
       <r>    1.4548    0.0000 </r>
       <r>    1.5731    0.0000 </r>
       <r>    1.5996    0.0000 </r>
       <r>    1.6651    0.0000 </r>
      </set>
      <set comment="kpoint 15">
       <r>   -9.4099    1.0000 </r>
       <r>   -3.5726    0.1668 </r>
       <r>   -3.5726    0.1667 </r>
       <r>   -3.5725    0.1659 </r>
       <r>   -0.1849    0.0000 </r>
       <r>    0.1251    0.0000 </r>
       <r>    0.2396    0.0000 </r>
       <r>    0.3928    0.0000 </r>
       <r>    0.6603    0.0000 </r>
       <r>    0.7281    0.0000 </r>
       <r>    0.8307    0.0000 </r>
       <r>    0.9540    0.0000 </r>
       <r>    0.9718    0.0000 </r>
       <r>    1.0688    0.0000 </r>
       <r>    1.1464    0.0000 </r>
       <r>    1.2023    0.0000 </r>
       <r>    1.2336    0.0000 </r>
       <r>    1.2893    0.0000 </r>
       <r>    1.3654    0.0000 </r>
       <r>    1.4223    0.0000 </r>
       <r>    1.4679    0.0000 </r>
       <r>    1.4996    0.0000 </r>
       <r>    1.5313    0.0000 </r>
       <r>    1.5566    0.0000 </r>
      </set>
      <set comment="kpoint 16">
       <r>   -9.4099    1.0000 </r>
       <r>   -3.5726    0.1667 </r>
       <r>   -3.5726    0.1666 </r>
       <r>   -3.5725    0.1664 </r>
       <r>   -0.2161    0.0000 </r>
       <r>    0.1639    0.0000 </r>
       <r>    0.4216    0.0000 </r>
       <r>    0.4673    0.0000 </r>
       <r>    0.5872    0.0000 </r>
       <r>    0.6770    0.0000 </r>
       <r>    0.7338    0.0000 </r>
       <r>    0.7754    0.0000 </r>
       <r>    0.9514    0.0000 </r>
       <r>    1.0306    0.0000 </r>
       <r>    1.1330    0.0000 </r>
       <r>    1.1704    0.0000 </r>
       <r>    1.1963    0.0000 </r>
       <r>    1.2553    0.0000 </r>
       <r>    1.3169    0.0000 </r>
       <r>    1.3512    0.0000 </r>
       <r>    1.3924    0.0000 </r>
       <r>    1.4839    0.0000 </r>
       <r>    1.5677    0.0000 </r>
       <r>    1.7128    0.0000 </r>
      </set>
      <set comment="kpoint 17">
       <r>   -9.4099    1.0000 </r>
       <r>   -3.5726    0.1667 </r>
       <r>   -3.5726    0.1667 </r>
       <r>   -3.5725    0.1664 </r>
       <r>   -0.1912    0.0000 </r>
       <r>    0.1903    0.0000 </r>
       <r>    0.2762    0.0000 </r>
       <r>    0.4868    0.0000 </r>
       <r>    0.5468    0.0000 </r>
       <r>    0.6431    0.0000 </r>
       <r>    0.8015    0.0000 </r>
       <r>    0.8582    0.0000 </r>
       <r>    0.9194    0.0000 </r>
       <r>    1.0025    0.0000 </r>
       <r>    1.1441    0.0000 </r>
       <r>    1.1642    0.0000 </r>
       <r>    1.1929    0.0000 </r>
       <r>    1.2654    0.0000 </r>
       <r>    1.3212    0.0000 </r>
       <r>    1.4929    0.0000 </r>
       <r>    1.5068    0.0000 </r>
       <r>    1.5876    0.0000 </r>
       <r>    1.5920    0.0000 </r>
       <r>    1.6685    0.0000 </r>
      </set>
      <set comment="kpoint 18">
       <r>   -9.4099    1.0000 </r>
       <r>   -3.5726    0.1667 </r>
       <r>   -3.5726    0.1667 </r>
       <r>   -3.5725    0.1664 </r>
       <r>   -0.1580    0.0000 </r>
       <r>    0.1536    0.0000 </r>
       <r>    0.2676    0.0000 </r>
       <r>    0.4216    0.0000 </r>
       <r>    0.5295    0.0000 </r>
       <r>    0.6916    0.0000 </r>
       <r>    0.7500    0.0000 </r>
       <r>    0.8617    0.0000 </r>
       <r>    0.8784    0.0000 </r>
       <r>    1.0208    0.0000 </r>
       <r>    1.1862    0.0000 </r>
       <r>    1.2031    0.0000 </r>
       <r>    1.3024    0.0000 </r>
       <r>    1.3479    0.0000 </r>
       <r>    1.4331    0.0000 </r>
       <r>    1.4715    0.0000 </r>
       <r>    1.4977    0.0000 </r>
       <r>    1.5412    0.0000 </r>
       <r>    1.5701    0.0000 </r>
       <r>    1.5959    0.0000 </r>
      </set>
      <set comment="kpoint 19">
       <r>   -9.4099    1.0000 </r>
       <r>   -3.5726    0.1670 </r>
       <r>   -3.5726    0.1666 </r>
       <r>   -3.5725    0.1666 </r>
       <r>   -0.1656    0.0000 </r>
       <r>    0.2147    0.0000 </r>
       <r>    0.2938    0.0000 </r>
       <r>    0.4907    0.0000 </r>
       <r>    0.5846    0.0000 </r>
       <r>    0.6506    0.0000 </r>
       <r>    0.7314    0.0000 </r>
       <r>    0.7971    0.0000 </r>
       <r>    0.8689    0.0000 </r>
       <r>    1.0075    0.0000 </r>
       <r>    1.0124    0.0000 </r>
       <r>    1.1094    0.0000 </r>
       <r>    1.1593    0.0000 </r>
       <r>    1.2358    0.0000 </r>
       <r>    1.3370    0.0000 </r>
       <r>    1.3739    0.0000 </r>
       <r>    1.4248    0.0000 </r>
       <r>    1.4758    0.0000 </r>
       <r>    1.6036    0.0000 </r>
       <r>    1.6999    0.0000 </r>
      </set>
      <set comment="kpoint 20">
       <r>   -9.4099    1.0000 </r>
       <r>   -3.5726    0.1670 </r>
       <r>   -3.5726    0.1666 </r>
       <r>   -3.5726    0.1666 </r>
       <r>   -0.1412    0.0000 </r>
       <r>    0.2401    0.0000 </r>
       <r>    0.3165    0.0000 </r>
       <r>    0.3436    0.0000 </r>
       <r>    0.5870    0.0000 </r>
       <r>    0.6382    0.0000 </r>
       <r>    0.7012    0.0000 </r>
       <r>    0.7079    0.0000 </r>
       <r>    0.9574    0.0000 </r>
       <r>    0.9670    0.0000 </r>
       <r>    1.0675    0.0000 </r>
       <r>    1.0709    0.0000 </r>
       <r>    1.2518    0.0000 </r>
       <r>    1.3175    0.0000 </r>
       <r>    1.3826    0.0000 </r>
       <r>    1.4191    0.0000 </r>
       <r>    1.4854    0.0000 </r>
       <r>    1.6033    0.0000 </r>
       <r>    1.6975    0.0000 </r>
       <r>    1.7369    0.0000 </r>
      </set>
      <set comment="kpoint 21">
       <r>   -9.4099    1.0000 </r>
       <r>   -3.5726    0.1670 </r>
       <r>   -3.5726    0.1667 </r>
       <r>   -3.5726    0.1666 </r>
       <r>   -0.1091    0.0000 </r>
       <r>    0.2092    0.0000 </r>
       <r>    0.3187    0.0000 </r>
       <r>    0.3710    0.0000 </r>
       <r>    0.4770    0.0000 </r>
       <r>    0.5827    0.0000 </r>
       <r>    0.6861    0.0000 </r>
       <r>    0.7602    0.0000 </r>
       <r>    0.8439    0.0000 </r>
       <r>    0.9267    0.0000 </r>
       <r>    1.1191    0.0000 </r>
       <r>    1.2423    0.0000 </r>
       <r>    1.2898    0.0000 </r>
       <r>    1.3919    0.0000 </r>
       <r>    1.4671    0.0000 </r>
       <r>    1.5317    0.0000 </r>
       <r>    1.5965    0.0000 </r>
       <r>    1.6384    0.0000 </r>
       <r>    1.6407    0.0000 </r>
       <r>    1.7575    0.0000 </r>
      </set>
      <set comment="kpoint 22">
       <r>   -9.4099    1.0000 </r>
       <r>   -3.5727    0.1674 </r>
       <r>   -3.5726    0.1666 </r>
       <r>   -3.5725    0.1666 </r>
       <r>   -0.1110    0.0000 </r>
       <r>    0.1684    0.0000 </r>
       <r>    0.3068    0.0000 </r>
       <r>    0.4543    0.0000 </r>
       <r>    0.5577    0.0000 </r>
       <r>    0.7140    0.0000 </r>
       <r>    0.7412    0.0000 </r>
       <r>    0.8059    0.0000 </r>
       <r>    0.8737    0.0000 </r>
       <r>    0.8898    0.0000 </r>
       <r>    0.9804    0.0000 </r>
       <r>    1.0210    0.0000 </r>
       <r>    1.0955    0.0000 </r>
       <r>    1.2345    0.0000 </r>
       <r>    1.3088    0.0000 </r>
       <r>    1.4138    0.0000 </r>
       <r>    1.4572    0.0000 </r>
       <r>    1.5296    0.0000 </r>
       <r>    1.5832    0.0000 </r>
       <r>    1.6725    0.0000 </r>
      </set>
      <set comment="kpoint 23">
       <r>   -9.4099    1.0000 </r>
       <r>   -3.5727    0.1674 </r>
       <r>   -3.5726    0.1666 </r>
       <r>   -3.5726    0.1666 </r>
       <r>   -0.0878    0.0000 </r>
       <r>    0.1991    0.0000 </r>
       <r>    0.3342    0.0000 </r>
       <r>    0.4042    0.0000 </r>
       <r>    0.4833    0.0000 </r>
       <r>    0.5746    0.0000 </r>
       <r>    0.6875    0.0000 </r>
       <r>    0.7795    0.0000 </r>
       <r>    0.8357    0.0000 </r>
       <r>    0.9344    0.0000 </r>
       <r>    1.0233    0.0000 </r>
       <r>    1.1447    0.0000 </r>
       <r>    1.2094    0.0000 </r>
       <r>    1.2863    0.0000 </r>
       <r>    1.3333    0.0000 </r>
       <r>    1.4529    0.0000 </r>
       <r>    1.4826    0.0000 </r>
       <r>    1.6224    0.0000 </r>
       <r>    1.7017    0.0000 </r>
       <r>    1.8019    0.0000 </r>
      </set>
      <set comment="kpoint 24">
       <r>   -9.4099    1.0000 </r>
       <r>   -3.5727    0.1674 </r>
       <r>   -3.5726    0.1667 </r>
       <r>   -3.5726    0.1666 </r>
       <r>   -0.0580    0.0000 </r>
       <r>    0.2488    0.0000 </r>
       <r>    0.2910    0.0000 </r>
       <r>    0.4003    0.0000 </r>
       <r>    0.4412    0.0000 </r>
       <r>    0.5553    0.0000 </r>
       <r>    0.5730    0.0000 </r>
       <r>    0.7026    0.0000 </r>
       <r>    0.8281    0.0000 </r>
       <r>    0.9889    0.0000 </r>
       <r>    1.0052    0.0000 </r>
       <r>    1.1509    0.0000 </r>
       <r>    1.3085    0.0000 </r>
       <r>    1.4596    0.0000 </r>
       <r>    1.4988    0.0000 </r>
       <r>    1.6017    0.0000 </r>
       <r>    1.6149    0.0000 </r>
       <r>    1.6452    0.0000 </r>
       <r>    1.7210    0.0000 </r>
       <r>    1.7678    0.0000 </r>
      </set>
      <set comment="kpoint 25">
       <r>   -9.4099    1.0000 </r>
       <r>   -3.5726    0.1667 </r>
       <r>   -3.5726    0.1667 </r>
       <r>   -3.5725    0.1659 </r>
       <r>   -0.2290    0.0000 </r>
       <r>    0.0731    0.0000 </r>
       <r>    0.4315    0.0000 </r>
       <r>    0.6163    0.0000 </r>
       <r>    0.6464    0.0000 </r>
       <r>    0.6845    0.0000 </r>
       <r>    0.7677    0.0000 </r>
       <r>    0.8568    0.0000 </r>
       <r>    0.9104    0.0000 </r>
       <r>    0.9197    0.0000 </r>
       <r>    1.0153    0.0000 </r>
       <r>    1.1541    0.0000 </r>
       <r>    1.2464    0.0000 </r>
       <r>    1.3268    0.0000 </r>
       <r>    1.4435    0.0000 </r>
       <r>    1.4836    0.0000 </r>
       <r>    1.5146    0.0000 </r>
       <r>    1.5353    0.0000 </r>
       <r>    1.5865    0.0000 </r>
       <r>    1.6129    0.0000 </r>
      </set>
      <set comment="kpoint 26">
       <r>   -9.4099    1.0000 </r>
       <r>   -3.5726    0.1667 </r>
       <r>   -3.5726    0.1667 </r>
       <r>   -3.5725    0.1659 </r>
       <r>   -0.2048    0.0000 </r>
       <r>    0.1075    0.0000 </r>
       <r>    0.2673    0.0000 </r>
       <r>    0.4476    0.0000 </r>
       <r>    0.7023    0.0000 </r>
       <r>    0.7969    0.0000 </r>
       <r>    0.8963    0.0000 </r>
       <r>    0.9351    0.0000 </r>
       <r>    0.9484    0.0000 </r>
       <r>    1.0221    0.0000 </r>
       <r>    1.1022    0.0000 </r>
       <r>    1.1192    0.0000 </r>
       <r>    1.1681    0.0000 </r>
       <r>    1.1909    0.0000 </r>
       <r>    1.2907    0.0000 </r>
       <r>    1.3479    0.0000 </r>
       <r>    1.4008    0.0000 </r>
       <r>    1.5274    0.0000 </r>
       <r>    1.6281    0.0000 </r>
       <r>    1.7221    0.0000 </r>
      </set>
      <set comment="kpoint 27">
       <r>   -9.4099    1.0000 </r>
       <r>   -3.5726    0.1668 </r>
       <r>   -3.5726    0.1667 </r>
       <r>   -3.5725    0.1659 </r>
       <r>   -0.1733    0.0000 </r>
       <r>    0.1562    0.0000 </r>
       <r>    0.1790    0.0000 </r>
       <r>    0.3126    0.0000 </r>
       <r>    0.7405    0.0000 </r>
       <r>    0.8518    0.0000 </r>
       <r>    0.9680    0.0000 </r>
       <r>    0.9857    0.0000 </r>
       <r>    1.0053    0.0000 </r>
       <r>    1.0371    0.0000 </r>
       <r>    1.0896    0.0000 </r>
       <r>    1.1395    0.0000 </r>
       <r>    1.1711    0.0000 </r>
       <r>    1.2545    0.0000 </r>
       <r>    1.2635    0.0000 </r>
       <r>    1.2759    0.0000 </r>
       <r>    1.3971    0.0000 </r>
       <r>    1.4219    0.0000 </r>
       <r>    1.5167    0.0000 </r>
       <r>    1.6795    0.0000 </r>
      </set>
      <set comment="kpoint 28">
       <r>   -9.4099    1.0000 </r>
       <r>   -3.5726    0.1667 </r>
       <r>   -3.5726    0.1666 </r>
       <r>   -3.5725    0.1664 </r>
       <r>   -0.2019    0.0000 </r>
       <r>    0.1021    0.0000 </r>
       <r>    0.4480    0.0000 </r>
       <r>    0.4882    0.0000 </r>
       <r>    0.6385    0.0000 </r>
       <r>    0.6839    0.0000 </r>
       <r>    0.7040    0.0000 </r>
       <r>    0.8091    0.0000 </r>
       <r>    0.8888    0.0000 </r>
       <r>    1.0376    0.0000 </r>
       <r>    1.0627    0.0000 </r>
       <r>    1.1591    0.0000 </r>
       <r>    1.2367    0.0000 </r>
       <r>    1.3030    0.0000 </r>
       <r>    1.3612    0.0000 </r>
       <r>    1.3962    0.0000 </r>
       <r>    1.4325    0.0000 </r>
       <r>    1.4938    0.0000 </r>
       <r>    1.5936    0.0000 </r>
       <r>    1.6106    0.0000 </r>
      </set>
      <set comment="kpoint 29">
       <r>   -9.4099    1.0000 </r>
       <r>   -3.5726    0.1667 </r>
       <r>   -3.5726    0.1667 </r>
       <r>   -3.5725    0.1664 </r>
       <r>   -0.1779    0.0000 </r>
       <r>    0.1365    0.0000 </r>
       <r>    0.2943    0.0000 </r>
       <r>    0.4762    0.0000 </r>
       <r>    0.5077    0.0000 </r>
       <r>    0.7279    0.0000 </r>
       <r>    0.8384    0.0000 </r>
       <r>    0.8831    0.0000 </r>
       <r>    0.9460    0.0000 </r>
       <r>    1.0506    0.0000 </r>
       <r>    1.0662    0.0000 </r>
       <r>    1.1578    0.0000 </r>
       <r>    1.1825    0.0000 </r>
       <r>    1.2145    0.0000 </r>
       <r>    1.4118    0.0000 </r>
       <r>    1.4290    0.0000 </r>
       <r>    1.4684    0.0000 </r>
       <r>    1.5214    0.0000 </r>
       <r>    1.6150    0.0000 </r>
       <r>    1.6480    0.0000 </r>
      </set>
      <set comment="kpoint 30">
       <r>   -9.4099    1.0000 </r>
       <r>   -3.5726    0.1667 </r>
       <r>   -3.5726    0.1667 </r>
       <r>   -3.5725    0.1664 </r>
       <r>   -0.1466    0.0000 </r>
       <r>    0.1845    0.0000 </r>
       <r>    0.2074    0.0000 </r>
       <r>    0.3420    0.0000 </r>
       <r>    0.5475    0.0000 </r>
       <r>    0.7785    0.0000 </r>
       <r>    0.7944    0.0000 </r>
       <r>    0.8980    0.0000 </r>
       <r>    0.9400    0.0000 </r>
       <r>    1.0651    0.0000 </r>
       <r>    1.1109    0.0000 </r>
       <r>    1.1995    0.0000 </r>
       <r>    1.2319    0.0000 </r>
       <r>    1.3088    0.0000 </r>
       <r>    1.4419    0.0000 </r>
       <r>    1.4519    0.0000 </r>
       <r>    1.4776    0.0000 </r>
       <r>    1.5405    0.0000 </r>
       <r>    1.5650    0.0000 </r>
       <r>    1.6558    0.0000 </r>
      </set>
      <set comment="kpoint 31">
       <r>   -9.4099    1.0000 </r>
       <r>   -3.5726    0.1670 </r>
       <r>   -3.5726    0.1667 </r>
       <r>   -3.5725    0.1666 </r>
       <r>   -0.1522    0.0000 </r>
       <r>    0.1595    0.0000 </r>
       <r>    0.3094    0.0000 </r>
       <r>    0.5145    0.0000 </r>
       <r>    0.5200    0.0000 </r>
       <r>    0.7075    0.0000 </r>
       <r>    0.7400    0.0000 </r>
       <r>    0.8585    0.0000 </r>
       <r>    0.8953    0.0000 </r>
       <r>    0.9480    0.0000 </r>
       <r>    1.0625    0.0000 </r>
       <r>    1.0984    0.0000 </r>
       <r>    1.1269    0.0000 </r>
       <r>    1.2269    0.0000 </r>
       <r>    1.3100    0.0000 </r>
       <r>    1.4205    0.0000 </r>
       <r>    1.4462    0.0000 </r>
       <r>    1.4910    0.0000 </r>
       <r>    1.6344    0.0000 </r>
       <r>    1.6636    0.0000 </r>
      </set>
      <set comment="kpoint 32">
       <r>   -9.4099    1.0000 </r>
       <r>   -3.5726    0.1670 </r>
       <r>   -3.5726    0.1666 </r>
       <r>   -3.5726    0.1666 </r>
       <r>   -0.1286    0.0000 </r>
       <r>    0.1936    0.0000 </r>
       <r>    0.3248    0.0000 </r>
       <r>    0.3667    0.0000 </r>
       <r>    0.5244    0.0000 </r>
       <r>    0.5685    0.0000 </r>
       <r>    0.7272    0.0000 </r>
       <r>    0.8833    0.0000 </r>
       <r>    0.9063    0.0000 </r>
       <r>    0.9846    0.0000 </r>
       <r>    1.1043    0.0000 </r>
       <r>    1.2086    0.0000 </r>
       <r>    1.2505    0.0000 </r>
       <r>    1.2632    0.0000 </r>
       <r>    1.3534    0.0000 </r>
       <r>    1.4490    0.0000 </r>
       <r>    1.4803    0.0000 </r>
       <r>    1.5184    0.0000 </r>
       <r>    1.5890    0.0000 </r>
       <r>    1.6341    0.0000 </r>
      </set>
      <set comment="kpoint 33">
       <r>   -9.4099    1.0000 </r>
       <r>   -3.5726    0.1670 </r>
       <r>   -3.5726    0.1667 </r>
       <r>   -3.5726    0.1666 </r>
       <r>   -0.0982    0.0000 </r>
       <r>    0.2397    0.0000 </r>
       <r>    0.2633    0.0000 </r>
       <r>    0.3845    0.0000 </r>
       <r>    0.4005    0.0000 </r>
       <r>    0.6108    0.0000 </r>
       <r>    0.6282    0.0000 </r>
       <r>    0.7627    0.0000 </r>
       <r>    0.9481    0.0000 </r>
       <r>    1.1182    0.0000 </r>
       <r>    1.1644    0.0000 </r>
       <r>    1.2555    0.0000 </r>
       <r>    1.3108    0.0000 </r>
       <r>    1.3529    0.0000 </r>
       <r>    1.4710    0.0000 </r>
       <r>    1.4791    0.0000 </r>
       <r>    1.5135    0.0000 </r>
       <r>    1.5318    0.0000 </r>
       <r>    1.6394    0.0000 </r>
       <r>    1.6559    0.0000 </r>
      </set>
      <set comment="kpoint 34">
       <r>   -9.4099    1.0000 </r>
       <r>   -3.5727    0.1674 </r>
       <r>   -3.5726    0.1666 </r>
       <r>   -3.5725    0.1666 </r>
       <r>   -0.0993    0.0000 </r>
       <r>    0.1961    0.0000 </r>
       <r>    0.2441    0.0000 </r>
       <r>    0.3815    0.0000 </r>
       <r>    0.5784    0.0000 </r>
       <r>    0.7628    0.0000 </r>
       <r>    0.7904    0.0000 </r>
       <r>    0.8201    0.0000 </r>
       <r>    0.9244    0.0000 </r>
       <r>    0.9353    0.0000 </r>
       <r>    0.9850    0.0000 </r>
       <r>    1.0335    0.0000 </r>
       <r>    1.1001    0.0000 </r>
       <r>    1.1641    0.0000 </r>
       <r>    1.1888    0.0000 </r>
       <r>    1.3408    0.0000 </r>
       <r>    1.4949    0.0000 </r>
       <r>    1.6513    0.0000 </r>
       <r>    1.6703    0.0000 </r>
       <r>    1.7485    0.0000 </r>
      </set>
      <set comment="kpoint 35">
       <r>   -9.4099    1.0000 </r>
       <r>   -3.5727    0.1674 </r>
       <r>   -3.5726    0.1666 </r>
       <r>   -3.5726    0.1666 </r>
       <r>   -0.0768    0.0000 </r>
       <r>    0.2258    0.0000 </r>
       <r>    0.2775    0.0000 </r>
       <r>    0.4162    0.0000 </r>
       <r>    0.4218    0.0000 </r>
       <r>    0.6000    0.0000 </r>
       <r>    0.6226    0.0000 </r>
       <r>    0.7565    0.0000 </r>
       <r>    0.9662    0.0000 </r>
       <r>    1.0470    0.0000 </r>
       <r>    1.1232    0.0000 </r>
       <r>    1.1759    0.0000 </r>
       <r>    1.2392    0.0000 </r>
       <r>    1.2858    0.0000 </r>
       <r>    1.3361    0.0000 </r>
       <r>    1.3609    0.0000 </r>
       <r>    1.4431    0.0000 </r>
       <r>    1.4893    0.0000 </r>
       <r>    1.5630    0.0000 </r>
       <r>    1.7053    0.0000 </r>
      </set>
      <set comment="kpoint 36">
       <r>   -9.4099    1.0000 </r>
       <r>   -3.5727    0.1674 </r>
       <r>   -3.5726    0.1667 </r>
       <r>   -3.5726    0.1666 </r>
       <r>   -0.0484    0.0000 </r>
       <r>    0.2724    0.0000 </r>
       <r>    0.3182    0.0000 </r>
       <r>    0.3401    0.0000 </r>
       <r>    0.4652    0.0000 </r>
       <r>    0.4941    0.0000 </r>
       <r>    0.4994    0.0000 </r>
       <r>    0.6189    0.0000 </r>
       <r>    1.0179    0.0000 </r>
       <r>    1.1798    0.0000 </r>
       <r>    1.1947    0.0000 </r>
       <r>    1.2302    0.0000 </r>
       <r>    1.3275    0.0000 </r>
       <r>    1.3441    0.0000 </r>
       <r>    1.4144    0.0000 </r>
       <r>    1.4425    0.0000 </r>
       <r>    1.5111    0.0000 </r>
       <r>    1.5862    0.0000 </r>
       <r>    1.6017    0.0000 </r>
       <r>    1.6424    0.0000 </r>
      </set>
     </set>
    </set>
   </array>
  </eigenvalues>
  <separator name="orbital magnetization" >
   <v name="MAGDIPOLOUT">      0.00000000      0.00000000      0.00000000</v>
  </separator>
  <dos>
   <i name="efermi">     -3.60676275 </i>
   <total>
    <array>
     <dimension dim="1">gridpoints</dimension>
     <dimension dim="2">spin</dimension>
     <field>energy</field>
     <field>total</field>
     <field>integrated</field>
     <set>
      <set comment="spin 1">
       <r>    -9.9735     0.0000     0.0000 </r>
       <r>    -9.9321     0.0000     0.0000 </r>
       <r>    -9.8908     0.0000     0.0000 </r>
       <r>    -9.8495     0.0000     0.0000 </r>
       <r>    -9.8082     0.0000     0.0000 </r>
       <r>    -9.7668     0.0000     0.0000 </r>
       <r>    -9.7255     0.0000     0.0000 </r>
       <r>    -9.6842     0.0000     0.0000 </r>
       <r>    -9.6428     0.0000     0.0000 </r>
       <r>    -9.6015     0.0000     0.0000 </r>
       <r>    -9.5602     0.0005     0.0000 </r>
       <r>    -9.5189     0.0493     0.0021 </r>
       <r>    -9.4775     1.2997     0.0558 </r>
       <r>    -9.4362     9.7071     0.4569 </r>
       <r>    -9.3949    21.1056     1.3292 </r>
       <r>    -9.3535    13.5467     1.8891 </r>
       <r>    -9.3122     2.5458     1.9943 </r>
       <r>    -9.2709     0.1366     1.9999 </r>
       <r>    -9.2296     0.0020     2.0000 </r>
       <r>    -9.1882     0.0000     2.0000 </r>
       <r>    -9.1469     0.0000     2.0000 </r>
       <r>    -9.1056     0.0000     2.0000 </r>
       <r>    -9.0642     0.0000     2.0000 </r>
       <r>    -9.0229     0.0000     2.0000 </r>
       <r>    -8.9816     0.0000     2.0000 </r>
       <r>    -8.9403     0.0000     2.0000 </r>
       <r>    -8.8989     0.0000     2.0000 </r>
       <r>    -8.8576     0.0000     2.0000 </r>
       <r>    -8.8163     0.0000     2.0000 </r>
       <r>    -8.7750     0.0000     2.0000 </r>
       <r>    -8.7336     0.0000     2.0000 </r>
       <r>    -8.6923     0.0000     2.0000 </r>
       <r>    -8.6510     0.0000     2.0000 </r>
       <r>    -8.6096     0.0000     2.0000 </r>
       <r>    -8.5683     0.0000     2.0000 </r>
       <r>    -8.5270     0.0000     2.0000 </r>
       <r>    -8.4857     0.0000     2.0000 </r>
       <r>    -8.4443     0.0000     2.0000 </r>
       <r>    -8.4030     0.0000     2.0000 </r>
       <r>    -8.3617     0.0000     2.0000 </r>
       <r>    -8.3203     0.0000     2.0000 </r>
       <r>    -8.2790     0.0000     2.0000 </r>
       <r>    -8.2377     0.0000     2.0000 </r>
       <r>    -8.1964     0.0000     2.0000 </r>
       <r>    -8.1550     0.0000     2.0000 </r>
       <r>    -8.1137     0.0000     2.0000 </r>
       <r>    -8.0724     0.0000     2.0000 </r>
       <r>    -8.0310     0.0000     2.0000 </r>
       <r>    -7.9897     0.0000     2.0000 </r>
       <r>    -7.9484     0.0000     2.0000 </r>
       <r>    -7.9071     0.0000     2.0000 </r>
       <r>    -7.8657     0.0000     2.0000 </r>
       <r>    -7.8244     0.0000     2.0000 </r>
       <r>    -7.7831     0.0000     2.0000 </r>
       <r>    -7.7417     0.0000     2.0000 </r>
       <r>    -7.7004     0.0000     2.0000 </r>
       <r>    -7.6591     0.0000     2.0000 </r>
       <r>    -7.6178     0.0000     2.0000 </r>
       <r>    -7.5764     0.0000     2.0000 </r>
       <r>    -7.5351     0.0000     2.0000 </r>
       <r>    -7.4938     0.0000     2.0000 </r>
       <r>    -7.4525     0.0000     2.0000 </r>
       <r>    -7.4111     0.0000     2.0000 </r>
       <r>    -7.3698     0.0000     2.0000 </r>
       <r>    -7.3285     0.0000     2.0000 </r>
       <r>    -7.2871     0.0000     2.0000 </r>
       <r>    -7.2458     0.0000     2.0000 </r>
       <r>    -7.2045     0.0000     2.0000 </r>
       <r>    -7.1632     0.0000     2.0000 </r>
       <r>    -7.1218     0.0000     2.0000 </r>
       <r>    -7.0805     0.0000     2.0000 </r>
       <r>    -7.0392     0.0000     2.0000 </r>
       <r>    -6.9978     0.0000     2.0000 </r>
       <r>    -6.9565     0.0000     2.0000 </r>
       <r>    -6.9152     0.0000     2.0000 </r>
       <r>    -6.8739     0.0000     2.0000 </r>
       <r>    -6.8325     0.0000     2.0000 </r>
       <r>    -6.7912     0.0000     2.0000 </r>
       <r>    -6.7499     0.0000     2.0000 </r>
       <r>    -6.7085     0.0000     2.0000 </r>
       <r>    -6.6672     0.0000     2.0000 </r>
       <r>    -6.6259     0.0000     2.0000 </r>
       <r>    -6.5846     0.0000     2.0000 </r>
       <r>    -6.5432     0.0000     2.0000 </r>
       <r>    -6.5019     0.0000     2.0000 </r>
       <r>    -6.4606     0.0000     2.0000 </r>
       <r>    -6.4193     0.0000     2.0000 </r>
       <r>    -6.3779     0.0000     2.0000 </r>
       <r>    -6.3366     0.0000     2.0000 </r>
       <r>    -6.2953     0.0000     2.0000 </r>
       <r>    -6.2539     0.0000     2.0000 </r>
       <r>    -6.2126     0.0000     2.0000 </r>
       <r>    -6.1713     0.0000     2.0000 </r>
       <r>    -6.1300     0.0000     2.0000 </r>
       <r>    -6.0886     0.0000     2.0000 </r>
       <r>    -6.0473     0.0000     2.0000 </r>
       <r>    -6.0060     0.0000     2.0000 </r>
       <r>    -5.9646     0.0000     2.0000 </r>
       <r>    -5.9233     0.0000     2.0000 </r>
       <r>    -5.8820     0.0000     2.0000 </r>
       <r>    -5.8407     0.0000     2.0000 </r>
       <r>    -5.7993     0.0000     2.0000 </r>
       <r>    -5.7580     0.0000     2.0000 </r>
       <r>    -5.7167     0.0000     2.0000 </r>
       <r>    -5.6753     0.0000     2.0000 </r>
       <r>    -5.6340     0.0000     2.0000 </r>
       <r>    -5.5927     0.0000     2.0000 </r>
       <r>    -5.5514     0.0000     2.0000 </r>
       <r>    -5.5100     0.0000     2.0000 </r>
       <r>    -5.4687     0.0000     2.0000 </r>
       <r>    -5.4274     0.0000     2.0000 </r>
       <r>    -5.3861     0.0000     2.0000 </r>
       <r>    -5.3447     0.0000     2.0000 </r>
       <r>    -5.3034     0.0000     2.0000 </r>
       <r>    -5.2621     0.0000     2.0000 </r>
       <r>    -5.2207     0.0000     2.0000 </r>
       <r>    -5.1794     0.0000     2.0000 </r>
       <r>    -5.1381     0.0000     2.0000 </r>
       <r>    -5.0968     0.0000     2.0000 </r>
       <r>    -5.0554     0.0000     2.0000 </r>
       <r>    -5.0141     0.0000     2.0000 </r>
       <r>    -4.9728     0.0000     2.0000 </r>
       <r>    -4.9314     0.0000     2.0000 </r>
       <r>    -4.8901     0.0000     2.0000 </r>
       <r>    -4.8488     0.0000     2.0000 </r>
       <r>    -4.8075     0.0000     2.0000 </r>
       <r>    -4.7661     0.0000     2.0000 </r>
       <r>    -4.7248     0.0000     2.0000 </r>
       <r>    -4.6835     0.0000     2.0000 </r>
       <r>    -4.6421     0.0000     2.0000 </r>
       <r>    -4.6008     0.0000     2.0000 </r>
       <r>    -4.5595     0.0000     2.0000 </r>
       <r>    -4.5182     0.0000     2.0000 </r>
       <r>    -4.4768     0.0000     2.0000 </r>
       <r>    -4.4355     0.0000     2.0000 </r>
       <r>    -4.3942     0.0000     2.0000 </r>
       <r>    -4.3529     0.0000     2.0000 </r>
       <r>    -4.3115     0.0000     2.0000 </r>
       <r>    -4.2702     0.0000     2.0000 </r>
       <r>    -4.2289     0.0000     2.0000 </r>
       <r>    -4.1875     0.0000     2.0000 </r>
       <r>    -4.1462     0.0000     2.0000 </r>
       <r>    -4.1049     0.0000     2.0000 </r>
       <r>    -4.0636     0.0000     2.0000 </r>
       <r>    -4.0222     0.0000     2.0000 </r>
       <r>    -3.9809     0.0000     2.0000 </r>
       <r>    -3.9396     0.0000     2.0000 </r>
       <r>    -3.8982     0.0000     2.0000 </r>
       <r>    -3.8569     0.0000     2.0000 </r>
       <r>    -3.8156     0.0000     2.0000 </r>
       <r>    -3.7743     0.0000     2.0000 </r>
       <r>    -3.7329     0.0004     2.0000 </r>
       <r>    -3.6916     0.0547     2.0023 </r>
       <r>    -3.6503     1.9731     2.0838 </r>
       <r>    -3.6089    19.9952     2.9102 </r>
       <r>    -3.5676    58.6345     5.3334 </r>
       <r>    -3.5263    50.6834     7.4281 </r>
       <r>    -3.4850    12.8786     7.9603 </r>
       <r>    -3.4436     0.9408     7.9992 </r>
       <r>    -3.4023     0.0192     8.0000 </r>
       <r>    -3.3610     0.0001     8.0000 </r>
       <r>    -3.3197     0.0000     8.0000 </r>
       <r>    -3.2783     0.0000     8.0000 </r>
       <r>    -3.2370     0.0000     8.0000 </r>
       <r>    -3.1957     0.0000     8.0000 </r>
       <r>    -3.1543     0.0000     8.0000 </r>
       <r>    -3.1130     0.0000     8.0000 </r>
       <r>    -3.0717     0.0000     8.0000 </r>
       <r>    -3.0304     0.0000     8.0000 </r>
       <r>    -2.9890     0.0000     8.0000 </r>
       <r>    -2.9477     0.0000     8.0000 </r>
       <r>    -2.9064     0.0000     8.0000 </r>
       <r>    -2.8650     0.0000     8.0000 </r>
       <r>    -2.8237     0.0000     8.0000 </r>
       <r>    -2.7824     0.0000     8.0000 </r>
       <r>    -2.7411     0.0000     8.0000 </r>
       <r>    -2.6997     0.0000     8.0000 </r>
       <r>    -2.6584     0.0000     8.0000 </r>
       <r>    -2.6171     0.0000     8.0000 </r>
       <r>    -2.5757     0.0000     8.0000 </r>
       <r>    -2.5344     0.0000     8.0000 </r>
       <r>    -2.4931     0.0000     8.0000 </r>
       <r>    -2.4518     0.0000     8.0000 </r>
       <r>    -2.4104     0.0000     8.0000 </r>
       <r>    -2.3691     0.0000     8.0000 </r>
       <r>    -2.3278     0.0000     8.0000 </r>
       <r>    -2.2864     0.0000     8.0000 </r>
       <r>    -2.2451     0.0000     8.0000 </r>
       <r>    -2.2038     0.0000     8.0000 </r>
       <r>    -2.1625     0.0000     8.0000 </r>
       <r>    -2.1211     0.0000     8.0000 </r>
       <r>    -2.0798     0.0000     8.0000 </r>
       <r>    -2.0385     0.0000     8.0000 </r>
       <r>    -1.9972     0.0000     8.0000 </r>
       <r>    -1.9558     0.0000     8.0000 </r>
       <r>    -1.9145     0.0000     8.0000 </r>
       <r>    -1.8732     0.0000     8.0000 </r>
       <r>    -1.8318     0.0000     8.0000 </r>
       <r>    -1.7905     0.0000     8.0000 </r>
       <r>    -1.7492     0.0000     8.0000 </r>
       <r>    -1.7079     0.0000     8.0000 </r>
       <r>    -1.6665     0.0000     8.0000 </r>
       <r>    -1.6252     0.0000     8.0000 </r>
       <r>    -1.5839     0.0000     8.0000 </r>
       <r>    -1.5425     0.0000     8.0000 </r>
       <r>    -1.5012     0.0000     8.0000 </r>
       <r>    -1.4599     0.0000     8.0000 </r>
       <r>    -1.4186     0.0000     8.0000 </r>
       <r>    -1.3772     0.0000     8.0000 </r>
       <r>    -1.3359     0.0000     8.0000 </r>
       <r>    -1.2946     0.0000     8.0000 </r>
       <r>    -1.2532     0.0000     8.0000 </r>
       <r>    -1.2119     0.0000     8.0000 </r>
       <r>    -1.1706     0.0000     8.0000 </r>
       <r>    -1.1293     0.0000     8.0000 </r>
       <r>    -1.0879     0.0000     8.0000 </r>
       <r>    -1.0466     0.0000     8.0000 </r>
       <r>    -1.0053     0.0000     8.0000 </r>
       <r>    -0.9640     0.0000     8.0000 </r>
       <r>    -0.9226     0.0000     8.0000 </r>
       <r>    -0.8813     0.0000     8.0000 </r>
       <r>    -0.8400     0.0000     8.0000 </r>
       <r>    -0.7986     0.0000     8.0000 </r>
       <r>    -0.7573     0.0000     8.0000 </r>
       <r>    -0.7160     0.0000     8.0000 </r>
       <r>    -0.6747     0.0000     8.0000 </r>
       <r>    -0.6333     0.0000     8.0000 </r>
       <r>    -0.5920     0.0000     8.0000 </r>
       <r>    -0.5507     0.0000     8.0000 </r>
       <r>    -0.5093     0.0000     8.0000 </r>
       <r>    -0.4680     0.0000     8.0000 </r>
       <r>    -0.4267     0.0000     8.0000 </r>
       <r>    -0.3854     0.0002     8.0000 </r>
       <r>    -0.3440     0.0140     8.0006 </r>
       <r>    -0.3027     0.2812     8.0122 </r>
       <r>    -0.2614     2.0522     8.0970 </r>
       <r>    -0.2200     6.3504     8.3595 </r>
       <r>    -0.1787    10.2112     8.7815 </r>
       <r>    -0.1374    10.7530     9.2259 </r>
       <r>    -0.0961     9.2049     9.6063 </r>
       <r>    -0.0547     6.3112     9.8671 </r>
       <r>    -0.0134     2.6637     9.9772 </r>
       <r>     0.0279     0.7178    10.0069 </r>
       <r>     0.0692     1.3475    10.0626 </r>
       <r>     0.1106     4.3561    10.2426 </r>
       <r>     0.1519     8.9192    10.6112 </r>
       <r>     0.1932    12.8734    11.1432 </r>
       <r>     0.2346    15.0008    11.7632 </r>
       <r>     0.2759    16.1682    12.4314 </r>
       <r>     0.3172    16.1028    13.0969 </r>
       <r>     0.3585    15.7218    13.7466 </r>
       <r>     0.3999    15.8550    14.4019 </r>
       <r>     0.4412    17.4099    15.1214 </r>
       <r>     0.4825    18.6997    15.8942 </r>
       <r>     0.5239    19.0896    16.6832 </r>
       <r>     0.5652    18.3656    17.4422 </r>
       <r>     0.6065    18.0542    18.1883 </r>
       <r>     0.6478    19.6852    19.0019 </r>
       <r>     0.6892    22.5490    19.9338 </r>
       <r>     0.7305    23.4320    20.9022 </r>
       <r>     0.7718    21.7904    21.8027 </r>
       <r>     0.8132    20.5106    22.6504 </r>
       <r>     0.8545    21.1605    23.5249 </r>
       <r>     0.8958    23.6586    24.5027 </r>
       <r>     0.9371    26.5607    25.6004 </r>
       <r>     0.9785    27.7636    26.7478 </r>
       <r>     1.0198    25.1062    27.7854 </r>
       <r>     1.0611    22.8726    28.7307 </r>
       <r>     1.1024    23.5142    29.7025 </r>
       <r>     1.1438    26.6477    30.8038 </r>
       <r>     1.1851    29.1510    32.0085 </r>
       <r>     1.2264    29.4406    33.2253 </r>
       <r>     1.2678    29.1242    34.4289 </r>
       <r>     1.3091    28.1647    35.5929 </r>
       <r>     1.3504    26.4580    36.6864 </r>
       <r>     1.3917    24.5891    37.7026 </r>
       <r>     1.4331    27.3432    38.8326 </r>
       <r>     1.4744    33.3752    40.2119 </r>
       <r>     1.5157    33.9224    41.6139 </r>
       <r>     1.5571    29.8125    42.8460 </r>
       <r>     1.5984    29.4786    44.0643 </r>
       <r>     1.6397    29.9192    45.3008 </r>
       <r>     1.6810    24.3839    46.3085 </r>
       <r>     1.7224    16.4202    46.9871 </r>
       <r>     1.7637    11.2473    47.4520 </r>
       <r>     1.8050     7.0092    47.7416 </r>
       <r>     1.8464     3.9575    47.9052 </r>
       <r>     1.8877     1.8042    47.9797 </r>
       <r>     1.9290     0.4442    47.9981 </r>
       <r>     1.9703     0.0444    47.9999 </r>
       <r>     2.0117     0.0015    48.0000 </r>
       <r>     2.0530     0.0000    48.0000 </r>
       <r>     2.0943     0.0000    48.0000 </r>
       <r>     2.1357     0.0000    48.0000 </r>
       <r>     2.1770     0.0000    48.0000 </r>
       <r>     2.2183     0.0000    48.0000 </r>
       <r>     2.2596     0.0000    48.0000 </r>
       <r>     2.3010     0.0000    48.0000 </r>
       <r>     2.3423     0.0000    48.0000 </r>
       <r>     2.3836     0.0000    48.0000 </r>
       <r>     2.4249     0.0000    48.0000 </r>
      </set>
     </set>
    </array>
   </total>
  </dos>
 </calculation>
 <structure name="finalpos" >
  <crystal>
   <varray name="basis" >
    <v>      15.00000000       0.00000000       0.00000000 </v>
    <v>       0.00000000      12.50000000       0.00000000 </v>
    <v>       0.00000000       0.00000000      18.00000000 </v>
   </varray>
   <i name="volume">   3375.00000000 </i>
   <varray name="rec_basis" >
    <v>       0.06666667       0.00000000       0.00000000 </v>
    <v>       0.00000000       0.08000000       0.00000000 </v>
    <v>       0.00000000       0.00000000       0.05555556 </v>
   </varray>
  </crystal>
  <varray name="positions" >
   <v>       0.52123000       0.54500000       0.63796000 </v>
  </varray>
 </structure>
</modeling>
