   1   1   0   0
  0.3391226E+04  0.1502400E-08  0.1252000E-08  0.1802880E-08  0.5000000E-15
  1.000000000000000E-004
  CAR 
 Convergence                             
      2.48732938     -9.97660881  301     -3.60736059      1.00000000
     -9.977  0.0000E+00  0.0000E+00
     -9.935  0.0000E+00  0.0000E+00
     -9.894  0.0000E+00  0.0000E+00
     -9.852  0.0000E+00  0.0000E+00
     -9.810  0.0000E+00  0.0000E+00
     -9.769  0.0000E+00  0.0000E+00
     -9.727  0.0000E+00  0.0000E+00
     -9.686  0.1496E-12  0.6217E-14
     -9.644  0.8449E-09  0.3511E-10
     -9.603  0.1223E-05  0.5087E-07
     -9.561  0.4627E-03  0.1927E-04
     -9.520  0.4643E-01  0.1948E-02
     -9.478  0.1265E+01  0.5449E-01
     -9.437  0.9630E+01  0.4546E+00
     -9.395  0.2109E+02  0.1331E+01
     -9.353  0.1348E+02  0.1891E+01
     -9.312  0.2493E+01  0.1995E+01
     -9.270  0.1300E+00  0.2000E+01
     -9.229  0.1853E-02  0.2000E+01
     -9.187  0.7051E-05  0.2000E+01
     -9.146  0.7032E-08  0.2000E+01
     -9.104  0.1817E-11  0.2000E+01
     -9.063  0.0000E+00  0.2000E+01
     -9.021  0.0000E+00  0.2000E+01
     -8.979  0.0000E+00  0.2000E+01
     -8.938  0.0000E+00  0.2000E+01
     -8.896  0.0000E+00  0.2000E+01
     -8.855  0.0000E+00  0.2000E+01
     -8.813  0.0000E+00  0.2000E+01
     -8.772  0.0000E+00  0.2000E+01
     -8.730  0.0000E+00  0.2000E+01
     -8.689  0.0000E+00  0.2000E+01
     -8.647  0.0000E+00  0.2000E+01
     -8.606  0.0000E+00  0.2000E+01
     -8.564  0.0000E+00  0.2000E+01
     -8.522  0.0000E+00  0.2000E+01
     -8.481  0.0000E+00  0.2000E+01
     -8.439  0.0000E+00  0.2000E+01
     -8.398  0.0000E+00  0.2000E+01
     -8.356  0.0000E+00  0.2000E+01
     -8.315  0.0000E+00  0.2000E+01
     -8.273  0.0000E+00  0.2000E+01
     -8.232  0.0000E+00  0.2000E+01
     -8.190  0.0000E+00  0.2000E+01
     -8.149  0.0000E+00  0.2000E+01
     -8.107  0.0000E+00  0.2000E+01
     -8.065  0.0000E+00  0.2000E+01
     -8.024  0.0000E+00  0.2000E+01
     -7.982  0.0000E+00  0.2000E+01
     -7.941  0.0000E+00  0.2000E+01
     -7.899  0.0000E+00  0.2000E+01
     -7.858  0.0000E+00  0.2000E+01
     -7.816  0.0000E+00  0.2000E+01
     -7.775  0.0000E+00  0.2000E+01
     -7.733  0.0000E+00  0.2000E+01
     -7.692  0.0000E+00  0.2000E+01
     -7.650  0.0000E+00  0.2000E+01
     -7.608  0.0000E+00  0.2000E+01
     -7.567  0.0000E+00  0.2000E+01
     -7.525  0.0000E+00  0.2000E+01
     -7.484  0.0000E+00  0.2000E+01
     -7.442  0.0000E+00  0.2000E+01
     -7.401  0.0000E+00  0.2000E+01
     -7.359  0.0000E+00  0.2000E+01
     -7.318  0.0000E+00  0.2000E+01
     -7.276  0.0000E+00  0.2000E+01
     -7.235  0.0000E+00  0.2000E+01
     -7.193  0.0000E+00  0.2000E+01
     -7.151  0.0000E+00  0.2000E+01
     -7.110  0.0000E+00  0.2000E+01
     -7.068  0.0000E+00  0.2000E+01
     -7.027  0.0000E+00  0.2000E+01
     -6.985  0.0000E+00  0.2000E+01
     -6.944  0.0000E+00  0.2000E+01
     -6.902  0.0000E+00  0.2000E+01
     -6.861  0.0000E+00  0.2000E+01
     -6.819  0.0000E+00  0.2000E+01
     -6.778  0.0000E+00  0.2000E+01
     -6.736  0.0000E+00  0.2000E+01
     -6.694  0.0000E+00  0.2000E+01
     -6.653  0.0000E+00  0.2000E+01
     -6.611  0.0000E+00  0.2000E+01
     -6.570  0.0000E+00  0.2000E+01
     -6.528  0.0000E+00  0.2000E+01
     -6.487  0.0000E+00  0.2000E+01
     -6.445  0.0000E+00  0.2000E+01
     -6.404  0.0000E+00  0.2000E+01
     -6.362  0.0000E+00  0.2000E+01
     -6.321  0.0000E+00  0.2000E+01
     -6.279  0.0000E+00  0.2000E+01
     -6.237  0.0000E+00  0.2000E+01
     -6.196  0.0000E+00  0.2000E+01
     -6.154  0.0000E+00  0.2000E+01
     -6.113  0.0000E+00  0.2000E+01
     -6.071  0.0000E+00  0.2000E+01
     -6.030  0.0000E+00  0.2000E+01
     -5.988  0.0000E+00  0.2000E+01
     -5.947  0.0000E+00  0.2000E+01
     -5.905  0.0000E+00  0.2000E+01
     -5.864  0.0000E+00  0.2000E+01
     -5.822  0.0000E+00  0.2000E+01
     -5.780  0.0000E+00  0.2000E+01
     -5.739  0.0000E+00  0.2000E+01
     -5.697  0.0000E+00  0.2000E+01
     -5.656  0.0000E+00  0.2000E+01
     -5.614  0.0000E+00  0.2000E+01
     -5.573  0.0000E+00  0.2000E+01
     -5.531  0.0000E+00  0.2000E+01
     -5.490  0.0000E+00  0.2000E+01
     -5.448  0.0000E+00  0.2000E+01
     -5.406  0.0000E+00  0.2000E+01
     -5.365  0.0000E+00  0.2000E+01
     -5.323  0.0000E+00  0.2000E+01
     -5.282  0.0000E+00  0.2000E+01
     -5.240  0.0000E+00  0.2000E+01
     -5.199  0.0000E+00  0.2000E+01
     -5.157  0.0000E+00  0.2000E+01
     -5.116  0.0000E+00  0.2000E+01
     -5.074  0.0000E+00  0.2000E+01
     -5.033  0.0000E+00  0.2000E+01
     -4.991  0.0000E+00  0.2000E+01
     -4.949  0.0000E+00  0.2000E+01
     -4.908  0.0000E+00  0.2000E+01
     -4.866  0.0000E+00  0.2000E+01
     -4.825  0.0000E+00  0.2000E+01
     -4.783  0.0000E+00  0.2000E+01
     -4.742  0.0000E+00  0.2000E+01
     -4.700  0.0000E+00  0.2000E+01
     -4.659  0.0000E+00  0.2000E+01
     -4.617  0.0000E+00  0.2000E+01
     -4.576  0.0000E+00  0.2000E+01
     -4.534  0.0000E+00  0.2000E+01
     -4.492  0.0000E+00  0.2000E+01
     -4.451  0.0000E+00  0.2000E+01
     -4.409  0.0000E+00  0.2000E+01
     -4.368  0.0000E+00  0.2000E+01
     -4.326  0.0000E+00  0.2000E+01
     -4.285  0.0000E+00  0.2000E+01
     -4.243  0.0000E+00  0.2000E+01
     -4.202  0.0000E+00  0.2000E+01
     -4.160  0.0000E+00  0.2000E+01
     -4.119  0.0000E+00  0.2000E+01
     -4.077  0.0000E+00  0.2000E+01
     -4.035  0.0000E+00  0.2000E+01
     -3.994  0.0000E+00  0.2000E+01
     -3.952  0.0000E+00  0.2000E+01
     -3.911  0.0000E+00  0.2000E+01
     -3.869  0.1145E-14  0.2000E+01
     -3.828  0.4332E-10  0.2000E+01
     -3.786  0.1218E-06  0.2000E+01
     -3.745  0.8891E-04  0.2000E+01
     -3.703  0.1708E-01  0.2001E+01
     -3.662  0.8795E+00  0.2037E+01
     -3.620  0.1248E+02  0.2556E+01
     -3.578  0.5024E+02  0.4643E+01
     -3.537  0.5877E+02  0.7084E+01
     -3.495  0.2003E+02  0.7917E+01
     -3.454  0.1953E+01  0.7998E+01
     -3.412  0.5282E-01  0.8000E+01
     -3.371  0.3855E-03  0.8000E+01
     -3.329  0.7433E-06  0.8000E+01
     -3.288  0.3732E-09  0.8000E+01
     -3.246  0.4810E-13  0.8000E+01
     -3.205  0.0000E+00  0.8000E+01
     -3.163  0.0000E+00  0.8000E+01
     -3.121  0.0000E+00  0.8000E+01
     -3.080  0.0000E+00  0.8000E+01
     -3.038  0.0000E+00  0.8000E+01
     -2.997  0.0000E+00  0.8000E+01
     -2.955  0.0000E+00  0.8000E+01
     -2.914  0.0000E+00  0.8000E+01
     -2.872  0.0000E+00  0.8000E+01
     -2.831  0.0000E+00  0.8000E+01
     -2.789  0.0000E+00  0.8000E+01
     -2.748  0.0000E+00  0.8000E+01
     -2.706  0.0000E+00  0.8000E+01
     -2.664  0.0000E+00  0.8000E+01
     -2.623  0.0000E+00  0.8000E+01
     -2.581  0.0000E+00  0.8000E+01
     -2.540  0.0000E+00  0.8000E+01
     -2.498  0.0000E+00  0.8000E+01
     -2.457  0.0000E+00  0.8000E+01
     -2.415  0.0000E+00  0.8000E+01
     -2.374  0.0000E+00  0.8000E+01
     -2.332  0.0000E+00  0.8000E+01
     -2.291  0.0000E+00  0.8000E+01
     -2.249  0.0000E+00  0.8000E+01
     -2.207  0.0000E+00  0.8000E+01
     -2.166  0.0000E+00  0.8000E+01
     -2.124  0.0000E+00  0.8000E+01
     -2.083  0.0000E+00  0.8000E+01
     -2.041  0.0000E+00  0.8000E+01
     -2.000  0.0000E+00  0.8000E+01
     -1.958  0.0000E+00  0.8000E+01
     -1.917  0.0000E+00  0.8000E+01
     -1.875  0.0000E+00  0.8000E+01
     -1.834  0.0000E+00  0.8000E+01
     -1.792  0.0000E+00  0.8000E+01
     -1.750  0.0000E+00  0.8000E+01
     -1.709  0.0000E+00  0.8000E+01
     -1.667  0.0000E+00  0.8000E+01
     -1.626  0.0000E+00  0.8000E+01
     -1.584  0.0000E+00  0.8000E+01
     -1.543  0.0000E+00  0.8000E+01
     -1.501  0.0000E+00  0.8000E+01
     -1.460  0.0000E+00  0.8000E+01
     -1.418  0.0000E+00  0.8000E+01
     -1.376  0.0000E+00  0.8000E+01
     -1.335  0.0000E+00  0.8000E+01
     -1.293  0.0000E+00  0.8000E+01
     -1.252  0.0000E+00  0.8000E+01
     -1.210  0.0000E+00  0.8000E+01
     -1.169  0.0000E+00  0.8000E+01
     -1.127  0.0000E+00  0.8000E+01
     -1.086  0.0000E+00  0.8000E+01
     -1.044  0.0000E+00  0.8000E+01
     -1.003  0.0000E+00  0.8000E+01
     -0.961  0.0000E+00  0.8000E+01
     -0.919  0.0000E+00  0.8000E+01
     -0.878  0.0000E+00  0.8000E+01
     -0.836  0.0000E+00  0.8000E+01
     -0.795  0.0000E+00  0.8000E+01
     -0.753  0.0000E+00  0.8000E+01
     -0.712  0.0000E+00  0.8000E+01
     -0.670  0.0000E+00  0.8000E+01
     -0.629  0.0000E+00  0.8000E+01
     -0.587  0.0000E+00  0.8000E+01
     -0.546  0.1781E-15  0.8000E+01
     -0.504  0.1640E-11  0.8000E+01
     -0.462  0.3762E-08  0.8000E+01
     -0.421  0.2371E-05  0.8000E+01
     -0.379  0.4253E-03  0.8000E+01
     -0.338  0.2292E-01  0.8001E+01
     -0.296  0.4019E+00  0.8018E+01
     -0.255  0.2578E+01  0.8125E+01
     -0.213  0.7147E+01  0.8422E+01
     -0.172  0.1058E+02  0.8861E+01
     -0.130  0.1061E+02  0.9302E+01
     -0.089  0.8824E+01  0.9669E+01
     -0.047  0.5581E+01  0.9901E+01
     -0.005  0.2053E+01  0.9986E+01
      0.036  0.6447E+00  0.1001E+02
      0.078  0.1796E+01  0.1009E+02
      0.119  0.5237E+01  0.1031E+02
      0.161  0.9873E+01  0.1072E+02
      0.202  0.1372E+02  0.1129E+02
      0.244  0.1559E+02  0.1193E+02
      0.285  0.1584E+02  0.1259E+02
      0.327  0.1594E+02  0.1325E+02
      0.368  0.1623E+02  0.1393E+02
      0.410  0.1652E+02  0.1461E+02
      0.452  0.1750E+02  0.1534E+02
      0.493  0.1851E+02  0.1611E+02
      0.535  0.1854E+02  0.1688E+02
      0.576  0.1896E+02  0.1767E+02
      0.618  0.1989E+02  0.1849E+02
      0.659  0.2039E+02  0.1934E+02
      0.701  0.2099E+02  0.2021E+02
      0.742  0.2238E+02  0.2114E+02
      0.784  0.2254E+02  0.2208E+02
      0.825  0.2191E+02  0.2299E+02
      0.867  0.2327E+02  0.2396E+02
      0.909  0.2458E+02  0.2498E+02
      0.950  0.2433E+02  0.2599E+02
      0.992  0.2486E+02  0.2702E+02
      1.033  0.2595E+02  0.2810E+02
      1.075  0.2609E+02  0.2918E+02
      1.116  0.2614E+02  0.3027E+02
      1.158  0.2685E+02  0.3139E+02
      1.199  0.2778E+02  0.3254E+02
      1.241  0.2745E+02  0.3368E+02
      1.282  0.2754E+02  0.3482E+02
      1.324  0.2862E+02  0.3601E+02
      1.366  0.2873E+02  0.3721E+02
      1.407  0.2841E+02  0.3839E+02
      1.449  0.2937E+02  0.3961E+02
      1.490  0.3097E+02  0.4089E+02
      1.532  0.3017E+02  0.4215E+02
      1.573  0.2965E+02  0.4338E+02
      1.615  0.3018E+02  0.4463E+02
      1.656  0.2790E+02  0.4579E+02
      1.698  0.2145E+02  0.4668E+02
      1.739  0.1423E+02  0.4728E+02
      1.781  0.8442E+01  0.4763E+02
      1.823  0.4857E+01  0.4783E+02
      1.864  0.2602E+01  0.4794E+02
      1.906  0.1102E+01  0.4798E+02
      1.947  0.3495E+00  0.4800E+02
      1.989  0.7358E-01  0.4800E+02
      2.030  0.7115E-02  0.4800E+02
      2.072  0.2279E-03  0.4800E+02
      2.113  0.2090E-05  0.4800E+02
      2.155  0.5190E-08  0.4800E+02
      2.197  0.3404E-11  0.4800E+02
      2.238  0.5769E-15  0.4800E+02
      2.280  0.0000E+00  0.4800E+02
      2.321  0.0000E+00  0.4800E+02
      2.363  0.0000E+00  0.4800E+02
      2.404  0.0000E+00  0.4800E+02
      2.446  0.0000E+00  0.4800E+02
      2.487  0.0000E+00  0.4800E+02
