Convergence                             
           1
    15.024000    0.000000    0.000000
     0.000000   12.520000    0.000000
     0.000000    0.000000   18.028800
   B 
     1
Direct configuration=     1
   0.52123000  0.54500000  0.63796000
