<?xml version="1.0" encoding="ISO-8859-1"?>
<modeling>
 <generator>
  <i name="program" type="string">vasp </i>
  <i name="version" type="string">6.4.3  </i>
  <i name="subversion" type="string">19Mar24 (build May 31 2024 16:31:43) complex                          parallel </i>
  <i name="platform" type="string">LinuxIFC </i>
  <i name="date" type="string">2024 10 29 </i>
  <i name="time" type="string">16:38:25 </i>
 </generator>
 <incar>
  <i type="string" name="SYSTEM">Kpoints</i>
  <i type="int" name="ISTART">     0</i>
  <i type="string" name="PREC">Accurate</i>
  <i type="string" name="ALGO">Normal</i>
  <i type="int" name="ISPIN">     1</i>
  <i type="int" name="ICHARG">     2</i>
  <i type="int" name="NELM">   100</i>
  <i type="int" name="IBRION">    -1</i>
  <i name="EDIFF">      0.00000100</i>
  <i name="EDIFFG">     -0.00100000</i>
  <i type="int" name="NSW">     0</i>
  <i type="int" name="ISIF">     2</i>
  <i name="ENCUT">    300.00000000</i>
  <i name="POTIM">      0.50000000</i>
  <i type="int" name="ISMEAR">     0</i>
  <i name="SIGMA">      0.05000000</i>
  <i type="logical" name="LWAVE"> F  </i>
  <i type="logical" name="LCHARG"> F  </i>
  <i type="string" name="GGA">PE</i>
 </incar>
 <primitive_cell>
  <structure name="primitive_cell" >
   <crystal>
    <varray name="basis" >
     <v>       5.69700000       0.00000000       0.00000000 </v>
     <v>       0.00000000       4.04790000       0.00000000 </v>
     <v>       0.00000000       0.00000000       6.20420000 </v>
    </varray>
    <i name="volume">    143.07435078 </i>
    <varray name="rec_basis" >
     <v>       0.17553098       0.00000000       0.00000000 </v>
     <v>       0.00000000       0.24704168       0.00000000 </v>
     <v>       0.00000000       0.00000000       0.16118114 </v>
    </varray>
   </crystal>
   <varray name="positions" >
    <v>       0.52123000       0.50000000       0.63796000 </v>
    <v>       0.47877000       0.50000000       0.36204000 </v>
    <v>       0.97877000       0.50000000       0.63796000 </v>
    <v>       0.02123000       0.50000000       0.36204000 </v>
    <v>       0.60090000       0.50000000       0.89991000 </v>
    <v>       0.39910000       0.50000000       0.10009000 </v>
    <v>       0.89910000       0.50000000       0.89991000 </v>
    <v>       0.10090000       0.50000000       0.10009000 </v>
    <v>       0.75000000       0.79171000       0.72973000 </v>
    <v>       0.25000000       0.20829000       0.27027000 </v>
    <v>       0.75000000       0.20829000       0.72973000 </v>
    <v>       0.25000000       0.79171000       0.27027000 </v>
    <v>       0.25000000       0.50000000       0.52367000 </v>
    <v>       0.75000000       0.50000000       0.47633000 </v>
   </varray>
  </structure>
  <varray name="primitive_index" >
   <v type="int" >        1 </v>
   <v type="int" >        2 </v>
   <v type="int" >        3 </v>
   <v type="int" >        4 </v>
   <v type="int" >        5 </v>
   <v type="int" >        6 </v>
   <v type="int" >        7 </v>
   <v type="int" >        8 </v>
   <v type="int" >        9 </v>
   <v type="int" >       10 </v>
   <v type="int" >       11 </v>
   <v type="int" >       12 </v>
   <v type="int" >       13 </v>
   <v type="int" >       14 </v>
  </varray>
 </primitive_cell>
 <kpoints>
  <generation param="Monkhorst-Pack">
   <v type="int" name="divisions">      10       14        9 </v>
   <v name="usershift">      0.00000000       0.00000000       0.00000000 </v>
   <v name="genvec1">      0.10000000       0.00000000       0.00000000 </v>
   <v name="genvec2">      0.00000000       0.07142857       0.00000000 </v>
   <v name="genvec3">      0.00000000       0.00000000       0.11111111 </v>
   <v name="shift">      0.50000000       0.50000000       0.00000000 </v>
  </generation>
  <varray name="kpointlist" >
   <v>       0.05000000       0.03571429       0.00000000 </v>
   <v>       0.15000000       0.03571429       0.00000000 </v>
   <v>       0.25000000       0.03571429       0.00000000 </v>
   <v>       0.35000000       0.03571429       0.00000000 </v>
   <v>       0.45000000       0.03571429       0.00000000 </v>
   <v>       0.05000000       0.10714286       0.00000000 </v>
   <v>       0.15000000       0.10714286       0.00000000 </v>
   <v>       0.25000000       0.10714286       0.00000000 </v>
   <v>       0.35000000       0.10714286       0.00000000 </v>
   <v>       0.45000000       0.10714286       0.00000000 </v>
   <v>       0.05000000       0.17857143       0.00000000 </v>
   <v>       0.15000000       0.17857143       0.00000000 </v>
   <v>       0.25000000       0.17857143       0.00000000 </v>
   <v>       0.35000000       0.17857143       0.00000000 </v>
   <v>       0.45000000       0.17857143       0.00000000 </v>
   <v>       0.05000000       0.25000000       0.00000000 </v>
   <v>       0.15000000       0.25000000       0.00000000 </v>
   <v>       0.25000000       0.25000000       0.00000000 </v>
   <v>       0.35000000       0.25000000       0.00000000 </v>
   <v>       0.45000000       0.25000000       0.00000000 </v>
   <v>       0.05000000       0.32142857       0.00000000 </v>
   <v>       0.15000000       0.32142857       0.00000000 </v>
   <v>       0.25000000       0.32142857       0.00000000 </v>
   <v>       0.35000000       0.32142857       0.00000000 </v>
   <v>       0.45000000       0.32142857       0.00000000 </v>
   <v>       0.05000000       0.39285714       0.00000000 </v>
   <v>       0.15000000       0.39285714       0.00000000 </v>
   <v>       0.25000000       0.39285714       0.00000000 </v>
   <v>       0.35000000       0.39285714       0.00000000 </v>
   <v>       0.45000000       0.39285714       0.00000000 </v>
   <v>       0.05000000       0.46428571       0.00000000 </v>
   <v>       0.15000000       0.46428571       0.00000000 </v>
   <v>       0.25000000       0.46428571       0.00000000 </v>
   <v>       0.35000000       0.46428571       0.00000000 </v>
   <v>       0.45000000       0.46428571       0.00000000 </v>
   <v>       0.05000000       0.03571429       0.11111111 </v>
   <v>       0.15000000       0.03571429       0.11111111 </v>
   <v>       0.25000000       0.03571429       0.11111111 </v>
   <v>       0.35000000       0.03571429       0.11111111 </v>
   <v>       0.45000000       0.03571429       0.11111111 </v>
   <v>       0.05000000       0.10714286       0.11111111 </v>
   <v>       0.15000000       0.10714286       0.11111111 </v>
   <v>       0.25000000       0.10714286       0.11111111 </v>
   <v>       0.35000000       0.10714286       0.11111111 </v>
   <v>       0.45000000       0.10714286       0.11111111 </v>
   <v>       0.05000000       0.17857143       0.11111111 </v>
   <v>       0.15000000       0.17857143       0.11111111 </v>
   <v>       0.25000000       0.17857143       0.11111111 </v>
   <v>       0.35000000       0.17857143       0.11111111 </v>
   <v>       0.45000000       0.17857143       0.11111111 </v>
   <v>       0.05000000       0.25000000       0.11111111 </v>
   <v>       0.15000000       0.25000000       0.11111111 </v>
   <v>       0.25000000       0.25000000       0.11111111 </v>
   <v>       0.35000000       0.25000000       0.11111111 </v>
   <v>       0.45000000       0.25000000       0.11111111 </v>
   <v>       0.05000000       0.32142857       0.11111111 </v>
   <v>       0.15000000       0.32142857       0.11111111 </v>
   <v>       0.25000000       0.32142857       0.11111111 </v>
   <v>       0.35000000       0.32142857       0.11111111 </v>
   <v>       0.45000000       0.32142857       0.11111111 </v>
   <v>       0.05000000       0.39285714       0.11111111 </v>
   <v>       0.15000000       0.39285714       0.11111111 </v>
   <v>       0.25000000       0.39285714       0.11111111 </v>
   <v>       0.35000000       0.39285714       0.11111111 </v>
   <v>       0.45000000       0.39285714       0.11111111 </v>
   <v>       0.05000000       0.46428571       0.11111111 </v>
   <v>       0.15000000       0.46428571       0.11111111 </v>
   <v>       0.25000000       0.46428571       0.11111111 </v>
   <v>       0.35000000       0.46428571       0.11111111 </v>
   <v>       0.45000000       0.46428571       0.11111111 </v>
   <v>       0.05000000       0.03571429       0.22222222 </v>
   <v>       0.15000000       0.03571429       0.22222222 </v>
   <v>       0.25000000       0.03571429       0.22222222 </v>
   <v>       0.35000000       0.03571429       0.22222222 </v>
   <v>       0.45000000       0.03571429       0.22222222 </v>
   <v>       0.05000000       0.10714286       0.22222222 </v>
   <v>       0.15000000       0.10714286       0.22222222 </v>
   <v>       0.25000000       0.10714286       0.22222222 </v>
   <v>       0.35000000       0.10714286       0.22222222 </v>
   <v>       0.45000000       0.10714286       0.22222222 </v>
   <v>       0.05000000       0.17857143       0.22222222 </v>
   <v>       0.15000000       0.17857143       0.22222222 </v>
   <v>       0.25000000       0.17857143       0.22222222 </v>
   <v>       0.35000000       0.17857143       0.22222222 </v>
   <v>       0.45000000       0.17857143       0.22222222 </v>
   <v>       0.05000000       0.25000000       0.22222222 </v>
   <v>       0.15000000       0.25000000       0.22222222 </v>
   <v>       0.25000000       0.25000000       0.22222222 </v>
   <v>       0.35000000       0.25000000       0.22222222 </v>
   <v>       0.45000000       0.25000000       0.22222222 </v>
   <v>       0.05000000       0.32142857       0.22222222 </v>
   <v>       0.15000000       0.32142857       0.22222222 </v>
   <v>       0.25000000       0.32142857       0.22222222 </v>
   <v>       0.35000000       0.32142857       0.22222222 </v>
   <v>       0.45000000       0.32142857       0.22222222 </v>
   <v>       0.05000000       0.39285714       0.22222222 </v>
   <v>       0.15000000       0.39285714       0.22222222 </v>
   <v>       0.25000000       0.39285714       0.22222222 </v>
   <v>       0.35000000       0.39285714       0.22222222 </v>
   <v>       0.45000000       0.39285714       0.22222222 </v>
   <v>       0.05000000       0.46428571       0.22222222 </v>
   <v>       0.15000000       0.46428571       0.22222222 </v>
   <v>       0.25000000       0.46428571       0.22222222 </v>
   <v>       0.35000000       0.46428571       0.22222222 </v>
   <v>       0.45000000       0.46428571       0.22222222 </v>
   <v>       0.05000000       0.03571429       0.33333333 </v>
   <v>       0.15000000       0.03571429       0.33333333 </v>
   <v>       0.25000000       0.03571429       0.33333333 </v>
   <v>       0.35000000       0.03571429       0.33333333 </v>
   <v>       0.45000000       0.03571429       0.33333333 </v>
   <v>       0.05000000       0.10714286       0.33333333 </v>
   <v>       0.15000000       0.10714286       0.33333333 </v>
   <v>       0.25000000       0.10714286       0.33333333 </v>
   <v>       0.35000000       0.10714286       0.33333333 </v>
   <v>       0.45000000       0.10714286       0.33333333 </v>
   <v>       0.05000000       0.17857143       0.33333333 </v>
   <v>       0.15000000       0.17857143       0.33333333 </v>
   <v>       0.25000000       0.17857143       0.33333333 </v>
   <v>       0.35000000       0.17857143       0.33333333 </v>
   <v>       0.45000000       0.17857143       0.33333333 </v>
   <v>       0.05000000       0.25000000       0.33333333 </v>
   <v>       0.15000000       0.25000000       0.33333333 </v>
   <v>       0.25000000       0.25000000       0.33333333 </v>
   <v>       0.35000000       0.25000000       0.33333333 </v>
   <v>       0.45000000       0.25000000       0.33333333 </v>
   <v>       0.05000000       0.32142857       0.33333333 </v>
   <v>       0.15000000       0.32142857       0.33333333 </v>
   <v>       0.25000000       0.32142857       0.33333333 </v>
   <v>       0.35000000       0.32142857       0.33333333 </v>
   <v>       0.45000000       0.32142857       0.33333333 </v>
   <v>       0.05000000       0.39285714       0.33333333 </v>
   <v>       0.15000000       0.39285714       0.33333333 </v>
   <v>       0.25000000       0.39285714       0.33333333 </v>
   <v>       0.35000000       0.39285714       0.33333333 </v>
   <v>       0.45000000       0.39285714       0.33333333 </v>
   <v>       0.05000000       0.46428571       0.33333333 </v>
   <v>       0.15000000       0.46428571       0.33333333 </v>
   <v>       0.25000000       0.46428571       0.33333333 </v>
   <v>       0.35000000       0.46428571       0.33333333 </v>
   <v>       0.45000000       0.46428571       0.33333333 </v>
   <v>       0.05000000       0.03571429       0.44444444 </v>
   <v>       0.15000000       0.03571429       0.44444444 </v>
   <v>       0.25000000       0.03571429       0.44444444 </v>
   <v>       0.35000000       0.03571429       0.44444444 </v>
   <v>       0.45000000       0.03571429       0.44444444 </v>
   <v>       0.05000000       0.10714286       0.44444444 </v>
   <v>       0.15000000       0.10714286       0.44444444 </v>
   <v>       0.25000000       0.10714286       0.44444444 </v>
   <v>       0.35000000       0.10714286       0.44444444 </v>
   <v>       0.45000000       0.10714286       0.44444444 </v>
   <v>       0.05000000       0.17857143       0.44444444 </v>
   <v>       0.15000000       0.17857143       0.44444444 </v>
   <v>       0.25000000       0.17857143       0.44444444 </v>
   <v>       0.35000000       0.17857143       0.44444444 </v>
   <v>       0.45000000       0.17857143       0.44444444 </v>
   <v>       0.05000000       0.25000000       0.44444444 </v>
   <v>       0.15000000       0.25000000       0.44444444 </v>
   <v>       0.25000000       0.25000000       0.44444444 </v>
   <v>       0.35000000       0.25000000       0.44444444 </v>
   <v>       0.45000000       0.25000000       0.44444444 </v>
   <v>       0.05000000       0.32142857       0.44444444 </v>
   <v>       0.15000000       0.32142857       0.44444444 </v>
   <v>       0.25000000       0.32142857       0.44444444 </v>
   <v>       0.35000000       0.32142857       0.44444444 </v>
   <v>       0.45000000       0.32142857       0.44444444 </v>
   <v>       0.05000000       0.39285714       0.44444444 </v>
   <v>       0.15000000       0.39285714       0.44444444 </v>
   <v>       0.25000000       0.39285714       0.44444444 </v>
   <v>       0.35000000       0.39285714       0.44444444 </v>
   <v>       0.45000000       0.39285714       0.44444444 </v>
   <v>       0.05000000       0.46428571       0.44444444 </v>
   <v>       0.15000000       0.46428571       0.44444444 </v>
   <v>       0.25000000       0.46428571       0.44444444 </v>
   <v>       0.35000000       0.46428571       0.44444444 </v>
   <v>       0.45000000       0.46428571       0.44444444 </v>
  </varray>
  <varray name="weights" >
   <v>       0.00317460 </v>
   <v>       0.00317460 </v>
   <v>       0.00317460 </v>
   <v>       0.00317460 </v>
   <v>       0.00317460 </v>
   <v>       0.00317460 </v>
   <v>       0.00317460 </v>
   <v>       0.00317460 </v>
   <v>       0.00317460 </v>
   <v>       0.00317460 </v>
   <v>       0.00317460 </v>
   <v>       0.00317460 </v>
   <v>       0.00317460 </v>
   <v>       0.00317460 </v>
   <v>       0.00317460 </v>
   <v>       0.00317460 </v>
   <v>       0.00317460 </v>
   <v>       0.00317460 </v>
   <v>       0.00317460 </v>
   <v>       0.00317460 </v>
   <v>       0.00317460 </v>
   <v>       0.00317460 </v>
   <v>       0.00317460 </v>
   <v>       0.00317460 </v>
   <v>       0.00317460 </v>
   <v>       0.00317460 </v>
   <v>       0.00317460 </v>
   <v>       0.00317460 </v>
   <v>       0.00317460 </v>
   <v>       0.00317460 </v>
   <v>       0.00317460 </v>
   <v>       0.00317460 </v>
   <v>       0.00317460 </v>
   <v>       0.00317460 </v>
   <v>       0.00317460 </v>
   <v>       0.00634921 </v>
   <v>       0.00634921 </v>
   <v>       0.00634921 </v>
   <v>       0.00634921 </v>
   <v>       0.00634921 </v>
   <v>       0.00634921 </v>
   <v>       0.00634921 </v>
   <v>       0.00634921 </v>
   <v>       0.00634921 </v>
   <v>       0.00634921 </v>
   <v>       0.00634921 </v>
   <v>       0.00634921 </v>
   <v>       0.00634921 </v>
   <v>       0.00634921 </v>
   <v>       0.00634921 </v>
   <v>       0.00634921 </v>
   <v>       0.00634921 </v>
   <v>       0.00634921 </v>
   <v>       0.00634921 </v>
   <v>       0.00634921 </v>
   <v>       0.00634921 </v>
   <v>       0.00634921 </v>
   <v>       0.00634921 </v>
   <v>       0.00634921 </v>
   <v>       0.00634921 </v>
   <v>       0.00634921 </v>
   <v>       0.00634921 </v>
   <v>       0.00634921 </v>
   <v>       0.00634921 </v>
   <v>       0.00634921 </v>
   <v>       0.00634921 </v>
   <v>       0.00634921 </v>
   <v>       0.00634921 </v>
   <v>       0.00634921 </v>
   <v>       0.00634921 </v>
   <v>       0.00634921 </v>
   <v>       0.00634921 </v>
   <v>       0.00634921 </v>
   <v>       0.00634921 </v>
   <v>       0.00634921 </v>
   <v>       0.00634921 </v>
   <v>       0.00634921 </v>
   <v>       0.00634921 </v>
   <v>       0.00634921 </v>
   <v>       0.00634921 </v>
   <v>       0.00634921 </v>
   <v>       0.00634921 </v>
   <v>       0.00634921 </v>
   <v>       0.00634921 </v>
   <v>       0.00634921 </v>
   <v>       0.00634921 </v>
   <v>       0.00634921 </v>
   <v>       0.00634921 </v>
   <v>       0.00634921 </v>
   <v>       0.00634921 </v>
   <v>       0.00634921 </v>
   <v>       0.00634921 </v>
   <v>       0.00634921 </v>
   <v>       0.00634921 </v>
   <v>       0.00634921 </v>
   <v>       0.00634921 </v>
   <v>       0.00634921 </v>
   <v>       0.00634921 </v>
   <v>       0.00634921 </v>
   <v>       0.00634921 </v>
   <v>       0.00634921 </v>
   <v>       0.00634921 </v>
   <v>       0.00634921 </v>
   <v>       0.00634921 </v>
   <v>       0.00634921 </v>
   <v>       0.00634921 </v>
   <v>       0.00634921 </v>
   <v>       0.00634921 </v>
   <v>       0.00634921 </v>
   <v>       0.00634921 </v>
   <v>       0.00634921 </v>
   <v>       0.00634921 </v>
   <v>       0.00634921 </v>
   <v>       0.00634921 </v>
   <v>       0.00634921 </v>
   <v>       0.00634921 </v>
   <v>       0.00634921 </v>
   <v>       0.00634921 </v>
   <v>       0.00634921 </v>
   <v>       0.00634921 </v>
   <v>       0.00634921 </v>
   <v>       0.00634921 </v>
   <v>       0.00634921 </v>
   <v>       0.00634921 </v>
   <v>       0.00634921 </v>
   <v>       0.00634921 </v>
   <v>       0.00634921 </v>
   <v>       0.00634921 </v>
   <v>       0.00634921 </v>
   <v>       0.00634921 </v>
   <v>       0.00634921 </v>
   <v>       0.00634921 </v>
   <v>       0.00634921 </v>
   <v>       0.00634921 </v>
   <v>       0.00634921 </v>
   <v>       0.00634921 </v>
   <v>       0.00634921 </v>
   <v>       0.00634921 </v>
   <v>       0.00634921 </v>
   <v>       0.00634921 </v>
   <v>       0.00634921 </v>
   <v>       0.00634921 </v>
   <v>       0.00634921 </v>
   <v>       0.00634921 </v>
   <v>       0.00634921 </v>
   <v>       0.00634921 </v>
   <v>       0.00634921 </v>
   <v>       0.00634921 </v>
   <v>       0.00634921 </v>
   <v>       0.00634921 </v>
   <v>       0.00634921 </v>
   <v>       0.00634921 </v>
   <v>       0.00634921 </v>
   <v>       0.00634921 </v>
   <v>       0.00634921 </v>
   <v>       0.00634921 </v>
   <v>       0.00634921 </v>
   <v>       0.00634921 </v>
   <v>       0.00634921 </v>
   <v>       0.00634921 </v>
   <v>       0.00634921 </v>
   <v>       0.00634921 </v>
   <v>       0.00634921 </v>
   <v>       0.00634921 </v>
   <v>       0.00634921 </v>
   <v>       0.00634921 </v>
   <v>       0.00634921 </v>
   <v>       0.00634921 </v>
   <v>       0.00634921 </v>
   <v>       0.00634921 </v>
   <v>       0.00634921 </v>
   <v>       0.00634921 </v>
   <v>       0.00634921 </v>
   <v>       0.00634921 </v>
   <v>       0.00634921 </v>
  </varray>
 </kpoints>
 <parameters>
  <separator name="general" >
   <i type="string" name="SYSTEM">Kpoints</i>
   <i type="logical" name="LCOMPAT"> F  </i>
  </separator>
  <separator name="electronic" >
   <i type="string" name="PREC">accura</i>
   <i name="ENMAX">    300.00000000</i>
   <i name="ENAUG">    535.51400000</i>
   <i name="EDIFF">      0.00000100</i>
   <i type="int" name="IALGO">    38</i>
   <i type="int" name="IWAVPR">    10</i>
   <i type="int" name="NBANDS">    48</i>
   <i type="int" name="NBANDSLOW">    -1</i>
   <i type="int" name="NBANDSHIGH">    -1</i>
   <i name="NELECT">     42.00000000</i>
   <i type="int" name="TURBO">     0</i>
   <i type="int" name="IRESTART">     0</i>
   <i type="int" name="NREBOOT">     0</i>
   <i type="int" name="NMIN">     0</i>
   <i name="EREF">      0.00000000</i>
   <separator name="electronic smearing" >
    <i type="int" name="ISMEAR">     0</i>
    <i name="SIGMA">      0.05000000</i>
    <i name="KSPACING">      0.50000000</i>
    <i type="logical" name="KGAMMA"> T  </i>
    <i type="logical" name="KBLOWUP"> T  </i>
   </separator>
   <separator name="electronic projectors" >
    <i type="logical" name="LREAL"> F  </i>
    <v name="ROPT">      0.00000000</v>
    <i type="int" name="LMAXPAW">  -100</i>
    <i type="int" name="LMAXMIX">     2</i>
    <i type="logical" name="NLSPLINE"> F  </i>
   </separator>
   <separator name="electronic startup" >
    <i type="int" name="ISTART">     0</i>
    <i type="int" name="ICHARG">     2</i>
    <i type="int" name="INIWAV">     1</i>
   </separator>
   <separator name="electronic spin" >
    <i type="int" name="ISPIN">     1</i>
    <i type="logical" name="LNONCOLLINEAR"> F  </i>
    <v name="MAGMOM">      1.00000000      1.00000000      1.00000000      1.00000000      1.00000000      1.00000000      1.00000000      1.00000000      1.00000000      1.00000000      1.00000000      1.00000000      1.00000000      1.00000000</v>
    <i name="NUPDOWN">     -1.00000000</i>
    <i type="logical" name="LSORBIT"> F  </i>
    <v name="SAXIS">      0.00000000      0.00000000      1.00000000</v>
    <i type="logical" name="LSPIRAL"> F  </i>
    <v name="QSPIRAL">      0.00000000      0.00000000      0.00000000</v>
    <i type="logical" name="LZEROZ"> F  </i>
   </separator>
   <separator name="electronic exchange-correlation" >
    <i type="logical" name="LASPH"> F  </i>
   </separator>
   <separator name="electronic convergence" >
    <i type="int" name="NELM">   100</i>
    <i type="int" name="NELMDL">    -5</i>
    <i type="int" name="NELMIN">     2</i>
    <i name="ENINI">    300.00000000</i>
    <separator name="electronic convergence detail" >
     <i type="logical" name="LDIAG"> T  </i>
     <i type="logical" name="LSUBROT"> F  </i>
     <i name="WEIMIN">      0.00000000</i>
     <i name="EBREAK">      0.00000001</i>
     <i name="DEPER">      0.30000000</i>
     <i type="int" name="NRMM">     4</i>
     <i name="TIME">      0.40000000</i>
    </separator>
   </separator>
   <separator name="electronic mixer" >
    <i name="AMIX">      0.40000000</i>
    <i name="BMIX">      1.00000000</i>
    <i name="AMIN">      0.10000000</i>
    <i name="AMIX_MAG">      1.60000000</i>
    <i name="BMIX_MAG">      1.00000000</i>
    <separator name="electronic mixer details" >
     <i type="int" name="IMIX">     4</i>
     <i type="logical" name="MIXFIRST"> F  </i>
     <i type="int" name="MAXMIX">   -45</i>
     <i name="WC">    100.00000000</i>
     <i type="int" name="INIMIX">     1</i>
     <i type="int" name="MIXPRE">     1</i>
     <i type="int" name="MREMOVE">     5</i>
    </separator>
   </separator>
   <separator name="electronic dipolcorrection" >
    <i type="logical" name="LDIPOL"> F  </i>
    <i type="logical" name="LMONO"> F  </i>
    <i type="int" name="IDIPOL">     0</i>
    <i name="EPSILON">      1.00000000</i>
    <v name="DIPOL">   -100.00000000   -100.00000000   -100.00000000</v>
    <i name="EFIELD">      0.00000000</i>
    <i type="logical" name="LVACPOTAV"> F  </i>
   </separator>
  </separator>
  <separator name="grids" >
   <i type="int" name="NGX">    32</i>
   <i type="int" name="NGY">    24</i>
   <i type="int" name="NGZ">    36</i>
   <i type="int" name="NGXF">    64</i>
   <i type="int" name="NGYF">    48</i>
   <i type="int" name="NGZF">    72</i>
   <i type="logical" name="ADDGRID"> F  </i>
  </separator>
  <separator name="ionic" >
   <i type="int" name="NSW">     0</i>
   <i type="int" name="IBRION">    -1</i>
   <i type="int" name="MDALGO">     0</i>
   <i type="int" name="ISIF">     2</i>
   <i name="PSTRESS">      0.00000000</i>
   <i name="EDIFFG">     -0.00100000</i>
   <i type="int" name="NFREE">     0</i>
   <i name="POTIM">      0.50000000</i>
   <i name="SMASS">     -3.00000000</i>
   <i name="SCALEE">      1.00000000</i>
  </separator>
  <separator name="ionic md" >
   <i name="TEBEG">      0.00010000</i>
   <i name="TEEND">      0.00010000</i>
   <i type="int" name="NBLOCK">     1</i>
   <i type="int" name="KBLOCK">     1</i>
   <i type="int" name="NPACO">   256</i>
   <i name="APACO">     10.00000000</i>
  </separator>
  <separator name="symmetry" >
   <i type="int" name="ISYM">     2</i>
   <i name="SYMPREC">      0.00001000</i>
  </separator>
  <separator name="dos" >
   <i type="int" name="LORBIT">     0</i>
   <v name="RWIGS">     -1.00000000</v>
   <i type="int" name="NEDOS">   301</i>
   <i name="EMIN">     10.00000000</i>
   <i name="EMAX">    -10.00000000</i>
   <i name="EFERMI">      0.00000000</i>
  </separator>
  <separator name="writing" >
   <i type="int" name="NWRITE">     2</i>
   <i type="logical" name="LWAVE"> F  </i>
   <i type="logical" name="LDOWNSAMPLE"> F  </i>
   <i type="logical" name="LCHARG"> F  </i>
   <i type="logical" name="LPARD"> F  </i>
   <i type="logical" name="LVTOT"> F  </i>
   <i type="logical" name="LVHAR"> F  </i>
   <i type="logical" name="LELF"> F  </i>
   <i type="logical" name="LOPTICS"> F  </i>
   <v name="STM">      0.00000000      0.00000000      0.00000000      0.00000000      0.00000000      0.00000000      0.00000000</v>
  </separator>
  <separator name="performance" >
   <i type="int" name="NPAR">    24</i>
   <i type="int" name="NSIM">     4</i>
   <i type="int" name="NBLK">    -1</i>
   <i type="logical" name="LPLANE"> T  </i>
   <i type="logical" name="LSCALAPACK"> T  </i>
   <i type="logical" name="LSCAAWARE"> F  </i>
   <i type="logical" name="LSCALU"> F  </i>
   <i type="logical" name="LASYNC"> F  </i>
   <i type="logical" name="LORBITALREAL"> F  </i>
  </separator>
  <separator name="miscellaneous" >
   <i type="int" name="IDIOT">     3</i>
   <i type="int" name="PHON_NSTRUCT">    -1</i>
   <i type="logical" name="LMUSIC"> F  </i>
   <v name="POMASS">     10.81100000</v>
   <v name="DARWINR">      0.00000000</v>
   <v name="DARWINV">      1.00000000</v>
   <i type="logical" name="LCORR"> T  </i>
  </separator>
  <i type="logical" name="GGA_COMPAT"> T  </i>
  <i type="logical" name="LBERRY"> F  </i>
  <i type="int" name="ICORELEVEL">     0</i>
  <i type="logical" name="LDAU"> F  </i>
  <i type="int" name="I_CONSTRAINED_M">     0</i>
  <separator name="electronic exchange-correlation" >
   <i type="string" name="GGA    ">PE</i>
   <i type="string" name="XC_C">1</i>
   <i type="int" name="VOSKOWN">     0</i>
   <i type="logical" name="LHFCALC"> F  </i>
   <i type="string" name="PRECFOCK"></i>
   <i type="logical" name="LSYMGRAD"> F  </i>
   <i type="logical" name="LHFONE"> F  </i>
   <i type="logical" name="LRHFCALC"> F  </i>
   <i type="logical" name="LTHOMAS"> F  </i>
   <i type="logical" name="LMODELHF"> F  </i>
   <i type="logical" name="LFOCKACE"> F  </i>
   <i name="ENCUT4O">     -1.00000000</i>
   <i type="int" name="EXXOEP">     0</i>
   <i type="int" name="FOURORBIT">     0</i>
   <i name="AEXX">      0.00000000</i>
   <i name="HFALPHA">      0.00000000</i>
   <i name="MCALPHA">      0.00000000</i>
   <i name="ALDAX">      1.00000000</i>
   <i name="AGGAX">      1.00000000</i>
   <i name="AMGGAX">      1.00000000</i>
   <i name="ALDAC">      1.00000000</i>
   <i name="AGGAC">      1.00000000</i>
   <i name="AMGGAC">      1.00000000</i>
   <i type="int" name="NKREDX">     1</i>
   <i type="int" name="NKREDY">     1</i>
   <i type="int" name="NKREDZ">     1</i>
   <i type="logical" name="SHIFTRED"> F  </i>
   <i type="logical" name="ODDONLY"> F  </i>
   <i type="logical" name="EVENONLY"> F  </i>
   <i type="int" name="LMAXFOCK">     0</i>
   <i type="int" name="NMAXFOCKAE">     0</i>
   <i type="logical" name="LFOCKAEDFT"> F  </i>
   <i name="HFSCREEN">      0.00000000</i>
   <i name="HFSCREENC">      0.00000000</i>
   <i type="int" name="NBANDSGWLOW">     0</i>
  </separator>
  <separator name="vdW DFT" >
   <i type="logical" name="LUSE_VDW"> F  </i>
   <i type="int" name="IVDW_NL">    -1</i>
   <i type="logical" name="LSPIN_VDW"> F  </i>
   <i name="ZAB_VDW">     -0.84910000</i>
   <i name="GAMMA_VDW">      1.39626340</i>
   <i name="ALPHA_VDW">      0.00000000</i>
   <i name="PARAM1">      0.12340000</i>
   <i name="PARAM2">      1.00000000</i>
   <i name="BPARAM">      6.30000000</i>
   <i name="CPARAM">      0.00930000</i>
  </separator>
  <separator name="model GW" >
   <i type="int" name="MODEL_GW">     0</i>
   <i name="MODEL_EPS0">      6.13175789</i>
   <i name="MODEL_ALPHA">      1.00000000</i>
  </separator>
  <separator name="linear response parameters" >
   <i type="logical" name="LEPSILON"> F  </i>
   <i type="logical" name="LRPA"> F  </i>
   <i type="logical" name="LNABLA"> F  </i>
   <i type="logical" name="LVEL"> F  </i>
   <i name="CSHIFT">      0.10000000</i>
   <i name="OMEGAMAX">     -1.00000000</i>
   <i name="DEG_THRESHOLD">      0.00200000</i>
   <i name="RTIME">     -0.10000000</i>
   <i name="WPLASMAI">      0.00000000</i>
   <v name="DFIELD">      0.00000000      0.00000000      0.00000000</v>
   <v name="WPLASMA">      0.00000000      0.00000000      0.00000000      0.00000000      0.00000000      0.00000000      0.00000000      0.00000000      0.00000000</v>
  </separator>
  <separator name="orbital magnetization" >
   <i type="logical" name="NUCIND"> F  </i>
   <v name="MAGPOS">      0.00000000      0.00000000      0.00000000</v>
   <i type="logical" name="LNICSALL"> T  </i>
   <i type="logical" name="ORBITALMAG"> F  </i>
   <i type="logical" name="LMAGBLOCH"> F  </i>
   <i type="logical" name="LCHIMAG"> F  </i>
   <i type="logical" name="LGAUGE"> T  </i>
   <i type="int" name="MAGATOM">     0</i>
   <v name="MAGDIPOL">      0.00000000      0.00000000      0.00000000</v>
   <v name="AVECCONST">      0.00000000      0.00000000      0.00000000</v>
  </separator>
  <separator name="response functions" >
   <i type="logical" name="LALL_IN_ONE"> F  </i>
   <i type="int" name="IALL_IN_ONE">    -1</i>
   <i type="int" name="NBANDS_WAVE">    -1</i>
   <i type="logical" name="LFINITE_TEMPERATURE"> F  </i>
   <i type="logical" name="LADDER"> F  </i>
   <i type="logical" name="LRPAFORCE"> F  </i>
   <i type="logical" name="LFXC"> F  </i>
   <i type="logical" name="LHARTREE"> T  </i>
   <i type="int" name="IBSE">     0</i>
   <v type="int" name="KPOINT">    -1     0     0     0</v>
   <i type="logical" name="LTCTC"> F  </i>
   <i type="logical" name="LTCTE"> F  </i>
   <i type="logical" name="LTETE"> F  </i>
   <i type="logical" name="LTRIPLET"> F  </i>
   <i type="logical" name="LFXCEPS"> F  </i>
   <i type="logical" name="LFXHEG"> F  </i>
   <i type="int" name="NATURALO">     2</i>
   <i type="logical" name="LHOLEGF"> F  </i>
   <i type="logical" name="L2ORDER"> F  </i>
   <i type="logical" name="LDMP1"> F  </i>
   <i type="logical" name="LMP2LT"> F  </i>
   <i type="logical" name="LSMP2LT"> F  </i>
   <i type="logical" name="LGWLF"> F  </i>
   <i name="ENCUTGW">     -1.60000002</i>
   <i name="ENCUTGWSOFT">     -1.60000002</i>
   <i name="ENCUTLF">     -1.00000000</i>
   <i type="logical" name="ESF_SPLINES"> F  </i>
   <i name="ESF_CONV">      0.01000000</i>
   <i type="int" name="ESF_NINTER">    15</i>
   <i type="int" name="LMAXMP2">    -1</i>
   <i name="SCISSOR">      0.00000000</i>
   <i type="int" name="NOMEGA">     0</i>
   <i type="int" name="NOMEGAR">     0</i>
   <i type="int" name="NBANDSGW">    -1</i>
   <i type="int" name="NBANDSO">    -1</i>
   <i type="int" name="NBANDSV">    -1</i>
   <i type="int" name="NELMGW">     1</i>
   <i type="int" name="NELMHF">     1</i>
   <i type="int" name="DIM">     3</i>
   <i type="int" name="IESPILON">     4</i>
   <i type="int" name="ANTIRES">     0</i>
   <i name="OMEGAMAX">    -30.00000000</i>
   <i name="OMEGAMIN">    -30.00000000</i>
   <i name="OMEGATL">   -200.00000000</i>
   <i type="int" name="OMEGAGRID">     0</i>
   <i name="CSHIFT">     -0.10000000</i>
   <i type="logical" name="LSELFENERGY"> F  </i>
   <i type="logical" name="LSPECTRAL"> F  </i>
   <i type="logical" name="LSPECTRALGW"> F  </i>
   <i type="logical" name="LSINGLES"> F  </i>
   <i type="logical" name="LFERMIGW"> F  </i>
   <i type="logical" name="ODDONLYGW"> F  </i>
   <i type="logical" name="EVENONLYGW"> F  </i>
   <i type="int" name="NKREDLFX">     1</i>
   <i type="int" name="NKREDLFY">     1</i>
   <i type="int" name="NKREDLFZ">     1</i>
   <i type="int" name="MAXMEM">  2800</i>
   <i type="int" name="TELESCOPE">     0</i>
   <i type="int" name="NTAUPAR">    -1</i>
   <i type="int" name="NOMEGAPAR">    -1</i>
   <i name="DAMP_NEWTON">      0.80000001</i>
   <i name="LAMBDA">      1.00000000</i>
  </separator>
  <separator name="External order field" >
   <i name="OFIELD_KAPPA">      0.00000000</i>
   <v name="OFIELD_K">      0.00000000      0.00000000      0.00000000</v>
   <i name="OFIELD_Q6_NEAR">      0.00000000</i>
   <i name="OFIELD_Q6_FAR">      0.00000000</i>
   <i name="OFIELD_A">      0.00000000</i>
  </separator>
  <separator name="optional k-points parameters" >
   <i type="int" name="KPOINTS_OPT_MODE">     1</i>
   <i type="logical" name="LKPOINTS_OPT"> F  </i>
  </separator>
 </parameters>
 <atominfo>
  <atoms>      14 </atoms>
  <types>       1 </types>
  <array name="atoms" >
   <dimension dim="1">ion</dimension>
   <field type="string">element</field>
   <field type="int">atomtype</field>
   <set>
    <rc><c>B </c><c>   1</c></rc>
    <rc><c>B </c><c>   1</c></rc>
    <rc><c>B </c><c>   1</c></rc>
    <rc><c>B </c><c>   1</c></rc>
    <rc><c>B </c><c>   1</c></rc>
    <rc><c>B </c><c>   1</c></rc>
    <rc><c>B </c><c>   1</c></rc>
    <rc><c>B </c><c>   1</c></rc>
    <rc><c>B </c><c>   1</c></rc>
    <rc><c>B </c><c>   1</c></rc>
    <rc><c>B </c><c>   1</c></rc>
    <rc><c>B </c><c>   1</c></rc>
    <rc><c>B </c><c>   1</c></rc>
    <rc><c>B </c><c>   1</c></rc>
   </set>
  </array>
  <array name="atomtypes" >
   <dimension dim="1">type</dimension>
   <field type="int">atomspertype</field>
   <field type="string">element</field>
   <field>mass</field>
   <field>valence</field>
   <field type="string">pseudopotential</field>
   <set>
    <rc><c>  14</c><c>B </c><c>     10.81100000</c><c>      3.00000000</c><c>  PAW_PBE B 06Sep2000                   </c></rc>
   </set>
  </array>
 </atominfo>
 <structure name="initialpos" >
  <crystal>
   <varray name="basis" >
    <v>       5.69700000       0.00000000       0.00000000 </v>
    <v>       0.00000000       4.04790000       0.00000000 </v>
    <v>       0.00000000       0.00000000       6.20420000 </v>
   </varray>
   <i name="volume">    143.07435078 </i>
   <varray name="rec_basis" >
    <v>       0.17553098       0.00000000       0.00000000 </v>
    <v>       0.00000000       0.24704168       0.00000000 </v>
    <v>       0.00000000       0.00000000       0.16118114 </v>
   </varray>
  </crystal>
  <varray name="positions" >
   <v>       0.52123000       0.50000000       0.63796000 </v>
   <v>       0.47877000       0.50000000       0.36204000 </v>
   <v>       0.97877000       0.50000000       0.63796000 </v>
   <v>       0.02123000       0.50000000       0.36204000 </v>
   <v>       0.60090000       0.50000000       0.89991000 </v>
   <v>       0.39910000       0.50000000       0.10009000 </v>
   <v>       0.89910000       0.50000000       0.89991000 </v>
   <v>       0.10090000       0.50000000       0.10009000 </v>
   <v>       0.75000000       0.79171000       0.72973000 </v>
   <v>       0.25000000       0.20829000       0.27027000 </v>
   <v>       0.75000000       0.20829000       0.72973000 </v>
   <v>       0.25000000       0.79171000       0.27027000 </v>
   <v>       0.25000000       0.50000000       0.52367000 </v>
   <v>       0.75000000       0.50000000       0.47633000 </v>
  </varray>
 </structure>
 <calculation>
  <scstep>
   <time name="dav">    2.40    2.40</time>
   <time name="total">    2.41    2.41</time>
   <energy>
    <i name="alphaZ">     94.24357992 </i>
    <i name="ewald">   -795.76658092 </i>
    <i name="hartreedc">   -271.33601302 </i>
    <i name="XCdc">     97.50108169 </i>
    <i name="pawpsdc">    608.99811708 </i>
    <i name="pawaedc">   -597.02363782 </i>
    <i name="eentropy">     -0.00198312 </i>
    <i name="bandstr">   -121.66644644 </i>
    <i name="atom">    996.22760481 </i>
    <i name="e_fr_energy">     11.17572218 </i>
    <i name="e_wo_entrp">     11.17770530 </i>
    <i name="e_0_energy">     11.17671374 </i>
   </energy>
  </scstep>
  <scstep>
   <time name="dav">    3.53    3.53</time>
   <time name="total">    3.53    3.53</time>
   <energy>
    <i name="e_fr_energy">    -94.39499006 </i>
    <i name="e_wo_entrp">    -94.39101504 </i>
    <i name="e_0_energy">    -94.39300255 </i>
   </energy>
  </scstep>
  <scstep>
   <time name="dav">    3.34    3.34</time>
   <time name="total">    3.34    3.34</time>
   <energy>
    <i name="e_fr_energy">    -97.39210151 </i>
    <i name="e_wo_entrp">    -97.38841992 </i>
    <i name="e_0_energy">    -97.39026071 </i>
   </energy>
  </scstep>
  <scstep>
   <time name="dav">    3.28    3.28</time>
   <time name="total">    3.28    3.28</time>
   <energy>
    <i name="e_fr_energy">    -97.40934871 </i>
    <i name="e_wo_entrp">    -97.40566877 </i>
    <i name="e_0_energy">    -97.40750874 </i>
   </energy>
  </scstep>
  <scstep>
   <time name="dav">    3.25    3.25</time>
   <time name="total">    3.29    3.29</time>
   <energy>
    <i name="e_fr_energy">    -97.40955812 </i>
    <i name="e_wo_entrp">    -97.40587817 </i>
    <i name="e_0_energy">    -97.40771815 </i>
   </energy>
  </scstep>
  <scstep>
   <time name="dav">    3.51    3.51</time>
   <time name="total">    3.55    3.56</time>
   <energy>
    <i name="e_fr_energy">    -92.02509503 </i>
    <i name="e_wo_entrp">    -92.02167613 </i>
    <i name="e_0_energy">    -92.02338558 </i>
   </energy>
  </scstep>
  <scstep>
   <time name="dav">    3.69    3.69</time>
   <time name="total">    3.73    3.73</time>
   <energy>
    <i name="e_fr_energy">    -90.37827308 </i>
    <i name="e_wo_entrp">    -90.37513268 </i>
    <i name="e_0_energy">    -90.37670288 </i>
   </energy>
  </scstep>
  <scstep>
   <time name="dav">    2.59    2.59</time>
   <time name="total">    2.63    2.63</time>
   <energy>
    <i name="e_fr_energy">    -90.39055027 </i>
    <i name="e_wo_entrp">    -90.38736718 </i>
    <i name="e_0_energy">    -90.38895873 </i>
   </energy>
  </scstep>
  <scstep>
   <time name="dav">    3.42    3.42</time>
   <time name="total">    3.46    3.46</time>
   <energy>
    <i name="e_fr_energy">    -90.40479235 </i>
    <i name="e_wo_entrp">    -90.40152202 </i>
    <i name="e_0_energy">    -90.40315719 </i>
   </energy>
  </scstep>
  <scstep>
   <time name="dav">    2.73    2.73</time>
   <time name="total">    2.76    2.77</time>
   <energy>
    <i name="e_fr_energy">    -90.40862807 </i>
    <i name="e_wo_entrp">    -90.40540413 </i>
    <i name="e_0_energy">    -90.40701610 </i>
   </energy>
  </scstep>
  <scstep>
   <time name="dav">    3.13    3.13</time>
   <time name="total">    3.16    3.17</time>
   <energy>
    <i name="e_fr_energy">    -90.40971331 </i>
    <i name="e_wo_entrp">    -90.40650064 </i>
    <i name="e_0_energy">    -90.40810698 </i>
   </energy>
  </scstep>
  <scstep>
   <time name="dav">    2.92    2.92</time>
   <time name="total">    2.96    2.96</time>
   <energy>
    <i name="e_fr_energy">    -90.40982427 </i>
    <i name="e_wo_entrp">    -90.40660553 </i>
    <i name="e_0_energy">    -90.40821490 </i>
   </energy>
  </scstep>
  <scstep>
   <time name="dav">    3.44    3.44</time>
   <time name="total">    3.48    3.48</time>
   <energy>
    <i name="e_fr_energy">    -90.40982893 </i>
    <i name="e_wo_entrp">    -90.40660984 </i>
    <i name="e_0_energy">    -90.40821939 </i>
   </energy>
  </scstep>
  <scstep>
   <time name="dav">    2.93    2.93</time>
   <time name="total">    2.94    2.94</time>
   <energy>
    <i name="alphaZ">     94.24357992 </i>
    <i name="ewald">   -795.76658092 </i>
    <i name="hartreedc">   -349.00477526 </i>
    <i name="XCdc">    101.66161677 </i>
    <i name="pawpsdc">   4048.38957231 </i>
    <i name="pawaedc">  -4037.54160741 </i>
    <i name="eentropy">     -0.00321920 </i>
    <i name="bandstr">   -148.61602060 </i>
    <i name="atom">    996.22760481 </i>
    <i name="e_fr_energy">    -90.40982958 </i>
    <i name="e_wo_entrp">    -90.40661038 </i>
    <i name="e_0_energy">    -90.40821998 </i>
   </energy>
  </scstep>
  <structure>
   <crystal>
    <varray name="basis" >
     <v>       5.69700000       0.00000000       0.00000000 </v>
     <v>       0.00000000       4.04790000       0.00000000 </v>
     <v>       0.00000000       0.00000000       6.20420000 </v>
    </varray>
    <i name="volume">    143.07435078 </i>
    <varray name="rec_basis" >
     <v>       0.17553098       0.00000000       0.00000000 </v>
     <v>       0.00000000       0.24704168       0.00000000 </v>
     <v>       0.00000000       0.00000000       0.16118114 </v>
    </varray>
   </crystal>
   <varray name="positions" >
    <v>       0.52123000       0.50000000       0.63796000 </v>
    <v>       0.47877000       0.50000000       0.36204000 </v>
    <v>       0.97877000       0.50000000       0.63796000 </v>
    <v>       0.02123000       0.50000000       0.36204000 </v>
    <v>       0.60090000       0.50000000       0.89991000 </v>
    <v>       0.39910000       0.50000000       0.10009000 </v>
    <v>       0.89910000       0.50000000       0.89991000 </v>
    <v>       0.10090000       0.50000000       0.10009000 </v>
    <v>       0.75000000       0.79171000       0.72973000 </v>
    <v>       0.25000000       0.20829000       0.27027000 </v>
    <v>       0.75000000       0.20829000       0.72973000 </v>
    <v>       0.25000000       0.79171000       0.27027000 </v>
    <v>       0.25000000       0.50000000       0.52367000 </v>
    <v>       0.75000000       0.50000000       0.47633000 </v>
   </varray>
  </structure>
  <varray name="forces" >
   <v>      -0.00614715      -0.00000000       0.04320654 </v>
   <v>       0.00614715       0.00000000      -0.04320654 </v>
   <v>       0.00614715       0.00000000       0.04320654 </v>
   <v>      -0.00614715      -0.00000000      -0.04320654 </v>
   <v>      -0.82929117      -0.00000000       0.26951273 </v>
   <v>       0.82929117       0.00000000      -0.26951273 </v>
   <v>       0.82929117      -0.00000000       0.26951273 </v>
   <v>      -0.82929117      -0.00000000      -0.26951273 </v>
   <v>       0.00000000       0.07640213      -0.06411131 </v>
   <v>       0.00000000      -0.07640213       0.06411131 </v>
   <v>       0.00000000      -0.07640213      -0.06411131 </v>
   <v>       0.00000000       0.07640213       0.06411131 </v>
   <v>       0.00000000      -0.00000000       0.08633674 </v>
   <v>       0.00000000       0.00000000      -0.08633674 </v>
  </varray>
  <varray name="stress" >
   <v>      -6.39039763       0.00000000      -0.00000000 </v>
   <v>       0.00000000     -20.31605172       0.00000000 </v>
   <v>      -0.00000000       0.00000000     -27.35981471 </v>
  </varray>
  <energy>
   <i name="e_fr_energy">    -90.40982958 </i>
   <i name="e_wo_entrp">    -90.40661038 </i>
   <i name="e_0_energy">    -90.40821998 </i>
  </energy>
  <time name="totalsc">   46.28   46.31</time>
  <eigenvalues>
   <array>
    <dimension dim="1">band</dimension>
    <dimension dim="2">kpoint</dimension>
    <dimension dim="3">spin</dimension>
    <field>eigene</field>
    <field>occ</field>
    <set>
     <set comment="spin 1">
      <set comment="kpoint 1">
       <r>  -12.7275    1.0000 </r>
       <r>  -11.5832    1.0000 </r>
       <r>   -8.6581    1.0000 </r>
       <r>   -8.4210    1.0000 </r>
       <r>   -6.0619    1.0000 </r>
       <r>   -5.1279    1.0000 </r>
       <r>   -4.6634    1.0000 </r>
       <r>   -4.2710    1.0000 </r>
       <r>   -4.0279    1.0000 </r>
       <r>   -3.5408    1.0000 </r>
       <r>   -2.5920    1.0000 </r>
       <r>   -2.3234    1.0000 </r>
       <r>   -1.8311    1.0000 </r>
       <r>   -1.0898    1.0000 </r>
       <r>   -0.0627    1.0000 </r>
       <r>   -0.0326    1.0000 </r>
       <r>    0.1634    1.0000 </r>
       <r>    0.1838    1.0000 </r>
       <r>    0.5743    1.0000 </r>
       <r>    2.0243    0.0001 </r>
       <r>    2.0888    0.0000 </r>
       <r>    2.2244    0.0000 </r>
       <r>    5.4627    0.0000 </r>
       <r>    5.7555    0.0000 </r>
       <r>    5.8461    0.0000 </r>
       <r>    5.9664    0.0000 </r>
       <r>    6.8213    0.0000 </r>
       <r>    7.5523    0.0000 </r>
       <r>    7.8820    0.0000 </r>
       <r>    8.5359    0.0000 </r>
       <r>    8.8021    0.0000 </r>
       <r>    8.9489    0.0000 </r>
       <r>    9.0500    0.0000 </r>
       <r>   10.1244    0.0000 </r>
       <r>   11.1860    0.0000 </r>
       <r>   11.3429    0.0000 </r>
       <r>   11.6729    0.0000 </r>
       <r>   11.7844    0.0000 </r>
       <r>   11.9442    0.0000 </r>
       <r>   12.4070    0.0000 </r>
       <r>   12.8733    0.0000 </r>
       <r>   13.4599    0.0000 </r>
       <r>   13.4900    0.0000 </r>
       <r>   15.3872    0.0000 </r>
       <r>   15.5747    0.0000 </r>
       <r>   16.0669    0.0000 </r>
       <r>   16.3395    0.0000 </r>
       <r>   16.3660    0.0000 </r>
      </set>
      <set comment="kpoint 2">
       <r>  -12.6837    1.0000 </r>
       <r>  -11.6571    1.0000 </r>
       <r>   -8.6370    1.0000 </r>
       <r>   -8.4095    1.0000 </r>
       <r>   -5.9943    1.0000 </r>
       <r>   -5.4691    1.0000 </r>
       <r>   -4.7857    1.0000 </r>
       <r>   -4.0049    1.0000 </r>
       <r>   -3.7885    1.0000 </r>
       <r>   -3.2030    1.0000 </r>
       <r>   -2.6620    1.0000 </r>
       <r>   -2.3032    1.0000 </r>
       <r>   -1.9095    1.0000 </r>
       <r>   -1.3970    1.0000 </r>
       <r>   -0.0227    1.0000 </r>
       <r>   -0.0122    1.0000 </r>
       <r>    0.1002    1.0000 </r>
       <r>    0.2055    1.0000 </r>
       <r>    0.4774    1.0000 </r>
       <r>    1.9378    0.0904 </r>
       <r>    2.0109    0.0003 </r>
       <r>    2.1024    0.0000 </r>
       <r>    5.5519    0.0000 </r>
       <r>    5.7647    0.0000 </r>
       <r>    5.8722    0.0000 </r>
       <r>    6.3117    0.0000 </r>
       <r>    6.7349    0.0000 </r>
       <r>    7.1897    0.0000 </r>
       <r>    8.0913    0.0000 </r>
       <r>    8.6725    0.0000 </r>
       <r>    9.0578    0.0000 </r>
       <r>    9.1318    0.0000 </r>
       <r>    9.2038    0.0000 </r>
       <r>   10.2370    0.0000 </r>
       <r>   10.9502    0.0000 </r>
       <r>   11.1376    0.0000 </r>
       <r>   11.2592    0.0000 </r>
       <r>   11.7008    0.0000 </r>
       <r>   12.1623    0.0000 </r>
       <r>   12.4962    0.0000 </r>
       <r>   13.1277    0.0000 </r>
       <r>   13.1335    0.0000 </r>
       <r>   14.0197    0.0000 </r>
       <r>   14.8732    0.0000 </r>
       <r>   15.7553    0.0000 </r>
       <r>   15.8344    0.0000 </r>
       <r>   16.2333    0.0000 </r>
       <r>   16.5219    0.0000 </r>
      </set>
      <set comment="kpoint 3">
       <r>  -12.5979    1.0000 </r>
       <r>  -11.7903    1.0000 </r>
       <r>   -8.5933    1.0000 </r>
       <r>   -8.3948    1.0000 </r>
       <r>   -5.9732    1.0000 </r>
       <r>   -5.7963    1.0000 </r>
       <r>   -4.7400    1.0000 </r>
       <r>   -3.8777    1.0000 </r>
       <r>   -3.2775    1.0000 </r>
       <r>   -2.8303    1.0000 </r>
       <r>   -2.7109    1.0000 </r>
       <r>   -2.2630    1.0000 </r>
       <r>   -2.0198    1.0000 </r>
       <r>   -1.9023    1.0000 </r>
       <r>   -0.2143    1.0000 </r>
       <r>    0.0200    1.0000 </r>
       <r>    0.1503    1.0000 </r>
       <r>    0.1637    1.0000 </r>
       <r>    0.4466    1.0000 </r>
       <r>    1.7904    0.9977 </r>
       <r>    1.8723    0.6972 </r>
       <r>    1.8774    0.6450 </r>
       <r>    5.6725    0.0000 </r>
       <r>    5.7201    0.0000 </r>
       <r>    6.1809    0.0000 </r>
       <r>    6.6073    0.0000 </r>
       <r>    6.7685    0.0000 </r>
       <r>    6.9356    0.0000 </r>
       <r>    8.2412    0.0000 </r>
       <r>    8.8217    0.0000 </r>
       <r>    9.0004    0.0000 </r>
       <r>    9.5758    0.0000 </r>
       <r>    9.6489    0.0000 </r>
       <r>   10.2876    0.0000 </r>
       <r>   10.4892    0.0000 </r>
       <r>   10.6278    0.0000 </r>
       <r>   11.3796    0.0000 </r>
       <r>   11.8428    0.0000 </r>
       <r>   12.3972    0.0000 </r>
       <r>   12.5708    0.0000 </r>
       <r>   12.7977    0.0000 </r>
       <r>   12.9233    0.0000 </r>
       <r>   14.6437    0.0000 </r>
       <r>   14.9229    0.0000 </r>
       <r>   15.2307    0.0000 </r>
       <r>   15.9892    0.0000 </r>
       <r>   16.0072    0.0000 </r>
       <r>   16.2982    0.0000 </r>
      </set>
      <set comment="kpoint 4">
       <r>  -12.4741    1.0000 </r>
       <r>  -11.9602    1.0000 </r>
       <r>   -8.5312    1.0000 </r>
       <r>   -8.3914    1.0000 </r>
       <r>   -6.0539    1.0000 </r>
       <r>   -6.0299    1.0000 </r>
       <r>   -4.4129    1.0000 </r>
       <r>   -3.7090    1.0000 </r>
       <r>   -3.0244    1.0000 </r>
       <r>   -2.8922    1.0000 </r>
       <r>   -2.4401    1.0000 </r>
       <r>   -2.2491    1.0000 </r>
       <r>   -2.1446    1.0000 </r>
       <r>   -2.1202    1.0000 </r>
       <r>   -0.5144    1.0000 </r>
       <r>   -0.2403    1.0000 </r>
       <r>    0.1788    1.0000 </r>
       <r>    0.2546    1.0000 </r>
       <r>    0.6201    1.0000 </r>
       <r>    1.5369    1.0000 </r>
       <r>    1.6682    1.0000 </r>
       <r>    1.7284    1.0000 </r>
       <r>    5.7047    0.0000 </r>
       <r>    5.7581    0.0000 </r>
       <r>    6.5053    0.0000 </r>
       <r>    6.6761    0.0000 </r>
       <r>    6.7048    0.0000 </r>
       <r>    7.4186    0.0000 </r>
       <r>    8.3650    0.0000 </r>
       <r>    8.6923    0.0000 </r>
       <r>    8.8101    0.0000 </r>
       <r>    9.5416    0.0000 </r>
       <r>   10.0568    0.0000 </r>
       <r>   10.1206    0.0000 </r>
       <r>   10.4005    0.0000 </r>
       <r>   11.1499    0.0000 </r>
       <r>   11.4072    0.0000 </r>
       <r>   11.9496    0.0000 </r>
       <r>   12.2068    0.0000 </r>
       <r>   12.2791    0.0000 </r>
       <r>   12.5243    0.0000 </r>
       <r>   13.2629    0.0000 </r>
       <r>   14.7182    0.0000 </r>
       <r>   14.9822    0.0000 </r>
       <r>   15.2698    0.0000 </r>
       <r>   15.3811    0.0000 </r>
       <r>   15.5803    0.0000 </r>
       <r>   16.3850    0.0000 </r>
      </set>
      <set comment="kpoint 5">
       <r>  -12.3191    1.0000 </r>
       <r>  -12.1429    1.0000 </r>
       <r>   -8.4651    1.0000 </r>
       <r>   -8.4142    1.0000 </r>
       <r>   -6.1436    1.0000 </r>
       <r>   -6.1394    1.0000 </r>
       <r>   -3.8969    1.0000 </r>
       <r>   -3.5012    1.0000 </r>
       <r>   -3.2971    1.0000 </r>
       <r>   -3.2634    1.0000 </r>
       <r>   -2.3575    1.0000 </r>
       <r>   -2.2295    1.0000 </r>
       <r>   -1.9593    1.0000 </r>
       <r>   -1.9045    1.0000 </r>
       <r>   -0.7364    1.0000 </r>
       <r>   -0.6001    1.0000 </r>
       <r>    0.2618    1.0000 </r>
       <r>    0.2955    1.0000 </r>
       <r>    0.8810    1.0000 </r>
       <r>    1.1981    1.0000 </r>
       <r>    1.5882    1.0000 </r>
       <r>    1.6154    1.0000 </r>
       <r>    5.7316    0.0000 </r>
       <r>    5.7686    0.0000 </r>
       <r>    6.4830    0.0000 </r>
       <r>    6.5469    0.0000 </r>
       <r>    7.3738    0.0000 </r>
       <r>    8.0800    0.0000 </r>
       <r>    8.1007    0.0000 </r>
       <r>    8.4819    0.0000 </r>
       <r>    8.6200    0.0000 </r>
       <r>    8.7959    0.0000 </r>
       <r>   10.5036    0.0000 </r>
       <r>   10.5193    0.0000 </r>
       <r>   10.7628    0.0000 </r>
       <r>   11.2217    0.0000 </r>
       <r>   11.4053    0.0000 </r>
       <r>   11.6017    0.0000 </r>
       <r>   11.9351    0.0000 </r>
       <r>   12.4849    0.0000 </r>
       <r>   12.7201    0.0000 </r>
       <r>   13.2576    0.0000 </r>
       <r>   14.5956    0.0000 </r>
       <r>   14.7407    0.0000 </r>
       <r>   14.8737    0.0000 </r>
       <r>   14.9343    0.0000 </r>
       <r>   16.1108    0.0000 </r>
       <r>   16.4554    0.0000 </r>
      </set>
      <set comment="kpoint 6">
       <r>  -12.7035    1.0000 </r>
       <r>  -11.5616    1.0000 </r>
       <r>   -8.6394    1.0000 </r>
       <r>   -8.3982    1.0000 </r>
       <r>   -6.0352    1.0000 </r>
       <r>   -5.0944    1.0000 </r>
       <r>   -4.6412    1.0000 </r>
       <r>   -4.5701    1.0000 </r>
       <r>   -4.1743    1.0000 </r>
       <r>   -3.5179    1.0000 </r>
       <r>   -3.2858    1.0000 </r>
       <r>   -1.7910    1.0000 </r>
       <r>   -1.0850    1.0000 </r>
       <r>   -1.0310    1.0000 </r>
       <r>   -0.2970    1.0000 </r>
       <r>   -0.2687    1.0000 </r>
       <r>    0.1762    1.0000 </r>
       <r>    0.2539    1.0000 </r>
       <r>    0.6527    1.0000 </r>
       <r>    1.7569    0.9999 </r>
       <r>    1.8380    0.9313 </r>
       <r>    2.2759    0.0000 </r>
       <r>    5.5820    0.0000 </r>
       <r>    5.7133    0.0000 </r>
       <r>    5.7480    0.0000 </r>
       <r>    6.0155    0.0000 </r>
       <r>    7.1074    0.0000 </r>
       <r>    7.8377    0.0000 </r>
       <r>    8.0773    0.0000 </r>
       <r>    8.1919    0.0000 </r>
       <r>    8.8067    0.0000 </r>
       <r>    9.0980    0.0000 </r>
       <r>    9.1490    0.0000 </r>
       <r>   10.5780    0.0000 </r>
       <r>   11.2737    0.0000 </r>
       <r>   11.4009    0.0000 </r>
       <r>   11.6070    0.0000 </r>
       <r>   11.8871    0.0000 </r>
       <r>   12.0554    0.0000 </r>
       <r>   12.6872    0.0000 </r>
       <r>   12.8738    0.0000 </r>
       <r>   13.1988    0.0000 </r>
       <r>   13.2024    0.0000 </r>
       <r>   15.3355    0.0000 </r>
       <r>   15.3870    0.0000 </r>
       <r>   15.8658    0.0000 </r>
       <r>   15.8749    0.0000 </r>
       <r>   16.2293    0.0000 </r>
      </set>
      <set comment="kpoint 7">
       <r>  -12.6597    1.0000 </r>
       <r>  -11.6353    1.0000 </r>
       <r>   -8.6180    1.0000 </r>
       <r>   -8.3870    1.0000 </r>
       <r>   -5.9656    1.0000 </r>
       <r>   -5.4392    1.0000 </r>
       <r>   -4.7660    1.0000 </r>
       <r>   -4.4875    1.0000 </r>
       <r>   -3.7496    1.0000 </r>
       <r>   -3.3662    1.0000 </r>
       <r>   -3.1653    1.0000 </r>
       <r>   -1.7694    1.0000 </r>
       <r>   -1.3919    1.0000 </r>
       <r>   -1.1501    1.0000 </r>
       <r>   -0.2579    1.0000 </r>
       <r>   -0.1893    1.0000 </r>
       <r>    0.1433    1.0000 </r>
       <r>    0.2259    1.0000 </r>
       <r>    0.5481    1.0000 </r>
       <r>    1.6766    1.0000 </r>
       <r>    1.7606    0.9999 </r>
       <r>    2.1450    0.0000 </r>
       <r>    5.6585    0.0000 </r>
       <r>    5.8112    0.0000 </r>
       <r>    5.9422    0.0000 </r>
       <r>    6.1179    0.0000 </r>
       <r>    7.0228    0.0000 </r>
       <r>    7.5119    0.0000 </r>
       <r>    8.2236    0.0000 </r>
       <r>    8.3618    0.0000 </r>
       <r>    9.1291    0.0000 </r>
       <r>    9.1613    0.0000 </r>
       <r>    9.4155    0.0000 </r>
       <r>   10.5038    0.0000 </r>
       <r>   10.8808    0.0000 </r>
       <r>   11.0888    0.0000 </r>
       <r>   11.4556    0.0000 </r>
       <r>   11.8739    0.0000 </r>
       <r>   12.2758    0.0000 </r>
       <r>   12.7425    0.0000 </r>
       <r>   12.8731    0.0000 </r>
       <r>   13.1574    0.0000 </r>
       <r>   13.7356    0.0000 </r>
       <r>   14.9580    0.0000 </r>
       <r>   15.4048    0.0000 </r>
       <r>   15.7567    0.0000 </r>
       <r>   15.8023    0.0000 </r>
       <r>   16.4090    0.0000 </r>
      </set>
      <set comment="kpoint 8">
       <r>  -12.5740    1.0000 </r>
       <r>  -11.7682    1.0000 </r>
       <r>   -8.5739    1.0000 </r>
       <r>   -8.3726    1.0000 </r>
       <r>   -5.9417    1.0000 </r>
       <r>   -5.7657    1.0000 </r>
       <r>   -4.7230    1.0000 </r>
       <r>   -4.3785    1.0000 </r>
       <r>   -3.4879    1.0000 </r>
       <r>   -3.2225    1.0000 </r>
       <r>   -2.6981    1.0000 </r>
       <r>   -1.8974    1.0000 </r>
       <r>   -1.7247    1.0000 </r>
       <r>   -1.3127    1.0000 </r>
       <r>   -0.2166    1.0000 </r>
       <r>   -0.2107    1.0000 </r>
       <r>    0.0591    1.0000 </r>
       <r>    0.2135    1.0000 </r>
       <r>    0.4713    1.0000 </r>
       <r>    1.5425    1.0000 </r>
       <r>    1.6313    1.0000 </r>
       <r>    1.8972    0.4257 </r>
       <r>    5.8622    0.0000 </r>
       <r>    5.9397    0.0000 </r>
       <r>    6.0177    0.0000 </r>
       <r>    6.5667    0.0000 </r>
       <r>    6.9011    0.0000 </r>
       <r>    7.2842    0.0000 </r>
       <r>    8.4309    0.0000 </r>
       <r>    8.4948    0.0000 </r>
       <r>    9.1008    0.0000 </r>
       <r>    9.6139    0.0000 </r>
       <r>    9.8750    0.0000 </r>
       <r>   10.1320    0.0000 </r>
       <r>   10.3593    0.0000 </r>
       <r>   10.8245    0.0000 </r>
       <r>   11.5222    0.0000 </r>
       <r>   12.1092    0.0000 </r>
       <r>   12.3129    0.0000 </r>
       <r>   12.5597    0.0000 </r>
       <r>   12.9630    0.0000 </r>
       <r>   13.0281    0.0000 </r>
       <r>   14.3135    0.0000 </r>
       <r>   15.0902    0.0000 </r>
       <r>   15.1686    0.0000 </r>
       <r>   15.6521    0.0000 </r>
       <r>   15.7151    0.0000 </r>
       <r>   16.4285    0.0000 </r>
      </set>
      <set comment="kpoint 9">
       <r>  -12.4505    1.0000 </r>
       <r>  -11.9379    1.0000 </r>
       <r>   -8.5118    1.0000 </r>
       <r>   -8.3702    1.0000 </r>
       <r>   -6.0214    1.0000 </r>
       <r>   -5.9984    1.0000 </r>
       <r>   -4.3980    1.0000 </r>
       <r>   -4.2316    1.0000 </r>
       <r>   -3.6594    1.0000 </r>
       <r>   -2.8424    1.0000 </r>
       <r>   -2.3582    1.0000 </r>
       <r>   -2.2145    1.0000 </r>
       <r>   -1.6604    1.0000 </r>
       <r>   -1.4756    1.0000 </r>
       <r>   -0.4762    1.0000 </r>
       <r>   -0.3028    1.0000 </r>
       <r>    0.0902    1.0000 </r>
       <r>    0.1200    1.0000 </r>
       <r>    0.6308    1.0000 </r>
       <r>    1.4026    1.0000 </r>
       <r>    1.4854    1.0000 </r>
       <r>    1.5730    1.0000 </r>
       <r>    5.8793    0.0000 </r>
       <r>    6.0133    0.0000 </r>
       <r>    6.5231    0.0000 </r>
       <r>    6.8105    0.0000 </r>
       <r>    6.8836    0.0000 </r>
       <r>    7.3769    0.0000 </r>
       <r>    8.4219    0.0000 </r>
       <r>    8.6019    0.0000 </r>
       <r>    8.9404    0.0000 </r>
       <r>    9.3778    0.0000 </r>
       <r>   10.0758    0.0000 </r>
       <r>   10.0994    0.0000 </r>
       <r>   10.4430    0.0000 </r>
       <r>   11.2267    0.0000 </r>
       <r>   11.3668    0.0000 </r>
       <r>   11.8442    0.0000 </r>
       <r>   12.2958    0.0000 </r>
       <r>   12.5491    0.0000 </r>
       <r>   12.7249    0.0000 </r>
       <r>   13.4654    0.0000 </r>
       <r>   14.7730    0.0000 </r>
       <r>   14.7791    0.0000 </r>
       <r>   15.1595    0.0000 </r>
       <r>   15.3132    0.0000 </r>
       <r>   15.6579    0.0000 </r>
       <r>   16.3978    0.0000 </r>
      </set>
      <set comment="kpoint 10">
       <r>  -12.2959    1.0000 </r>
       <r>  -12.1202    1.0000 </r>
       <r>   -8.4454    1.0000 </r>
       <r>   -8.3939    1.0000 </r>
       <r>   -6.1116    1.0000 </r>
       <r>   -6.1068    1.0000 </r>
       <r>   -4.0526    1.0000 </r>
       <r>   -3.8898    1.0000 </r>
       <r>   -3.8489    1.0000 </r>
       <r>   -3.2840    1.0000 </r>
       <r>   -2.1032    1.0000 </r>
       <r>   -1.9093    1.0000 </r>
       <r>   -1.5924    1.0000 </r>
       <r>   -1.5885    1.0000 </r>
       <r>   -0.6980    1.0000 </r>
       <r>   -0.5961    1.0000 </r>
       <r>    0.1224    1.0000 </r>
       <r>    0.1538    1.0000 </r>
       <r>    0.8904    1.0000 </r>
       <r>    1.2046    1.0000 </r>
       <r>    1.3490    1.0000 </r>
       <r>    1.3731    1.0000 </r>
       <r>    5.9297    0.0000 </r>
       <r>    5.9954    0.0000 </r>
       <r>    6.7990    0.0000 </r>
       <r>    6.8496    0.0000 </r>
       <r>    7.1904    0.0000 </r>
       <r>    7.9030    0.0000 </r>
       <r>    7.9485    0.0000 </r>
       <r>    8.6309    0.0000 </r>
       <r>    8.6939    0.0000 </r>
       <r>    8.8064    0.0000 </r>
       <r>   10.3226    0.0000 </r>
       <r>   10.5701    0.0000 </r>
       <r>   10.8073    0.0000 </r>
       <r>   10.9121    0.0000 </r>
       <r>   11.5525    0.0000 </r>
       <r>   11.6611    0.0000 </r>
       <r>   12.0143    0.0000 </r>
       <r>   12.6542    0.0000 </r>
       <r>   13.0293    0.0000 </r>
       <r>   13.4896    0.0000 </r>
       <r>   14.5540    0.0000 </r>
       <r>   14.7387    0.0000 </r>
       <r>   14.8365    0.0000 </r>
       <r>   15.0543    0.0000 </r>
       <r>   16.1349    0.0000 </r>
       <r>   16.4299    0.0000 </r>
      </set>
      <set comment="kpoint 11">
       <r>  -12.6590    1.0000 </r>
       <r>  -11.5214    1.0000 </r>
       <r>   -8.6050    1.0000 </r>
       <r>   -8.3555    1.0000 </r>
       <r>   -5.9859    1.0000 </r>
       <r>   -5.1280    1.0000 </r>
       <r>   -5.0039    1.0000 </r>
       <r>   -4.5996    1.0000 </r>
       <r>   -4.1573    1.0000 </r>
       <r>   -3.9079    1.0000 </r>
       <r>   -3.4641    1.0000 </r>
       <r>   -1.2004    1.0000 </r>
       <r>   -1.0758    1.0000 </r>
       <r>   -0.6407    1.0000 </r>
       <r>   -0.5341    1.0000 </r>
       <r>   -0.1706    1.0000 </r>
       <r>    0.1971    1.0000 </r>
       <r>    0.3071    1.0000 </r>
       <r>    0.7307    1.0000 </r>
       <r>    1.3749    1.0000 </r>
       <r>    1.4395    1.0000 </r>
       <r>    2.3139    0.0000 </r>
       <r>    5.2929    0.0000 </r>
       <r>    5.4589    0.0000 </r>
       <r>    6.1282    0.0000 </r>
       <r>    6.2043    0.0000 </r>
       <r>    7.5416    0.0000 </r>
       <r>    7.6251    0.0000 </r>
       <r>    8.3200    0.0000 </r>
       <r>    8.7279    0.0000 </r>
       <r>    8.8861    0.0000 </r>
       <r>    9.2404    0.0000 </r>
       <r>    9.3703    0.0000 </r>
       <r>   10.8880    0.0000 </r>
       <r>   11.3244    0.0000 </r>
       <r>   11.5786    0.0000 </r>
       <r>   11.7019    0.0000 </r>
       <r>   12.0885    0.0000 </r>
       <r>   12.2722    0.0000 </r>
       <r>   12.7518    0.0000 </r>
       <r>   12.7669    0.0000 </r>
       <r>   13.0109    0.0000 </r>
       <r>   13.2278    0.0000 </r>
       <r>   14.6830    0.0000 </r>
       <r>   15.1668    0.0000 </r>
       <r>   15.3479    0.0000 </r>
       <r>   15.4365    0.0000 </r>
       <r>   15.9688    0.0000 </r>
      </set>
      <set comment="kpoint 12">
       <r>  -12.6154    1.0000 </r>
       <r>  -11.5949    1.0000 </r>
       <r>   -8.5832    1.0000 </r>
       <r>   -8.3450    1.0000 </r>
       <r>   -5.9126    1.0000 </r>
       <r>   -5.3908    1.0000 </r>
       <r>   -5.0302    1.0000 </r>
       <r>   -4.7281    1.0000 </r>
       <r>   -3.9742    1.0000 </r>
       <r>   -3.7066    1.0000 </r>
       <r>   -3.1253    1.0000 </r>
       <r>   -1.3837    1.0000 </r>
       <r>   -1.1740    1.0000 </r>
       <r>   -0.7485    1.0000 </r>
       <r>   -0.4966    1.0000 </r>
       <r>   -0.0901    1.0000 </r>
       <r>    0.1774    1.0000 </r>
       <r>    0.2511    1.0000 </r>
       <r>    0.6172    1.0000 </r>
       <r>    1.2960    1.0000 </r>
       <r>    1.3686    1.0000 </r>
       <r>    2.1789    0.0000 </r>
       <r>    5.3731    0.0000 </r>
       <r>    5.8045    0.0000 </r>
       <r>    6.1492    0.0000 </r>
       <r>    6.2429    0.0000 </r>
       <r>    7.4612    0.0000 </r>
       <r>    7.7820    0.0000 </r>
       <r>    8.0522    0.0000 </r>
       <r>    8.8198    0.0000 </r>
       <r>    9.2529    0.0000 </r>
       <r>    9.2889    0.0000 </r>
       <r>    9.6551    0.0000 </r>
       <r>   10.5233    0.0000 </r>
       <r>   10.7861    0.0000 </r>
       <r>   11.2785    0.0000 </r>
       <r>   11.7204    0.0000 </r>
       <r>   12.2013    0.0000 </r>
       <r>   12.4358    0.0000 </r>
       <r>   12.5054    0.0000 </r>
       <r>   13.1683    0.0000 </r>
       <r>   13.2761    0.0000 </r>
       <r>   13.4441    0.0000 </r>
       <r>   14.6935    0.0000 </r>
       <r>   14.8267    0.0000 </r>
       <r>   15.2868    0.0000 </r>
       <r>   15.4995    0.0000 </r>
       <r>   15.9947    0.0000 </r>
      </set>
      <set comment="kpoint 13">
       <r>  -12.5301    1.0000 </r>
       <r>  -11.7275    1.0000 </r>
       <r>   -8.5385    1.0000 </r>
       <r>   -8.3322    1.0000 </r>
       <r>   -5.8833    1.0000 </r>
       <r>   -5.7108    1.0000 </r>
       <r>   -4.9384    1.0000 </r>
       <r>   -4.6920    1.0000 </r>
       <r>   -4.0978    1.0000 </r>
       <r>   -3.1724    1.0000 </r>
       <r>   -2.6539    1.0000 </r>
       <r>   -1.8816    1.0000 </r>
       <r>   -1.1333    1.0000 </r>
       <r>   -0.8877    1.0000 </r>
       <r>   -0.4443    1.0000 </r>
       <r>   -0.0817    1.0000 </r>
       <r>    0.0188    1.0000 </r>
       <r>    0.2629    1.0000 </r>
       <r>    0.5011    1.0000 </r>
       <r>    1.1643    1.0000 </r>
       <r>    1.2502    1.0000 </r>
       <r>    1.9214    0.1910 </r>
       <r>    5.6945    0.0000 </r>
       <r>    6.1020    0.0000 </r>
       <r>    6.2809    0.0000 </r>
       <r>    6.3724    0.0000 </r>
       <r>    7.3573    0.0000 </r>
       <r>    7.8627    0.0000 </r>
       <r>    8.0172    0.0000 </r>
       <r>    8.9487    0.0000 </r>
       <r>    9.2475    0.0000 </r>
       <r>    9.7206    0.0000 </r>
       <r>    9.8578    0.0000 </r>
       <r>   10.1393    0.0000 </r>
       <r>   10.2581    0.0000 </r>
       <r>   11.0631    0.0000 </r>
       <r>   11.5897    0.0000 </r>
       <r>   12.1078    0.0000 </r>
       <r>   12.5128    0.0000 </r>
       <r>   12.8056    0.0000 </r>
       <r>   13.0487    0.0000 </r>
       <r>   13.4509    0.0000 </r>
       <r>   13.9677    0.0000 </r>
       <r>   14.6010    0.0000 </r>
       <r>   14.8761    0.0000 </r>
       <r>   15.3068    0.0000 </r>
       <r>   15.5188    0.0000 </r>
       <r>   16.2051    0.0000 </r>
      </set>
      <set comment="kpoint 14">
       <r>  -12.4071    1.0000 </r>
       <r>  -11.8965    1.0000 </r>
       <r>   -8.4760    1.0000 </r>
       <r>   -8.3313    1.0000 </r>
       <r>   -5.9612    1.0000 </r>
       <r>   -5.9405    1.0000 </r>
       <r>   -4.8015    1.0000 </r>
       <r>   -4.3713    1.0000 </r>
       <r>   -4.2619    1.0000 </r>
       <r>   -2.8036    1.0000 </r>
       <r>   -2.3174    1.0000 </r>
       <r>   -2.1729    1.0000 </r>
       <r>   -1.0767    1.0000 </r>
       <r>   -1.0245    1.0000 </r>
       <r>   -0.4501    1.0000 </r>
       <r>   -0.3681    1.0000 </r>
       <r>    0.0618    1.0000 </r>
       <r>    0.0665    1.0000 </r>
       <r>    0.6487    1.0000 </r>
       <r>    1.0346    1.0000 </r>
       <r>    1.1177    1.0000 </r>
       <r>    1.5870    1.0000 </r>
       <r>    6.1127    0.0000 </r>
       <r>    6.2294    0.0000 </r>
       <r>    6.4042    0.0000 </r>
       <r>    6.8080    0.0000 </r>
       <r>    7.3014    0.0000 </r>
       <r>    7.7846    0.0000 </r>
       <r>    8.0743    0.0000 </r>
       <r>    9.0486    0.0000 </r>
       <r>    9.1090    0.0000 </r>
       <r>    9.1795    0.0000 </r>
       <r>    9.8911    0.0000 </r>
       <r>   10.1879    0.0000 </r>
       <r>   10.7028    0.0000 </r>
       <r>   11.0804    0.0000 </r>
       <r>   11.3260    0.0000 </r>
       <r>   11.9530    0.0000 </r>
       <r>   12.3586    0.0000 </r>
       <r>   12.9897    0.0000 </r>
       <r>   13.0397    0.0000 </r>
       <r>   13.7965    0.0000 </r>
       <r>   14.3870    0.0000 </r>
       <r>   14.4051    0.0000 </r>
       <r>   15.0368    0.0000 </r>
       <r>   15.1299    0.0000 </r>
       <r>   15.6191    0.0000 </r>
       <r>   16.3816    0.0000 </r>
      </set>
      <set comment="kpoint 15">
       <r>  -12.2529    1.0000 </r>
       <r>  -12.0780    1.0000 </r>
       <r>   -8.4090    1.0000 </r>
       <r>   -8.3562    1.0000 </r>
       <r>   -6.0518    1.0000 </r>
       <r>   -6.0460    1.0000 </r>
       <r>   -4.6336    1.0000 </r>
       <r>   -4.4480    1.0000 </r>
       <r>   -3.8582    1.0000 </r>
       <r>   -3.2610    1.0000 </r>
       <r>   -2.0343    1.0000 </r>
       <r>   -1.8683    1.0000 </r>
       <r>   -1.0964    1.0000 </r>
       <r>   -1.0355    1.0000 </r>
       <r>   -0.6252    1.0000 </r>
       <r>   -0.6193    1.0000 </r>
       <r>    0.0126    1.0000 </r>
       <r>    0.0561    1.0000 </r>
       <r>    0.9062    1.0000 </r>
       <r>    0.9727    1.0000 </r>
       <r>    1.0135    1.0000 </r>
       <r>    1.2336    1.0000 </r>
       <r>    6.2037    0.0000 </r>
       <r>    6.3225    0.0000 </r>
       <r>    6.8825    0.0000 </r>
       <r>    7.2212    0.0000 </r>
       <r>    7.2791    0.0000 </r>
       <r>    7.6270    0.0000 </r>
       <r>    7.9334    0.0000 </r>
       <r>    8.4461    0.0000 </r>
       <r>    9.1042    0.0000 </r>
       <r>    9.1354    0.0000 </r>
       <r>   10.0140    0.0000 </r>
       <r>   10.4863    0.0000 </r>
       <r>   10.7101    0.0000 </r>
       <r>   10.9807    0.0000 </r>
       <r>   11.7332    0.0000 </r>
       <r>   11.7518    0.0000 </r>
       <r>   12.1353    0.0000 </r>
       <r>   12.9120    0.0000 </r>
       <r>   13.4206    0.0000 </r>
       <r>   13.7686    0.0000 </r>
       <r>   14.2342    0.0000 </r>
       <r>   14.3895    0.0000 </r>
       <r>   15.0003    0.0000 </r>
       <r>   15.1407    0.0000 </r>
       <r>   15.9981    0.0000 </r>
       <r>   16.3027    0.0000 </r>
      </set>
      <set comment="kpoint 16">
       <r>  -12.6011    1.0000 </r>
       <r>  -11.4696    1.0000 </r>
       <r>   -8.5608    1.0000 </r>
       <r>   -8.3000    1.0000 </r>
       <r>   -5.9215    1.0000 </r>
       <r>   -5.6097    1.0000 </r>
       <r>   -4.9332    1.0000 </r>
       <r>   -4.5429    1.0000 </r>
       <r>   -4.4289    1.0000 </r>
       <r>   -4.1175    1.0000 </r>
       <r>   -3.4016    1.0000 </r>
       <r>   -1.2134    1.0000 </r>
       <r>   -1.0621    1.0000 </r>
       <r>   -0.9949    1.0000 </r>
       <r>   -0.1881    1.0000 </r>
       <r>    0.2255    1.0000 </r>
       <r>    0.3503    1.0000 </r>
       <r>    0.6015    1.0000 </r>
       <r>    0.7940    1.0000 </r>
       <r>    0.9909    1.0000 </r>
       <r>    1.0056    1.0000 </r>
       <r>    2.3486    0.0000 </r>
       <r>    4.9491    0.0000 </r>
       <r>    5.1650    0.0000 </r>
       <r>    6.3645    0.0000 </r>
       <r>    6.5903    0.0000 </r>
       <r>    7.2664    0.0000 </r>
       <r>    7.9724    0.0000 </r>
       <r>    8.7018    0.0000 </r>
       <r>    9.0614    0.0000 </r>
       <r>    9.4651    0.0000 </r>
       <r>    9.5845    0.0000 </r>
       <r>    9.6528    0.0000 </r>
       <r>   10.7510    0.0000 </r>
       <r>   11.2767    0.0000 </r>
       <r>   11.9708    0.0000 </r>
       <r>   12.0187    0.0000 </r>
       <r>   12.2988    0.0000 </r>
       <r>   12.4299    0.0000 </r>
       <r>   12.4520    0.0000 </r>
       <r>   12.5704    0.0000 </r>
       <r>   12.9952    0.0000 </r>
       <r>   13.7997    0.0000 </r>
       <r>   13.8843    0.0000 </r>
       <r>   14.4217    0.0000 </r>
       <r>   15.1081    0.0000 </r>
       <r>   15.4089    0.0000 </r>
       <r>   15.8661    0.0000 </r>
      </set>
      <set comment="kpoint 17">
       <r>  -12.5580    1.0000 </r>
       <r>  -11.5428    1.0000 </r>
       <r>   -8.5385    1.0000 </r>
       <r>   -8.2905    1.0000 </r>
       <r>   -5.8437    1.0000 </r>
       <r>   -5.5748    1.0000 </r>
       <r>   -5.2709    1.0000 </r>
       <r>   -4.6781    1.0000 </r>
       <r>   -4.4940    1.0000 </r>
       <r>   -3.6527    1.0000 </r>
       <r>   -3.0630    1.0000 </r>
       <r>   -1.3772    1.0000 </r>
       <r>   -1.1566    1.0000 </r>
       <r>   -1.0098    1.0000 </r>
       <r>   -0.1896    1.0000 </r>
       <r>    0.2102    1.0000 </r>
       <r>    0.2827    1.0000 </r>
       <r>    0.5810    1.0000 </r>
       <r>    0.6716    1.0000 </r>
       <r>    0.9250    1.0000 </r>
       <r>    0.9638    1.0000 </r>
       <r>    2.2112    0.0000 </r>
       <r>    5.0455    0.0000 </r>
       <r>    5.4970    0.0000 </r>
       <r>    6.3098    0.0000 </r>
       <r>    6.7227    0.0000 </r>
       <r>    7.4028    0.0000 </r>
       <r>    7.9299    0.0000 </r>
       <r>    8.6369    0.0000 </r>
       <r>    9.1764    0.0000 </r>
       <r>    9.4299    0.0000 </r>
       <r>    9.7949    0.0000 </r>
       <r>    9.8977    0.0000 </r>
       <r>   10.3415    0.0000 </r>
       <r>   10.7132    0.0000 </r>
       <r>   11.7071    0.0000 </r>
       <r>   11.8888    0.0000 </r>
       <r>   12.2481    0.0000 </r>
       <r>   12.4831    0.0000 </r>
       <r>   12.6462    0.0000 </r>
       <r>   12.9680    0.0000 </r>
       <r>   13.3970    0.0000 </r>
       <r>   13.7980    0.0000 </r>
       <r>   13.9288    0.0000 </r>
       <r>   14.2588    0.0000 </r>
       <r>   15.0805    0.0000 </r>
       <r>   15.4382    0.0000 </r>
       <r>   15.7365    0.0000 </r>
      </set>
      <set comment="kpoint 18">
       <r>  -12.4733    1.0000 </r>
       <r>  -11.6751    1.0000 </r>
       <r>   -8.4936    1.0000 </r>
       <r>   -8.2797    1.0000 </r>
       <r>   -5.8071    1.0000 </r>
       <r>   -5.6589    1.0000 </r>
       <r>   -5.4203    1.0000 </r>
       <r>   -4.6524    1.0000 </r>
       <r>   -4.6164    1.0000 </r>
       <r>   -3.1131    1.0000 </r>
       <r>   -2.5937    1.0000 </r>
       <r>   -1.8628    1.0000 </r>
       <r>   -1.0964    1.0000 </r>
       <r>   -1.0295    1.0000 </r>
       <r>   -0.2083    1.0000 </r>
       <r>   -0.0456    1.0000 </r>
       <r>    0.3210    1.0000 </r>
       <r>    0.5124    1.0000 </r>
       <r>    0.5280    1.0000 </r>
       <r>    0.8358    1.0000 </r>
       <r>    0.8953    1.0000 </r>
       <r>    1.9501    0.0459 </r>
       <r>    5.3706    0.0000 </r>
       <r>    5.9717    0.0000 </r>
       <r>    6.2801    0.0000 </r>
       <r>    6.8354    0.0000 </r>
       <r>    7.5718    0.0000 </r>
       <r>    7.9482    0.0000 </r>
       <r>    8.5624    0.0000 </r>
       <r>    9.3668    0.0000 </r>
       <r>    9.3961    0.0000 </r>
       <r>    9.5978    0.0000 </r>
       <r>   10.0466    0.0000 </r>
       <r>   10.1150    0.0000 </r>
       <r>   10.5604    0.0000 </r>
       <r>   11.3877    0.0000 </r>
       <r>   11.4001    0.0000 </r>
       <r>   12.2403    0.0000 </r>
       <r>   12.7447    0.0000 </r>
       <r>   12.9601    0.0000 </r>
       <r>   13.1842    0.0000 </r>
       <r>   13.5286    0.0000 </r>
       <r>   13.7714    0.0000 </r>
       <r>   14.0205    0.0000 </r>
       <r>   14.3940    0.0000 </r>
       <r>   15.1720    0.0000 </r>
       <r>   15.3643    0.0000 </r>
       <r>   15.9966    0.0000 </r>
      </set>
      <set comment="kpoint 19">
       <r>  -12.3510    1.0000 </r>
       <r>  -11.8427    1.0000 </r>
       <r>   -8.4303    1.0000 </r>
       <r>   -8.2813    1.0000 </r>
       <r>   -5.8816    1.0000 </r>
       <r>   -5.8680    1.0000 </r>
       <r>   -5.3070    1.0000 </r>
       <r>   -4.7806    1.0000 </r>
       <r>   -4.3351    1.0000 </r>
       <r>   -2.7586    1.0000 </r>
       <r>   -2.2750    1.0000 </r>
       <r>   -2.1171    1.0000 </r>
       <r>   -1.0380    1.0000 </r>
       <r>   -1.0119    1.0000 </r>
       <r>   -0.3699    1.0000 </r>
       <r>   -0.3236    1.0000 </r>
       <r>    0.1568    1.0000 </r>
       <r>    0.3815    1.0000 </r>
       <r>    0.6683    1.0000 </r>
       <r>    0.7797    1.0000 </r>
       <r>    0.8290    1.0000 </r>
       <r>    1.6115    1.0000 </r>
       <r>    5.8982    0.0000 </r>
       <r>    6.3112    0.0000 </r>
       <r>    6.5506    0.0000 </r>
       <r>    6.7872    0.0000 </r>
       <r>    7.5735    0.0000 </r>
       <r>    8.0074    0.0000 </r>
       <r>    8.5170    0.0000 </r>
       <r>    8.9207    0.0000 </r>
       <r>    9.2742    0.0000 </r>
       <r>    9.5854    0.0000 </r>
       <r>    9.9061    0.0000 </r>
       <r>   10.3472    0.0000 </r>
       <r>   10.7958    0.0000 </r>
       <r>   11.0945    0.0000 </r>
       <r>   11.4428    0.0000 </r>
       <r>   12.1694    0.0000 </r>
       <r>   12.4238    0.0000 </r>
       <r>   13.1633    0.0000 </r>
       <r>   13.2831    0.0000 </r>
       <r>   13.6659    0.0000 </r>
       <r>   13.9062    0.0000 </r>
       <r>   14.1575    0.0000 </r>
       <r>   14.7632    0.0000 </r>
       <r>   14.9981    0.0000 </r>
       <r>   15.4387    0.0000 </r>
       <r>   16.3339    0.0000 </r>
      </set>
      <set comment="kpoint 20">
       <r>  -12.1978    1.0000 </r>
       <r>  -12.0236    1.0000 </r>
       <r>   -8.3625    1.0000 </r>
       <r>   -8.3083    1.0000 </r>
       <r>   -5.9745    1.0000 </r>
       <r>   -5.9668    1.0000 </r>
       <r>   -5.1454    1.0000 </r>
       <r>   -4.9635    1.0000 </r>
       <r>   -3.8261    1.0000 </r>
       <r>   -3.2309    1.0000 </r>
       <r>   -1.9774    1.0000 </r>
       <r>   -1.8222    1.0000 </r>
       <r>   -0.9753    1.0000 </r>
       <r>   -0.9162    1.0000 </r>
       <r>   -0.6680    1.0000 </r>
       <r>   -0.6245    1.0000 </r>
       <r>    0.1326    1.0000 </r>
       <r>    0.2335    1.0000 </r>
       <r>    0.7637    1.0000 </r>
       <r>    0.7796    1.0000 </r>
       <r>    0.9310    1.0000 </r>
       <r>    1.2541    1.0000 </r>
       <r>    6.4441    0.0000 </r>
       <r>    6.5589    0.0000 </r>
       <r>    6.6237    0.0000 </r>
       <r>    7.1406    0.0000 </r>
       <r>    7.2101    0.0000 </r>
       <r>    7.6976    0.0000 </r>
       <r>    8.5062    0.0000 </r>
       <r>    8.5709    0.0000 </r>
       <r>    9.4674    0.0000 </r>
       <r>    9.6414    0.0000 </r>
       <r>    9.8460    0.0000 </r>
       <r>   10.1434    0.0000 </r>
       <r>   10.8604    0.0000 </r>
       <r>   11.2351    0.0000 </r>
       <r>   11.8705    0.0000 </r>
       <r>   11.9455    0.0000 </r>
       <r>   12.2569    0.0000 </r>
       <r>   13.1490    0.0000 </r>
       <r>   13.4422    0.0000 </r>
       <r>   13.6272    0.0000 </r>
       <r>   13.8441    0.0000 </r>
       <r>   13.9523    0.0000 </r>
       <r>   15.1066    0.0000 </r>
       <r>   15.1245    0.0000 </r>
       <r>   15.6733    0.0000 </r>
       <r>   15.9756    0.0000 </r>
      </set>
      <set comment="kpoint 21">
       <r>  -12.5408    1.0000 </r>
[...]
       <r>   -2.3140    1.0000 </r>
       <r>   -2.1423    1.0000 </r>
       <r>   -1.9785    1.0000 </r>
       <r>   -1.4870    1.0000 </r>
       <r>   -0.7338    1.0000 </r>
       <r>   -0.1978    1.0000 </r>
       <r>    0.1727    1.0000 </r>
       <r>    0.3918    1.0000 </r>
       <r>    0.5170    1.0000 </r>
       <r>    1.5934    1.0000 </r>
       <r>    1.6202    1.0000 </r>
       <r>    1.8770    0.6492 </r>
       <r>    5.5183    0.0000 </r>
       <r>    6.1514    0.0000 </r>
       <r>    6.6709    0.0000 </r>
       <r>    7.2215    0.0000 </r>
       <r>    7.7834    0.0000 </r>
       <r>    8.2311    0.0000 </r>
       <r>    8.9954    0.0000 </r>
       <r>    9.1546    0.0000 </r>
       <r>    9.7249    0.0000 </r>
       <r>    9.9605    0.0000 </r>
       <r>   10.5904    0.0000 </r>
       <r>   11.0331    0.0000 </r>
       <r>   11.2069    0.0000 </r>
       <r>   11.4758    0.0000 </r>
       <r>   11.5688    0.0000 </r>
       <r>   11.9539    0.0000 </r>
       <r>   12.8409    0.0000 </r>
       <r>   13.1440    0.0000 </r>
       <r>   13.3716    0.0000 </r>
       <r>   13.7534    0.0000 </r>
       <r>   13.8741    0.0000 </r>
       <r>   14.1614    0.0000 </r>
       <r>   14.4810    0.0000 </r>
       <r>   14.9698    0.0000 </r>
       <r>   15.0972    0.0000 </r>
       <r>   15.3970    0.0000 </r>
      </set>
      <set comment="kpoint 175">
       <r>  -12.0216    1.0000 </r>
       <r>  -11.8822    1.0000 </r>
       <r>   -8.5471    1.0000 </r>
       <r>   -8.4346    1.0000 </r>
       <r>   -5.9271    1.0000 </r>
       <r>   -5.8210    1.0000 </r>
       <r>   -4.8894    1.0000 </r>
       <r>   -4.5658    1.0000 </r>
       <r>   -4.4103    1.0000 </r>
       <r>   -3.9720    1.0000 </r>
       <r>   -2.1944    1.0000 </r>
       <r>   -2.1328    1.0000 </r>
       <r>   -2.0560    1.0000 </r>
       <r>   -1.7707    1.0000 </r>
       <r>   -0.2156    1.0000 </r>
       <r>   -0.0016    1.0000 </r>
       <r>    0.3953    1.0000 </r>
       <r>    0.4834    1.0000 </r>
       <r>    0.5527    1.0000 </r>
       <r>    0.8791    1.0000 </r>
       <r>    1.6348    1.0000 </r>
       <r>    1.7350    1.0000 </r>
       <r>    5.8655    0.0000 </r>
       <r>    6.0504    0.0000 </r>
       <r>    6.8738    0.0000 </r>
       <r>    7.4086    0.0000 </r>
       <r>    7.4789    0.0000 </r>
       <r>    7.5782    0.0000 </r>
       <r>    9.4010    0.0000 </r>
       <r>    9.5848    0.0000 </r>
       <r>    9.7939    0.0000 </r>
       <r>    9.9723    0.0000 </r>
       <r>   10.4670    0.0000 </r>
       <r>   10.8165    0.0000 </r>
       <r>   11.2376    0.0000 </r>
       <r>   11.5093    0.0000 </r>
       <r>   11.5178    0.0000 </r>
       <r>   11.6142    0.0000 </r>
       <r>   13.0859    0.0000 </r>
       <r>   13.1927    0.0000 </r>
       <r>   13.7209    0.0000 </r>
       <r>   14.0585    0.0000 </r>
       <r>   14.1927    0.0000 </r>
       <r>   14.2928    0.0000 </r>
       <r>   14.5974    0.0000 </r>
       <r>   14.7393    0.0000 </r>
       <r>   14.8881    0.0000 </r>
       <r>   15.0521    0.0000 </r>
      </set>
     </set>
    </set>
   </array>
  </eigenvalues>
  <separator name="orbital magnetization" >
   <v name="MAGDIPOLOUT">      0.00000000      0.00000000      0.00000000</v>
  </separator>
  <dos>
   <i name="efermi">      1.89053290 </i>
   <total>
    <array>
     <dimension dim="1">gridpoints</dimension>
     <dimension dim="2">spin</dimension>
     <field>energy</field>
     <field>total</field>
     <field>integrated</field>
     <set>
      <set comment="spin 1">
       <r>   -14.1900     0.0000     0.0000 </r>
       <r>   -14.0827     0.0000     0.0000 </r>
       <r>   -13.9755     0.0000     0.0000 </r>
       <r>   -13.8682     0.0000     0.0000 </r>
       <r>   -13.7610     0.0000     0.0000 </r>
       <r>   -13.6537     0.0000     0.0000 </r>
       <r>   -13.5465     0.0000     0.0000 </r>
       <r>   -13.4392     0.0000     0.0000 </r>
       <r>   -13.3320     0.0000     0.0000 </r>
       <r>   -13.2247     0.0000     0.0000 </r>
       <r>   -13.1175     0.0000     0.0000 </r>
       <r>   -13.0102     0.0000     0.0000 </r>
       <r>   -12.9030     0.0000     0.0000 </r>
       <r>   -12.7957     0.0038     0.0004 </r>
       <r>   -12.6885     0.5056     0.0546 </r>
       <r>   -12.5813     2.3790     0.3098 </r>
       <r>   -12.4740     3.5494     0.6904 </r>
       <r>   -12.3668     4.3630     1.1584 </r>
       <r>   -12.2595     3.5394     1.5380 </r>
       <r>   -12.1523     2.7359     1.8314 </r>
       <r>   -12.0450     2.7484     2.1261 </r>
       <r>   -11.9378     2.4961     2.3938 </r>
       <r>   -11.8305     2.7679     2.6907 </r>
       <r>   -11.7233     3.4015     3.0555 </r>
       <r>   -11.6160     3.5267     3.4337 </r>
       <r>   -11.5088     3.1259     3.7690 </r>
       <r>   -11.4015     1.6991     3.9512 </r>
       <r>   -11.2943     0.4464     3.9991 </r>
       <r>   -11.1870     0.0087     4.0000 </r>
       <r>   -11.0798     0.0000     4.0000 </r>
       <r>   -10.9725     0.0000     4.0000 </r>
       <r>   -10.8653     0.0000     4.0000 </r>
       <r>   -10.7580     0.0000     4.0000 </r>
       <r>   -10.6508     0.0000     4.0000 </r>
       <r>   -10.5435     0.0000     4.0000 </r>
       <r>   -10.4363     0.0000     4.0000 </r>
       <r>   -10.3291     0.0000     4.0000 </r>
       <r>   -10.2218     0.0000     4.0000 </r>
       <r>   -10.1146     0.0000     4.0000 </r>
       <r>   -10.0073     0.0000     4.0000 </r>
       <r>    -9.9001     0.0000     4.0000 </r>
       <r>    -9.7928     0.0000     4.0000 </r>
       <r>    -9.6856     0.0000     4.0000 </r>
       <r>    -9.5783     0.0000     4.0000 </r>
       <r>    -9.4711     0.0000     4.0000 </r>
       <r>    -9.3638     0.0000     4.0000 </r>
       <r>    -9.2566     0.0000     4.0000 </r>
       <r>    -9.1493     0.0000     4.0000 </r>
       <r>    -9.0421     0.0000     4.0000 </r>
       <r>    -8.9348     0.0006     4.0001 </r>
       <r>    -8.8276     0.2705     4.0291 </r>
       <r>    -8.7203     2.0706     4.2512 </r>
       <r>    -8.6131     5.2936     4.8189 </r>
       <r>    -8.5058     6.9737     5.5668 </r>
       <r>    -8.3986     6.3022     6.2427 </r>
       <r>    -8.2913     5.3207     6.8133 </r>
       <r>    -8.1841     4.8351     7.3319 </r>
       <r>    -8.0769     3.8955     7.7497 </r>
       <r>    -7.9696     1.6850     7.9304 </r>
       <r>    -7.8624     0.5922     7.9939 </r>
       <r>    -7.7551     0.0569     8.0000 </r>
       <r>    -7.6479     0.0000     8.0000 </r>
       <r>    -7.5406     0.0000     8.0000 </r>
       <r>    -7.4334     0.0000     8.0000 </r>
       <r>    -7.3261     0.0000     8.0000 </r>
       <r>    -7.2189     0.0000     8.0000 </r>
       <r>    -7.1116     0.0000     8.0000 </r>
       <r>    -7.0044     0.0004     8.0000 </r>
       <r>    -6.8971     0.1102     8.0119 </r>
       <r>    -6.7899     0.2584     8.0396 </r>
       <r>    -6.6826     0.4226     8.0849 </r>
       <r>    -6.5754     0.7643     8.1669 </r>
       <r>    -6.4681     0.8484     8.2579 </r>
       <r>    -6.3609     1.4437     8.4127 </r>
       <r>    -6.2536     1.9603     8.6229 </r>
       <r>    -6.1464     3.0455     8.9495 </r>
       <r>    -6.0391     3.7827     9.3552 </r>
       <r>    -5.9319     4.1080     9.7958 </r>
       <r>    -5.8246     4.0569    10.2309 </r>
       <r>    -5.7174     3.8592    10.6448 </r>
       <r>    -5.6102     4.0707    11.0814 </r>
       <r>    -5.5029     4.2204    11.5340 </r>
       <r>    -5.3957     4.5364    12.0205 </r>
       <r>    -5.2884     4.5928    12.5131 </r>
       <r>    -5.1812     4.4864    12.9942 </r>
       <r>    -5.0739     3.8694    13.4092 </r>
       <r>    -4.9667     3.2193    13.7545 </r>
       <r>    -4.8594     2.9632    14.0723 </r>
       <r>    -4.7522     2.3217    14.3213 </r>
       <r>    -4.6449     2.8846    14.6306 </r>
       <r>    -4.5377     3.3580    14.9908 </r>
       <r>    -4.4304     3.4551    15.3613 </r>
       <r>    -4.3232     3.3433    15.7199 </r>
       <r>    -4.2159     2.9547    16.0368 </r>
       <r>    -4.1087     2.9021    16.3480 </r>
       <r>    -4.0014     2.9295    16.6622 </r>
       <r>    -3.8942     2.8697    16.9700 </r>
       <r>    -3.7869     3.0987    17.3023 </r>
       <r>    -3.6797     2.8997    17.6133 </r>
       <r>    -3.5724     2.6961    17.9025 </r>
       <r>    -3.4652     3.0632    18.2310 </r>
       <r>    -3.3580     2.6508    18.5153 </r>
       <r>    -3.2507     2.8382    18.8197 </r>
       <r>    -3.1435     2.7697    19.1167 </r>
       <r>    -3.0362     2.7162    19.4080 </r>
       <r>    -2.9290     3.0597    19.7362 </r>
       <r>    -2.8217     2.9720    20.0549 </r>
       <r>    -2.7145     2.4392    20.3165 </r>
       <r>    -2.6072     2.6427    20.5999 </r>
       <r>    -2.5000     3.0023    20.9219 </r>
       <r>    -2.3927     2.9992    21.2436 </r>
       <r>    -2.2855     3.1889    21.5856 </r>
       <r>    -2.1782     4.0117    22.0158 </r>
       <r>    -2.0710     3.6547    22.4078 </r>
       <r>    -1.9637     3.2495    22.7563 </r>
       <r>    -1.8565     5.0485    23.2977 </r>
       <r>    -1.7492     5.5560    23.8936 </r>
       <r>    -1.6420     5.6231    24.4966 </r>
       <r>    -1.5347     6.1515    25.1564 </r>
       <r>    -1.4275     6.1123    25.8119 </r>
       <r>    -1.3202     5.5916    26.4116 </r>
       <r>    -1.2130     4.6760    26.9131 </r>
       <r>    -1.1057     6.4775    27.6078 </r>
       <r>    -0.9985     4.0674    28.0440 </r>
       <r>    -0.8913     2.2792    28.2885 </r>
       <r>    -0.7840     2.6968    28.5777 </r>
       <r>    -0.6768     2.8694    28.8854 </r>
       <r>    -0.5695     4.4585    29.3636 </r>
       <r>    -0.4623     6.8334    30.0965 </r>
       <r>    -0.3550     5.6655    30.7041 </r>
       <r>    -0.2478     6.6742    31.4199 </r>
       <r>    -0.1405     6.3511    32.1010 </r>
       <r>    -0.0333     6.7206    32.8218 </r>
       <r>     0.0740     6.7953    33.5506 </r>
       <r>     0.1812     6.2243    34.2181 </r>
       <r>     0.2885     8.7704    35.1587 </r>
       <r>     0.3957     8.0245    36.0193 </r>
       <r>     0.5030     8.6946    36.9518 </r>
       <r>     0.6102     5.3447    37.5250 </r>
       <r>     0.7175     2.9845    37.8451 </r>
       <r>     0.8247     3.2626    38.1950 </r>
       <r>     0.9320     3.5897    38.5800 </r>
       <r>     1.0392     3.5677    38.9626 </r>
       <r>     1.1465     2.7875    39.2616 </r>
       <r>     1.2537     3.3618    39.6221 </r>
       <r>     1.3609     4.4851    40.1031 </r>
       <r>     1.4682     3.8115    40.5119 </r>
       <r>     1.5754     3.7004    40.9087 </r>
       <r>     1.6827     4.5718    41.3991 </r>
       <r>     1.7899     3.2919    41.7521 </r>
       <r>     1.8972     2.4716    42.0172 </r>
       <r>     2.0044     2.6646    42.3030 </r>
       <r>     2.1117     2.0875    42.5268 </r>
       <r>     2.2189     2.6426    42.8103 </r>
       <r>     2.3262     2.5924    43.0883 </r>
       <r>     2.4334     1.9601    43.2985 </r>
       <r>     2.5407     0.8732    43.3921 </r>
       <r>     2.6479     0.3748    43.4323 </r>
       <r>     2.7552     0.5747    43.4940 </r>
       <r>     2.8624     0.4202    43.5391 </r>
       <r>     2.9697     0.3059    43.5719 </r>
       <r>     3.0769     0.7391    43.6511 </r>
       <r>     3.1842     1.0212    43.7606 </r>
       <r>     3.2914     0.5599    43.8207 </r>
       <r>     3.3987     0.0146    43.8223 </r>
       <r>     3.5059     0.1180    43.8349 </r>
       <r>     3.6131     0.3954    43.8773 </r>
       <r>     3.7204     0.3360    43.9134 </r>
       <r>     3.8276     0.3660    43.9526 </r>
       <r>     3.9349     0.4113    43.9967 </r>
       <r>     4.0421     0.0306    44.0000 </r>
       <r>     4.1494     0.0000    44.0000 </r>
       <r>     4.2566     0.0301    44.0032 </r>
       <r>     4.3639     0.1745    44.0219 </r>
       <r>     4.4711     0.4003    44.0649 </r>
       <r>     4.5784     0.4661    44.1149 </r>
       <r>     4.6856     0.6304    44.1825 </r>
       <r>     4.7929     0.8873    44.2776 </r>
       <r>     4.9001     0.8356    44.3673 </r>
       <r>     5.0074     0.8572    44.4592 </r>
       <r>     5.1146     1.2674    44.5951 </r>
       <r>     5.2219     1.1552    44.7190 </r>
       <r>     5.3291     1.6257    44.8934 </r>
       <r>     5.4364     2.1774    45.1269 </r>
       <r>     5.5436     2.4916    45.3941 </r>
       <r>     5.6509     2.7771    45.6919 </r>
       <r>     5.7581     3.3561    46.0519 </r>
       <r>     5.8654     3.2297    46.3983 </r>
       <r>     5.9726     4.2981    46.8592 </r>
       <r>     6.0798     4.7665    47.3704 </r>
       <r>     6.1871     4.0422    47.8039 </r>
       <r>     6.2943     4.6313    48.3006 </r>
       <r>     6.4016     4.1635    48.7472 </r>
       <r>     6.5088     4.0220    49.1785 </r>
       <r>     6.6161     4.4877    49.6598 </r>
       <r>     6.7233     3.2300    50.0062 </r>
       <r>     6.8306     4.0028    50.4355 </r>
       <r>     6.9378     4.6234    50.9314 </r>
       <r>     7.0451     4.5568    51.4201 </r>
       <r>     7.1523     4.3457    51.8861 </r>
       <r>     7.2596     5.6058    52.4873 </r>
       <r>     7.3668     4.9145    53.0144 </r>
       <r>     7.4741     4.4518    53.4919 </r>
       <r>     7.5813     4.1849    53.9407 </r>
       <r>     7.6886     3.5698    54.3235 </r>
       <r>     7.7958     3.1244    54.6586 </r>
       <r>     7.9031     3.0055    54.9809 </r>
       <r>     8.0103     2.9820    55.3008 </r>
       <r>     8.1176     4.1779    55.7488 </r>
       <r>     8.2248     3.9010    56.1672 </r>
       <r>     8.3320     3.6866    56.5626 </r>
       <r>     8.4393     4.0229    56.9940 </r>
       <r>     8.5465     4.1940    57.4438 </r>
       <r>     8.6538     4.4869    57.9250 </r>
       <r>     8.7610     4.2379    58.3795 </r>
       <r>     8.8683     5.3111    58.9491 </r>
       <r>     8.9755     4.8804    59.4726 </r>
       <r>     9.0828     5.3075    60.0418 </r>
       <r>     9.1900     5.2148    60.6010 </r>
       <r>     9.2973     4.9572    61.1327 </r>
       <r>     9.4045     4.6918    61.6359 </r>
       <r>     9.5118     4.3662    62.1041 </r>
       <r>     9.6190     5.1294    62.6543 </r>
       <r>     9.7263     5.0048    63.1910 </r>
       <r>     9.8335     5.2998    63.7594 </r>
       <r>     9.9408     4.4341    64.2350 </r>
       <r>    10.0480     3.6586    64.6273 </r>
       <r>    10.1553     5.2382    65.1891 </r>
       <r>    10.2625     4.6653    65.6895 </r>
       <r>    10.3698     4.1288    66.1323 </r>
       <r>    10.4770     5.4814    66.7201 </r>
       <r>    10.5843     5.7181    67.3334 </r>
       <r>    10.6915     4.0788    67.7708 </r>
       <r>    10.7987     3.8566    68.1844 </r>
       <r>    10.9060     3.2542    68.5334 </r>
       <r>    11.0132     4.7303    69.0408 </r>
       <r>    11.1205     5.4650    69.6269 </r>
       <r>    11.2277     6.2536    70.2976 </r>
       <r>    11.3350     5.9387    70.9345 </r>
       <r>    11.4422     5.2631    71.4989 </r>
       <r>    11.5495     4.3067    71.9608 </r>
       <r>    11.6567     4.4694    72.4401 </r>
       <r>    11.7640     4.9512    72.9711 </r>
       <r>    11.8712     4.8330    73.4895 </r>
       <r>    11.9785     6.0233    74.1355 </r>
       <r>    12.0857     5.9958    74.7785 </r>
       <r>    12.1930     5.9368    75.4152 </r>
       <r>    12.3002     5.6305    76.0191 </r>
       <r>    12.4075     4.9740    76.5525 </r>
       <r>    12.5147     5.6735    77.1610 </r>
       <r>    12.6220     6.0105    77.8056 </r>
       <r>    12.7292     6.0056    78.4497 </r>
       <r>    12.8365     5.8548    79.0776 </r>
       <r>    12.9437     5.8741    79.7076 </r>
       <r>    13.0509     5.5961    80.3077 </r>
       <r>    13.1582     6.3598    80.9898 </r>
       <r>    13.2654     6.2088    81.6557 </r>
       <r>    13.3727     5.4244    82.2375 </r>
       <r>    13.4799     6.1263    82.8945 </r>
       <r>    13.5872     5.3198    83.4650 </r>
       <r>    13.6944     4.8072    83.9806 </r>
       <r>    13.8017     6.1800    84.6434 </r>
       <r>    13.9089     5.4873    85.2319 </r>
       <r>    14.0162     5.3525    85.8059 </r>
       <r>    14.1234     5.4588    86.3914 </r>
       <r>    14.2307     4.6440    86.8894 </r>
       <r>    14.3379     4.9432    87.4196 </r>
       <r>    14.4452     5.0097    87.9568 </r>
       <r>    14.5524     4.9584    88.4886 </r>
       <r>    14.6597     5.2658    89.0534 </r>
       <r>    14.7669     5.1525    89.6060 </r>
       <r>    14.8742     4.0747    90.0430 </r>
       <r>    14.9814     5.1078    90.5908 </r>
       <r>    15.0887     6.1893    91.2545 </r>
       <r>    15.1959     5.6063    91.8558 </r>
       <r>    15.3032     5.7275    92.4701 </r>
       <r>    15.4104     6.0098    93.1146 </r>
       <r>    15.5176     5.7272    93.7288 </r>
       <r>    15.6249     5.9232    94.3641 </r>
       <r>    15.7321     4.5575    94.8529 </r>
       <r>    15.8394     2.4381    95.1143 </r>
       <r>    15.9466     2.7211    95.4062 </r>
       <r>    16.0539     1.8371    95.6032 </r>
       <r>    16.1611     1.1289    95.7243 </r>
       <r>    16.2684     0.8900    95.8197 </r>
       <r>    16.3756     0.6967    95.8944 </r>
       <r>    16.4829     0.8066    95.9809 </r>
       <r>    16.5901     0.1760    95.9998 </r>
       <r>    16.6974     0.0017    96.0000 </r>
       <r>    16.8046     0.0000    96.0000 </r>
       <r>    16.9119     0.0000    96.0000 </r>
       <r>    17.0191     0.0000    96.0000 </r>
       <r>    17.1264     0.0000    96.0000 </r>
       <r>    17.2336     0.0000    96.0000 </r>
       <r>    17.3409     0.0000    96.0000 </r>
       <r>    17.4481     0.0000    96.0000 </r>
       <r>    17.5554     0.0000    96.0000 </r>
       <r>    17.6626     0.0000    96.0000 </r>
       <r>    17.7698     0.0000    96.0000 </r>
       <r>    17.8771     0.0000    96.0000 </r>
       <r>    17.9843     0.0000    96.0000 </r>
      </set>
     </set>
    </array>
   </total>
  </dos>
 </calculation>
 <structure name="finalpos" >
  <crystal>
   <varray name="basis" >
    <v>       5.69700000       0.00000000       0.00000000 </v>
    <v>       0.00000000       4.04790000       0.00000000 </v>
    <v>       0.00000000       0.00000000       6.20420000 </v>
   </varray>
   <i name="volume">    143.07435078 </i>
   <varray name="rec_basis" >
    <v>       0.17553098       0.00000000       0.00000000 </v>
    <v>       0.00000000       0.24704168       0.00000000 </v>
    <v>       0.00000000       0.00000000       0.16118114 </v>
   </varray>
  </crystal>
  <varray name="positions" >
   <v>       0.52123000       0.50000000       0.63796000 </v>
   <v>       0.47877000       0.50000000       0.36204000 </v>
   <v>       0.97877000       0.50000000       0.63796000 </v>
   <v>       0.02123000       0.50000000       0.36204000 </v>
   <v>       0.60090000       0.50000000       0.89991000 </v>
   <v>       0.39910000       0.50000000       0.10009000 </v>
   <v>       0.89910000       0.50000000       0.89991000 </v>
   <v>       0.10090000       0.50000000       0.10009000 </v>
   <v>       0.75000000       0.79171000       0.72973000 </v>
   <v>       0.25000000       0.20829000       0.27027000 </v>
   <v>       0.75000000       0.20829000       0.72973000 </v>
   <v>       0.25000000       0.79171000       0.27027000 </v>
   <v>       0.25000000       0.50000000       0.52367000 </v>
   <v>       0.75000000       0.50000000       0.47633000 </v>
  </varray>
 </structure>
</modeling>
