   1   1   0   0
  0.3368929E+04  0.1499100E-08  0.1249250E-08  0.1798920E-08  0.5000000E-15
  1.000000000000000E-004
  CAR 
 Convergence                             
      2.49630805     -9.97680781  301     -3.60714141      1.00000000
     -9.977  0.0000E+00  0.0000E+00
     -9.935  0.0000E+00  0.0000E+00
     -9.894  0.0000E+00  0.0000E+00
     -9.852  0.0000E+00  0.0000E+00
     -9.810  0.0000E+00  0.0000E+00
     -9.769  0.0000E+00  0.0000E+00
     -9.727  0.0000E+00  0.0000E+00
     -9.686  0.1442E-12  0.5995E-14
     -9.644  0.8169E-09  0.3397E-10
     -9.603  0.1195E-05  0.4973E-07
     -9.561  0.4559E-03  0.1900E-04
     -9.519  0.4604E-01  0.1933E-02
     -9.478  0.1260E+01  0.5431E-01
     -9.436  0.9619E+01  0.4542E+00
     -9.395  0.2109E+02  0.1331E+01
     -9.353  0.1347E+02  0.1891E+01
     -9.312  0.2486E+01  0.1995E+01
     -9.270  0.1291E+00  0.2000E+01
     -9.228  0.1830E-02  0.2000E+01
     -9.187  0.6906E-05  0.2000E+01
     -9.145  0.6819E-08  0.2000E+01
     -9.104  0.1741E-11  0.2000E+01
     -9.062  0.0000E+00  0.2000E+01
     -9.021  0.0000E+00  0.2000E+01
     -8.979  0.0000E+00  0.2000E+01
     -8.937  0.0000E+00  0.2000E+01
     -8.896  0.0000E+00  0.2000E+01
     -8.854  0.0000E+00  0.2000E+01
     -8.813  0.0000E+00  0.2000E+01
     -8.771  0.0000E+00  0.2000E+01
     -8.729  0.0000E+00  0.2000E+01
     -8.688  0.0000E+00  0.2000E+01
     -8.646  0.0000E+00  0.2000E+01
     -8.605  0.0000E+00  0.2000E+01
     -8.563  0.0000E+00  0.2000E+01
     -8.522  0.0000E+00  0.2000E+01
     -8.480  0.0000E+00  0.2000E+01
     -8.438  0.0000E+00  0.2000E+01
     -8.397  0.0000E+00  0.2000E+01
     -8.355  0.0000E+00  0.2000E+01
     -8.314  0.0000E+00  0.2000E+01
     -8.272  0.0000E+00  0.2000E+01
     -8.231  0.0000E+00  0.2000E+01
     -8.189  0.0000E+00  0.2000E+01
     -8.147  0.0000E+00  0.2000E+01
     -8.106  0.0000E+00  0.2000E+01
     -8.064  0.0000E+00  0.2000E+01
     -8.023  0.0000E+00  0.2000E+01
     -7.981  0.0000E+00  0.2000E+01
     -7.940  0.0000E+00  0.2000E+01
     -7.898  0.0000E+00  0.2000E+01
     -7.856  0.0000E+00  0.2000E+01
     -7.815  0.0000E+00  0.2000E+01
     -7.773  0.0000E+00  0.2000E+01
     -7.732  0.0000E+00  0.2000E+01
     -7.690  0.0000E+00  0.2000E+01
     -7.648  0.0000E+00  0.2000E+01
     -7.607  0.0000E+00  0.2000E+01
     -7.565  0.0000E+00  0.2000E+01
     -7.524  0.0000E+00  0.2000E+01
     -7.482  0.0000E+00  0.2000E+01
     -7.441  0.0000E+00  0.2000E+01
     -7.399  0.0000E+00  0.2000E+01
     -7.357  0.0000E+00  0.2000E+01
     -7.316  0.0000E+00  0.2000E+01
     -7.274  0.0000E+00  0.2000E+01
     -7.233  0.0000E+00  0.2000E+01
     -7.191  0.0000E+00  0.2000E+01
     -7.150  0.0000E+00  0.2000E+01
     -7.108  0.0000E+00  0.2000E+01
     -7.066  0.0000E+00  0.2000E+01
     -7.025  0.0000E+00  0.2000E+01
     -6.983  0.0000E+00  0.2000E+01
     -6.942  0.0000E+00  0.2000E+01
     -6.900  0.0000E+00  0.2000E+01
     -6.859  0.0000E+00  0.2000E+01
     -6.817  0.0000E+00  0.2000E+01
     -6.775  0.0000E+00  0.2000E+01
     -6.734  0.0000E+00  0.2000E+01
     -6.692  0.0000E+00  0.2000E+01
     -6.651  0.0000E+00  0.2000E+01
     -6.609  0.0000E+00  0.2000E+01
     -6.567  0.0000E+00  0.2000E+01
     -6.526  0.0000E+00  0.2000E+01
     -6.484  0.0000E+00  0.2000E+01
     -6.443  0.0000E+00  0.2000E+01
     -6.401  0.0000E+00  0.2000E+01
     -6.360  0.0000E+00  0.2000E+01
     -6.318  0.0000E+00  0.2000E+01
     -6.276  0.0000E+00  0.2000E+01
     -6.235  0.0000E+00  0.2000E+01
     -6.193  0.0000E+00  0.2000E+01
     -6.152  0.0000E+00  0.2000E+01
     -6.110  0.0000E+00  0.2000E+01
     -6.069  0.0000E+00  0.2000E+01
     -6.027  0.0000E+00  0.2000E+01
     -5.985  0.0000E+00  0.2000E+01
     -5.944  0.0000E+00  0.2000E+01
     -5.902  0.0000E+00  0.2000E+01
     -5.861  0.0000E+00  0.2000E+01
     -5.819  0.0000E+00  0.2000E+01
     -5.778  0.0000E+00  0.2000E+01
     -5.736  0.0000E+00  0.2000E+01
     -5.694  0.0000E+00  0.2000E+01
     -5.653  0.0000E+00  0.2000E+01
     -5.611  0.0000E+00  0.2000E+01
     -5.570  0.0000E+00  0.2000E+01
     -5.528  0.0000E+00  0.2000E+01
     -5.486  0.0000E+00  0.2000E+01
     -5.445  0.0000E+00  0.2000E+01
     -5.403  0.0000E+00  0.2000E+01
     -5.362  0.0000E+00  0.2000E+01
     -5.320  0.0000E+00  0.2000E+01
     -5.279  0.0000E+00  0.2000E+01
     -5.237  0.0000E+00  0.2000E+01
     -5.195  0.0000E+00  0.2000E+01
     -5.154  0.0000E+00  0.2000E+01
     -5.112  0.0000E+00  0.2000E+01
     -5.071  0.0000E+00  0.2000E+01
     -5.029  0.0000E+00  0.2000E+01
     -4.988  0.0000E+00  0.2000E+01
     -4.946  0.0000E+00  0.2000E+01
     -4.904  0.0000E+00  0.2000E+01
     -4.863  0.0000E+00  0.2000E+01
     -4.821  0.0000E+00  0.2000E+01
     -4.780  0.0000E+00  0.2000E+01
     -4.738  0.0000E+00  0.2000E+01
     -4.697  0.0000E+00  0.2000E+01
     -4.655  0.0000E+00  0.2000E+01
     -4.613  0.0000E+00  0.2000E+01
     -4.572  0.0000E+00  0.2000E+01
     -4.530  0.0000E+00  0.2000E+01
     -4.489  0.0000E+00  0.2000E+01
     -4.447  0.0000E+00  0.2000E+01
     -4.405  0.0000E+00  0.2000E+01
     -4.364  0.0000E+00  0.2000E+01
     -4.322  0.0000E+00  0.2000E+01
     -4.281  0.0000E+00  0.2000E+01
     -4.239  0.0000E+00  0.2000E+01
     -4.198  0.0000E+00  0.2000E+01
     -4.156  0.0000E+00  0.2000E+01
     -4.114  0.0000E+00  0.2000E+01
     -4.073  0.0000E+00  0.2000E+01
     -4.031  0.0000E+00  0.2000E+01
     -3.990  0.0000E+00  0.2000E+01
     -3.948  0.0000E+00  0.2000E+01
     -3.907  0.0000E+00  0.2000E+01
     -3.865  0.8011E-14  0.2000E+01
     -3.823  0.1009E-09  0.2000E+01
     -3.782  0.2494E-06  0.2000E+01
     -3.740  0.1599E-03  0.2000E+01
     -3.699  0.2698E-01  0.2001E+01
     -3.657  0.1221E+01  0.2052E+01
     -3.616  0.1524E+02  0.2685E+01
     -3.574  0.5404E+02  0.4932E+01
     -3.532  0.5567E+02  0.7247E+01
     -3.491  0.1667E+02  0.7940E+01
     -3.449  0.1420E+01  0.7999E+01
     -3.408  0.3342E-01  0.8000E+01
     -3.366  0.2112E-03  0.8000E+01
     -3.324  0.3514E-06  0.8000E+01
     -3.283  0.1517E-09  0.8000E+01
     -3.241  0.1602E-13  0.8000E+01
     -3.200  0.0000E+00  0.8000E+01
     -3.158  0.0000E+00  0.8000E+01
     -3.117  0.0000E+00  0.8000E+01
     -3.075  0.0000E+00  0.8000E+01
     -3.033  0.0000E+00  0.8000E+01
     -2.992  0.0000E+00  0.8000E+01
     -2.950  0.0000E+00  0.8000E+01
     -2.909  0.0000E+00  0.8000E+01
     -2.867  0.0000E+00  0.8000E+01
     -2.826  0.0000E+00  0.8000E+01
     -2.784  0.0000E+00  0.8000E+01
     -2.742  0.0000E+00  0.8000E+01
     -2.701  0.0000E+00  0.8000E+01
     -2.659  0.0000E+00  0.8000E+01
     -2.618  0.0000E+00  0.8000E+01
     -2.576  0.0000E+00  0.8000E+01
     -2.535  0.0000E+00  0.8000E+01
     -2.493  0.0000E+00  0.8000E+01
     -2.451  0.0000E+00  0.8000E+01
     -2.410  0.0000E+00  0.8000E+01
     -2.368  0.0000E+00  0.8000E+01
     -2.327  0.0000E+00  0.8000E+01
     -2.285  0.0000E+00  0.8000E+01
     -2.243  0.0000E+00  0.8000E+01
     -2.202  0.0000E+00  0.8000E+01
     -2.160  0.0000E+00  0.8000E+01
     -2.119  0.0000E+00  0.8000E+01
     -2.077  0.0000E+00  0.8000E+01
     -2.036  0.0000E+00  0.8000E+01
     -1.994  0.0000E+00  0.8000E+01
     -1.952  0.0000E+00  0.8000E+01
     -1.911  0.0000E+00  0.8000E+01
     -1.869  0.0000E+00  0.8000E+01
     -1.828  0.0000E+00  0.8000E+01
     -1.786  0.0000E+00  0.8000E+01
     -1.745  0.0000E+00  0.8000E+01
     -1.703  0.0000E+00  0.8000E+01
     -1.661  0.0000E+00  0.8000E+01
     -1.620  0.0000E+00  0.8000E+01
     -1.578  0.0000E+00  0.8000E+01
     -1.537  0.0000E+00  0.8000E+01
     -1.495  0.0000E+00  0.8000E+01
     -1.454  0.0000E+00  0.8000E+01
     -1.412  0.0000E+00  0.8000E+01
     -1.370  0.0000E+00  0.8000E+01
     -1.329  0.0000E+00  0.8000E+01
     -1.287  0.0000E+00  0.8000E+01
     -1.246  0.0000E+00  0.8000E+01
     -1.204  0.0000E+00  0.8000E+01
     -1.162  0.0000E+00  0.8000E+01
     -1.121  0.0000E+00  0.8000E+01
     -1.079  0.0000E+00  0.8000E+01
     -1.038  0.0000E+00  0.8000E+01
     -0.996  0.0000E+00  0.8000E+01
     -0.955  0.0000E+00  0.8000E+01
     -0.913  0.0000E+00  0.8000E+01
     -0.871  0.0000E+00  0.8000E+01
     -0.830  0.0000E+00  0.8000E+01
     -0.788  0.0000E+00  0.8000E+01
     -0.747  0.0000E+00  0.8000E+01
     -0.705  0.0000E+00  0.8000E+01
     -0.664  0.0000E+00  0.8000E+01
     -0.622  0.0000E+00  0.8000E+01
     -0.580  0.0000E+00  0.8000E+01
     -0.539  0.1009E-14  0.8000E+01
     -0.497  0.6965E-11  0.8000E+01
     -0.456  0.1276E-07  0.8000E+01
     -0.414  0.6444E-05  0.8000E+01
     -0.373  0.9322E-03  0.8000E+01
     -0.331  0.4094E-01  0.8002E+01
     -0.289  0.5946E+00  0.8026E+01
     -0.248  0.3240E+01  0.8161E+01
     -0.206  0.7907E+01  0.8490E+01
     -0.165  0.1074E+02  0.8937E+01
     -0.123  0.1034E+02  0.9366E+01
     -0.081  0.8369E+01  0.9714E+01
     -0.040  0.4979E+01  0.9921E+01
      0.002  0.1680E+01  0.9991E+01
      0.043  0.6754E+00  0.1002E+02
      0.085  0.2212E+01  0.1011E+02
      0.126  0.5936E+01  0.1036E+02
      0.168  0.1054E+02  0.1080E+02
      0.210  0.1409E+02  0.1138E+02
      0.251  0.1563E+02  0.1203E+02
      0.293  0.1577E+02  0.1269E+02
      0.334  0.1591E+02  0.1335E+02
      0.376  0.1620E+02  0.1402E+02
      0.417  0.1652E+02  0.1471E+02
      0.459  0.1760E+02  0.1544E+02
      0.501  0.1847E+02  0.1621E+02
      0.542  0.1846E+02  0.1698E+02
      0.584  0.1899E+02  0.1777E+02
      0.625  0.1990E+02  0.1859E+02
      0.667  0.2035E+02  0.1944E+02
      0.708  0.2102E+02  0.2031E+02
      0.750  0.2242E+02  0.2125E+02
      0.792  0.2236E+02  0.2218E+02
      0.833  0.2187E+02  0.2309E+02
      0.875  0.2336E+02  0.2406E+02
      0.916  0.2452E+02  0.2508E+02
      0.958  0.2420E+02  0.2608E+02
      1.000  0.2487E+02  0.2712E+02
      1.041  0.2589E+02  0.2819E+02
      1.083  0.2598E+02  0.2927E+02
      1.124  0.2605E+02  0.3036E+02
      1.166  0.2682E+02  0.3147E+02
      1.207  0.2769E+02  0.3262E+02
      1.249  0.2728E+02  0.3376E+02
      1.291  0.2747E+02  0.3490E+02
      1.332  0.2854E+02  0.3609E+02
      1.374  0.2857E+02  0.3727E+02
      1.415  0.2829E+02  0.3845E+02
      1.457  0.2933E+02  0.3967E+02
      1.498  0.3087E+02  0.4095E+02
      1.540  0.2998E+02  0.4220E+02
      1.582  0.2955E+02  0.4343E+02
      1.623  0.3005E+02  0.4468E+02
      1.665  0.2764E+02  0.4583E+02
      1.706  0.2115E+02  0.4671E+02
      1.748  0.1400E+02  0.4729E+02
      1.789  0.8293E+01  0.4763E+02
      1.831  0.4780E+01  0.4783E+02
      1.873  0.2562E+01  0.4794E+02
      1.914  0.1085E+01  0.4798E+02
      1.956  0.3442E+00  0.4800E+02
      1.997  0.7261E-01  0.4800E+02
      2.039  0.7016E-02  0.4800E+02
      2.081  0.2237E-03  0.4800E+02
      2.122  0.2037E-05  0.4800E+02
      2.164  0.5014E-08  0.4800E+02
      2.205  0.3254E-11  0.4800E+02
      2.247  0.5595E-15  0.4800E+02
      2.288  0.0000E+00  0.4800E+02
      2.330  0.0000E+00  0.4800E+02
      2.372  0.0000E+00  0.4800E+02
      2.413  0.0000E+00  0.4800E+02
      2.455  0.0000E+00  0.4800E+02
      2.496  0.0000E+00  0.4800E+02
