<?xml version="1.0" encoding="ISO-8859-1"?>
<modeling>
 <generator>
  <i name="program" type="string">vasp </i>
  <i name="version" type="string">6.4.3  </i>
  <i name="subversion" type="string">19Mar24 (build May 31 2024 16:31:43) complex                          parallel </i>
  <i name="platform" type="string">LinuxIFC </i>
  <i name="date" type="string">2024 10 31 </i>
  <i name="time" type="string">00:22:34 </i>
 </generator>
 <incar>
  <i type="string" name="SYSTEM">Kpoints</i>
  <i type="int" name="ISTART">     0</i>
  <i type="string" name="PREC">Accurate</i>
  <i type="string" name="ALGO">Normal</i>
  <i type="int" name="ISPIN">     1</i>
  <i type="int" name="ICHARG">     2</i>
  <i type="int" name="NELM">   100</i>
  <i type="int" name="IBRION">    -1</i>
  <i name="EDIFF">      0.00000100</i>
  <i name="EDIFFG">     -0.00100000</i>
  <i type="int" name="NSW">     0</i>
  <i type="int" name="ISIF">     2</i>
  <i name="ENCUT">    480.00000000</i>
  <i name="POTIM">      0.50000000</i>
  <i type="int" name="ISMEAR">     0</i>
  <i name="SIGMA">      0.05000000</i>
  <i type="logical" name="LWAVE"> F  </i>
  <i type="logical" name="LCHARG"> F  </i>
  <i type="string" name="GGA">PE</i>
 </incar>
 <primitive_cell>
  <structure name="primitive_cell" >
   <crystal>
    <varray name="basis" >
     <v>       5.69700000       0.00000000       0.00000000 </v>
     <v>       0.00000000       4.04790000       0.00000000 </v>
     <v>       0.00000000       0.00000000       6.20420000 </v>
    </varray>
    <i name="volume">    143.07435078 </i>
    <varray name="rec_basis" >
     <v>       0.17553098       0.00000000       0.00000000 </v>
     <v>       0.00000000       0.24704168       0.00000000 </v>
     <v>       0.00000000       0.00000000       0.16118114 </v>
    </varray>
   </crystal>
   <varray name="positions" >
    <v>       0.52123000       0.50000000       0.63796000 </v>
    <v>       0.47877000       0.50000000       0.36204000 </v>
    <v>       0.97877000       0.50000000       0.63796000 </v>
    <v>       0.02123000       0.50000000       0.36204000 </v>
    <v>       0.60090000       0.50000000       0.89991000 </v>
    <v>       0.39910000       0.50000000       0.10009000 </v>
    <v>       0.89910000       0.50000000       0.89991000 </v>
    <v>       0.10090000       0.50000000       0.10009000 </v>
    <v>       0.75000000       0.79171000       0.72973000 </v>
    <v>       0.25000000       0.20829000       0.27027000 </v>
    <v>       0.75000000       0.20829000       0.72973000 </v>
    <v>       0.25000000       0.79171000       0.27027000 </v>
    <v>       0.25000000       0.50000000       0.52367000 </v>
    <v>       0.75000000       0.50000000       0.47633000 </v>
   </varray>
  </structure>
  <varray name="primitive_index" >
   <v type="int" >        1 </v>
   <v type="int" >        2 </v>
   <v type="int" >        3 </v>
   <v type="int" >        4 </v>
   <v type="int" >        5 </v>
   <v type="int" >        6 </v>
   <v type="int" >        7 </v>
   <v type="int" >        8 </v>
   <v type="int" >        9 </v>
   <v type="int" >       10 </v>
   <v type="int" >       11 </v>
   <v type="int" >       12 </v>
   <v type="int" >       13 </v>
   <v type="int" >       14 </v>
  </varray>
 </primitive_cell>
 <kpoints>
  <generation param="Monkhorst-Pack">
   <v type="int" name="divisions">      19       27       17 </v>
   <v name="usershift">      0.00000000       0.00000000       0.00000000 </v>
   <v name="genvec1">      0.05263158       0.00000000       0.00000000 </v>
   <v name="genvec2">      0.00000000       0.03703704       0.00000000 </v>
   <v name="genvec3">      0.00000000       0.00000000       0.05882353 </v>
   <v name="shift">      0.00000000       0.00000000       0.00000000 </v>
  </generation>
  <varray name="kpointlist" >
   <v>       0.00000000       0.00000000       0.00000000 </v>
   <v>       0.05263158       0.00000000       0.00000000 </v>
   <v>       0.10526316       0.00000000       0.00000000 </v>
   <v>       0.15789474       0.00000000       0.00000000 </v>
   <v>       0.21052632       0.00000000       0.00000000 </v>
   <v>       0.26315789       0.00000000       0.00000000 </v>
   <v>       0.31578947       0.00000000       0.00000000 </v>
   <v>       0.36842105       0.00000000       0.00000000 </v>
   <v>       0.42105263       0.00000000       0.00000000 </v>
   <v>       0.47368421       0.00000000       0.00000000 </v>
   <v>       0.00000000       0.03703704       0.00000000 </v>
   <v>       0.05263158       0.03703704       0.00000000 </v>
   <v>       0.10526316       0.03703704       0.00000000 </v>
   <v>       0.15789474       0.03703704       0.00000000 </v>
   <v>       0.21052632       0.03703704       0.00000000 </v>
   <v>       0.26315789       0.03703704       0.00000000 </v>
   <v>       0.31578947       0.03703704       0.00000000 </v>
   <v>       0.36842105       0.03703704       0.00000000 </v>
   <v>       0.42105263       0.03703704       0.00000000 </v>
   <v>       0.47368421       0.03703704       0.00000000 </v>
   <v>       0.00000000       0.07407407       0.00000000 </v>
   <v>       0.05263158       0.07407407       0.00000000 </v>
   <v>       0.10526316       0.07407407       0.00000000 </v>
   <v>       0.15789474       0.07407407       0.00000000 </v>
   <v>       0.21052632       0.07407407       0.00000000 </v>
   <v>       0.26315789       0.07407407       0.00000000 </v>
   <v>       0.31578947       0.07407407       0.00000000 </v>
   <v>       0.36842105       0.07407407       0.00000000 </v>
   <v>       0.42105263       0.07407407       0.00000000 </v>
   <v>       0.47368421       0.07407407       0.00000000 </v>
   <v>       0.00000000       0.11111111       0.00000000 </v>
   <v>       0.05263158       0.11111111       0.00000000 </v>
   <v>       0.10526316       0.11111111       0.00000000 </v>
   <v>       0.15789474       0.11111111       0.00000000 </v>
   <v>       0.21052632       0.11111111       0.00000000 </v>
   <v>       0.26315789       0.11111111       0.00000000 </v>
   <v>       0.31578947       0.11111111       0.00000000 </v>
   <v>       0.36842105       0.11111111       0.00000000 </v>
   <v>       0.42105263       0.11111111       0.00000000 </v>
   <v>       0.47368421       0.11111111       0.00000000 </v>
   <v>       0.00000000       0.14814815       0.00000000 </v>
   <v>       0.05263158       0.14814815       0.00000000 </v>
   <v>       0.10526316       0.14814815       0.00000000 </v>
   <v>       0.15789474       0.14814815       0.00000000 </v>
   <v>       0.21052632       0.14814815       0.00000000 </v>
   <v>       0.26315789       0.14814815       0.00000000 </v>
   <v>       0.31578947       0.14814815       0.00000000 </v>
   <v>       0.36842105       0.14814815       0.00000000 </v>
   <v>       0.42105263       0.14814815       0.00000000 </v>
   <v>       0.47368421       0.14814815       0.00000000 </v>
   <v>       0.00000000       0.18518519       0.00000000 </v>
   <v>       0.05263158       0.18518519       0.00000000 </v>
   <v>       0.10526316       0.18518519       0.00000000 </v>
   <v>       0.15789474       0.18518519       0.00000000 </v>
   <v>       0.21052632       0.18518519       0.00000000 </v>
   <v>       0.26315789       0.18518519       0.00000000 </v>
   <v>       0.31578947       0.18518519       0.00000000 </v>
   <v>       0.36842105       0.18518519       0.00000000 </v>
   <v>       0.42105263       0.18518519       0.00000000 </v>
   <v>       0.47368421       0.18518519       0.00000000 </v>
   <v>       0.00000000       0.22222222       0.00000000 </v>
   <v>       0.05263158       0.22222222       0.00000000 </v>
   <v>       0.10526316       0.22222222       0.00000000 </v>
   <v>       0.15789474       0.22222222       0.00000000 </v>
   <v>       0.21052632       0.22222222       0.00000000 </v>
   <v>       0.26315789       0.22222222       0.00000000 </v>
   <v>       0.31578947       0.22222222       0.00000000 </v>
   <v>       0.36842105       0.22222222       0.00000000 </v>
   <v>       0.42105263       0.22222222       0.00000000 </v>
   <v>       0.47368421       0.22222222       0.00000000 </v>
   <v>       0.00000000       0.25925926       0.00000000 </v>
   <v>       0.05263158       0.25925926       0.00000000 </v>
   <v>       0.10526316       0.25925926       0.00000000 </v>
   <v>       0.15789474       0.25925926       0.00000000 </v>
   <v>       0.21052632       0.25925926       0.00000000 </v>
   <v>       0.26315789       0.25925926       0.00000000 </v>
   <v>       0.31578947       0.25925926       0.00000000 </v>
   <v>       0.36842105       0.25925926       0.00000000 </v>
   <v>       0.42105263       0.25925926       0.00000000 </v>
   <v>       0.47368421       0.25925926       0.00000000 </v>
   <v>       0.00000000       0.29629630       0.00000000 </v>
   <v>       0.05263158       0.29629630       0.00000000 </v>
   <v>       0.10526316       0.29629630       0.00000000 </v>
   <v>       0.15789474       0.29629630       0.00000000 </v>
   <v>       0.21052632       0.29629630       0.00000000 </v>
   <v>       0.26315789       0.29629630       0.00000000 </v>
   <v>       0.31578947       0.29629630       0.00000000 </v>
   <v>       0.36842105       0.29629630       0.00000000 </v>
   <v>       0.42105263       0.29629630       0.00000000 </v>
   <v>       0.47368421       0.29629630       0.00000000 </v>
   <v>       0.00000000       0.33333333       0.00000000 </v>
   <v>       0.05263158       0.33333333       0.00000000 </v>
   <v>       0.10526316       0.33333333       0.00000000 </v>
   <v>       0.15789474       0.33333333       0.00000000 </v>
   <v>       0.21052632       0.33333333       0.00000000 </v>
   <v>       0.26315789       0.33333333       0.00000000 </v>
   <v>       0.31578947       0.33333333       0.00000000 </v>
   <v>       0.36842105       0.33333333       0.00000000 </v>
   <v>       0.42105263       0.33333333       0.00000000 </v>
   <v>       0.47368421       0.33333333       0.00000000 </v>
   <v>       0.00000000       0.37037037       0.00000000 </v>
   <v>       0.05263158       0.37037037       0.00000000 </v>
   <v>       0.10526316       0.37037037       0.00000000 </v>
   <v>       0.15789474       0.37037037       0.00000000 </v>
   <v>       0.21052632       0.37037037       0.00000000 </v>
   <v>       0.26315789       0.37037037       0.00000000 </v>
   <v>       0.31578947       0.37037037       0.00000000 </v>
   <v>       0.36842105       0.37037037       0.00000000 </v>
   <v>       0.42105263       0.37037037       0.00000000 </v>
   <v>       0.47368421       0.37037037       0.00000000 </v>
   <v>       0.00000000       0.40740741       0.00000000 </v>
   <v>       0.05263158       0.40740741       0.00000000 </v>
   <v>       0.10526316       0.40740741       0.00000000 </v>
   <v>       0.15789474       0.40740741       0.00000000 </v>
   <v>       0.21052632       0.40740741       0.00000000 </v>
   <v>       0.26315789       0.40740741       0.00000000 </v>
   <v>       0.31578947       0.40740741       0.00000000 </v>
   <v>       0.36842105       0.40740741       0.00000000 </v>
   <v>       0.42105263       0.40740741       0.00000000 </v>
   <v>       0.47368421       0.40740741       0.00000000 </v>
   <v>       0.00000000       0.44444444       0.00000000 </v>
   <v>       0.05263158       0.44444444       0.00000000 </v>
   <v>       0.10526316       0.44444444       0.00000000 </v>
   <v>       0.15789474       0.44444444       0.00000000 </v>
   <v>       0.21052632       0.44444444       0.00000000 </v>
   <v>       0.26315789       0.44444444       0.00000000 </v>
   <v>       0.31578947       0.44444444       0.00000000 </v>
   <v>       0.36842105       0.44444444       0.00000000 </v>
   <v>       0.42105263       0.44444444       0.00000000 </v>
   <v>       0.47368421       0.44444444       0.00000000 </v>
   <v>       0.00000000       0.48148148       0.00000000 </v>
   <v>       0.05263158       0.48148148       0.00000000 </v>
   <v>       0.10526316       0.48148148       0.00000000 </v>
   <v>       0.15789474       0.48148148       0.00000000 </v>
   <v>       0.21052632       0.48148148       0.00000000 </v>
   <v>       0.26315789       0.48148148       0.00000000 </v>
   <v>       0.31578947       0.48148148       0.00000000 </v>
   <v>       0.36842105       0.48148148       0.00000000 </v>
   <v>       0.42105263       0.48148148       0.00000000 </v>
   <v>       0.47368421       0.48148148       0.00000000 </v>
   <v>       0.00000000       0.00000000       0.05882353 </v>
   <v>       0.05263158       0.00000000       0.05882353 </v>
   <v>       0.10526316       0.00000000       0.05882353 </v>
   <v>       0.15789474       0.00000000       0.05882353 </v>
   <v>       0.21052632       0.00000000       0.05882353 </v>
   <v>       0.26315789       0.00000000       0.05882353 </v>
   <v>       0.31578947       0.00000000       0.05882353 </v>
   <v>       0.36842105       0.00000000       0.05882353 </v>
   <v>       0.42105263       0.00000000       0.05882353 </v>
   <v>       0.47368421       0.00000000       0.05882353 </v>
   <v>       0.00000000       0.03703704       0.05882353 </v>
   <v>       0.05263158       0.03703704       0.05882353 </v>
   <v>       0.10526316       0.03703704       0.05882353 </v>
   <v>       0.15789474       0.03703704       0.05882353 </v>
   <v>       0.21052632       0.03703704       0.05882353 </v>
   <v>       0.26315789       0.03703704       0.05882353 </v>
   <v>       0.31578947       0.03703704       0.05882353 </v>
   <v>       0.36842105       0.03703704       0.05882353 </v>
   <v>       0.42105263       0.03703704       0.05882353 </v>
   <v>       0.47368421       0.03703704       0.05882353 </v>
   <v>       0.00000000       0.07407407       0.05882353 </v>
   <v>       0.05263158       0.07407407       0.05882353 </v>
   <v>       0.10526316       0.07407407       0.05882353 </v>
   <v>       0.15789474       0.07407407       0.05882353 </v>
   <v>       0.21052632       0.07407407       0.05882353 </v>
   <v>       0.26315789       0.07407407       0.05882353 </v>
   <v>       0.31578947       0.07407407       0.05882353 </v>
   <v>       0.36842105       0.07407407       0.05882353 </v>
   <v>       0.42105263       0.07407407       0.05882353 </v>
   <v>       0.47368421       0.07407407       0.05882353 </v>
   <v>       0.00000000       0.11111111       0.05882353 </v>
   <v>       0.05263158       0.11111111       0.05882353 </v>
   <v>       0.10526316       0.11111111       0.05882353 </v>
   <v>       0.15789474       0.11111111       0.05882353 </v>
   <v>       0.21052632       0.11111111       0.05882353 </v>
   <v>       0.26315789       0.11111111       0.05882353 </v>
   <v>       0.31578947       0.11111111       0.05882353 </v>
   <v>       0.36842105       0.11111111       0.05882353 </v>
   <v>       0.42105263       0.11111111       0.05882353 </v>
   <v>       0.47368421       0.11111111       0.05882353 </v>
   <v>       0.00000000       0.14814815       0.05882353 </v>
   <v>       0.05263158       0.14814815       0.05882353 </v>
   <v>       0.10526316       0.14814815       0.05882353 </v>
   <v>       0.15789474       0.14814815       0.05882353 </v>
   <v>       0.21052632       0.14814815       0.05882353 </v>
   <v>       0.26315789       0.14814815       0.05882353 </v>
   <v>       0.31578947       0.14814815       0.05882353 </v>
   <v>       0.36842105       0.14814815       0.05882353 </v>
   <v>       0.42105263       0.14814815       0.05882353 </v>
   <v>       0.47368421       0.14814815       0.05882353 </v>
   <v>       0.00000000       0.18518519       0.05882353 </v>
   <v>       0.05263158       0.18518519       0.05882353 </v>
   <v>       0.10526316       0.18518519       0.05882353 </v>
   <v>       0.15789474       0.18518519       0.05882353 </v>
   <v>       0.21052632       0.18518519       0.05882353 </v>
   <v>       0.26315789       0.18518519       0.05882353 </v>
   <v>       0.31578947       0.18518519       0.05882353 </v>
   <v>       0.36842105       0.18518519       0.05882353 </v>
   <v>       0.42105263       0.18518519       0.05882353 </v>
   <v>       0.47368421       0.18518519       0.05882353 </v>
   <v>       0.00000000       0.22222222       0.05882353 </v>
   <v>       0.05263158       0.22222222       0.05882353 </v>
   <v>       0.10526316       0.22222222       0.05882353 </v>
   <v>       0.15789474       0.22222222       0.05882353 </v>
   <v>       0.21052632       0.22222222       0.05882353 </v>
   <v>       0.26315789       0.22222222       0.05882353 </v>
   <v>       0.31578947       0.22222222       0.05882353 </v>
   <v>       0.36842105       0.22222222       0.05882353 </v>
   <v>       0.42105263       0.22222222       0.05882353 </v>
   <v>       0.47368421       0.22222222       0.05882353 </v>
   <v>       0.00000000       0.25925926       0.05882353 </v>
   <v>       0.05263158       0.25925926       0.05882353 </v>
   <v>       0.10526316       0.25925926       0.05882353 </v>
   <v>       0.15789474       0.25925926       0.05882353 </v>
   <v>       0.21052632       0.25925926       0.05882353 </v>
   <v>       0.26315789       0.25925926       0.05882353 </v>
   <v>       0.31578947       0.25925926       0.05882353 </v>
   <v>       0.36842105       0.25925926       0.05882353 </v>
   <v>       0.42105263       0.25925926       0.05882353 </v>
   <v>       0.47368421       0.25925926       0.05882353 </v>
   <v>       0.00000000       0.29629630       0.05882353 </v>
   <v>       0.05263158       0.29629630       0.05882353 </v>
   <v>       0.10526316       0.29629630       0.05882353 </v>
   <v>       0.15789474       0.29629630       0.05882353 </v>
   <v>       0.21052632       0.29629630       0.05882353 </v>
   <v>       0.26315789       0.29629630       0.05882353 </v>
   <v>       0.31578947       0.29629630       0.05882353 </v>
   <v>       0.36842105       0.29629630       0.05882353 </v>
   <v>       0.42105263       0.29629630       0.05882353 </v>
   <v>       0.47368421       0.29629630       0.05882353 </v>
   <v>       0.00000000       0.33333333       0.05882353 </v>
   <v>       0.05263158       0.33333333       0.05882353 </v>
   <v>       0.10526316       0.33333333       0.05882353 </v>
   <v>       0.15789474       0.33333333       0.05882353 </v>
   <v>       0.21052632       0.33333333       0.05882353 </v>
   <v>       0.26315789       0.33333333       0.05882353 </v>
   <v>       0.31578947       0.33333333       0.05882353 </v>
   <v>       0.36842105       0.33333333       0.05882353 </v>
   <v>       0.42105263       0.33333333       0.05882353 </v>
   <v>       0.47368421       0.33333333       0.05882353 </v>
   <v>       0.00000000       0.37037037       0.05882353 </v>
   <v>       0.05263158       0.37037037       0.05882353 </v>
   <v>       0.10526316       0.37037037       0.05882353 </v>
   <v>       0.15789474       0.37037037       0.05882353 </v>
   <v>       0.21052632       0.37037037       0.05882353 </v>
   <v>       0.26315789       0.37037037       0.05882353 </v>
   <v>       0.31578947       0.37037037       0.05882353 </v>
   <v>       0.36842105       0.37037037       0.05882353 </v>
   <v>       0.42105263       0.37037037       0.05882353 </v>
   <v>       0.47368421       0.37037037       0.05882353 </v>
   <v>       0.00000000       0.40740741       0.05882353 </v>
   <v>       0.05263158       0.40740741       0.05882353 </v>
   <v>       0.10526316       0.40740741       0.05882353 </v>
   <v>       0.15789474       0.40740741       0.05882353 </v>
   <v>       0.21052632       0.40740741       0.05882353 </v>
   <v>       0.26315789       0.40740741       0.05882353 </v>
   <v>       0.31578947       0.40740741       0.05882353 </v>
   <v>       0.36842105       0.40740741       0.05882353 </v>
   <v>       0.42105263       0.40740741       0.05882353 </v>
   <v>       0.47368421       0.40740741       0.05882353 </v>
   <v>       0.00000000       0.44444444       0.05882353 </v>
   <v>       0.05263158       0.44444444       0.05882353 </v>
   <v>       0.10526316       0.44444444       0.05882353 </v>
   <v>       0.15789474       0.44444444       0.05882353 </v>
   <v>       0.21052632       0.44444444       0.05882353 </v>
   <v>       0.26315789       0.44444444       0.05882353 </v>
   <v>       0.31578947       0.44444444       0.05882353 </v>
   <v>       0.36842105       0.44444444       0.05882353 </v>
   <v>       0.42105263       0.44444444       0.05882353 </v>
   <v>       0.47368421       0.44444444       0.05882353 </v>
   <v>       0.00000000       0.48148148       0.05882353 </v>
   <v>       0.05263158       0.48148148       0.05882353 </v>
   <v>       0.10526316       0.48148148       0.05882353 </v>
   <v>       0.15789474       0.48148148       0.05882353 </v>
   <v>       0.21052632       0.48148148       0.05882353 </v>
   <v>       0.26315789       0.48148148       0.05882353 </v>
   <v>       0.31578947       0.48148148       0.05882353 </v>
   <v>       0.36842105       0.48148148       0.05882353 </v>
   <v>       0.42105263       0.48148148       0.05882353 </v>
   <v>       0.47368421       0.48148148       0.05882353 </v>
   <v>       0.00000000       0.00000000       0.11764706 </v>
   <v>       0.05263158       0.00000000       0.11764706 </v>
   <v>       0.10526316       0.00000000       0.11764706 </v>
   <v>       0.15789474       0.00000000       0.11764706 </v>
   <v>       0.21052632       0.00000000       0.11764706 </v>
   <v>       0.26315789       0.00000000       0.11764706 </v>
   <v>       0.31578947       0.00000000       0.11764706 </v>
   <v>       0.36842105       0.00000000       0.11764706 </v>
   <v>       0.42105263       0.00000000       0.11764706 </v>
   <v>       0.47368421       0.00000000       0.11764706 </v>
   <v>       0.00000000       0.03703704       0.11764706 </v>
   <v>       0.05263158       0.03703704       0.11764706 </v>
   <v>       0.10526316       0.03703704       0.11764706 </v>
   <v>       0.15789474       0.03703704       0.11764706 </v>
   <v>       0.21052632       0.03703704       0.11764706 </v>
   <v>       0.26315789       0.03703704       0.11764706 </v>
   <v>       0.31578947       0.03703704       0.11764706 </v>
   <v>       0.36842105       0.03703704       0.11764706 </v>
   <v>       0.42105263       0.03703704       0.11764706 </v>
   <v>       0.47368421       0.03703704       0.11764706 </v>
   <v>       0.00000000       0.07407407       0.11764706 </v>
   <v>       0.05263158       0.07407407       0.11764706 </v>
   <v>       0.10526316       0.07407407       0.11764706 </v>
   <v>       0.15789474       0.07407407       0.11764706 </v>
   <v>       0.21052632       0.07407407       0.11764706 </v>
   <v>       0.26315789       0.07407407       0.11764706 </v>
   <v>       0.31578947       0.07407407       0.11764706 </v>
   <v>       0.36842105       0.07407407       0.11764706 </v>
   <v>       0.42105263       0.07407407       0.11764706 </v>
   <v>       0.47368421       0.07407407       0.11764706 </v>
   <v>       0.00000000       0.11111111       0.11764706 </v>
   <v>       0.05263158       0.11111111       0.11764706 </v>
   <v>       0.10526316       0.11111111       0.11764706 </v>
   <v>       0.15789474       0.11111111       0.11764706 </v>
   <v>       0.21052632       0.11111111       0.11764706 </v>
   <v>       0.26315789       0.11111111       0.11764706 </v>
   <v>       0.31578947       0.11111111       0.11764706 </v>
   <v>       0.36842105       0.11111111       0.11764706 </v>
   <v>       0.42105263       0.11111111       0.11764706 </v>
   <v>       0.47368421       0.11111111       0.11764706 </v>
   <v>       0.00000000       0.14814815       0.11764706 </v>
   <v>       0.05263158       0.14814815       0.11764706 </v>
   <v>       0.10526316       0.14814815       0.11764706 </v>
   <v>       0.15789474       0.14814815       0.11764706 </v>
   <v>       0.21052632       0.14814815       0.11764706 </v>
   <v>       0.26315789       0.14814815       0.11764706 </v>
   <v>       0.31578947       0.14814815       0.11764706 </v>
   <v>       0.36842105       0.14814815       0.11764706 </v>
   <v>       0.42105263       0.14814815       0.11764706 </v>
   <v>       0.47368421       0.14814815       0.11764706 </v>
   <v>       0.00000000       0.18518519       0.11764706 </v>
   <v>       0.05263158       0.18518519       0.11764706 </v>
   <v>       0.10526316       0.18518519       0.11764706 </v>
   <v>       0.15789474       0.18518519       0.11764706 </v>
   <v>       0.21052632       0.18518519       0.11764706 </v>
   <v>       0.26315789       0.18518519       0.11764706 </v>
   <v>       0.31578947       0.18518519       0.11764706 </v>
   <v>       0.36842105       0.18518519       0.11764706 </v>
   <v>       0.42105263       0.18518519       0.11764706 </v>
   <v>       0.47368421       0.18518519       0.11764706 </v>
   <v>       0.00000000       0.22222222       0.11764706 </v>
   <v>       0.05263158       0.22222222       0.11764706 </v>
   <v>       0.10526316       0.22222222       0.11764706 </v>
   <v>       0.15789474       0.22222222       0.11764706 </v>
   <v>       0.21052632       0.22222222       0.11764706 </v>
   <v>       0.26315789       0.22222222       0.11764706 </v>
   <v>       0.31578947       0.22222222       0.11764706 </v>
   <v>       0.36842105       0.22222222       0.11764706 </v>
   <v>       0.42105263       0.22222222       0.11764706 </v>
   <v>       0.47368421       0.22222222       0.11764706 </v>
   <v>       0.00000000       0.25925926       0.11764706 </v>
   <v>       0.05263158       0.25925926       0.11764706 </v>
   <v>       0.10526316       0.25925926       0.11764706 </v>
   <v>       0.15789474       0.25925926       0.11764706 </v>
   <v>       0.21052632       0.25925926       0.11764706 </v>
   <v>       0.26315789       0.25925926       0.11764706 </v>
   <v>       0.31578947       0.25925926       0.11764706 </v>
   <v>       0.36842105       0.25925926       0.11764706 </v>
   <v>       0.42105263       0.25925926       0.11764706 </v>
   <v>       0.47368421       0.25925926       0.11764706 </v>
   <v>       0.00000000       0.29629630       0.11764706 </v>
   <v>       0.05263158       0.29629630       0.11764706 </v>
   <v>       0.10526316       0.29629630       0.11764706 </v>
   <v>       0.15789474       0.29629630       0.11764706 </v>
   <v>       0.21052632       0.29629630       0.11764706 </v>
   <v>       0.26315789       0.29629630       0.11764706 </v>
   <v>       0.31578947       0.29629630       0.11764706 </v>
   <v>       0.36842105       0.29629630       0.11764706 </v>
   <v>       0.42105263       0.29629630       0.11764706 </v>
   <v>       0.47368421       0.29629630       0.11764706 </v>
   <v>       0.00000000       0.33333333       0.11764706 </v>
   <v>       0.05263158       0.33333333       0.11764706 </v>
   <v>       0.10526316       0.33333333       0.11764706 </v>
   <v>       0.15789474       0.33333333       0.11764706 </v>
   <v>       0.21052632       0.33333333       0.11764706 </v>
   <v>       0.26315789       0.33333333       0.11764706 </v>
   <v>       0.31578947       0.33333333       0.11764706 </v>
   <v>       0.36842105       0.33333333       0.11764706 </v>
   <v>       0.42105263       0.33333333       0.11764706 </v>
   <v>       0.47368421       0.33333333       0.11764706 </v>
   <v>       0.00000000       0.37037037       0.11764706 </v>
   <v>       0.05263158       0.37037037       0.11764706 </v>
   <v>       0.10526316       0.37037037       0.11764706 </v>
   <v>       0.15789474       0.37037037       0.11764706 </v>
   <v>       0.21052632       0.37037037       0.11764706 </v>
   <v>       0.26315789       0.37037037       0.11764706 </v>
   <v>       0.31578947       0.37037037       0.11764706 </v>
   <v>       0.36842105       0.37037037       0.11764706 </v>
   <v>       0.42105263       0.37037037       0.11764706 </v>
   <v>       0.47368421       0.37037037       0.11764706 </v>
   <v>       0.00000000       0.40740741       0.11764706 </v>
   <v>       0.05263158       0.40740741       0.11764706 </v>
   <v>       0.10526316       0.40740741       0.11764706 </v>
   <v>       0.15789474       0.40740741       0.11764706 </v>
   <v>       0.21052632       0.40740741       0.11764706 </v>
   <v>       0.26315789       0.40740741       0.11764706 </v>
   <v>       0.31578947       0.40740741       0.11764706 </v>
   <v>       0.36842105       0.40740741       0.11764706 </v>
   <v>       0.42105263       0.40740741       0.11764706 </v>
   <v>       0.47368421       0.40740741       0.11764706 </v>
   <v>       0.00000000       0.44444444       0.11764706 </v>
   <v>       0.05263158       0.44444444       0.11764706 </v>
   <v>       0.10526316       0.44444444       0.11764706 </v>
   <v>       0.15789474       0.44444444       0.11764706 </v>
   <v>       0.21052632       0.44444444       0.11764706 </v>
   <v>       0.26315789       0.44444444       0.11764706 </v>
   <v>       0.31578947       0.44444444       0.11764706 </v>
   <v>       0.36842105       0.44444444       0.11764706 </v>
   <v>       0.42105263       0.44444444       0.11764706 </v>
   <v>       0.47368421       0.44444444       0.11764706 </v>
   <v>       0.00000000       0.48148148       0.11764706 </v>
   <v>       0.05263158       0.48148148       0.11764706 </v>
   <v>       0.10526316       0.48148148       0.11764706 </v>
   <v>       0.15789474       0.48148148       0.11764706 </v>
   <v>       0.21052632       0.48148148       0.11764706 </v>
   <v>       0.26315789       0.48148148       0.11764706 </v>
   <v>       0.31578947       0.48148148       0.11764706 </v>
   <v>       0.36842105       0.48148148       0.11764706 </v>
   <v>       0.42105263       0.48148148       0.11764706 </v>
   <v>       0.47368421       0.48148148       0.11764706 </v>
   <v>       0.00000000       0.00000000       0.17647059 </v>
   <v>       0.05263158       0.00000000       0.17647059 </v>
   <v>       0.10526316       0.00000000       0.17647059 </v>
   <v>       0.15789474       0.00000000       0.17647059 </v>
   <v>       0.21052632       0.00000000       0.17647059 </v>
   <v>       0.26315789       0.00000000       0.17647059 </v>
   <v>       0.31578947       0.00000000       0.17647059 </v>
   <v>       0.36842105       0.00000000       0.17647059 </v>
   <v>       0.42105263       0.00000000       0.17647059 </v>
   <v>       0.47368421       0.00000000       0.17647059 </v>
   <v>       0.00000000       0.03703704       0.17647059 </v>
   <v>       0.05263158       0.03703704       0.17647059 </v>
   <v>       0.10526316       0.03703704       0.17647059 </v>
   <v>       0.15789474       0.03703704       0.17647059 </v>
   <v>       0.21052632       0.03703704       0.17647059 </v>
   <v>       0.26315789       0.03703704       0.17647059 </v>
   <v>       0.31578947       0.03703704       0.17647059 </v>
   <v>       0.36842105       0.03703704       0.17647059 </v>
   <v>       0.42105263       0.03703704       0.17647059 </v>
   <v>       0.47368421       0.03703704       0.17647059 </v>
   <v>       0.00000000       0.07407407       0.17647059 </v>
   <v>       0.05263158       0.07407407       0.17647059 </v>
   <v>       0.10526316       0.07407407       0.17647059 </v>
   <v>       0.15789474       0.07407407       0.17647059 </v>
   <v>       0.21052632       0.07407407       0.17647059 </v>
   <v>       0.26315789       0.07407407       0.17647059 </v>
   <v>       0.31578947       0.07407407       0.17647059 </v>
   <v>       0.36842105       0.07407407       0.17647059 </v>
   <v>       0.42105263       0.07407407       0.17647059 </v>
   <v>       0.47368421       0.07407407       0.17647059 </v>
   <v>       0.00000000       0.11111111       0.17647059 </v>
   <v>       0.05263158       0.11111111       0.17647059 </v>
   <v>       0.10526316       0.11111111       0.17647059 </v>
   <v>       0.15789474       0.11111111       0.17647059 </v>
   <v>       0.21052632       0.11111111       0.17647059 </v>
   <v>       0.26315789       0.11111111       0.17647059 </v>
   <v>       0.31578947       0.11111111       0.17647059 </v>
   <v>       0.36842105       0.11111111       0.17647059 </v>
   <v>       0.42105263       0.11111111       0.17647059 </v>
   <v>       0.47368421       0.11111111       0.17647059 </v>
   <v>       0.00000000       0.14814815       0.17647059 </v>
   <v>       0.05263158       0.14814815       0.17647059 </v>
   <v>       0.10526316       0.14814815       0.17647059 </v>
   <v>       0.15789474       0.14814815       0.17647059 </v>
   <v>       0.21052632       0.14814815       0.17647059 </v>
   <v>       0.26315789       0.14814815       0.17647059 </v>
   <v>       0.31578947       0.14814815       0.17647059 </v>
   <v>       0.36842105       0.14814815       0.17647059 </v>
   <v>       0.42105263       0.14814815       0.17647059 </v>
   <v>       0.47368421       0.14814815       0.17647059 </v>
   <v>       0.00000000       0.18518519       0.17647059 </v>
   <v>       0.05263158       0.18518519       0.17647059 </v>
   <v>       0.10526316       0.18518519       0.17647059 </v>
   <v>       0.15789474       0.18518519       0.17647059 </v>
   <v>       0.21052632       0.18518519       0.17647059 </v>
   <v>       0.26315789       0.18518519       0.17647059 </v>
   <v>       0.31578947       0.18518519       0.17647059 </v>
   <v>       0.36842105       0.18518519       0.17647059 </v>
   <v>       0.42105263       0.18518519       0.17647059 </v>
   <v>       0.47368421       0.18518519       0.17647059 </v>
   <v>       0.00000000       0.22222222       0.17647059 </v>
   <v>       0.05263158       0.22222222       0.17647059 </v>
   <v>       0.10526316       0.22222222       0.17647059 </v>
   <v>       0.15789474       0.22222222       0.17647059 </v>
   <v>       0.21052632       0.22222222       0.17647059 </v>
   <v>       0.26315789       0.22222222       0.17647059 </v>
   <v>       0.31578947       0.22222222       0.17647059 </v>
   <v>       0.36842105       0.22222222       0.17647059 </v>
   <v>       0.42105263       0.22222222       0.17647059 </v>
   <v>       0.47368421       0.22222222       0.17647059 </v>
   <v>       0.00000000       0.25925926       0.17647059 </v>
   <v>       0.05263158       0.25925926       0.17647059 </v>
   <v>       0.10526316       0.25925926       0.17647059 </v>
   <v>       0.15789474       0.25925926       0.17647059 </v>
   <v>       0.21052632       0.25925926       0.17647059 </v>
   <v>       0.26315789       0.25925926       0.17647059 </v>
   <v>       0.31578947       0.25925926       0.17647059 </v>
   <v>       0.36842105       0.25925926       0.17647059 </v>
   <v>       0.42105263       0.25925926       0.17647059 </v>
   <v>       0.47368421       0.25925926       0.17647059 </v>
   <v>       0.00000000       0.29629630       0.17647059 </v>
   <v>       0.05263158       0.29629630       0.17647059 </v>
   <v>       0.10526316       0.29629630       0.17647059 </v>
   <v>       0.15789474       0.29629630       0.17647059 </v>
   <v>       0.21052632       0.29629630       0.17647059 </v>
   <v>       0.26315789       0.29629630       0.17647059 </v>
   <v>       0.31578947       0.29629630       0.17647059 </v>
   <v>       0.36842105       0.29629630       0.17647059 </v>
   <v>       0.42105263       0.29629630       0.17647059 </v>
   <v>       0.47368421       0.29629630       0.17647059 </v>
   <v>       0.00000000       0.33333333       0.17647059 </v>
   <v>       0.05263158       0.33333333       0.17647059 </v>
   <v>       0.10526316       0.33333333       0.17647059 </v>
   <v>       0.15789474       0.33333333       0.17647059 </v>
   <v>       0.21052632       0.33333333       0.17647059 </v>
   <v>       0.26315789       0.33333333       0.17647059 </v>
   <v>       0.31578947       0.33333333       0.17647059 </v>
   <v>       0.36842105       0.33333333       0.17647059 </v>
   <v>       0.42105263       0.33333333       0.17647059 </v>
   <v>       0.47368421       0.33333333       0.17647059 </v>
   <v>       0.00000000       0.37037037       0.17647059 </v>
   <v>       0.05263158       0.37037037       0.17647059 </v>
   <v>       0.10526316       0.37037037       0.17647059 </v>
   <v>       0.15789474       0.37037037       0.17647059 </v>
   <v>       0.21052632       0.37037037       0.17647059 </v>
   <v>       0.26315789       0.37037037       0.17647059 </v>
   <v>       0.31578947       0.37037037       0.17647059 </v>
   <v>       0.36842105       0.37037037       0.17647059 </v>
   <v>       0.42105263       0.37037037       0.17647059 </v>
   <v>       0.47368421       0.37037037       0.17647059 </v>
   <v>       0.00000000       0.40740741       0.17647059 </v>
   <v>       0.05263158       0.40740741       0.17647059 </v>
   <v>       0.10526316       0.40740741       0.17647059 </v>
   <v>       0.15789474       0.40740741       0.17647059 </v>
   <v>       0.21052632       0.40740741       0.17647059 </v>
   <v>       0.26315789       0.40740741       0.17647059 </v>
   <v>       0.31578947       0.40740741       0.17647059 </v>
   <v>       0.36842105       0.40740741       0.17647059 </v>
   <v>       0.42105263       0.40740741       0.17647059 </v>
   <v>       0.47368421       0.40740741       0.17647059 </v>
   <v>       0.00000000       0.44444444       0.17647059 </v>
   <v>       0.05263158       0.44444444       0.17647059 </v>
   <v>       0.10526316       0.44444444       0.17647059 </v>
   <v>       0.15789474       0.44444444       0.17647059 </v>
   <v>       0.21052632       0.44444444       0.17647059 </v>
   <v>       0.26315789       0.44444444       0.17647059 </v>
   <v>       0.31578947       0.44444444       0.17647059 </v>
   <v>       0.36842105       0.44444444       0.17647059 </v>
   <v>       0.42105263       0.44444444       0.17647059 </v>
   <v>       0.47368421       0.44444444       0.17647059 </v>
   <v>       0.00000000       0.48148148       0.17647059 </v>
   <v>       0.05263158       0.48148148       0.17647059 </v>
   <v>       0.10526316       0.48148148       0.17647059 </v>
   <v>       0.15789474       0.48148148       0.17647059 </v>
   <v>       0.21052632       0.48148148       0.17647059 </v>
   <v>       0.26315789       0.48148148       0.17647059 </v>
   <v>       0.31578947       0.48148148       0.17647059 </v>
   <v>       0.36842105       0.48148148       0.17647059 </v>
   <v>       0.42105263       0.48148148       0.17647059 </v>
   <v>       0.47368421       0.48148148       0.17647059 </v>
   <v>       0.00000000       0.00000000       0.23529412 </v>
   <v>       0.05263158       0.00000000       0.23529412 </v>
   <v>       0.10526316       0.00000000       0.23529412 </v>
   <v>       0.15789474       0.00000000       0.23529412 </v>
   <v>       0.21052632       0.00000000       0.23529412 </v>
   <v>       0.26315789       0.00000000       0.23529412 </v>
   <v>       0.31578947       0.00000000       0.23529412 </v>
   <v>       0.36842105       0.00000000       0.23529412 </v>
   <v>       0.42105263       0.00000000       0.23529412 </v>
   <v>       0.47368421       0.00000000       0.23529412 </v>
   <v>       0.00000000       0.03703704       0.23529412 </v>
   <v>       0.05263158       0.03703704       0.23529412 </v>
   <v>       0.10526316       0.03703704       0.23529412 </v>
   <v>       0.15789474       0.03703704       0.23529412 </v>
   <v>       0.21052632       0.03703704       0.23529412 </v>
   <v>       0.26315789       0.03703704       0.23529412 </v>
   <v>       0.31578947       0.03703704       0.23529412 </v>
   <v>       0.36842105       0.03703704       0.23529412 </v>
   <v>       0.42105263       0.03703704       0.23529412 </v>
   <v>       0.47368421       0.03703704       0.23529412 </v>
   <v>       0.00000000       0.07407407       0.23529412 </v>
   <v>       0.05263158       0.07407407       0.23529412 </v>
   <v>       0.10526316       0.07407407       0.23529412 </v>
   <v>       0.15789474       0.07407407       0.23529412 </v>
   <v>       0.21052632       0.07407407       0.23529412 </v>
   <v>       0.26315789       0.07407407       0.23529412 </v>
   <v>       0.31578947       0.07407407       0.23529412 </v>
   <v>       0.36842105       0.07407407       0.23529412 </v>
   <v>       0.42105263       0.07407407       0.23529412 </v>
   <v>       0.47368421       0.07407407       0.23529412 </v>
   <v>       0.00000000       0.11111111       0.23529412 </v>
   <v>       0.05263158       0.11111111       0.23529412 </v>
   <v>       0.10526316       0.11111111       0.23529412 </v>
   <v>       0.15789474       0.11111111       0.23529412 </v>
   <v>       0.21052632       0.11111111       0.23529412 </v>
   <v>       0.26315789       0.11111111       0.23529412 </v>
   <v>       0.31578947       0.11111111       0.23529412 </v>
   <v>       0.36842105       0.11111111       0.23529412 </v>
   <v>       0.42105263       0.11111111       0.23529412 </v>
   <v>       0.47368421       0.11111111       0.23529412 </v>
   <v>       0.00000000       0.14814815       0.23529412 </v>
   <v>       0.05263158       0.14814815       0.23529412 </v>
   <v>       0.10526316       0.14814815       0.23529412 </v>
   <v>       0.15789474       0.14814815       0.23529412 </v>
   <v>       0.21052632       0.14814815       0.23529412 </v>
   <v>       0.26315789       0.14814815       0.23529412 </v>
   <v>       0.31578947       0.14814815       0.23529412 </v>
   <v>       0.36842105       0.14814815       0.23529412 </v>
   <v>       0.42105263       0.14814815       0.23529412 </v>
   <v>       0.47368421       0.14814815       0.23529412 </v>
   <v>       0.00000000       0.18518519       0.23529412 </v>
   <v>       0.05263158       0.18518519       0.23529412 </v>
   <v>       0.10526316       0.18518519       0.23529412 </v>
   <v>       0.15789474       0.18518519       0.23529412 </v>
   <v>       0.21052632       0.18518519       0.23529412 </v>
   <v>       0.26315789       0.18518519       0.23529412 </v>
   <v>       0.31578947       0.18518519       0.23529412 </v>
   <v>       0.36842105       0.18518519       0.23529412 </v>
   <v>       0.42105263       0.18518519       0.23529412 </v>
   <v>       0.47368421       0.18518519       0.23529412 </v>
   <v>       0.00000000       0.22222222       0.23529412 </v>
   <v>       0.05263158       0.22222222       0.23529412 </v>
   <v>       0.10526316       0.22222222       0.23529412 </v>
   <v>       0.15789474       0.22222222       0.23529412 </v>
   <v>       0.21052632       0.22222222       0.23529412 </v>
   <v>       0.26315789       0.22222222       0.23529412 </v>
   <v>       0.31578947       0.22222222       0.23529412 </v>
   <v>       0.36842105       0.22222222       0.23529412 </v>
   <v>       0.42105263       0.22222222       0.23529412 </v>
   <v>       0.47368421       0.22222222       0.23529412 </v>
   <v>       0.00000000       0.25925926       0.23529412 </v>
   <v>       0.05263158       0.25925926       0.23529412 </v>
   <v>       0.10526316       0.25925926       0.23529412 </v>
   <v>       0.15789474       0.25925926       0.23529412 </v>
   <v>       0.21052632       0.25925926       0.23529412 </v>
   <v>       0.26315789       0.25925926       0.23529412 </v>
   <v>       0.31578947       0.25925926       0.23529412 </v>
   <v>       0.36842105       0.25925926       0.23529412 </v>
   <v>       0.42105263       0.25925926       0.23529412 </v>
   <v>       0.47368421       0.25925926       0.23529412 </v>
   <v>       0.00000000       0.29629630       0.23529412 </v>
   <v>       0.05263158       0.29629630       0.23529412 </v>
   <v>       0.10526316       0.29629630       0.23529412 </v>
   <v>       0.15789474       0.29629630       0.23529412 </v>
   <v>       0.21052632       0.29629630       0.23529412 </v>
   <v>       0.26315789       0.29629630       0.23529412 </v>
   <v>       0.31578947       0.29629630       0.23529412 </v>
   <v>       0.36842105       0.29629630       0.23529412 </v>
   <v>       0.42105263       0.29629630       0.23529412 </v>
   <v>       0.47368421       0.29629630       0.23529412 </v>
   <v>       0.00000000       0.33333333       0.23529412 </v>
   <v>       0.05263158       0.33333333       0.23529412 </v>
   <v>       0.10526316       0.33333333       0.23529412 </v>
   <v>       0.15789474       0.33333333       0.23529412 </v>
   <v>       0.21052632       0.33333333       0.23529412 </v>
   <v>       0.26315789       0.33333333       0.23529412 </v>
   <v>       0.31578947       0.33333333       0.23529412 </v>
   <v>       0.36842105       0.33333333       0.23529412 </v>
   <v>       0.42105263       0.33333333       0.23529412 </v>
   <v>       0.47368421       0.33333333       0.23529412 </v>
   <v>       0.00000000       0.37037037       0.23529412 </v>
   <v>       0.05263158       0.37037037       0.23529412 </v>
   <v>       0.10526316       0.37037037       0.23529412 </v>
   <v>       0.15789474       0.37037037       0.23529412 </v>
   <v>       0.21052632       0.37037037       0.23529412 </v>
   <v>       0.26315789       0.37037037       0.23529412 </v>
   <v>       0.31578947       0.37037037       0.23529412 </v>
   <v>       0.36842105       0.37037037       0.23529412 </v>
   <v>       0.42105263       0.37037037       0.23529412 </v>
   <v>       0.47368421       0.37037037       0.23529412 </v>
   <v>       0.00000000       0.40740741       0.23529412 </v>
   <v>       0.05263158       0.40740741       0.23529412 </v>
   <v>       0.10526316       0.40740741       0.23529412 </v>
   <v>       0.15789474       0.40740741       0.23529412 </v>
   <v>       0.21052632       0.40740741       0.23529412 </v>
   <v>       0.26315789       0.40740741       0.23529412 </v>
   <v>       0.31578947       0.40740741       0.23529412 </v>
   <v>       0.36842105       0.40740741       0.23529412 </v>
   <v>       0.42105263       0.40740741       0.23529412 </v>
   <v>       0.47368421       0.40740741       0.23529412 </v>
   <v>       0.00000000       0.44444444       0.23529412 </v>
   <v>       0.05263158       0.44444444       0.23529412 </v>
   <v>       0.10526316       0.44444444       0.23529412 </v>
   <v>       0.15789474       0.44444444       0.23529412 </v>
   <v>       0.21052632       0.44444444       0.23529412 </v>
   <v>       0.26315789       0.44444444       0.23529412 </v>
   <v>       0.31578947       0.44444444       0.23529412 </v>
   <v>       0.36842105       0.44444444       0.23529412 </v>
   <v>       0.42105263       0.44444444       0.23529412 </v>
   <v>       0.47368421       0.44444444       0.23529412 </v>
   <v>       0.00000000       0.48148148       0.23529412 </v>
   <v>       0.05263158       0.48148148       0.23529412 </v>
   <v>       0.10526316       0.48148148       0.23529412 </v>
   <v>       0.15789474       0.48148148       0.23529412 </v>
   <v>       0.21052632       0.48148148       0.23529412 </v>
   <v>       0.26315789       0.48148148       0.23529412 </v>
   <v>       0.31578947       0.48148148       0.23529412 </v>
   <v>       0.36842105       0.48148148       0.23529412 </v>
   <v>       0.42105263       0.48148148       0.23529412 </v>
   <v>       0.47368421       0.48148148       0.23529412 </v>
   <v>       0.00000000       0.00000000       0.29411765 </v>
   <v>       0.05263158       0.00000000       0.29411765 </v>
   <v>       0.10526316       0.00000000       0.29411765 </v>
   <v>       0.15789474       0.00000000       0.29411765 </v>
   <v>       0.21052632       0.00000000       0.29411765 </v>
   <v>       0.26315789       0.00000000       0.29411765 </v>
   <v>       0.31578947       0.00000000       0.29411765 </v>
   <v>       0.36842105       0.00000000       0.29411765 </v>
   <v>       0.42105263       0.00000000       0.29411765 </v>
   <v>       0.47368421       0.00000000       0.29411765 </v>
   <v>       0.00000000       0.03703704       0.29411765 </v>
   <v>       0.05263158       0.03703704       0.29411765 </v>
   <v>       0.10526316       0.03703704       0.29411765 </v>
   <v>       0.15789474       0.03703704       0.29411765 </v>
   <v>       0.21052632       0.03703704       0.29411765 </v>
   <v>       0.26315789       0.03703704       0.29411765 </v>
   <v>       0.31578947       0.03703704       0.29411765 </v>
   <v>       0.36842105       0.03703704       0.29411765 </v>
   <v>       0.42105263       0.03703704       0.29411765 </v>
   <v>       0.47368421       0.03703704       0.29411765 </v>
   <v>       0.00000000       0.07407407       0.29411765 </v>
   <v>       0.05263158       0.07407407       0.29411765 </v>
   <v>       0.10526316       0.07407407       0.29411765 </v>
   <v>       0.15789474       0.07407407       0.29411765 </v>
   <v>       0.21052632       0.07407407       0.29411765 </v>
   <v>       0.26315789       0.07407407       0.29411765 </v>
   <v>       0.31578947       0.07407407       0.29411765 </v>
   <v>       0.36842105       0.07407407       0.29411765 </v>
   <v>       0.42105263       0.07407407       0.29411765 </v>
   <v>       0.47368421       0.07407407       0.29411765 </v>
   <v>       0.00000000       0.11111111       0.29411765 </v>
   <v>       0.05263158       0.11111111       0.29411765 </v>
   <v>       0.10526316       0.11111111       0.29411765 </v>
   <v>       0.15789474       0.11111111       0.29411765 </v>
   <v>       0.21052632       0.11111111       0.29411765 </v>
   <v>       0.26315789       0.11111111       0.29411765 </v>
   <v>       0.31578947       0.11111111       0.29411765 </v>
   <v>       0.36842105       0.11111111       0.29411765 </v>
   <v>       0.42105263       0.11111111       0.29411765 </v>
   <v>       0.47368421       0.11111111       0.29411765 </v>
   <v>       0.00000000       0.14814815       0.29411765 </v>
   <v>       0.05263158       0.14814815       0.29411765 </v>
   <v>       0.10526316       0.14814815       0.29411765 </v>
   <v>       0.15789474       0.14814815       0.29411765 </v>
   <v>       0.21052632       0.14814815       0.29411765 </v>
   <v>       0.26315789       0.14814815       0.29411765 </v>
   <v>       0.31578947       0.14814815       0.29411765 </v>
   <v>       0.36842105       0.14814815       0.29411765 </v>
   <v>       0.42105263       0.14814815       0.29411765 </v>
   <v>       0.47368421       0.14814815       0.29411765 </v>
   <v>       0.00000000       0.18518519       0.29411765 </v>
   <v>       0.05263158       0.18518519       0.29411765 </v>
   <v>       0.10526316       0.18518519       0.29411765 </v>
   <v>       0.15789474       0.18518519       0.29411765 </v>
   <v>       0.21052632       0.18518519       0.29411765 </v>
   <v>       0.26315789       0.18518519       0.29411765 </v>
   <v>       0.31578947       0.18518519       0.29411765 </v>
   <v>       0.36842105       0.18518519       0.29411765 </v>
   <v>       0.42105263       0.18518519       0.29411765 </v>
   <v>       0.47368421       0.18518519       0.29411765 </v>
   <v>       0.00000000       0.22222222       0.29411765 </v>
   <v>       0.05263158       0.22222222       0.29411765 </v>
   <v>       0.10526316       0.22222222       0.29411765 </v>
   <v>       0.15789474       0.22222222       0.29411765 </v>
   <v>       0.21052632       0.22222222       0.29411765 </v>
   <v>       0.26315789       0.22222222       0.29411765 </v>
   <v>       0.31578947       0.22222222       0.29411765 </v>
   <v>       0.36842105       0.22222222       0.29411765 </v>
   <v>       0.42105263       0.22222222       0.29411765 </v>
   <v>       0.47368421       0.22222222       0.29411765 </v>
   <v>       0.00000000       0.25925926       0.29411765 </v>
   <v>       0.05263158       0.25925926       0.29411765 </v>
   <v>       0.10526316       0.25925926       0.29411765 </v>
   <v>       0.15789474       0.25925926       0.29411765 </v>
   <v>       0.21052632       0.25925926       0.29411765 </v>
   <v>       0.26315789       0.25925926       0.29411765 </v>
   <v>       0.31578947       0.25925926       0.29411765 </v>
   <v>       0.36842105       0.25925926       0.29411765 </v>
   <v>       0.42105263       0.25925926       0.29411765 </v>
   <v>       0.47368421       0.25925926       0.29411765 </v>
   <v>       0.00000000       0.29629630       0.29411765 </v>
   <v>       0.05263158       0.29629630       0.29411765 </v>
   <v>       0.10526316       0.29629630       0.29411765 </v>
   <v>       0.15789474       0.29629630       0.29411765 </v>
   <v>       0.21052632       0.29629630       0.29411765 </v>
   <v>       0.26315789       0.29629630       0.29411765 </v>
   <v>       0.31578947       0.29629630       0.29411765 </v>
   <v>       0.36842105       0.29629630       0.29411765 </v>
   <v>       0.42105263       0.29629630       0.29411765 </v>
   <v>       0.47368421       0.29629630       0.29411765 </v>
   <v>       0.00000000       0.33333333       0.29411765 </v>
   <v>       0.05263158       0.33333333       0.29411765 </v>
   <v>       0.10526316       0.33333333       0.29411765 </v>
   <v>       0.15789474       0.33333333       0.29411765 </v>
   <v>       0.21052632       0.33333333       0.29411765 </v>
   <v>       0.26315789       0.33333333       0.29411765 </v>
   <v>       0.31578947       0.33333333       0.29411765 </v>
   <v>       0.36842105       0.33333333       0.29411765 </v>
   <v>       0.42105263       0.33333333       0.29411765 </v>
   <v>       0.47368421       0.33333333       0.29411765 </v>
   <v>       0.00000000       0.37037037       0.29411765 </v>
   <v>       0.05263158       0.37037037       0.29411765 </v>
   <v>       0.10526316       0.37037037       0.29411765 </v>
   <v>       0.15789474       0.37037037       0.29411765 </v>
   <v>       0.21052632       0.37037037       0.29411765 </v>
   <v>       0.26315789       0.37037037       0.29411765 </v>
   <v>       0.31578947       0.37037037       0.29411765 </v>
   <v>       0.36842105       0.37037037       0.29411765 </v>
   <v>       0.42105263       0.37037037       0.29411765 </v>
   <v>       0.47368421       0.37037037       0.29411765 </v>
   <v>       0.00000000       0.40740741       0.29411765 </v>
   <v>       0.05263158       0.40740741       0.29411765 </v>
   <v>       0.10526316       0.40740741       0.29411765 </v>
   <v>       0.15789474       0.40740741       0.29411765 </v>
   <v>       0.21052632       0.40740741       0.29411765 </v>
   <v>       0.26315789       0.40740741       0.29411765 </v>
   <v>       0.31578947       0.40740741       0.29411765 </v>
   <v>       0.36842105       0.40740741       0.29411765 </v>
   <v>       0.42105263       0.40740741       0.29411765 </v>
   <v>       0.47368421       0.40740741       0.29411765 </v>
   <v>       0.00000000       0.44444444       0.29411765 </v>
   <v>       0.05263158       0.44444444       0.29411765 </v>
   <v>       0.10526316       0.44444444       0.29411765 </v>
   <v>       0.15789474       0.44444444       0.29411765 </v>
   <v>       0.21052632       0.44444444       0.29411765 </v>
   <v>       0.26315789       0.44444444       0.29411765 </v>
   <v>       0.31578947       0.44444444       0.29411765 </v>
   <v>       0.36842105       0.44444444       0.29411765 </v>
   <v>       0.42105263       0.44444444       0.29411765 </v>
   <v>       0.47368421       0.44444444       0.29411765 </v>
   <v>       0.00000000       0.48148148       0.29411765 </v>
   <v>       0.05263158       0.48148148       0.29411765 </v>
   <v>       0.10526316       0.48148148       0.29411765 </v>
   <v>       0.15789474       0.48148148       0.29411765 </v>
   <v>       0.21052632       0.48148148       0.29411765 </v>
   <v>       0.26315789       0.48148148       0.29411765 </v>
   <v>       0.31578947       0.48148148       0.29411765 </v>
   <v>       0.36842105       0.48148148       0.29411765 </v>
   <v>       0.42105263       0.48148148       0.29411765 </v>
   <v>       0.47368421       0.48148148       0.29411765 </v>
   <v>       0.00000000       0.00000000       0.35294118 </v>
   <v>       0.05263158       0.00000000       0.35294118 </v>
   <v>       0.10526316       0.00000000       0.35294118 </v>
   <v>       0.15789474       0.00000000       0.35294118 </v>
   <v>       0.21052632       0.00000000       0.35294118 </v>
   <v>       0.26315789       0.00000000       0.35294118 </v>
   <v>       0.31578947       0.00000000       0.35294118 </v>
   <v>       0.36842105       0.00000000       0.35294118 </v>
   <v>       0.42105263       0.00000000       0.35294118 </v>
   <v>       0.47368421       0.00000000       0.35294118 </v>
   <v>       0.00000000       0.03703704       0.35294118 </v>
   <v>       0.05263158       0.03703704       0.35294118 </v>
   <v>       0.10526316       0.03703704       0.35294118 </v>
   <v>       0.15789474       0.03703704       0.35294118 </v>
   <v>       0.21052632       0.03703704       0.35294118 </v>
   <v>       0.26315789       0.03703704       0.35294118 </v>
   <v>       0.31578947       0.03703704       0.35294118 </v>
   <v>       0.36842105       0.03703704       0.35294118 </v>
   <v>       0.42105263       0.03703704       0.35294118 </v>
   <v>       0.47368421       0.03703704       0.35294118 </v>
   <v>       0.00000000       0.07407407       0.35294118 </v>
   <v>       0.05263158       0.07407407       0.35294118 </v>
   <v>       0.10526316       0.07407407       0.35294118 </v>
   <v>       0.15789474       0.07407407       0.35294118 </v>
   <v>       0.21052632       0.07407407       0.35294118 </v>
   <v>       0.26315789       0.07407407       0.35294118 </v>
   <v>       0.31578947       0.07407407       0.35294118 </v>
   <v>       0.36842105       0.07407407       0.35294118 </v>
   <v>       0.42105263       0.07407407       0.35294118 </v>
   <v>       0.47368421       0.07407407       0.35294118 </v>
   <v>       0.00000000       0.11111111       0.35294118 </v>
   <v>       0.05263158       0.11111111       0.35294118 </v>
   <v>       0.10526316       0.11111111       0.35294118 </v>
   <v>       0.15789474       0.11111111       0.35294118 </v>
   <v>       0.21052632       0.11111111       0.35294118 </v>
   <v>       0.26315789       0.11111111       0.35294118 </v>
   <v>       0.31578947       0.11111111       0.35294118 </v>
   <v>       0.36842105       0.11111111       0.35294118 </v>
   <v>       0.42105263       0.11111111       0.35294118 </v>
   <v>       0.47368421       0.11111111       0.35294118 </v>
   <v>       0.00000000       0.14814815       0.35294118 </v>
   <v>       0.05263158       0.14814815       0.35294118 </v>
   <v>       0.10526316       0.14814815       0.35294118 </v>
   <v>       0.15789474       0.14814815       0.35294118 </v>
   <v>       0.21052632       0.14814815       0.35294118 </v>
   <v>       0.26315789       0.14814815       0.35294118 </v>
   <v>       0.31578947       0.14814815       0.35294118 </v>
   <v>       0.36842105       0.14814815       0.35294118 </v>
   <v>       0.42105263       0.14814815       0.35294118 </v>
   <v>       0.47368421       0.14814815       0.35294118 </v>
   <v>       0.00000000       0.18518519       0.35294118 </v>
   <v>       0.05263158       0.18518519       0.35294118 </v>
   <v>       0.10526316       0.18518519       0.35294118 </v>
   <v>       0.15789474       0.18518519       0.35294118 </v>
   <v>       0.21052632       0.18518519       0.35294118 </v>
   <v>       0.26315789       0.18518519       0.35294118 </v>
   <v>       0.31578947       0.18518519       0.35294118 </v>
   <v>       0.36842105       0.18518519       0.35294118 </v>
   <v>       0.42105263       0.18518519       0.35294118 </v>
   <v>       0.47368421       0.18518519       0.35294118 </v>
   <v>       0.00000000       0.22222222       0.35294118 </v>
   <v>       0.05263158       0.22222222       0.35294118 </v>
   <v>       0.10526316       0.22222222       0.35294118 </v>
   <v>       0.15789474       0.22222222       0.35294118 </v>
   <v>       0.21052632       0.22222222       0.35294118 </v>
   <v>       0.26315789       0.22222222       0.35294118 </v>
   <v>       0.31578947       0.22222222       0.35294118 </v>
   <v>       0.36842105       0.22222222       0.35294118 </v>
   <v>       0.42105263       0.22222222       0.35294118 </v>
   <v>       0.47368421       0.22222222       0.35294118 </v>
   <v>       0.00000000       0.25925926       0.35294118 </v>
   <v>       0.05263158       0.25925926       0.35294118 </v>
   <v>       0.10526316       0.25925926       0.35294118 </v>
   <v>       0.15789474       0.25925926       0.35294118 </v>
   <v>       0.21052632       0.25925926       0.35294118 </v>
   <v>       0.26315789       0.25925926       0.35294118 </v>
   <v>       0.31578947       0.25925926       0.35294118 </v>
   <v>       0.36842105       0.25925926       0.35294118 </v>
   <v>       0.42105263       0.25925926       0.35294118 </v>
   <v>       0.47368421       0.25925926       0.35294118 </v>
   <v>       0.00000000       0.29629630       0.35294118 </v>
   <v>       0.05263158       0.29629630       0.35294118 </v>
   <v>       0.10526316       0.29629630       0.35294118 </v>
   <v>       0.15789474       0.29629630       0.35294118 </v>
   <v>       0.21052632       0.29629630       0.35294118 </v>
   <v>       0.26315789       0.29629630       0.35294118 </v>
   <v>       0.31578947       0.29629630       0.35294118 </v>
   <v>       0.36842105       0.29629630       0.35294118 </v>
   <v>       0.42105263       0.29629630       0.35294118 </v>
   <v>       0.47368421       0.29629630       0.35294118 </v>
   <v>       0.00000000       0.33333333       0.35294118 </v>
   <v>       0.05263158       0.33333333       0.35294118 </v>
   <v>       0.10526316       0.33333333       0.35294118 </v>
   <v>       0.15789474       0.33333333       0.35294118 </v>
   <v>       0.21052632       0.33333333       0.35294118 </v>
   <v>       0.26315789       0.33333333       0.35294118 </v>
   <v>       0.31578947       0.33333333       0.35294118 </v>
   <v>       0.36842105       0.33333333       0.35294118 </v>
   <v>       0.42105263       0.33333333       0.35294118 </v>
   <v>       0.47368421       0.33333333       0.35294118 </v>
   <v>       0.00000000       0.37037037       0.35294118 </v>
   <v>       0.05263158       0.37037037       0.35294118 </v>
   <v>       0.10526316       0.37037037       0.35294118 </v>
   <v>       0.15789474       0.37037037       0.35294118 </v>
   <v>       0.21052632       0.37037037       0.35294118 </v>
   <v>       0.26315789       0.37037037       0.35294118 </v>
   <v>       0.31578947       0.37037037       0.35294118 </v>
   <v>       0.36842105       0.37037037       0.35294118 </v>
   <v>       0.42105263       0.37037037       0.35294118 </v>
   <v>       0.47368421       0.37037037       0.35294118 </v>
   <v>       0.00000000       0.40740741       0.35294118 </v>
   <v>       0.05263158       0.40740741       0.35294118 </v>
   <v>       0.10526316       0.40740741       0.35294118 </v>
   <v>       0.15789474       0.40740741       0.35294118 </v>
   <v>       0.21052632       0.40740741       0.35294118 </v>
   <v>       0.26315789       0.40740741       0.35294118 </v>
   <v>       0.31578947       0.40740741       0.35294118 </v>
   <v>       0.36842105       0.40740741       0.35294118 </v>
   <v>       0.42105263       0.40740741       0.35294118 </v>
   <v>       0.47368421       0.40740741       0.35294118 </v>
   <v>       0.00000000       0.44444444       0.35294118 </v>
   <v>       0.05263158       0.44444444       0.35294118 </v>
   <v>       0.10526316       0.44444444       0.35294118 </v>
   <v>       0.15789474       0.44444444       0.35294118 </v>
   <v>       0.21052632       0.44444444       0.35294118 </v>
   <v>       0.26315789       0.44444444       0.35294118 </v>
   <v>       0.31578947       0.44444444       0.35294118 </v>
   <v>       0.36842105       0.44444444       0.35294118 </v>
   <v>       0.42105263       0.44444444       0.35294118 </v>
   <v>       0.47368421       0.44444444       0.35294118 </v>
   <v>       0.00000000       0.48148148       0.35294118 </v>
   <v>       0.05263158       0.48148148       0.35294118 </v>
   <v>       0.10526316       0.48148148       0.35294118 </v>
   <v>       0.15789474       0.48148148       0.35294118 </v>
   <v>       0.21052632       0.48148148       0.35294118 </v>
   <v>       0.26315789       0.48148148       0.35294118 </v>
   <v>       0.31578947       0.48148148       0.35294118 </v>
   <v>       0.36842105       0.48148148       0.35294118 </v>
   <v>       0.42105263       0.48148148       0.35294118 </v>
   <v>       0.47368421       0.48148148       0.35294118 </v>
   <v>       0.00000000       0.00000000       0.41176471 </v>
   <v>       0.05263158       0.00000000       0.41176471 </v>
   <v>       0.10526316       0.00000000       0.41176471 </v>
   <v>       0.15789474       0.00000000       0.41176471 </v>
   <v>       0.21052632       0.00000000       0.41176471 </v>
   <v>       0.26315789       0.00000000       0.41176471 </v>
   <v>       0.31578947       0.00000000       0.41176471 </v>
   <v>       0.36842105       0.00000000       0.41176471 </v>
   <v>       0.42105263       0.00000000       0.41176471 </v>
   <v>       0.47368421       0.00000000       0.41176471 </v>
   <v>       0.00000000       0.03703704       0.41176471 </v>
   <v>       0.05263158       0.03703704       0.41176471 </v>
   <v>       0.10526316       0.03703704       0.41176471 </v>
   <v>       0.15789474       0.03703704       0.41176471 </v>
   <v>       0.21052632       0.03703704       0.41176471 </v>
   <v>       0.26315789       0.03703704       0.41176471 </v>
   <v>       0.31578947       0.03703704       0.41176471 </v>
   <v>       0.36842105       0.03703704       0.41176471 </v>
   <v>       0.42105263       0.03703704       0.41176471 </v>
   <v>       0.47368421       0.03703704       0.41176471 </v>
   <v>       0.00000000       0.07407407       0.41176471 </v>
   <v>       0.05263158       0.07407407       0.41176471 </v>
   <v>       0.10526316       0.07407407       0.41176471 </v>
   <v>       0.15789474       0.07407407       0.41176471 </v>
   <v>       0.21052632       0.07407407       0.41176471 </v>
   <v>       0.26315789       0.07407407       0.41176471 </v>
   <v>       0.31578947       0.07407407       0.41176471 </v>
   <v>       0.36842105       0.07407407       0.41176471 </v>
   <v>       0.42105263       0.07407407       0.41176471 </v>
   <v>       0.47368421       0.07407407       0.41176471 </v>
   <v>       0.00000000       0.11111111       0.41176471 </v>
   <v>       0.05263158       0.11111111       0.41176471 </v>
   <v>       0.10526316       0.11111111       0.41176471 </v>
   <v>       0.15789474       0.11111111       0.41176471 </v>
   <v>       0.21052632       0.11111111       0.41176471 </v>
   <v>       0.26315789       0.11111111       0.41176471 </v>
   <v>       0.31578947       0.11111111       0.41176471 </v>
   <v>       0.36842105       0.11111111       0.41176471 </v>
   <v>       0.42105263       0.11111111       0.41176471 </v>
   <v>       0.47368421       0.11111111       0.41176471 </v>
   <v>       0.00000000       0.14814815       0.41176471 </v>
   <v>       0.05263158       0.14814815       0.41176471 </v>
   <v>       0.10526316       0.14814815       0.41176471 </v>
   <v>       0.15789474       0.14814815       0.41176471 </v>
   <v>       0.21052632       0.14814815       0.41176471 </v>
   <v>       0.26315789       0.14814815       0.41176471 </v>
   <v>       0.31578947       0.14814815       0.41176471 </v>
   <v>       0.36842105       0.14814815       0.41176471 </v>
   <v>       0.42105263       0.14814815       0.41176471 </v>
   <v>       0.47368421       0.14814815       0.41176471 </v>
   <v>       0.00000000       0.18518519       0.41176471 </v>
   <v>       0.05263158       0.18518519       0.41176471 </v>
   <v>       0.10526316       0.18518519       0.41176471 </v>
   <v>       0.15789474       0.18518519       0.41176471 </v>
   <v>       0.21052632       0.18518519       0.41176471 </v>
   <v>       0.26315789       0.18518519       0.41176471 </v>
   <v>       0.31578947       0.18518519       0.41176471 </v>
   <v>       0.36842105       0.18518519       0.41176471 </v>
   <v>       0.42105263       0.18518519       0.41176471 </v>
   <v>       0.47368421       0.18518519       0.41176471 </v>
   <v>       0.00000000       0.22222222       0.41176471 </v>
   <v>       0.05263158       0.22222222       0.41176471 </v>
   <v>       0.10526316       0.22222222       0.41176471 </v>
   <v>       0.15789474       0.22222222       0.41176471 </v>
   <v>       0.21052632       0.22222222       0.41176471 </v>
   <v>       0.26315789       0.22222222       0.41176471 </v>
   <v>       0.31578947       0.22222222       0.41176471 </v>
   <v>       0.36842105       0.22222222       0.41176471 </v>
   <v>       0.42105263       0.22222222       0.41176471 </v>
   <v>       0.47368421       0.22222222       0.41176471 </v>
   <v>       0.00000000       0.25925926       0.41176471 </v>
   <v>       0.05263158       0.25925926       0.41176471 </v>
   <v>       0.10526316       0.25925926       0.41176471 </v>
   <v>       0.15789474       0.25925926       0.41176471 </v>
   <v>       0.21052632       0.25925926       0.41176471 </v>
   <v>       0.26315789       0.25925926       0.41176471 </v>
   <v>       0.31578947       0.25925926       0.41176471 </v>
   <v>       0.36842105       0.25925926       0.41176471 </v>
   <v>       0.42105263       0.25925926       0.41176471 </v>
   <v>       0.47368421       0.25925926       0.41176471 </v>
   <v>       0.00000000       0.29629630       0.41176471 </v>
   <v>       0.05263158       0.29629630       0.41176471 </v>
   <v>       0.10526316       0.29629630       0.41176471 </v>
   <v>       0.15789474       0.29629630       0.41176471 </v>
   <v>       0.21052632       0.29629630       0.41176471 </v>
   <v>       0.26315789       0.29629630       0.41176471 </v>
   <v>       0.31578947       0.29629630       0.41176471 </v>
   <v>       0.36842105       0.29629630       0.41176471 </v>
   <v>       0.42105263       0.29629630       0.41176471 </v>
   <v>       0.47368421       0.29629630       0.41176471 </v>
   <v>       0.00000000       0.33333333       0.41176471 </v>
   <v>       0.05263158       0.33333333       0.41176471 </v>
   <v>       0.10526316       0.33333333       0.41176471 </v>
   <v>       0.15789474       0.33333333       0.41176471 </v>
   <v>       0.21052632       0.33333333       0.41176471 </v>
   <v>       0.26315789       0.33333333       0.41176471 </v>
   <v>       0.31578947       0.33333333       0.41176471 </v>
   <v>       0.36842105       0.33333333       0.41176471 </v>
   <v>       0.42105263       0.33333333       0.41176471 </v>
   <v>       0.47368421       0.33333333       0.41176471 </v>
   <v>       0.00000000       0.37037037       0.41176471 </v>
   <v>       0.05263158       0.37037037       0.41176471 </v>
   <v>       0.10526316       0.37037037       0.41176471 </v>
   <v>       0.15789474       0.37037037       0.41176471 </v>
   <v>       0.21052632       0.37037037       0.41176471 </v>
   <v>       0.26315789       0.37037037       0.41176471 </v>
   <v>       0.31578947       0.37037037       0.41176471 </v>
   <v>       0.36842105       0.37037037       0.41176471 </v>
   <v>       0.42105263       0.37037037       0.41176471 </v>
   <v>       0.47368421       0.37037037       0.41176471 </v>
   <v>       0.00000000       0.40740741       0.41176471 </v>
   <v>       0.05263158       0.40740741       0.41176471 </v>
   <v>       0.10526316       0.40740741       0.41176471 </v>
   <v>       0.15789474       0.40740741       0.41176471 </v>
   <v>       0.21052632       0.40740741       0.41176471 </v>
   <v>       0.26315789       0.40740741       0.41176471 </v>
   <v>       0.31578947       0.40740741       0.41176471 </v>
   <v>       0.36842105       0.40740741       0.41176471 </v>
   <v>       0.42105263       0.40740741       0.41176471 </v>
   <v>       0.47368421       0.40740741       0.41176471 </v>
   <v>       0.00000000       0.44444444       0.41176471 </v>
   <v>       0.05263158       0.44444444       0.41176471 </v>
   <v>       0.10526316       0.44444444       0.41176471 </v>
   <v>       0.15789474       0.44444444       0.41176471 </v>
   <v>       0.21052632       0.44444444       0.41176471 </v>
   <v>       0.26315789       0.44444444       0.41176471 </v>
   <v>       0.31578947       0.44444444       0.41176471 </v>
   <v>       0.36842105       0.44444444       0.41176471 </v>
   <v>       0.42105263       0.44444444       0.41176471 </v>
   <v>       0.47368421       0.44444444       0.41176471 </v>
   <v>       0.00000000       0.48148148       0.41176471 </v>
   <v>       0.05263158       0.48148148       0.41176471 </v>
   <v>       0.10526316       0.48148148       0.41176471 </v>
   <v>       0.15789474       0.48148148       0.41176471 </v>
   <v>       0.21052632       0.48148148       0.41176471 </v>
   <v>       0.26315789       0.48148148       0.41176471 </v>
   <v>       0.31578947       0.48148148       0.41176471 </v>
   <v>       0.36842105       0.48148148       0.41176471 </v>
   <v>       0.42105263       0.48148148       0.41176471 </v>
   <v>       0.47368421       0.48148148       0.41176471 </v>
   <v>       0.00000000       0.00000000       0.47058824 </v>
   <v>       0.05263158       0.00000000       0.47058824 </v>
   <v>       0.10526316       0.00000000       0.47058824 </v>
   <v>       0.15789474       0.00000000       0.47058824 </v>
   <v>       0.21052632       0.00000000       0.47058824 </v>
   <v>       0.26315789       0.00000000       0.47058824 </v>
   <v>       0.31578947       0.00000000       0.47058824 </v>
   <v>       0.36842105       0.00000000       0.47058824 </v>
   <v>       0.42105263       0.00000000       0.47058824 </v>
   <v>       0.47368421       0.00000000       0.47058824 </v>
   <v>       0.00000000       0.03703704       0.47058824 </v>
   <v>       0.05263158       0.03703704       0.47058824 </v>
   <v>       0.10526316       0.03703704       0.47058824 </v>
   <v>       0.15789474       0.03703704       0.47058824 </v>
   <v>       0.21052632       0.03703704       0.47058824 </v>
   <v>       0.26315789       0.03703704       0.47058824 </v>
   <v>       0.31578947       0.03703704       0.47058824 </v>
   <v>       0.36842105       0.03703704       0.47058824 </v>
   <v>       0.42105263       0.03703704       0.47058824 </v>
   <v>       0.47368421       0.03703704       0.47058824 </v>
   <v>       0.00000000       0.07407407       0.47058824 </v>
   <v>       0.05263158       0.07407407       0.47058824 </v>
   <v>       0.10526316       0.07407407       0.47058824 </v>
   <v>       0.15789474       0.07407407       0.47058824 </v>
   <v>       0.21052632       0.07407407       0.47058824 </v>
   <v>       0.26315789       0.07407407       0.47058824 </v>
   <v>       0.31578947       0.07407407       0.47058824 </v>
   <v>       0.36842105       0.07407407       0.47058824 </v>
   <v>       0.42105263       0.07407407       0.47058824 </v>
   <v>       0.47368421       0.07407407       0.47058824 </v>
   <v>       0.00000000       0.11111111       0.47058824 </v>
   <v>       0.05263158       0.11111111       0.47058824 </v>
   <v>       0.10526316       0.11111111       0.47058824 </v>
   <v>       0.15789474       0.11111111       0.47058824 </v>
   <v>       0.21052632       0.11111111       0.47058824 </v>
   <v>       0.26315789       0.11111111       0.47058824 </v>
   <v>       0.31578947       0.11111111       0.47058824 </v>
   <v>       0.36842105       0.11111111       0.47058824 </v>
   <v>       0.42105263       0.11111111       0.47058824 </v>
   <v>       0.47368421       0.11111111       0.47058824 </v>
   <v>       0.00000000       0.14814815       0.47058824 </v>
   <v>       0.05263158       0.14814815       0.47058824 </v>
   <v>       0.10526316       0.14814815       0.47058824 </v>
   <v>       0.15789474       0.14814815       0.47058824 </v>
   <v>       0.21052632       0.14814815       0.47058824 </v>
   <v>       0.26315789       0.14814815       0.47058824 </v>
   <v>       0.31578947       0.14814815       0.47058824 </v>
   <v>       0.36842105       0.14814815       0.47058824 </v>
   <v>       0.42105263       0.14814815       0.47058824 </v>
   <v>       0.47368421       0.14814815       0.47058824 </v>
   <v>       0.00000000       0.18518519       0.47058824 </v>
   <v>       0.05263158       0.18518519       0.47058824 </v>
   <v>       0.10526316       0.18518519       0.47058824 </v>
   <v>       0.15789474       0.18518519       0.47058824 </v>
   <v>       0.21052632       0.18518519       0.47058824 </v>
   <v>       0.26315789       0.18518519       0.47058824 </v>
   <v>       0.31578947       0.18518519       0.47058824 </v>
   <v>       0.36842105       0.18518519       0.47058824 </v>
   <v>       0.42105263       0.18518519       0.47058824 </v>
   <v>       0.47368421       0.18518519       0.47058824 </v>
   <v>       0.00000000       0.22222222       0.47058824 </v>
   <v>       0.05263158       0.22222222       0.47058824 </v>
   <v>       0.10526316       0.22222222       0.47058824 </v>
   <v>       0.15789474       0.22222222       0.47058824 </v>
   <v>       0.21052632       0.22222222       0.47058824 </v>
   <v>       0.26315789       0.22222222       0.47058824 </v>
   <v>       0.31578947       0.22222222       0.47058824 </v>
   <v>       0.36842105       0.22222222       0.47058824 </v>
   <v>       0.42105263       0.22222222       0.47058824 </v>
   <v>       0.47368421       0.22222222       0.47058824 </v>
   <v>       0.00000000       0.25925926       0.47058824 </v>
   <v>       0.05263158       0.25925926       0.47058824 </v>
   <v>       0.10526316       0.25925926       0.47058824 </v>
   <v>       0.15789474       0.25925926       0.47058824 </v>
   <v>       0.21052632       0.25925926       0.47058824 </v>
   <v>       0.26315789       0.25925926       0.47058824 </v>
   <v>       0.31578947       0.25925926       0.47058824 </v>
   <v>       0.36842105       0.25925926       0.47058824 </v>
   <v>       0.42105263       0.25925926       0.47058824 </v>
   <v>       0.47368421       0.25925926       0.47058824 </v>
   <v>       0.00000000       0.29629630       0.47058824 </v>
   <v>       0.05263158       0.29629630       0.47058824 </v>
   <v>       0.10526316       0.29629630       0.47058824 </v>
   <v>       0.15789474       0.29629630       0.47058824 </v>
   <v>       0.21052632       0.29629630       0.47058824 </v>
   <v>       0.26315789       0.29629630       0.47058824 </v>
   <v>       0.31578947       0.29629630       0.47058824 </v>
   <v>       0.36842105       0.29629630       0.47058824 </v>
[...]
       <r>   -2.2120    1.0000 </r>
       <r>   -2.1289    1.0000 </r>
       <r>   -2.1285    1.0000 </r>
       <r>   -1.6883    1.0000 </r>
       <r>   -0.3791    1.0000 </r>
       <r>   -0.0172    1.0000 </r>
       <r>    0.3606    1.0000 </r>
       <r>    0.4447    1.0000 </r>
       <r>    0.5374    1.0000 </r>
       <r>    1.0545    1.0000 </r>
       <r>    1.6421    1.0000 </r>
       <r>    1.7780    0.9979 </r>
       <r>    5.7682    0.0000 </r>
       <r>    6.0841    0.0000 </r>
       <r>    6.7423    0.0000 </r>
       <r>    7.3920    0.0000 </r>
       <r>    7.5933    0.0000 </r>
       <r>    7.6944    0.0000 </r>
       <r>    9.3191    0.0000 </r>
       <r>    9.6199    0.0000 </r>
       <r>    9.7391    0.0000 </r>
       <r>    9.9381    0.0000 </r>
       <r>   10.5021    0.0000 </r>
       <r>   10.9316    0.0000 </r>
       <r>   11.1458    0.0000 </r>
       <r>   11.4621    0.0000 </r>
       <r>   11.5272    0.0000 </r>
       <r>   11.6448    0.0000 </r>
       <r>   13.0247    0.0000 </r>
       <r>   13.2199    0.0000 </r>
       <r>   13.6018    0.0000 </r>
       <r>   14.1057    0.0000 </r>
       <r>   14.2244    0.0000 </r>
       <r>   14.3810    0.0000 </r>
       <r>   14.4622    0.0000 </r>
       <r>   14.8122    0.0000 </r>
       <r>   15.0242    0.0000 </r>
       <r>   15.1401    0.0000 </r>
      </set>
      <set comment="kpoint 1260">
       <r>  -11.9847    1.0000 </r>
       <r>  -11.9117    1.0000 </r>
       <r>   -8.5269    1.0000 </r>
       <r>   -8.4677    1.0000 </r>
       <r>   -5.9146    1.0000 </r>
       <r>   -5.8599    1.0000 </r>
       <r>   -4.6957    1.0000 </r>
       <r>   -4.5481    1.0000 </r>
       <r>   -4.4022    1.0000 </r>
       <r>   -4.1841    1.0000 </r>
       <r>   -2.2129    1.0000 </r>
       <r>   -2.1845    1.0000 </r>
       <r>   -1.9905    1.0000 </r>
       <r>   -1.8419    1.0000 </r>
       <r>   -0.1215    1.0000 </r>
       <r>    0.0091    1.0000 </r>
       <r>    0.4360    1.0000 </r>
       <r>    0.4658    1.0000 </r>
       <r>    0.5815    1.0000 </r>
       <r>    0.7444    1.0000 </r>
       <r>    1.6644    1.0000 </r>
       <r>    1.7118    1.0000 </r>
       <r>    5.9043    0.0000 </r>
       <r>    6.0023    0.0000 </r>
       <r>    6.9798    0.0000 </r>
       <r>    7.3087    0.0000 </r>
       <r>    7.4552    0.0000 </r>
       <r>    7.5173    0.0000 </r>
       <r>    9.5052    0.0000 </r>
       <r>    9.6418    0.0000 </r>
       <r>    9.8783    0.0000 </r>
       <r>    9.9684    0.0000 </r>
       <r>   10.4952    0.0000 </r>
       <r>   10.6819    0.0000 </r>
       <r>   11.2852    0.0000 </r>
       <r>   11.4506    0.0000 </r>
       <r>   11.4844    0.0000 </r>
       <r>   11.5138    0.0000 </r>
       <r>   13.1288    0.0000 </r>
       <r>   13.1796    0.0000 </r>
       <r>   13.9080    0.0000 </r>
       <r>   14.1701    0.0000 </r>
       <r>   14.2470    0.0000 </r>
       <r>   14.2934    0.0000 </r>
       <r>   14.6849    0.0000 </r>
       <r>   14.7658    0.0000 </r>
       <r>   14.8305    0.0000 </r>
       <r>   14.9509    0.0000 </r>
      </set>
     </set>
    </set>
   </array>
  </eigenvalues>
  <separator name="orbital magnetization" >
   <v name="MAGDIPOLOUT">      0.00000000      0.00000000      0.00000000</v>
  </separator>
  <dos>
   <i name="efermi">      1.87899888 </i>
   <total>
    <array>
     <dimension dim="1">gridpoints</dimension>
     <dimension dim="2">spin</dimension>
     <field>energy</field>
     <field>total</field>
     <field>integrated</field>
     <set>
      <set comment="spin 1">
       <r>   -14.2000     0.0000     0.0000 </r>
       <r>   -14.0925     0.0000     0.0000 </r>
       <r>   -13.9849     0.0000     0.0000 </r>
       <r>   -13.8774     0.0000     0.0000 </r>
       <r>   -13.7698     0.0000     0.0000 </r>
       <r>   -13.6622     0.0000     0.0000 </r>
       <r>   -13.5547     0.0000     0.0000 </r>
       <r>   -13.4471     0.0000     0.0000 </r>
       <r>   -13.3396     0.0000     0.0000 </r>
       <r>   -13.2320     0.0000     0.0000 </r>
       <r>   -13.1245     0.0000     0.0000 </r>
       <r>   -13.0169     0.0000     0.0000 </r>
       <r>   -12.9093     0.0000     0.0000 </r>
       <r>   -12.8018     0.0019     0.0002 </r>
       <r>   -12.6942     0.4066     0.0439 </r>
       <r>   -12.5867     2.2495     0.2859 </r>
       <r>   -12.4791     3.5083     0.6632 </r>
       <r>   -12.3716     4.3403     1.1301 </r>
       <r>   -12.2640     3.5752     1.5146 </r>
       <r>   -12.1564     2.8737     1.8237 </r>
       <r>   -12.0489     2.6345     2.1070 </r>
       <r>   -11.9413     2.5879     2.3854 </r>
       <r>   -11.8338     2.7434     2.6805 </r>
       <r>   -11.7262     3.3232     3.0379 </r>
       <r>   -11.6187     3.6206     3.4273 </r>
       <r>   -11.5111     3.1256     3.7635 </r>
       <r>   -11.4035     1.7286     3.9494 </r>
       <r>   -11.2960     0.4612     3.9990 </r>
       <r>   -11.1884     0.0092     4.0000 </r>
       <r>   -11.0809     0.0000     4.0000 </r>
       <r>   -10.9733     0.0000     4.0000 </r>
       <r>   -10.8658     0.0000     4.0000 </r>
       <r>   -10.7582     0.0000     4.0000 </r>
       <r>   -10.6507     0.0000     4.0000 </r>
       <r>   -10.5431     0.0000     4.0000 </r>
       <r>   -10.4355     0.0000     4.0000 </r>
       <r>   -10.3280     0.0000     4.0000 </r>
       <r>   -10.2204     0.0000     4.0000 </r>
       <r>   -10.1129     0.0000     4.0000 </r>
       <r>   -10.0053     0.0000     4.0000 </r>
       <r>    -9.8978     0.0000     4.0000 </r>
       <r>    -9.7902     0.0000     4.0000 </r>
       <r>    -9.6826     0.0000     4.0000 </r>
       <r>    -9.5751     0.0000     4.0000 </r>
       <r>    -9.4675     0.0000     4.0000 </r>
       <r>    -9.3600     0.0000     4.0000 </r>
       <r>    -9.2524     0.0000     4.0000 </r>
       <r>    -9.1449     0.0000     4.0000 </r>
       <r>    -9.0373     0.0000     4.0000 </r>
       <r>    -8.9297     0.0007     4.0001 </r>
       <r>    -8.8222     0.3054     4.0329 </r>
       <r>    -8.7146     2.1760     4.2670 </r>
       <r>    -8.6071     5.4320     4.8512 </r>
       <r>    -8.4995     7.0079     5.6050 </r>
       <r>    -8.3920     6.2156     6.2735 </r>
       <r>    -8.2844     5.2962     6.8431 </r>
       <r>    -8.1768     4.8662     7.3665 </r>
       <r>    -8.0693     3.7124     7.7658 </r>
       <r>    -7.9617     1.6048     7.9384 </r>
       <r>    -7.8542     0.5339     7.9958 </r>
       <r>    -7.7466     0.0386     8.0000 </r>
       <r>    -7.6391     0.0000     8.0000 </r>
       <r>    -7.5315     0.0000     8.0000 </r>
       <r>    -7.4240     0.0000     8.0000 </r>
       <r>    -7.3164     0.0000     8.0000 </r>
       <r>    -7.2088     0.0000     8.0000 </r>
       <r>    -7.1013     0.0000     8.0000 </r>
       <r>    -6.9937     0.0043     8.0005 </r>
       <r>    -6.8862     0.1138     8.0127 </r>
       <r>    -6.7786     0.2896     8.0439 </r>
       <r>    -6.6711     0.4676     8.0941 </r>
       <r>    -6.5635     0.7277     8.1724 </r>
       <r>    -6.4559     0.9147     8.2708 </r>
       <r>    -6.3484     1.5041     8.4326 </r>
       <r>    -6.2408     2.1298     8.6617 </r>
       <r>    -6.1333     3.0715     8.9920 </r>
       <r>    -6.0257     3.9603     9.4180 </r>
       <r>    -5.9182     3.9691     9.8449 </r>
       <r>    -5.8106     4.0461    10.2801 </r>
       <r>    -5.7030     4.0738    10.7182 </r>
       <r>    -5.5955     4.0812    11.1572 </r>
       <r>    -5.4879     4.0674    11.5947 </r>
       <r>    -5.3804     4.5161    12.0804 </r>
       <r>    -5.2728     4.7673    12.5931 </r>
       <r>    -5.1653     4.3526    13.0613 </r>
       <r>    -5.0577     3.8723    13.4778 </r>
       <r>    -4.9501     3.3350    13.8365 </r>
       <r>    -4.8426     2.3773    14.0922 </r>
       <r>    -4.7350     2.4938    14.3604 </r>
       <r>    -4.6275     2.9840    14.6814 </r>
       <r>    -4.5199     3.7142    15.0809 </r>
       <r>    -4.4124     3.3150    15.4374 </r>
       <r>    -4.3048     3.1857    15.7800 </r>
       <r>    -4.1972     2.9060    16.0926 </r>
       <r>    -4.0897     2.8436    16.3985 </r>
       <r>    -3.9821     3.0341    16.7248 </r>
       <r>    -3.8746     3.0370    17.0514 </r>
       <r>    -3.7670     2.8456    17.3575 </r>
       <r>    -3.6595     3.0594    17.6866 </r>
       <r>    -3.5519     2.7437    17.9817 </r>
       <r>    -3.4444     2.7384    18.2762 </r>
       <r>    -3.3368     2.8870    18.5867 </r>
       <r>    -3.2292     2.6577    18.8726 </r>
       <r>    -3.1217     2.8020    19.1739 </r>
       <r>    -3.0141     2.9535    19.4916 </r>
       <r>    -2.9066     3.0681    19.8216 </r>
       <r>    -2.7990     2.7299    20.1152 </r>
       <r>    -2.6915     2.4457    20.3783 </r>
       <r>    -2.5839     2.6182    20.6599 </r>
       <r>    -2.4763     3.0120    20.9838 </r>
       <r>    -2.3688     3.2415    21.3325 </r>
       <r>    -2.2612     3.8259    21.7440 </r>
       <r>    -2.1537     3.2580    22.0944 </r>
       <r>    -2.0461     3.4664    22.4672 </r>
       <r>    -1.9386     4.2301    22.9222 </r>
       <r>    -1.8310     4.8067    23.4392 </r>
       <r>    -1.7234     5.7083    24.0532 </r>
       <r>    -1.6159     5.9123    24.6891 </r>
       <r>    -1.5083     6.0042    25.3349 </r>
       <r>    -1.4008     6.0288    25.9833 </r>
       <r>    -1.2932     5.7871    26.6057 </r>
       <r>    -1.1857     4.9971    27.1432 </r>
       <r>    -1.0781     5.1915    27.7016 </r>
       <r>    -0.9705     3.8247    28.1130 </r>
       <r>    -0.8630     2.6959    28.4029 </r>
       <r>    -0.7554     2.1580    28.6350 </r>
       <r>    -0.6479     3.7768    29.0412 </r>
       <r>    -0.5403     5.3111    29.6125 </r>
       <r>    -0.4328     5.9000    30.2471 </r>
       <r>    -0.3252     6.4570    30.9416 </r>
       <r>    -0.2177     6.1853    31.6068 </r>
       <r>    -0.1101     6.8868    32.3476 </r>
       <r>    -0.0025     6.9157    33.0914 </r>
       <r>     0.1050     6.2637    33.7651 </r>
       <r>     0.2126     6.8818    34.5053 </r>
       <r>     0.3201     8.6782    35.4387 </r>
       <r>     0.4277     8.5445    36.3577 </r>
       <r>     0.5352     7.9667    37.2146 </r>
       <r>     0.6428     4.1773    37.6639 </r>
       <r>     0.7504     2.8601    37.9715 </r>
       <r>     0.8579     3.2216    38.3180 </r>
       <r>     0.9655     3.3163    38.6747 </r>
       <r>     1.0730     3.3676    39.0369 </r>
       <r>     1.1806     4.0342    39.4708 </r>
       <r>     1.2881     3.4120    39.8378 </r>
       <r>     1.3957     3.7576    40.2419 </r>
       <r>     1.5033     4.1141    40.6844 </r>
       <r>     1.6108     3.8781    41.1015 </r>
       <r>     1.7184     3.4602    41.4737 </r>
       <r>     1.8259     3.4055    41.8400 </r>
       <r>     1.9335     2.9086    42.1528 </r>
       <r>     2.0410     2.4479    42.4161 </r>
       <r>     2.1486     2.5869    42.6944 </r>
       <r>     2.2562     2.4168    42.9543 </r>
       <r>     2.3637     1.8866    43.1572 </r>
       <r>     2.4713     1.1266    43.2784 </r>
       <r>     2.5788     0.9344    43.3789 </r>
       <r>     2.6864     0.8089    43.4659 </r>
       <r>     2.7939     0.6015    43.5306 </r>
       <r>     2.9015     0.4477    43.5787 </r>
       <r>     3.0091     0.5744    43.6405 </r>
       <r>     3.1166     0.5568    43.7004 </r>
       <r>     3.2242     0.4401    43.7478 </r>
       <r>     3.3317     0.3557    43.7860 </r>
       <r>     3.4393     0.3929    43.8283 </r>
       <r>     3.5468     0.4416    43.8758 </r>
       <r>     3.6544     0.2757    43.9054 </r>
       <r>     3.7619     0.2790    43.9354 </r>
       <r>     3.8695     0.3210    43.9700 </r>
       <r>     3.9771     0.2062    43.9921 </r>
       <r>     4.0846     0.0705    43.9997 </r>
       <r>     4.1922     0.0042    44.0002 </r>
       <r>     4.2997     0.0927    44.0101 </r>
       <r>     4.4073     0.2718    44.0394 </r>
       <r>     4.5148     0.3988    44.0823 </r>
       <r>     4.6224     0.5815    44.1448 </r>
       <r>     4.7300     0.7426    44.2247 </r>
       <r>     4.8375     0.8448    44.3156 </r>
       <r>     4.9451     0.8990    44.4123 </r>
       <r>     5.0526     1.0134    44.5213 </r>
       <r>     5.1602     1.1834    44.6485 </r>
       <r>     5.2677     1.4408    44.8035 </r>
       <r>     5.3753     1.8137    44.9986 </r>
       <r>     5.4829     2.2578    45.2414 </r>
       <r>     5.5904     2.6941    45.5312 </r>
       <r>     5.6980     2.9814    45.8518 </r>
       <r>     5.8055     3.4561    46.2236 </r>
       <r>     5.9131     3.7978    46.6321 </r>
       <r>     6.0206     4.2135    47.0852 </r>
       <r>     6.1282     4.6667    47.5872 </r>
       <r>     6.2358     4.4252    48.0631 </r>
       <r>     6.3433     4.1367    48.5081 </r>
       <r>     6.4509     4.2407    48.9642 </r>
       <r>     6.5584     4.3251    49.4294 </r>
       <r>     6.6660     3.8258    49.8409 </r>
       <r>     6.7735     3.5005    50.2174 </r>
       <r>     6.8811     4.2279    50.6721 </r>
       <r>     6.9886     4.4381    51.1495 </r>
       <r>     7.0962     4.9729    51.6843 </r>
       <r>     7.2038     5.0735    52.2300 </r>
       <r>     7.3113     4.9583    52.7633 </r>
       <r>     7.4189     4.4411    53.2410 </r>
       <r>     7.5264     4.4833    53.7232 </r>
       <r>     7.6340     3.9513    54.1482 </r>
       <r>     7.7415     3.2189    54.4944 </r>
       <r>     7.8491     3.1408    54.8322 </r>
       <r>     7.9567     3.2745    55.1844 </r>
       <r>     8.0642     3.3362    55.5432 </r>
       <r>     8.1718     3.6495    55.9358 </r>
       <r>     8.2793     4.1116    56.3780 </r>
       <r>     8.3869     3.9965    56.8079 </r>
       <r>     8.4944     4.0290    57.2412 </r>
       <r>     8.6020     4.1059    57.6828 </r>
       <r>     8.7096     4.4679    58.1634 </r>
       <r>     8.8171     4.9254    58.6932 </r>
       <r>     8.9247     5.2413    59.2569 </r>
       <r>     9.0322     4.9263    59.7867 </r>
       <r>     9.1398     5.1285    60.3384 </r>
       <r>     9.2473     5.2031    60.8980 </r>
       <r>     9.3549     4.7321    61.4070 </r>
       <r>     9.4625     4.8995    61.9339 </r>
       <r>     9.5700     4.3812    62.4052 </r>
       <r>     9.6776     4.9661    62.9393 </r>
       <r>     9.7851     5.1739    63.4958 </r>
       <r>     9.8927     5.0119    64.0349 </r>
       <r>    10.0002     4.8411    64.5555 </r>
       <r>    10.1078     3.7842    64.9626 </r>
       <r>    10.2154     4.2940    65.4244 </r>
       <r>    10.3229     4.4417    65.9022 </r>
       <r>    10.4305     5.4911    66.4928 </r>
       <r>    10.5380     5.4540    67.0794 </r>
       <r>    10.6456     4.7552    67.5908 </r>
       <r>    10.7531     4.1347    68.0355 </r>
       <r>    10.8607     3.8010    68.4444 </r>
       <r>    10.9682     3.6684    68.8389 </r>
       <r>    11.0758     4.9791    69.3745 </r>
       <r>    11.1834     5.8401    70.0026 </r>
       <r>    11.2909     6.3083    70.6811 </r>
       <r>    11.3985     5.4875    71.2713 </r>
       <r>    11.5060     4.6121    71.7674 </r>
       <r>    11.6136     4.7230    72.2754 </r>
       <r>    11.7211     4.7476    72.7860 </r>
       <r>    11.8287     4.7828    73.3004 </r>
       <r>    11.9363     5.6064    73.9034 </r>
       <r>    12.0438     6.1049    74.5601 </r>
       <r>    12.1514     5.8032    75.1842 </r>
       <r>    12.2589     5.5045    75.7763 </r>
       <r>    12.3665     5.1413    76.3293 </r>
       <r>    12.4740     5.7897    76.9520 </r>
       <r>    12.5816     6.0695    77.6048 </r>
       <r>    12.6892     5.7053    78.2184 </r>
       <r>    12.7967     5.9141    78.8545 </r>
       <r>    12.9043     5.9841    79.4982 </r>
       <r>    13.0118     5.8219    80.1244 </r>
       <r>    13.1194     6.2990    80.8019 </r>
       <r>    13.2269     6.0065    81.4479 </r>
       <r>    13.3345     5.9590    82.0888 </r>
       <r>    13.4421     5.4103    82.6708 </r>
       <r>    13.5496     5.3901    83.2505 </r>
       <r>    13.6572     5.3250    83.8232 </r>
       <r>    13.7647     5.7028    84.4366 </r>
       <r>    13.8723     5.7139    85.0512 </r>
       <r>    13.9798     5.4370    85.6360 </r>
       <r>    14.0874     5.2578    86.2015 </r>
       <r>    14.1949     5.1334    86.7536 </r>
       <r>    14.3025     5.0826    87.3003 </r>
       <r>    14.4101     4.5812    87.7930 </r>
       <r>    14.5176     5.1142    88.3431 </r>
       <r>    14.6252     5.4131    88.9253 </r>
       <r>    14.7327     4.9106    89.4535 </r>
       <r>    14.8403     4.1756    89.9026 </r>
       <r>    14.9478     4.8132    90.4203 </r>
       <r>    15.0554     5.8919    91.0540 </r>
       <r>    15.1630     6.0953    91.7096 </r>
       <r>    15.2705     5.6897    92.3215 </r>
       <r>    15.3781     5.8948    92.9556 </r>
       <r>    15.4856     5.8520    93.5850 </r>
       <r>    15.5932     5.9416    94.2240 </r>
       <r>    15.7007     4.6512    94.7243 </r>
       <r>    15.8083     3.2924    95.0784 </r>
       <r>    15.9159     2.4200    95.3387 </r>
       <r>    16.0234     1.8414    95.5368 </r>
       <r>    16.1310     1.3691    95.6840 </r>
       <r>    16.2385     1.0136    95.7930 </r>
       <r>    16.3461     0.9298    95.8931 </r>
       <r>    16.4536     0.6883    95.9671 </r>
       <r>    16.5612     0.2872    95.9980 </r>
       <r>    16.6688     0.0188    96.0000 </r>
       <r>    16.7763     0.0001    96.0000 </r>
       <r>    16.8839     0.0000    96.0000 </r>
       <r>    16.9914     0.0000    96.0000 </r>
       <r>    17.0990     0.0000    96.0000 </r>
       <r>    17.2065     0.0000    96.0000 </r>
       <r>    17.3141     0.0000    96.0000 </r>
       <r>    17.4217     0.0000    96.0000 </r>
       <r>    17.5292     0.0000    96.0000 </r>
       <r>    17.6368     0.0000    96.0000 </r>
       <r>    17.7443     0.0000    96.0000 </r>
       <r>    17.8519     0.0000    96.0000 </r>
       <r>    17.9594     0.0000    96.0000 </r>
       <r>    18.0670     0.0000    96.0000 </r>
      </set>
     </set>
    </array>
   </total>
  </dos>
 </calculation>
 <structure name="finalpos" >
  <crystal>
   <varray name="basis" >
    <v>       5.69700000       0.00000000       0.00000000 </v>
    <v>       0.00000000       4.04790000       0.00000000 </v>
    <v>       0.00000000       0.00000000       6.20420000 </v>
   </varray>
   <i name="volume">    143.07435078 </i>
   <varray name="rec_basis" >
    <v>       0.17553098       0.00000000       0.00000000 </v>
    <v>       0.00000000       0.24704168       0.00000000 </v>
    <v>       0.00000000       0.00000000       0.16118114 </v>
   </varray>
  </crystal>
  <varray name="positions" >
   <v>       0.52123000       0.50000000       0.63796000 </v>
   <v>       0.47877000       0.50000000       0.36204000 </v>
   <v>       0.97877000       0.50000000       0.63796000 </v>
   <v>       0.02123000       0.50000000       0.36204000 </v>
   <v>       0.60090000       0.50000000       0.89991000 </v>
   <v>       0.39910000       0.50000000       0.10009000 </v>
   <v>       0.89910000       0.50000000       0.89991000 </v>
   <v>       0.10090000       0.50000000       0.10009000 </v>
   <v>       0.75000000       0.79171000       0.72973000 </v>
   <v>       0.25000000       0.20829000       0.27027000 </v>
   <v>       0.75000000       0.20829000       0.72973000 </v>
   <v>       0.25000000       0.79171000       0.27027000 </v>
   <v>       0.25000000       0.50000000       0.52367000 </v>
   <v>       0.75000000       0.50000000       0.47633000 </v>
  </varray>
 </structure>
</modeling>
