   1   1   0   0
  0.3371963E+04  0.1499550E-08  0.1249625E-08  0.1799460E-08  0.5000000E-15
  1.000000000000000E-004
  CAR 
 Convergence                             
      2.49502061     -9.97677392  301     -3.60716802      1.00000000
     -9.977  0.0000E+00  0.0000E+00
     -9.935  0.0000E+00  0.0000E+00
     -9.894  0.0000E+00  0.0000E+00
     -9.852  0.0000E+00  0.0000E+00
     -9.810  0.0000E+00  0.0000E+00
     -9.769  0.0000E+00  0.0000E+00
     -9.727  0.0000E+00  0.0000E+00
     -9.686  0.1442E-12  0.5995E-14
     -9.644  0.8209E-09  0.3413E-10
     -9.603  0.1199E-05  0.4989E-07
     -9.561  0.4568E-03  0.1904E-04
     -9.519  0.4609E-01  0.1935E-02
     -9.478  0.1260E+01  0.5434E-01
     -9.436  0.9621E+01  0.4543E+00
     -9.395  0.2109E+02  0.1331E+01
     -9.353  0.1347E+02  0.1891E+01
     -9.312  0.2487E+01  0.1995E+01
     -9.270  0.1292E+00  0.2000E+01
     -9.228  0.1833E-02  0.2000E+01
     -9.187  0.6927E-05  0.2000E+01
     -9.145  0.6849E-08  0.2000E+01
     -9.104  0.1752E-11  0.2000E+01
     -9.062  0.0000E+00  0.2000E+01
     -9.021  0.0000E+00  0.2000E+01
     -8.979  0.0000E+00  0.2000E+01
     -8.937  0.0000E+00  0.2000E+01
     -8.896  0.0000E+00  0.2000E+01
     -8.854  0.0000E+00  0.2000E+01
     -8.813  0.0000E+00  0.2000E+01
     -8.771  0.0000E+00  0.2000E+01
     -8.730  0.0000E+00  0.2000E+01
     -8.688  0.0000E+00  0.2000E+01
     -8.646  0.0000E+00  0.2000E+01
     -8.605  0.0000E+00  0.2000E+01
     -8.563  0.0000E+00  0.2000E+01
     -8.522  0.0000E+00  0.2000E+01
     -8.480  0.0000E+00  0.2000E+01
     -8.439  0.0000E+00  0.2000E+01
     -8.397  0.0000E+00  0.2000E+01
     -8.355  0.0000E+00  0.2000E+01
     -8.314  0.0000E+00  0.2000E+01
     -8.272  0.0000E+00  0.2000E+01
     -8.231  0.0000E+00  0.2000E+01
     -8.189  0.0000E+00  0.2000E+01
     -8.148  0.0000E+00  0.2000E+01
     -8.106  0.0000E+00  0.2000E+01
     -8.064  0.0000E+00  0.2000E+01
     -8.023  0.0000E+00  0.2000E+01
     -7.981  0.0000E+00  0.2000E+01
     -7.940  0.0000E+00  0.2000E+01
     -7.898  0.0000E+00  0.2000E+01
     -7.857  0.0000E+00  0.2000E+01
     -7.815  0.0000E+00  0.2000E+01
     -7.773  0.0000E+00  0.2000E+01
     -7.732  0.0000E+00  0.2000E+01
     -7.690  0.0000E+00  0.2000E+01
     -7.649  0.0000E+00  0.2000E+01
     -7.607  0.0000E+00  0.2000E+01
     -7.566  0.0000E+00  0.2000E+01
     -7.524  0.0000E+00  0.2000E+01
     -7.482  0.0000E+00  0.2000E+01
     -7.441  0.0000E+00  0.2000E+01
     -7.399  0.0000E+00  0.2000E+01
     -7.358  0.0000E+00  0.2000E+01
     -7.316  0.0000E+00  0.2000E+01
     -7.275  0.0000E+00  0.2000E+01
     -7.233  0.0000E+00  0.2000E+01
     -7.191  0.0000E+00  0.2000E+01
     -7.150  0.0000E+00  0.2000E+01
     -7.108  0.0000E+00  0.2000E+01
     -7.067  0.0000E+00  0.2000E+01
     -7.025  0.0000E+00  0.2000E+01
     -6.984  0.0000E+00  0.2000E+01
     -6.942  0.0000E+00  0.2000E+01
     -6.900  0.0000E+00  0.2000E+01
     -6.859  0.0000E+00  0.2000E+01
     -6.817  0.0000E+00  0.2000E+01
     -6.776  0.0000E+00  0.2000E+01
     -6.734  0.0000E+00  0.2000E+01
     -6.693  0.0000E+00  0.2000E+01
     -6.651  0.0000E+00  0.2000E+01
     -6.609  0.0000E+00  0.2000E+01
     -6.568  0.0000E+00  0.2000E+01
     -6.526  0.0000E+00  0.2000E+01
     -6.485  0.0000E+00  0.2000E+01
     -6.443  0.0000E+00  0.2000E+01
     -6.402  0.0000E+00  0.2000E+01
     -6.360  0.0000E+00  0.2000E+01
     -6.318  0.0000E+00  0.2000E+01
     -6.277  0.0000E+00  0.2000E+01
     -6.235  0.0000E+00  0.2000E+01
     -6.194  0.0000E+00  0.2000E+01
     -6.152  0.0000E+00  0.2000E+01
     -6.111  0.0000E+00  0.2000E+01
     -6.069  0.0000E+00  0.2000E+01
     -6.027  0.0000E+00  0.2000E+01
     -5.986  0.0000E+00  0.2000E+01
     -5.944  0.0000E+00  0.2000E+01
     -5.903  0.0000E+00  0.2000E+01
     -5.861  0.0000E+00  0.2000E+01
     -5.820  0.0000E+00  0.2000E+01
     -5.778  0.0000E+00  0.2000E+01
     -5.736  0.0000E+00  0.2000E+01
     -5.695  0.0000E+00  0.2000E+01
     -5.653  0.0000E+00  0.2000E+01
     -5.612  0.0000E+00  0.2000E+01
     -5.570  0.0000E+00  0.2000E+01
     -5.529  0.0000E+00  0.2000E+01
     -5.487  0.0000E+00  0.2000E+01
     -5.445  0.0000E+00  0.2000E+01
     -5.404  0.0000E+00  0.2000E+01
     -5.362  0.0000E+00  0.2000E+01
     -5.321  0.0000E+00  0.2000E+01
     -5.279  0.0000E+00  0.2000E+01
     -5.237  0.0000E+00  0.2000E+01
     -5.196  0.0000E+00  0.2000E+01
     -5.154  0.0000E+00  0.2000E+01
     -5.113  0.0000E+00  0.2000E+01
     -5.071  0.0000E+00  0.2000E+01
     -5.030  0.0000E+00  0.2000E+01
     -4.988  0.0000E+00  0.2000E+01
     -4.946  0.0000E+00  0.2000E+01
     -4.905  0.0000E+00  0.2000E+01
     -4.863  0.0000E+00  0.2000E+01
     -4.822  0.0000E+00  0.2000E+01
     -4.780  0.0000E+00  0.2000E+01
     -4.739  0.0000E+00  0.2000E+01
     -4.697  0.0000E+00  0.2000E+01
     -4.655  0.0000E+00  0.2000E+01
     -4.614  0.0000E+00  0.2000E+01
     -4.572  0.0000E+00  0.2000E+01
     -4.531  0.0000E+00  0.2000E+01
     -4.489  0.0000E+00  0.2000E+01
     -4.448  0.0000E+00  0.2000E+01
     -4.406  0.0000E+00  0.2000E+01
     -4.364  0.0000E+00  0.2000E+01
     -4.323  0.0000E+00  0.2000E+01
     -4.281  0.0000E+00  0.2000E+01
     -4.240  0.0000E+00  0.2000E+01
     -4.198  0.0000E+00  0.2000E+01
     -4.157  0.0000E+00  0.2000E+01
     -4.115  0.0000E+00  0.2000E+01
     -4.073  0.0000E+00  0.2000E+01
     -4.032  0.0000E+00  0.2000E+01
     -3.990  0.0000E+00  0.2000E+01
     -3.949  0.0000E+00  0.2000E+01
     -3.907  0.0000E+00  0.2000E+01
     -3.866  0.8012E-14  0.2000E+01
     -3.824  0.8939E-10  0.2000E+01
     -3.782  0.2251E-06  0.2000E+01
     -3.741  0.1471E-03  0.2000E+01
     -3.699  0.2528E-01  0.2001E+01
     -3.658  0.1166E+01  0.2050E+01
     -3.616  0.1482E+02  0.2665E+01
     -3.575  0.5352E+02  0.4890E+01
     -3.533  0.5615E+02  0.7225E+01
     -3.491  0.1713E+02  0.7937E+01
     -3.450  0.1488E+01  0.7999E+01
     -3.408  0.3573E-01  0.8000E+01
     -3.367  0.2305E-03  0.8000E+01
     -3.325  0.3918E-06  0.8000E+01
     -3.284  0.1729E-09  0.8000E+01
     -3.242  0.1755E-13  0.8000E+01
     -3.200  0.0000E+00  0.8000E+01
     -3.159  0.0000E+00  0.8000E+01
     -3.117  0.0000E+00  0.8000E+01
     -3.076  0.0000E+00  0.8000E+01
     -3.034  0.0000E+00  0.8000E+01
     -2.993  0.0000E+00  0.8000E+01
     -2.951  0.0000E+00  0.8000E+01
     -2.909  0.0000E+00  0.8000E+01
     -2.868  0.0000E+00  0.8000E+01
     -2.826  0.0000E+00  0.8000E+01
     -2.785  0.0000E+00  0.8000E+01
     -2.743  0.0000E+00  0.8000E+01
     -2.702  0.0000E+00  0.8000E+01
     -2.660  0.0000E+00  0.8000E+01
     -2.618  0.0000E+00  0.8000E+01
     -2.577  0.0000E+00  0.8000E+01
     -2.535  0.0000E+00  0.8000E+01
     -2.494  0.0000E+00  0.8000E+01
     -2.452  0.0000E+00  0.8000E+01
     -2.411  0.0000E+00  0.8000E+01
     -2.369  0.0000E+00  0.8000E+01
     -2.327  0.0000E+00  0.8000E+01
     -2.286  0.0000E+00  0.8000E+01
     -2.244  0.0000E+00  0.8000E+01
     -2.203  0.0000E+00  0.8000E+01
     -2.161  0.0000E+00  0.8000E+01
     -2.120  0.0000E+00  0.8000E+01
     -2.078  0.0000E+00  0.8000E+01
     -2.036  0.0000E+00  0.8000E+01
     -1.995  0.0000E+00  0.8000E+01
     -1.953  0.0000E+00  0.8000E+01
     -1.912  0.0000E+00  0.8000E+01
     -1.870  0.0000E+00  0.8000E+01
     -1.829  0.0000E+00  0.8000E+01
     -1.787  0.0000E+00  0.8000E+01
     -1.745  0.0000E+00  0.8000E+01
     -1.704  0.0000E+00  0.8000E+01
     -1.662  0.0000E+00  0.8000E+01
     -1.621  0.0000E+00  0.8000E+01
     -1.579  0.0000E+00  0.8000E+01
     -1.538  0.0000E+00  0.8000E+01
     -1.496  0.0000E+00  0.8000E+01
     -1.454  0.0000E+00  0.8000E+01
     -1.413  0.0000E+00  0.8000E+01
     -1.371  0.0000E+00  0.8000E+01
     -1.330  0.0000E+00  0.8000E+01
     -1.288  0.0000E+00  0.8000E+01
     -1.247  0.0000E+00  0.8000E+01
     -1.205  0.0000E+00  0.8000E+01
     -1.163  0.0000E+00  0.8000E+01
     -1.122  0.0000E+00  0.8000E+01
     -1.080  0.0000E+00  0.8000E+01
     -1.039  0.0000E+00  0.8000E+01
     -0.997  0.0000E+00  0.8000E+01
     -0.956  0.0000E+00  0.8000E+01
     -0.914  0.0000E+00  0.8000E+01
     -0.872  0.0000E+00  0.8000E+01
     -0.831  0.0000E+00  0.8000E+01
     -0.789  0.0000E+00  0.8000E+01
     -0.748  0.0000E+00  0.8000E+01
     -0.706  0.0000E+00  0.8000E+01
     -0.665  0.0000E+00  0.8000E+01
     -0.623  0.0000E+00  0.8000E+01
     -0.581  0.0000E+00  0.8000E+01
     -0.540  0.7969E-15  0.8000E+01
     -0.498  0.5682E-11  0.8000E+01
     -0.457  0.1075E-07  0.8000E+01
     -0.415  0.5601E-05  0.8000E+01
     -0.373  0.8354E-03  0.8000E+01
     -0.332  0.3777E-01  0.8002E+01
     -0.290  0.5634E+00  0.8025E+01
     -0.249  0.3141E+01  0.8156E+01
     -0.207  0.7802E+01  0.8480E+01
     -0.166  0.1073E+02  0.8926E+01
     -0.124  0.1038E+02  0.9357E+01
     -0.082  0.8436E+01  0.9708E+01
     -0.041  0.5065E+01  0.9919E+01
      0.001  0.1730E+01  0.9991E+01
      0.042  0.6674E+00  0.1002E+02
      0.084  0.2149E+01  0.1011E+02
      0.125  0.5835E+01  0.1035E+02
      0.167  0.1045E+02  0.1078E+02
      0.209  0.1404E+02  0.1137E+02
      0.250  0.1562E+02  0.1202E+02
      0.292  0.1578E+02  0.1267E+02
      0.333  0.1592E+02  0.1334E+02
      0.375  0.1620E+02  0.1401E+02
      0.416  0.1651E+02  0.1470E+02
      0.458  0.1759E+02  0.1543E+02
      0.500  0.1848E+02  0.1619E+02
      0.541  0.1847E+02  0.1696E+02
      0.583  0.1899E+02  0.1775E+02
      0.624  0.1990E+02  0.1858E+02
      0.666  0.2036E+02  0.1943E+02
      0.707  0.2101E+02  0.2030E+02
      0.749  0.2242E+02  0.2123E+02
      0.791  0.2239E+02  0.2216E+02
      0.832  0.2187E+02  0.2307E+02
      0.874  0.2335E+02  0.2404E+02
      0.915  0.2453E+02  0.2506E+02
      0.957  0.2421E+02  0.2607E+02
      0.998  0.2486E+02  0.2710E+02
      1.040  0.2590E+02  0.2818E+02
      1.082  0.2599E+02  0.2926E+02
      1.123  0.2606E+02  0.3034E+02
      1.165  0.2683E+02  0.3146E+02
      1.206  0.2771E+02  0.3261E+02
      1.248  0.2731E+02  0.3374E+02
      1.289  0.2748E+02  0.3489E+02
      1.331  0.2855E+02  0.3607E+02
      1.373  0.2859E+02  0.3726E+02
      1.414  0.2830E+02  0.3844E+02
      1.456  0.2933E+02  0.3966E+02
      1.497  0.3088E+02  0.4094E+02
      1.539  0.3001E+02  0.4219E+02
      1.580  0.2956E+02  0.4342E+02
      1.622  0.3007E+02  0.4467E+02
      1.664  0.2768E+02  0.4582E+02
      1.705  0.2120E+02  0.4670E+02
      1.747  0.1404E+02  0.4729E+02
      1.788  0.8318E+01  0.4763E+02
      1.830  0.4793E+01  0.4783E+02
      1.871  0.2569E+01  0.4794E+02
      1.913  0.1089E+01  0.4798E+02
      1.955  0.3461E+00  0.4800E+02
      1.996  0.7301E-01  0.4800E+02
      2.038  0.7051E-02  0.4800E+02
      2.079  0.2249E-03  0.4800E+02
      2.121  0.2051E-05  0.4800E+02
      2.162  0.5053E-08  0.4800E+02
      2.204  0.3284E-11  0.4800E+02
      2.246  0.5595E-15  0.4800E+02
      2.287  0.0000E+00  0.4800E+02
      2.329  0.0000E+00  0.4800E+02
      2.370  0.0000E+00  0.4800E+02
      2.412  0.0000E+00  0.4800E+02
      2.453  0.0000E+00  0.4800E+02
      2.495  0.0000E+00  0.4800E+02
