  14  14   1   0
  0.1021318E+02  0.5700971E-09  0.4044058E-09  0.6201871E-09  0.5000000E-15
  1.000000000000000E-004
  CAR 
 BS                                      
     18.00449903    -14.16218132  301      2.11254766      1.00000000
    -14.162  0.0000E+00  0.0000E+00
    -14.055  0.0000E+00  0.0000E+00
    -13.948  0.0000E+00  0.0000E+00
    -13.841  0.0000E+00  0.0000E+00
    -13.733  0.0000E+00  0.0000E+00
    -13.626  0.0000E+00  0.0000E+00
    -13.519  0.0000E+00  0.0000E+00
    -13.412  0.0000E+00  0.0000E+00
    -13.304  0.0000E+00  0.0000E+00
    -13.197  0.7026E-12  0.7533E-13
    -13.090  0.1323E-07  0.1418E-08
    -12.983  0.2747E-04  0.2947E-05
    -12.876  0.6719E-02  0.7233E-03
    -12.768  0.2215E+00  0.2447E-01
    -12.661  0.1280E+01  0.1617E+00
    -12.554  0.1949E+01  0.3707E+00
    -12.447  0.1894E+01  0.5737E+00
    -12.339  0.2740E+01  0.8675E+00
    -12.232  0.3253E+01  0.1216E+01
    -12.125  0.5426E+01  0.1798E+01
    -12.018  0.4403E+01  0.2270E+01
    -11.911  0.3288E+01  0.2623E+01
    -11.803  0.1981E+01  0.2835E+01
    -11.696  0.1736E+01  0.3021E+01
    -11.589  0.2478E+01  0.3287E+01
    -11.482  0.2461E+01  0.3551E+01
    -11.374  0.1987E+01  0.3764E+01
    -11.267  0.1517E+01  0.3926E+01
    -11.160  0.6267E+00  0.3994E+01
    -11.053  0.5882E-01  0.4000E+01
    -10.946  0.8293E-03  0.4000E+01
    -10.838  0.1457E-05  0.4000E+01
    -10.731  0.2911E-09  0.4000E+01
    -10.624  0.6288E-14  0.4000E+01
    -10.517  0.0000E+00  0.4000E+01
    -10.409  0.0000E+00  0.4000E+01
    -10.302  0.0000E+00  0.4000E+01
    -10.195  0.0000E+00  0.4000E+01
    -10.088  0.0000E+00  0.4000E+01
     -9.981  0.0000E+00  0.4000E+01
     -9.873  0.0000E+00  0.4000E+01
     -9.766  0.0000E+00  0.4000E+01
     -9.659  0.0000E+00  0.4000E+01
     -9.552  0.0000E+00  0.4000E+01
     -9.444  0.0000E+00  0.4000E+01
     -9.337  0.0000E+00  0.4000E+01
     -9.230  0.6506E-12  0.4000E+01
     -9.123  0.1386E-07  0.4000E+01
     -9.016  0.3256E-04  0.4000E+01
     -8.908  0.9077E-02  0.4001E+01
     -8.801  0.3526E+00  0.4039E+01
     -8.694  0.2601E+01  0.4318E+01
     -8.587  0.5401E+01  0.4897E+01
     -8.479  0.5703E+01  0.5508E+01
     -8.372  0.6328E+01  0.6187E+01
     -8.265  0.4752E+01  0.6696E+01
     -8.158  0.3753E+01  0.7099E+01
     -8.051  0.3367E+01  0.7460E+01
     -7.943  0.2173E+01  0.7693E+01
     -7.836  0.1480E+01  0.7851E+01
     -7.729  0.1079E+01  0.7967E+01
     -7.622  0.2934E+00  0.7998E+01
     -7.514  0.1475E-01  0.8000E+01
     -7.407  0.1027E-03  0.8000E+01
     -7.300  0.1113E-05  0.8000E+01
     -7.193  0.5874E-03  0.8000E+01
     -7.086  0.4161E-01  0.8005E+01
     -6.978  0.4329E+00  0.8051E+01
     -6.871  0.9118E+00  0.8149E+01
     -6.764  0.8118E+00  0.8236E+01
     -6.657  0.8894E+00  0.8331E+01
     -6.549  0.9508E+00  0.8433E+01
     -6.442  0.1360E+01  0.8579E+01
     -6.335  0.1853E+01  0.8778E+01
     -6.228  0.2209E+01  0.9014E+01
     -6.121  0.3291E+01  0.9367E+01
     -6.013  0.3170E+01  0.9707E+01
     -5.906  0.3177E+01  0.1005E+02
     -5.799  0.4753E+01  0.1056E+02
     -5.692  0.4904E+01  0.1108E+02
     -5.584  0.4083E+01  0.1152E+02
     -5.477  0.3473E+01  0.1189E+02
     -5.370  0.3324E+01  0.1225E+02
     -5.263  0.3365E+01  0.1261E+02
     -5.156  0.2651E+01  0.1290E+02
     -5.048  0.2060E+01  0.1312E+02
     -4.941  0.2252E+01  0.1336E+02
     -4.834  0.2295E+01  0.1360E+02
     -4.727  0.2192E+01  0.1384E+02
     -4.619  0.3705E+01  0.1424E+02
     -4.512  0.5162E+01  0.1479E+02
     -4.405  0.4564E+01  0.1528E+02
     -4.298  0.3011E+01  0.1560E+02
     -4.191  0.1871E+01  0.1580E+02
     -4.083  0.1898E+01  0.1601E+02
     -3.976  0.2158E+01  0.1624E+02
     -3.869  0.2598E+01  0.1652E+02
     -3.762  0.2760E+01  0.1681E+02
     -3.654  0.3322E+01  0.1717E+02
     -3.547  0.4477E+01  0.1765E+02
     -3.440  0.4306E+01  0.1811E+02
     -3.333  0.2767E+01  0.1841E+02
     -3.226  0.3339E+01  0.1876E+02
     -3.118  0.4553E+01  0.1925E+02
     -3.011  0.2668E+01  0.1954E+02
     -2.904  0.1662E+01  0.1972E+02
     -2.797  0.1803E+01  0.1991E+02
     -2.689  0.1962E+01  0.2012E+02
     -2.582  0.2050E+01  0.2034E+02
     -2.475  0.2328E+01  0.2059E+02
     -2.368  0.4956E+01  0.2112E+02
     -2.261  0.5146E+01  0.2167E+02
     -2.153  0.4710E+01  0.2218E+02
     -2.046  0.6383E+01  0.2286E+02
     -1.939  0.6687E+01  0.2358E+02
     -1.832  0.6097E+01  0.2423E+02
     -1.724  0.6098E+01  0.2489E+02
     -1.617  0.6610E+01  0.2560E+02
     -1.510  0.6512E+01  0.2629E+02
     -1.403  0.5116E+01  0.2684E+02
     -1.296  0.3582E+01  0.2723E+02
     -1.188  0.3564E+01  0.2761E+02
     -1.081  0.3985E+01  0.2804E+02
     -0.974  0.3228E+01  0.2838E+02
     -0.867  0.2180E+01  0.2862E+02
     -0.759  0.3144E+01  0.2895E+02
     -0.652  0.4754E+01  0.2946E+02
     -0.545  0.4686E+01  0.2996E+02
     -0.438  0.4707E+01  0.3047E+02
     -0.331  0.4732E+01  0.3098E+02
     -0.223  0.5115E+01  0.3153E+02
     -0.116  0.6188E+01  0.3219E+02
     -0.009  0.7499E+01  0.3299E+02
      0.098  0.7900E+01  0.3384E+02
      0.206  0.8266E+01  0.3473E+02
      0.313  0.8604E+01  0.3565E+02
      0.420  0.6663E+01  0.3636E+02
      0.527  0.4615E+01  0.3686E+02
      0.634  0.4052E+01  0.3729E+02
      0.742  0.3342E+01  0.3765E+02
      0.849  0.3145E+01  0.3799E+02
      0.956  0.3488E+01  0.3836E+02
      1.063  0.4778E+01  0.3887E+02
      1.171  0.4166E+01  0.3932E+02
      1.278  0.2665E+01  0.3961E+02
      1.385  0.2863E+01  0.3991E+02
      1.492  0.2797E+01  0.4021E+02
      1.599  0.2967E+01  0.4053E+02
      1.707  0.3383E+01  0.4089E+02
      1.814  0.3051E+01  0.4122E+02
      1.921  0.2616E+01  0.4150E+02
      2.028  0.2545E+01  0.4177E+02
      2.136  0.2670E+01  0.4206E+02
      2.243  0.2568E+01  0.4234E+02
      2.350  0.2690E+01  0.4263E+02
      2.457  0.3151E+01  0.4296E+02
      2.564  0.2566E+01  0.4324E+02
      2.672  0.1112E+01  0.4336E+02
      2.779  0.3023E+00  0.4339E+02
      2.886  0.1926E+00  0.4341E+02
      2.993  0.1851E+00  0.4343E+02
      3.101  0.1833E+00  0.4345E+02
      3.208  0.1842E+00  0.4347E+02
      3.315  0.1874E+00  0.4349E+02
      3.422  0.1929E+00  0.4351E+02
      3.529  0.2014E+00  0.4353E+02
      3.637  0.2140E+00  0.4355E+02
      3.744  0.2331E+00  0.4358E+02
      3.851  0.2676E+00  0.4361E+02
      3.958  0.4159E+00  0.4365E+02
      4.066  0.1098E+01  0.4377E+02
      4.173  0.1600E+01  0.4394E+02
      4.280  0.1174E+01  0.4407E+02
      4.387  0.1027E+01  0.4418E+02
      4.494  0.1013E+01  0.4429E+02
      4.602  0.1268E+01  0.4442E+02
      4.709  0.1127E+01  0.4454E+02
      4.816  0.1023E+01  0.4465E+02
      4.923  0.1164E+01  0.4478E+02
      5.031  0.9572E+00  0.4488E+02
      5.138  0.8485E+00  0.4497E+02
      5.245  0.1070E+01  0.4509E+02
      5.352  0.1526E+01  0.4525E+02
      5.459  0.1899E+01  0.4545E+02
      5.567  0.2576E+01  0.4573E+02
      5.674  0.2876E+01  0.4604E+02
      5.781  0.3607E+01  0.4643E+02
      5.888  0.4651E+01  0.4692E+02
      5.996  0.6362E+01  0.4761E+02
      6.103  0.3850E+01  0.4802E+02
      6.210  0.1920E+01  0.4822E+02
      6.317  0.2008E+01  0.4844E+02
      6.424  0.2580E+01  0.4872E+02
      6.532  0.4014E+01  0.4915E+02
      6.639  0.3341E+01  0.4951E+02
      6.746  0.2902E+01  0.4982E+02
      6.853  0.4344E+01  0.5028E+02
      6.961  0.5837E+01  0.5091E+02
      7.068  0.6198E+01  0.5157E+02
      7.175  0.5805E+01  0.5219E+02
      7.282  0.5378E+01  0.5277E+02
      7.389  0.4989E+01  0.5331E+02
      7.497  0.4613E+01  0.5380E+02
      7.604  0.4778E+01  0.5431E+02
      7.711  0.5017E+01  0.5485E+02
      7.818  0.4558E+01  0.5534E+02
      7.926  0.3358E+01  0.5570E+02
      8.033  0.2380E+01  0.5596E+02
      8.140  0.2616E+01  0.5624E+02
      8.247  0.3462E+01  0.5661E+02
      8.354  0.4810E+01  0.5712E+02
      8.462  0.5399E+01  0.5770E+02
      8.569  0.4705E+01  0.5821E+02
      8.676  0.3489E+01  0.5858E+02
      8.783  0.3083E+01  0.5891E+02
      8.891  0.3563E+01  0.5929E+02
      8.998  0.3964E+01  0.5972E+02
      9.105  0.4227E+01  0.6017E+02
      9.212  0.3815E+01  0.6058E+02
      9.319  0.3625E+01  0.6097E+02
      9.427  0.4478E+01  0.6145E+02
      9.534  0.4759E+01  0.6196E+02
      9.641  0.4608E+01  0.6245E+02
      9.748  0.4141E+01  0.6290E+02
      9.856  0.4577E+01  0.6339E+02
      9.963  0.4678E+01  0.6389E+02
     10.070  0.4319E+01  0.6435E+02
     10.177  0.4542E+01  0.6484E+02
     10.284  0.4525E+01  0.6532E+02
     10.392  0.4580E+01  0.6582E+02
     10.499  0.4780E+01  0.6633E+02
     10.606  0.5525E+01  0.6692E+02
     10.713  0.4077E+01  0.6736E+02
     10.821  0.2509E+01  0.6763E+02
     10.928  0.2693E+01  0.6792E+02
     11.035  0.4227E+01  0.6837E+02
     11.142  0.6096E+01  0.6902E+02
     11.249  0.7616E+01  0.6984E+02
     11.357  0.6611E+01  0.7055E+02
     11.464  0.5158E+01  0.7110E+02
     11.571  0.4800E+01  0.7162E+02
     11.678  0.4622E+01  0.7211E+02
     11.786  0.5139E+01  0.7266E+02
     11.893  0.7014E+01  0.7341E+02
     12.000  0.8342E+01  0.7431E+02
     12.107  0.8259E+01  0.7519E+02
     12.214  0.7548E+01  0.7600E+02
     12.322  0.5925E+01  0.7664E+02
     12.429  0.5255E+01  0.7720E+02
     12.536  0.6463E+01  0.7790E+02
     12.643  0.6282E+01  0.7857E+02
     12.751  0.4585E+01  0.7906E+02
     12.858  0.3757E+01  0.7946E+02
     12.965  0.4264E+01  0.7992E+02
     13.072  0.5824E+01  0.8055E+02
     13.179  0.6842E+01  0.8128E+02
     13.287  0.6480E+01  0.8197E+02
     13.394  0.5680E+01  0.8258E+02
     13.501  0.5137E+01  0.8313E+02
     13.608  0.4818E+01  0.8365E+02
     13.716  0.4535E+01  0.8414E+02
     13.823  0.4234E+01  0.8459E+02
     13.930  0.5223E+01  0.8515E+02
     14.037  0.6350E+01  0.8583E+02
     14.144  0.6083E+01  0.8648E+02
     14.252  0.5058E+01  0.8703E+02
     14.359  0.5433E+01  0.8761E+02
     14.466  0.5983E+01  0.8825E+02
     14.573  0.4907E+01  0.8878E+02
     14.681  0.4834E+01  0.8929E+02
     14.788  0.5581E+01  0.8989E+02
     14.895  0.4786E+01  0.9041E+02
     15.002  0.4466E+01  0.9088E+02
     15.109  0.4634E+01  0.9138E+02
     15.217  0.5012E+01  0.9192E+02
     15.324  0.6595E+01  0.9263E+02
     15.431  0.7601E+01  0.9344E+02
     15.538  0.6228E+01  0.9411E+02
     15.646  0.4139E+01  0.9455E+02
     15.753  0.2364E+01  0.9481E+02
     15.860  0.1792E+01  0.9500E+02
     15.967  0.1691E+01  0.9518E+02
     16.074  0.1241E+01  0.9531E+02
     16.182  0.9930E+00  0.9542E+02
     16.289  0.1700E+01  0.9560E+02
     16.396  0.2257E+01  0.9584E+02
     16.503  0.1087E+01  0.9596E+02
     16.611  0.3209E+00  0.9599E+02
     16.718  0.5255E-01  0.9600E+02
     16.825  0.1812E-02  0.9600E+02
     16.932  0.8337E-05  0.9600E+02
     17.039  0.4376E-08  0.9600E+02
     17.147  0.2472E-12  0.9600E+02
     17.254  0.0000E+00  0.9600E+02
     17.361  0.0000E+00  0.9600E+02
     17.468  0.0000E+00  0.9600E+02
     17.576  0.0000E+00  0.9600E+02
     17.683  0.0000E+00  0.9600E+02
     17.790  0.0000E+00  0.9600E+02
     17.897  0.0000E+00  0.9600E+02
     18.004  0.0000E+00  0.9600E+02
     18.00449903    -14.16218132  301      2.11254766      1.00000000
    -14.162  0.0000E+00  0.0000E+00  0.0000E+00  0.0000E+00  0.0000E+00  0.0000E+00  0.0000E+00  0.0000E+00  0.0000E+00
    -14.055  0.0000E+00  0.0000E+00  0.0000E+00  0.0000E+00  0.0000E+00  0.0000E+00  0.0000E+00  0.0000E+00  0.0000E+00
    -13.948  0.0000E+00  0.0000E+00  0.0000E+00  0.0000E+00  0.0000E+00  0.0000E+00  0.0000E+00  0.0000E+00  0.0000E+00
    -13.841  0.0000E+00  0.0000E+00  0.0000E+00  0.0000E+00  0.0000E+00  0.0000E+00  0.0000E+00  0.0000E+00  0.0000E+00
    -13.733  0.0000E+00  0.0000E+00  0.0000E+00  0.0000E+00  0.0000E+00  0.0000E+00  0.0000E+00  0.0000E+00  0.0000E+00
    -13.626  0.0000E+00  0.0000E+00  0.0000E+00  0.0000E+00  0.0000E+00  0.0000E+00  0.0000E+00  0.0000E+00  0.0000E+00
    -13.519  0.0000E+00  0.0000E+00  0.0000E+00  0.0000E+00  0.0000E+00  0.0000E+00  0.0000E+00  0.0000E+00  0.0000E+00
    -13.412  0.0000E+00  0.0000E+00  0.0000E+00  0.0000E+00  0.0000E+00  0.0000E+00  0.0000E+00  0.0000E+00  0.0000E+00
    -13.304  0.0000E+00  0.0000E+00  0.0000E+00  0.0000E+00  0.0000E+00  0.0000E+00  0.0000E+00  0.0000E+00  0.0000E+00
    -13.197  0.4440E-13  0.1148E-18  0.9182E-15  0.3423E-14  0.0000E+00  0.0000E+00  0.0000E+00  0.0000E+00  0.0000E+00
    -13.090  0.8360E-09  0.2707E-14  0.1734E-10  0.6450E-10  0.0000E+00  0.0000E+00  0.0000E+00  0.0000E+00  0.0000E+00
    -12.983  0.1737E-05  0.7402E-11  0.3623E-07  0.1342E-06  0.0000E+00  0.0000E+00  0.0000E+00  0.0000E+00  0.0000E+00
    -12.876  0.4253E-03  0.2568E-08  0.8963E-05  0.3290E-04  0.0000E+00  0.0000E+00  0.0000E+00  0.0000E+00  0.0000E+00
    -12.768  0.1406E-01  0.1372E-06  0.3034E-03  0.1091E-02  0.0000E+00  0.0000E+00  0.0000E+00  0.0000E+00  0.0000E+00
    -12.661  0.8178E-01  0.1682E-05  0.1862E-02  0.6388E-02  0.0000E+00  0.0000E+00  0.0000E+00  0.0000E+00  0.0000E+00
    -12.554  0.1262E+00  0.7535E-05  0.3106E-02  0.9994E-02  0.0000E+00  0.0000E+00  0.0000E+00  0.0000E+00  0.0000E+00
    -12.447  0.1253E+00  0.1469E-04  0.3146E-02  0.1021E-01  0.0000E+00  0.0000E+00  0.0000E+00  0.0000E+00  0.0000E+00
    -12.339  0.1825E+00  0.1372E-04  0.4626E-02  0.1582E-01  0.0000E+00  0.0000E+00  0.0000E+00  0.0000E+00  0.0000E+00
    -12.232  0.1938E+00  0.9183E-05  0.6098E-02  0.2744E-01  0.0000E+00  0.0000E+00  0.0000E+00  0.0000E+00  0.0000E+00
    -12.125  0.2886E+00  0.1931E-04  0.1103E-01  0.5819E-01  0.0000E+00  0.0000E+00  0.0000E+00  0.0000E+00  0.0000E+00
    -12.018  0.2342E+00  0.3482E-04  0.9267E-02  0.4905E-01  0.0000E+00  0.0000E+00  0.0000E+00  0.0000E+00  0.0000E+00
    -11.911  0.1775E+00  0.2612E-04  0.7245E-02  0.3827E-01  0.0000E+00  0.0000E+00  0.0000E+00  0.0000E+00  0.0000E+00
    -11.803  0.1024E+00  0.8202E-05  0.4793E-02  0.2484E-01  0.0000E+00  0.0000E+00  0.0000E+00  0.0000E+00  0.0000E+00
    -11.696  0.6421E-01  0.6828E-05  0.5838E-02  0.2766E-01  0.0000E+00  0.0000E+00  0.0000E+00  0.0000E+00  0.0000E+00
    -11.589  0.7645E-01  0.1046E-04  0.9271E-02  0.4379E-01  0.0000E+00  0.0000E+00  0.0000E+00  0.0000E+00  0.0000E+00
    -11.482  0.7222E-01  0.7724E-05  0.9509E-02  0.4617E-01  0.0000E+00  0.0000E+00  0.0000E+00  0.0000E+00  0.0000E+00
    -11.374  0.5779E-01  0.2473E-05  0.8014E-02  0.3850E-01  0.0000E+00  0.0000E+00  0.0000E+00  0.0000E+00  0.0000E+00
    -11.267  0.4395E-01  0.2451E-06  0.6130E-02  0.3113E-01  0.0000E+00  0.0000E+00  0.0000E+00  0.0000E+00  0.0000E+00
    -11.160  0.1795E-01  0.4914E-08  0.2509E-02  0.1331E-01  0.0000E+00  0.0000E+00  0.0000E+00  0.0000E+00  0.0000E+00
    -11.053  0.1674E-02  0.1473E-10  0.2349E-03  0.1263E-02  0.0000E+00  0.0000E+00  0.0000E+00  0.0000E+00  0.0000E+00
    -10.946  0.2352E-04  0.5580E-14  0.3310E-05  0.1789E-04  0.0000E+00  0.0000E+00  0.0000E+00  0.0000E+00  0.0000E+00
    -10.838  0.4127E-07  0.2456E-18  0.5816E-08  0.3150E-07  0.0000E+00  0.0000E+00  0.0000E+00  0.0000E+00  0.0000E+00
    -10.731  0.8234E-11  0.1251E-24  0.1161E-11  0.6300E-11  0.0000E+00  0.0000E+00  0.0000E+00  0.0000E+00  0.0000E+00
    -10.624  0.1777E-15  0.2628E-29  0.2508E-16  0.1362E-15  0.0000E+00  0.0000E+00  0.0000E+00  0.0000E+00  0.0000E+00
    -10.517  0.0000E+00  0.0000E+00  0.0000E+00  0.0000E+00  0.0000E+00  0.0000E+00  0.0000E+00  0.0000E+00  0.0000E+00
    -10.409  0.0000E+00  0.0000E+00  0.0000E+00  0.0000E+00  0.0000E+00  0.0000E+00  0.0000E+00  0.0000E+00  0.0000E+00
    -10.302  0.0000E+00  0.0000E+00  0.0000E+00  0.0000E+00  0.0000E+00  0.0000E+00  0.0000E+00  0.0000E+00  0.0000E+00
    -10.195  0.0000E+00  0.0000E+00  0.0000E+00  0.0000E+00  0.0000E+00  0.0000E+00  0.0000E+00  0.0000E+00  0.0000E+00
    -10.088  0.0000E+00  0.0000E+00  0.0000E+00  0.0000E+00  0.0000E+00  0.0000E+00  0.0000E+00  0.0000E+00  0.0000E+00
     -9.981  0.0000E+00  0.0000E+00  0.0000E+00  0.0000E+00  0.0000E+00  0.0000E+00  0.0000E+00  0.0000E+00  0.0000E+00
     -9.873  0.0000E+00  0.0000E+00  0.0000E+00  0.0000E+00  0.0000E+00  0.0000E+00  0.0000E+00  0.0000E+00  0.0000E+00
     -9.766  0.0000E+00  0.0000E+00  0.0000E+00  0.0000E+00  0.0000E+00  0.0000E+00  0.0000E+00  0.0000E+00  0.0000E+00
     -9.659  0.0000E+00  0.0000E+00  0.0000E+00  0.0000E+00  0.0000E+00  0.0000E+00  0.0000E+00  0.0000E+00  0.0000E+00
     -9.552  0.0000E+00  0.0000E+00  0.0000E+00  0.0000E+00  0.0000E+00  0.0000E+00  0.0000E+00  0.0000E+00  0.0000E+00
     -9.444  0.0000E+00  0.0000E+00  0.0000E+00  0.0000E+00  0.0000E+00  0.0000E+00  0.0000E+00  0.0000E+00  0.0000E+00
     -9.337  0.0000E+00  0.0000E+00  0.0000E+00  0.0000E+00  0.0000E+00  0.0000E+00  0.0000E+00  0.0000E+00  0.0000E+00
     -9.230  0.3327E-13  0.2787E-18  0.1565E-13  0.1027E-14  0.0000E+00  0.0000E+00  0.0000E+00  0.0000E+00  0.0000E+00
     -9.123  0.7097E-09  0.7434E-14  0.3334E-09  0.2187E-10  0.0000E+00  0.0000E+00  0.0000E+00  0.0000E+00  0.0000E+00
     -9.016  0.1680E-05  0.2305E-10  0.7827E-06  0.5117E-07  0.0000E+00  0.0000E+00  0.0000E+00  0.0000E+00  0.0000E+00
     -8.908  0.4813E-03  0.9242E-08  0.2170E-03  0.1397E-04  0.0000E+00  0.0000E+00  0.0000E+00  0.0000E+00  0.0000E+00
     -8.801  0.2034E-01  0.5946E-06  0.8262E-02  0.5007E-03  0.0000E+00  0.0000E+00  0.0000E+00  0.0000E+00  0.0000E+00
     -8.694  0.1769E+00  0.8145E-05  0.5842E-01  0.2990E-02  0.0000E+00  0.0000E+00  0.0000E+00  0.0000E+00  0.0000E+00
     -8.587  0.4202E+00  0.2853E-04  0.1185E+00  0.4954E-02  0.0000E+00  0.0000E+00  0.0000E+00  0.0000E+00  0.0000E+00
     -8.479  0.4479E+00  0.3147E-04  0.1337E+00  0.6085E-02  0.0000E+00  0.0000E+00  0.0000E+00  0.0000E+00  0.0000E+00
     -8.372  0.4735E+00  0.1745E-04  0.1653E+00  0.8816E-02  0.0000E+00  0.0000E+00  0.0000E+00  0.0000E+00  0.0000E+00
     -8.265  0.2739E+00  0.1348E-04  0.1456E+00  0.1062E-01  0.0000E+00  0.0000E+00  0.0000E+00  0.0000E+00  0.0000E+00
     -8.158  0.1585E+00  0.1094E-04  0.1312E+00  0.1228E-01  0.0000E+00  0.0000E+00  0.0000E+00  0.0000E+00  0.0000E+00
     -8.051  0.9890E-01  0.3530E-05  0.1294E+00  0.1340E-01  0.0000E+00  0.0000E+00  0.0000E+00  0.0000E+00  0.0000E+00
     -7.943  0.3985E-01  0.3078E-06  0.8772E-01  0.1157E-01  0.0000E+00  0.0000E+00  0.0000E+00  0.0000E+00  0.0000E+00
     -7.836  0.2185E-01  0.4252E-07  0.6093E-01  0.9981E-02  0.0000E+00  0.0000E+00  0.0000E+00  0.0000E+00  0.0000E+00
     -7.729  0.1576E-01  0.5406E-07  0.4526E-01  0.7878E-02  0.0000E+00  0.0000E+00  0.0000E+00  0.0000E+00  0.0000E+00
     -7.622  0.4292E-02  0.1480E-07  0.1239E-01  0.2185E-02  0.0000E+00  0.0000E+00  0.0000E+00  0.0000E+00  0.0000E+00
     -7.514  0.2159E-03  0.6340E-09  0.6247E-03  0.1105E-03  0.0000E+00  0.0000E+00  0.0000E+00  0.0000E+00  0.0000E+00
     -7.407  0.1503E-05  0.3649E-11  0.4352E-05  0.7710E-06  0.0000E+00  0.0000E+00  0.0000E+00  0.0000E+00  0.0000E+00
     -7.300  0.1397E-08  0.2576E-12  0.8570E-08  0.3490E-07  0.0000E+00  0.0000E+00  0.0000E+00  0.0000E+00  0.0000E+00
     -7.193  0.8438E-07  0.2098E-09  0.2832E-05  0.1960E-04  0.0000E+00  0.0000E+00  0.0000E+00  0.0000E+00  0.0000E+00
     -7.086  0.6329E-05  0.2413E-07  0.2017E-03  0.1389E-02  0.0000E+00  0.0000E+00  0.0000E+00  0.0000E+00  0.0000E+00
     -6.978  0.7407E-04  0.4936E-06  0.2124E-02  0.1446E-01  0.0000E+00  0.0000E+00  0.0000E+00  0.0000E+00  0.0000E+00
     -6.871  0.2030E-03  0.2675E-05  0.4615E-02  0.3056E-01  0.0000E+00  0.0000E+00  0.0000E+00  0.0000E+00  0.0000E+00
     -6.764  0.2846E-03  0.6389E-05  0.4408E-02  0.2749E-01  0.0000E+00  0.0000E+00  0.0000E+00  0.0000E+00  0.0000E+00
     -6.657  0.4361E-03  0.6580E-04  0.5134E-02  0.3054E-01  0.0000E+00  0.0000E+00  0.0000E+00  0.0000E+00  0.0000E+00
     -6.549  0.5408E-03  0.2699E-02  0.5111E-02  0.2878E-01  0.0000E+00  0.0000E+00  0.0000E+00  0.0000E+00  0.0000E+00
     -6.442  0.5243E-03  0.1929E-01  0.3491E-02  0.1728E-01  0.0000E+00  0.0000E+00  0.0000E+00  0.0000E+00  0.0000E+00
     -6.335  0.1198E-02  0.3220E-01  0.3321E-02  0.1426E-01  0.0000E+00  0.0000E+00  0.0000E+00  0.0000E+00  0.0000E+00
     -6.228  0.1294E-01  0.2889E-01  0.8889E-02  0.2227E-01  0.0000E+00  0.0000E+00  0.0000E+00  0.0000E+00  0.0000E+00
     -6.121  0.4510E-01  0.1892E-01  0.2551E-01  0.4537E-01  0.0000E+00  0.0000E+00  0.0000E+00  0.0000E+00  0.0000E+00
     -6.013  0.4775E-01  0.1182E-01  0.2842E-01  0.4880E-01  0.0000E+00  0.0000E+00  0.0000E+00  0.0000E+00  0.0000E+00
     -5.906  0.4600E-01  0.2194E-01  0.2505E-01  0.3167E-01  0.0000E+00  0.0000E+00  0.0000E+00  0.0000E+00  0.0000E+00
     -5.799  0.7969E-01  0.3558E-01  0.3862E-01  0.3582E-01  0.0000E+00  0.0000E+00  0.0000E+00  0.0000E+00  0.0000E+00
     -5.692  0.8822E-01  0.2896E-01  0.4470E-01  0.4736E-01  0.0000E+00  0.0000E+00  0.0000E+00  0.0000E+00  0.0000E+00
     -5.584  0.6188E-01  0.2713E-01  0.3278E-01  0.3727E-01  0.0000E+00  0.0000E+00  0.0000E+00  0.0000E+00  0.0000E+00
     -5.477  0.5588E-01  0.2673E-01  0.2640E-01  0.1987E-01  0.0000E+00  0.0000E+00  0.0000E+00  0.0000E+00  0.0000E+00
     -5.370  0.6608E-01  0.2519E-01  0.2880E-01  0.1325E-01  0.0000E+00  0.0000E+00  0.0000E+00  0.0000E+00  0.0000E+00
     -5.263  0.6348E-01  0.2590E-01  0.2880E-01  0.1545E-01  0.0000E+00  0.0000E+00  0.0000E+00  0.0000E+00  0.0000E+00
     -5.156  0.5736E-01  0.1922E-01  0.2690E-01  0.1570E-01  0.0000E+00  0.0000E+00  0.0000E+00  0.0000E+00  0.0000E+00
     -5.048  0.5494E-01  0.1286E-01  0.2712E-01  0.1705E-01  0.0000E+00  0.0000E+00  0.0000E+00  0.0000E+00  0.0000E+00
     -4.941  0.5520E-01  0.1174E-01  0.3381E-01  0.2542E-01  0.0000E+00  0.0000E+00  0.0000E+00  0.0000E+00  0.0000E+00
     -4.834  0.5473E-01  0.1128E-01  0.3659E-01  0.2807E-01  0.0000E+00  0.0000E+00  0.0000E+00  0.0000E+00  0.0000E+00
     -4.727  0.4869E-01  0.1091E-01  0.4558E-01  0.2302E-01  0.0000E+00  0.0000E+00  0.0000E+00  0.0000E+00  0.0000E+00
     -4.619  0.6644E-01  0.1098E-01  0.1107E+00  0.4669E-01  0.0000E+00  0.0000E+00  0.0000E+00  0.0000E+00  0.0000E+00
     -4.512  0.7451E-01  0.1084E-01  0.1642E+00  0.8883E-01  0.0000E+00  0.0000E+00  0.0000E+00  0.0000E+00  0.0000E+00
     -4.405  0.4894E-01  0.1158E-01  0.1393E+00  0.9347E-01  0.0000E+00  0.0000E+00  0.0000E+00  0.0000E+00  0.0000E+00
     -4.298  0.2430E-01  0.1177E-01  0.7732E-01  0.6444E-01  0.0000E+00  0.0000E+00  0.0000E+00  0.0000E+00  0.0000E+00
     -4.191  0.1519E-01  0.1082E-01  0.3766E-01  0.3769E-01  0.0000E+00  0.0000E+00  0.0000E+00  0.0000E+00  0.0000E+00
     -4.083  0.1573E-01  0.1210E-01  0.3291E-01  0.3998E-01  0.0000E+00  0.0000E+00  0.0000E+00  0.0000E+00  0.0000E+00
     -3.976  0.1765E-01  0.2426E-01  0.3450E-01  0.4051E-01  0.0000E+00  0.0000E+00  0.0000E+00  0.0000E+00  0.0000E+00
     -3.869  0.1892E-01  0.4741E-01  0.3721E-01  0.3961E-01  0.0000E+00  0.0000E+00  0.0000E+00  0.0000E+00  0.0000E+00
     -3.762  0.2188E-01  0.5087E-01  0.4347E-01  0.4599E-01  0.0000E+00  0.0000E+00  0.0000E+00  0.0000E+00  0.0000E+00
     -3.654  0.3620E-01  0.3923E-01  0.6974E-01  0.8331E-01  0.0000E+00  0.0000E+00  0.0000E+00  0.0000E+00  0.0000E+00
     -3.547  0.6314E-01  0.1537E-01  0.1269E+00  0.1408E+00  0.0000E+00  0.0000E+00  0.0000E+00  0.0000E+00  0.0000E+00
     -3.440  0.6389E-01  0.9253E-02  0.1308E+00  0.1204E+00  0.0000E+00  0.0000E+00  0.0000E+00  0.0000E+00  0.0000E+00
     -3.333  0.3608E-01  0.1367E-01  0.8554E-01  0.5126E-01  0.0000E+00  0.0000E+00  0.0000E+00  0.0000E+00  0.0000E+00
     -3.226  0.2954E-01  0.5525E-01  0.7703E-01  0.2447E-01  0.0000E+00  0.0000E+00  0.0000E+00  0.0000E+00  0.0000E+00
     -3.118  0.3578E-01  0.1127E+00  0.4494E-01  0.2088E-01  0.0000E+00  0.0000E+00  0.0000E+00  0.0000E+00  0.0000E+00
     -3.011  0.3279E-01  0.5295E-01  0.1483E-01  0.1971E-01  0.0000E+00  0.0000E+00  0.0000E+00  0.0000E+00  0.0000E+00
     -2.904  0.4050E-01  0.5793E-02  0.1298E-01  0.2265E-01  0.0000E+00  0.0000E+00  0.0000E+00  0.0000E+00  0.0000E+00
     -2.797  0.4952E-01  0.2147E-02  0.1313E-01  0.2335E-01  0.0000E+00  0.0000E+00  0.0000E+00  0.0000E+00  0.0000E+00
     -2.689  0.4763E-01  0.5871E-02  0.1341E-01  0.2344E-01  0.0000E+00  0.0000E+00  0.0000E+00  0.0000E+00  0.0000E+00
     -2.582  0.3212E-01  0.1091E-01  0.1237E-01  0.2650E-01  0.0000E+00  0.0000E+00  0.0000E+00  0.0000E+00  0.0000E+00
     -2.475  0.1927E-01  0.9234E-02  0.1054E-01  0.2822E-01  0.0000E+00  0.0000E+00  0.0000E+00  0.0000E+00  0.0000E+00
     -2.368  0.3143E-01  0.9070E-02  0.1300E-01  0.3534E-01  0.0000E+00  0.0000E+00  0.0000E+00  0.0000E+00  0.0000E+00
     -2.261  0.2948E-01  0.1603E-01  0.1110E-01  0.4134E-01  0.0000E+00  0.0000E+00  0.0000E+00  0.0000E+00  0.0000E+00
     -2.153  0.3207E-01  0.3894E-01  0.1316E-01  0.6875E-01  0.0000E+00  0.0000E+00  0.0000E+00  0.0000E+00  0.0000E+00
     -2.046  0.7694E-01  0.4175E-01  0.3029E-01  0.1475E+00  0.0000E+00  0.0000E+00  0.0000E+00  0.0000E+00  0.0000E+00
     -1.939  0.8574E-01  0.2899E-01  0.5239E-01  0.1687E+00  0.0000E+00  0.0000E+00  0.0000E+00  0.0000E+00  0.0000E+00
     -1.832  0.4511E-01  0.5172E-01  0.6313E-01  0.1258E+00  0.0000E+00  0.0000E+00  0.0000E+00  0.0000E+00  0.0000E+00
     -1.724  0.1806E-01  0.1153E+00  0.5264E-01  0.8419E-01  0.0000E+00  0.0000E+00  0.0000E+00  0.0000E+00  0.0000E+00
     -1.617  0.1326E-01  0.1262E+00  0.6790E-01  0.1029E+00  0.0000E+00  0.0000E+00  0.0000E+00  0.0000E+00  0.0000E+00
     -1.510  0.1481E-01  0.9032E-01  0.7095E-01  0.1725E+00  0.0000E+00  0.0000E+00  0.0000E+00  0.0000E+00  0.0000E+00
     -1.403  0.1136E-01  0.7092E-01  0.4935E-01  0.1574E+00  0.0000E+00  0.0000E+00  0.0000E+00  0.0000E+00  0.0000E+00
     -1.296  0.7442E-02  0.5575E-01  0.2557E-01  0.9978E-01  0.0000E+00  0.0000E+00  0.0000E+00  0.0000E+00  0.0000E+00
     -1.188  0.9251E-02  0.5110E-01  0.1745E-01  0.9465E-01  0.0000E+00  0.0000E+00  0.0000E+00  0.0000E+00  0.0000E+00
     -1.081  0.1412E-01  0.4457E-01  0.1833E-01  0.1282E+00  0.0000E+00  0.0000E+00  0.0000E+00  0.0000E+00  0.0000E+00
     -0.974  0.1327E-01  0.3413E-01  0.1636E-01  0.1082E+00  0.0000E+00  0.0000E+00  0.0000E+00  0.0000E+00  0.0000E+00
     -0.867  0.9934E-02  0.3765E-01  0.1201E-01  0.2987E-01  0.0000E+00  0.0000E+00  0.0000E+00  0.0000E+00  0.0000E+00
     -0.759  0.3093E-01  0.3756E-01  0.1487E-01  0.7262E-02  0.0000E+00  0.0000E+00  0.0000E+00  0.0000E+00  0.0000E+00
     -0.652  0.5846E-01  0.2785E-01  0.2382E-01  0.8450E-02  0.0000E+00  0.0000E+00  0.0000E+00  0.0000E+00  0.0000E+00
     -0.545  0.4264E-01  0.3693E-01  0.3097E-01  0.1352E-01  0.0000E+00  0.0000E+00  0.0000E+00  0.0000E+00  0.0000E+00
     -0.438  0.2492E-01  0.5739E-01  0.3630E-01  0.1598E-01  0.0000E+00  0.0000E+00  0.0000E+00  0.0000E+00  0.0000E+00
     -0.331  0.1800E-01  0.7006E-01  0.3993E-01  0.1562E-01  0.0000E+00  0.0000E+00  0.0000E+00  0.0000E+00  0.0000E+00
     -0.223  0.1562E-01  0.8225E-01  0.5162E-01  0.1688E-01  0.0000E+00  0.0000E+00  0.0000E+00  0.0000E+00  0.0000E+00
     -0.116  0.2137E-01  0.7792E-01  0.9516E-01  0.2013E-01  0.0000E+00  0.0000E+00  0.0000E+00  0.0000E+00  0.0000E+00
     -0.009  0.2856E-01  0.1049E+00  0.1225E+00  0.2898E-01  0.0000E+00  0.0000E+00  0.0000E+00  0.0000E+00  0.0000E+00
      0.098  0.3428E-01  0.1376E+00  0.8802E-01  0.4919E-01  0.0000E+00  0.0000E+00  0.0000E+00  0.0000E+00  0.0000E+00
      0.206  0.5365E-01  0.1300E+00  0.6672E-01  0.7881E-01  0.0000E+00  0.0000E+00  0.0000E+00  0.0000E+00  0.0000E+00
      0.313  0.6750E-01  0.1193E+00  0.8208E-01  0.1209E+00  0.0000E+00  0.0000E+00  0.0000E+00  0.0000E+00  0.0000E+00
      0.420  0.4632E-01  0.8081E-01  0.6459E-01  0.1110E+00  0.0000E+00  0.0000E+00  0.0000E+00  0.0000E+00  0.0000E+00
      0.527  0.1834E-01  0.3708E-01  0.4957E-01  0.8644E-01  0.0000E+00  0.0000E+00  0.0000E+00  0.0000E+00  0.0000E+00
      0.634  0.1479E-01  0.2435E-01  0.6401E-01  0.7066E-01  0.0000E+00  0.0000E+00  0.0000E+00  0.0000E+00  0.0000E+00
      0.742  0.1160E-01  0.2567E-01  0.6222E-01  0.3397E-01  0.0000E+00  0.0000E+00  0.0000E+00  0.0000E+00  0.0000E+00
      0.849  0.8790E-02  0.3536E-01  0.4533E-01  0.2185E-01  0.0000E+00  0.0000E+00  0.0000E+00  0.0000E+00  0.0000E+00
      0.956  0.1010E-01  0.3178E-01  0.6438E-01  0.3223E-01  0.0000E+00  0.0000E+00  0.0000E+00  0.0000E+00  0.0000E+00
      1.063  0.1640E-01  0.2970E-01  0.1140E+00  0.6486E-01  0.0000E+00  0.0000E+00  0.0000E+00  0.0000E+00  0.0000E+00
      1.171  0.1383E-01  0.3269E-01  0.8942E-01  0.5768E-01  0.0000E+00  0.0000E+00  0.0000E+00  0.0000E+00  0.0000E+00
      1.278  0.4479E-02  0.4380E-01  0.2406E-01  0.1763E-01  0.0000E+00  0.0000E+00  0.0000E+00  0.0000E+00  0.0000E+00
      1.385  0.1722E-02  0.6195E-01  0.6599E-02  0.6214E-02  0.0000E+00  0.0000E+00  0.0000E+00  0.0000E+00  0.0000E+00
      1.492  0.1426E-02  0.6137E-01  0.5651E-02  0.5688E-02  0.0000E+00  0.0000E+00  0.0000E+00  0.0000E+00  0.0000E+00
      1.599  0.1224E-02  0.6827E-01  0.5297E-02  0.5415E-02  0.0000E+00  0.0000E+00  0.0000E+00  0.0000E+00  0.0000E+00
      1.707  0.1081E-02  0.7846E-01  0.5188E-02  0.5355E-02  0.0000E+00  0.0000E+00  0.0000E+00  0.0000E+00  0.0000E+00
      1.814  0.9593E-03  0.6817E-01  0.5129E-02  0.5178E-02  0.0000E+00  0.0000E+00  0.0000E+00  0.0000E+00  0.0000E+00
      1.921  0.8873E-03  0.5887E-01  0.5123E-02  0.4984E-02  0.0000E+00  0.0000E+00  0.0000E+00  0.0000E+00  0.0000E+00
      2.028  0.8978E-03  0.6127E-01  0.5358E-02  0.4931E-02  0.0000E+00  0.0000E+00  0.0000E+00  0.0000E+00  0.0000E+00
      2.136  0.1099E-02  0.6386E-01  0.6012E-02  0.4832E-02  0.0000E+00  0.0000E+00  0.0000E+00  0.0000E+00  0.0000E+00
      2.243  0.2347E-02  0.4850E-01  0.9535E-02  0.5215E-02  0.0000E+00  0.0000E+00  0.0000E+00  0.0000E+00  0.0000E+00
      2.350  0.3985E-02  0.4420E-01  0.1486E-01  0.5783E-02  0.0000E+00  0.0000E+00  0.0000E+00  0.0000E+00  0.0000E+00
      2.457  0.4989E-02  0.5326E-01  0.1960E-01  0.6085E-02  0.0000E+00  0.0000E+00  0.0000E+00  0.0000E+00  0.0000E+00
      2.564  0.4095E-02  0.4703E-01  0.1904E-01  0.5428E-02  0.0000E+00  0.0000E+00  0.0000E+00  0.0000E+00  0.0000E+00