   14   14    1    1
  0.1021318E+02  0.5700971E-09  0.4044058E-09  0.6201871E-09  0.5000000E-15
  1.000000000000000E-004
  CAR 
 BS                                      
     42    192     48
 
  0.0000000E+00  0.0000000E+00  0.0000000E+00  0.5208333E-02
      1        -12.700059   1.000000
      2        -11.518480   1.000000
      3         -8.660188   1.000000
      4         -8.367296   1.000000
      5         -6.054658   1.000000
      6         -5.092609   1.000000
      7         -4.680643   1.000000
      8         -4.377631   1.000000
      9         -3.934859   1.000000
     10         -3.527790   1.000000
     11         -2.404713   1.000000
     12         -2.222253   1.000000
     13         -2.104448   1.000000
     14         -1.066424   1.000000
     15         -0.020353   1.000000
     16          0.013802   1.000000
     17          0.041245   1.000000
     18          0.089702   1.000000
     19          0.673141   1.000000
     20          2.119503   0.460821
     21          2.153434   0.281558
     22          2.242302   0.033253
     23          5.505217   0.000000
     24          5.726927   0.000000
     25          5.734988   0.000000
     26          5.971517   0.000000
     27          6.724542   0.000000
     28          7.698107   0.000000
     29          7.719037   0.000000
     30          8.621869   0.000000
     31          8.850186   0.000000
     32          8.854951   0.000000
     33          9.051232   0.000000
     34         10.026569   0.000000
     35         11.191990   0.000000
     36         11.406413   0.000000
     37         11.517922   0.000000
     38         11.781975   0.000000
     39         11.958546   0.000000
     40         12.294839   0.000000
     41         12.921505   0.000000
     42         13.342180   0.000000
     43         13.527683   0.000000
     44         15.523666   0.000000
     45         15.581703   0.000000
     46         15.920771   0.000000
     47         16.310191   0.000000
     48         16.538285   0.000000
 
  0.0000000E+00  0.0000000E+00  0.2173913E-01  0.5208333E-02
      1        -12.699636   1.000000
      2        -11.519312   1.000000
      3         -8.659947   1.000000
      4         -8.366001   1.000000
      5         -6.060006   1.000000
      6         -5.103730   1.000000
      7         -4.668179   1.000000
      8         -4.371826   1.000000
      9         -3.934047   1.000000
     10         -3.523340   1.000000
     11         -2.404364   1.000000
     12         -2.222528   1.000000
     13         -2.107311   1.000000
     14         -1.068626   1.000000
     15         -0.019271   1.000000
     16          0.014656   1.000000
     17          0.045003   1.000000
     18          0.081126   1.000000
     19          0.661832   1.000000
     20          2.115777   0.481785
     21          2.151468   0.291018
     22          2.256529   0.020865
     23          5.504672   0.000000
     24          5.727444   0.000000
     25          5.733556   0.000000
     26          5.971137   0.000000
     27          6.729872   0.000000
     28          7.692997   0.000000
     29          7.719934   0.000000
     30          8.626364   0.000000
     31          8.818068   0.000000
     32          8.896470   0.000000
     33          9.053372   0.000000
     34         10.030438   0.000000
     35         11.192585   0.000000
     36         11.404628   0.000000
     37         11.520076   0.000000
     38         11.761705   0.000000
     39         11.954973   0.000000
     40         12.297246   0.000000
     41         12.929043   0.000000
     42         13.334044   0.000000
     43         13.545528   0.000000
     44         15.527247   0.000000
     45         15.570444   0.000000
     46         15.900777   0.000000
     47         16.311053   0.000000
     48         16.542377   0.000000
 
  0.0000000E+00  0.0000000E+00  0.4347826E-01  0.5208333E-02
      1        -12.698365   1.000000
      2        -11.521795   1.000000
      3         -8.659226   1.000000
      4         -8.362122   1.000000
      5         -6.075783   1.000000
      6         -5.133665   1.000000
      7         -4.634224   1.000000
      8         -4.354662   1.000000
      9         -3.931617   1.000000
     10         -3.510020   1.000000
     11         -2.403324   1.000000
     12         -2.223358   1.000000
     13         -2.115821   1.000000
     14         -1.075191   1.000000
     15         -0.016033   1.000000
     16          0.017196   1.000000
     17          0.055384   1.000000
     18          0.056210   1.000000
     19          0.629409   1.000000
     20          2.104691   0.544235
     21          2.145577   0.320214
     22          2.297718   0.004413
     23          5.503035   0.000000
     24          5.705514   0.000000
     25          5.753321   0.000000
     26          5.970026   0.000000
     27          6.745219   0.000000
     28          7.678018   0.000000
     29          7.722587   0.000000
     30          8.639781   0.000000
     31          8.793003   0.000000
     32          8.949303   0.000000
     33          9.059776   0.000000
     34         10.042073   0.000000
     35         11.194175   0.000000
     36         11.399238   0.000000
     37         11.526531   0.000000
     38         11.703340   0.000000
     39         11.945000   0.000000
     40         12.304457   0.000000
     41         12.950948   0.000000
     42         13.309899   0.000000
     43         13.596613   0.000000
     44         15.537458   0.000000
     45         15.538151   0.000000
     46         15.843504   0.000000
     47         16.314638   0.000000
     48         16.429286   0.000000
 
  0.0000000E+00  0.0000000E+00  0.6521739E-01  0.5208333E-02
      1        -12.696260   1.000000
      2        -11.525891   1.000000
      3         -8.658039   1.000000
      4         -8.355699   1.000000
      5         -6.101238   1.000000
      6         -5.175692   1.000000
      7         -4.585544   1.000000
      8         -4.326835   1.000000
      9         -3.927579   1.000000
     10         -3.487933   1.000000
     11         -2.401580   1.000000
     12         -2.224732   1.000000
     13         -2.129728   1.000000
     14         -1.086002   1.000000
     15         -0.010665   1.000000
     16          0.012641   1.000000
     17          0.021338   1.000000
     18          0.074616   1.000000
     19          0.579693   1.000000
     20          2.086537   0.643504
     21          2.135810   0.371088
     22          2.361944   0.000210
     23          5.500251   0.000000
     24          5.671008   0.000000
     25          5.785956   0.000000
     26          5.968254   0.000000
     27          6.768836   0.000000
     28          7.654101   0.000000
     29          7.726854   0.000000
     30          8.661971   0.000000
     31          8.776736   0.000000
     32          9.010500   0.000000
     33          9.070396   0.000000
     34         10.061533   0.000000
     35         11.196183   0.000000
     36         11.390366   0.000000
     37         11.537206   0.000000
     38         11.612896   0.000000
     39         11.930755   0.000000
     40         12.316431   0.000000
     41         12.985353   0.000000
     42         13.270595   0.000000
     43         13.674821   0.000000
     44         15.488568   0.000000
     45         15.552898   0.000000
     46         15.755854   0.000000
     47         16.310627   0.000000
     48         16.318701   0.000000
 
  0.0000000E+00  0.0000000E+00  0.8695652E-01  0.5208333E-02
      1        -12.693353   1.000000
      2        -11.531525   1.000000
      3         -8.656398   1.000000
      4         -8.346774   1.000000
      5         -6.135269   1.000000
      6         -5.224228   1.000000
      7         -4.527767   1.000000
      8         -4.289377   1.000000
      9         -3.921995   1.000000
     10         -3.457246   1.000000
     11         -2.399139   1.000000
     12         -2.226648   1.000000
     13         -2.148674   1.000000
     14         -1.100904   1.000000
     15         -0.046617   1.000000
     16         -0.003202   1.000000
     17          0.026934   1.000000
     18          0.099857   1.000000
     19          0.517316   1.000000
     20          2.061784   0.763594
     21          2.122147   0.446008
     22          2.444331   0.000001
     23          5.496314   0.000000
     24          5.626351   0.000000
     25          5.830987   0.000000
     26          5.965947   0.000000
     27          6.798485   0.000000
     28          7.622648   0.000000
     29          7.732535   0.000000
     30          8.692622   0.000000
     31          8.768420   0.000000
     32          9.079144   0.000000
     33          9.085145   0.000000
     34         10.088922   0.000000
     35         11.197693   0.000000
     36         11.378152   0.000000
     37         11.497477   0.000000
     38         11.552050   0.000000
     39         11.915194   0.000000
     40         12.333121   0.000000
     41         13.029733   0.000000
     42         13.217403   0.000000
     43         13.772893   0.000000
     44         15.426279   0.000000
     45         15.571357   0.000000
     46         15.645414   0.000000
     47         16.186284   0.000000
     48         16.368601   0.000000
 
  0.0000000E+00  0.0000000E+00  0.1086957E+00  0.5208333E-02
      1        -12.689676   1.000000
      2        -11.538614   1.000000
      3         -8.654342   1.000000
      4         -8.335428   1.000000
      5         -6.176573   1.000000
      6         -5.275775   1.000000
      7         -4.464471   1.000000
      8         -4.243446   1.000000
      9         -3.914893   1.000000
     10         -3.418230   1.000000
     11         -2.395983   1.000000
     12         -2.229080   1.000000
     13         -2.172154   1.000000
     14         -1.119636   1.000000
     15         -0.121379   1.000000
     16          0.006313   1.000000
     17          0.033818   1.000000
     18          0.131458   1.000000
     19          0.446287   1.000000
     20          2.031033   0.875501
     21          2.104664   0.544387
     22          2.540098   0.000000
     23          5.491184   0.000000
     24          5.574091   0.000000
     25          5.887838   0.000000
     26          5.963251   0.000000
     27          6.831912   0.000000
     28          7.585234   0.000000
     29          7.739336   0.000000
     30          8.731380   0.000000
     31          8.766956   0.000000
     32          9.103893   0.000000
     33          9.154234   0.000000
     34         10.124347   0.000000
     35         11.197525   0.000000
     36         11.362828   0.000000
     37         11.363482   0.000000
     38         11.570853   0.000000
     39         11.901544   0.000000
     40         12.354507   0.000000
     41         13.081355   0.000000
     42         13.151889   0.000000
     43         13.884237   0.000000
     44         15.355530   0.000000
     45         15.518577   0.000000
     46         15.589992   0.000000
     47         16.054415   0.000000
     48         16.332353   0.000000
 
  0.0000000E+00  0.0000000E+00  0.1304348E+00  0.5208333E-02
      1        -12.685272   1.000000
      2        -11.547037   1.000000
      3         -8.651892   1.000000
      4         -8.321750   1.000000
      5         -6.223786   1.000000
      6         -5.328243   1.000000
      7         -4.397826   1.000000
      8         -4.190224   1.000000
      9         -3.906331   1.000000
     10         -3.371234   1.000000
     11         -2.392094   1.000000
     12         -2.231991   1.000000
     13         -2.199595   1.000000
     14         -1.141900   1.000000
     15         -0.210035   1.000000
     16          0.017831   1.000000
     17          0.041797   1.000000
     18          0.168882   1.000000
     19          0.369400   1.000000
     20          1.995000   0.951782
     21          2.083431   0.659746
     22          2.645181   0.000000
     23          5.484819   0.000000
     24          5.516544   0.000000
     25          5.955838   0.000000
     26          5.960352   0.000000
     27          6.867179   0.000000
     28          7.543452   0.000000
     29          7.746967   0.000000
     30          8.771149   0.000000
     31          8.777796   0.000000
     32          9.126449   0.000000
     33          9.234821   0.000000
     34         10.167879   0.000000
     35         11.194431   0.000000
     36         11.215907   0.000000
     37         11.344682   0.000000
     38         11.593351   0.000000
     39         11.892803   0.000000
     40         12.380609   0.000000
     41         13.075637   0.000000
     42         13.137568   0.000000
     43         14.003627   0.000000
     44         15.279847   0.000000
     45         15.380102   0.000000
     46         15.605605   0.000000
     47         15.918856   0.000000
     48         16.341834   0.000000
 
  0.0000000E+00  0.0000000E+00  0.1521739E+00  0.5208333E-02
      1        -12.680200   1.000000
      2        -11.556662   1.000000
      3         -8.649097   1.000000
      4         -8.305868   1.000000
      5         -6.275598   1.000000
      6         -5.380381   1.000000
      7         -4.329222   1.000000
      8         -4.130776   1.000000
      9         -3.896392   1.000000
     10         -3.316731   1.000000
     11         -2.387451   1.000000
     12         -2.235354   1.000000
     13         -2.230378   1.000000
     14         -1.167360   1.000000
     15         -0.310469   1.000000
     16          0.031243   1.000000
     17          0.050651   1.000000
     18          0.211545   1.000000
     19          0.288183   1.000000
     20          1.954448   0.987320
     21          2.058524   0.777571
     22          2.756288   0.000000
     23          5.455683   0.000000
     24          5.477164   0.000000
     25          5.957398   0.000000
     26          6.034255   0.000000
     27          6.902760   0.000000
     28          7.498768   0.000000
     29          7.755023   0.000000
     30          8.779798   0.000000
     31          8.831311   0.000000
     32          9.152524   0.000000
     33          9.319953   0.000000
     34         10.219521   0.000000
     35         11.058454   0.000000
     36         11.187334   0.000000
     37         11.324068   0.000000
     38         11.619104   0.000000
     39         11.891385   0.000000
     40         12.411515   0.000000
     41         12.990256   0.000000
     42         13.195904   0.000000
     43         14.127063   0.000000
     44         15.201980   0.000000
     45         15.233421   0.000000
     46         15.615010   0.000000
     47         15.780010   0.000000
     48         16.353636   0.000000
 
  0.0000000E+00  0.0000000E+00  0.1739130E+00  0.5208333E-02
      1        -12.674527   1.000000
      2        -11.567322   1.000000
      3         -8.646000   1.000000
      4         -8.287916   1.000000
      5         -6.330793   1.000000
      6         -5.431365   1.000000
      7         -4.259631   1.000000
      8         -4.066000   1.000000
      9         -3.885168   1.000000
     10         -3.255322   1.000000
     11         -2.382029   1.000000
     12         -2.263852   1.000000
     13         -2.239100   1.000000
     14         -1.195650   1.000000
     15         -0.420343   1.000000
     16          0.046459   1.000000
     17          0.060148   1.000000
     18          0.203295   1.000000
     19          0.258867   1.000000
     20          1.910188   0.997894
     21          2.030048   0.878339
     22          2.870840   0.000000
     23          5.393159   0.000000
     24          5.468168   0.000000
     25          5.954566   0.000000
     26          6.122337   0.000000
     27          6.937559   0.000000
     28          7.452480   0.000000
     29          7.763100   0.000000
     30          8.791792   0.000000
     31          8.891328   0.000000
     32          9.181767   0.000000
     33          9.408782   0.000000
     34         10.279176   0.000000
     35         10.893799   0.000000
     36         11.175636   0.000000
     37         11.301414   0.000000
     38         11.647520   0.000000
     39         11.898835   0.000000
     40         12.447403   0.000000
     41         12.897245   0.000000
     42         13.254115   0.000000
     43         14.251517   0.000000
     44         15.081126   0.000000
     45         15.123972   0.000000
     46         15.615630   0.000000
     47         15.639205   0.000000
     48         16.367573   0.000000
 
  0.0000000E+00  0.0000000E+00  0.1956522E+00  0.5208333E-02
      1        -12.668332   1.000000
      2        -11.578838   1.000000
      3         -8.642656   1.000000
      4         -8.268051   1.000000
      5         -6.388282   1.000000
      6         -5.480631   1.000000
      7         -4.189807   1.000000
      8         -3.996631   1.000000
      9         -3.872776   1.000000
     10         -3.187731   1.000000
     11         -2.375796   1.000000
     12         -2.299381   1.000000
     13         -2.243121   1.000000
     14         -1.226362   1.000000
     15         -0.537310   1.000000
     16          0.063352   1.000000
     17          0.070092   1.000000
     18          0.114938   1.000000
     19          0.310232   1.000000
     20          1.863032   0.999791
     21          1.998123   0.947192
     22          2.986786   0.000000
     23          5.330332   0.000000
     24          5.457793   0.000000
     25          5.952004   0.000000
     26          6.219325   0.000000
     27          6.970844   0.000000
     28          7.405677   0.000000
     29          7.770841   0.000000
     30          8.806137   0.000000
     31          8.957193   0.000000
     32          9.213737   0.000000
     33          9.500552   0.000000
     34         10.346608   0.000000
     35         10.723947   0.000000
     36         11.159374   0.000000
     37         11.277219   0.000000
     38         11.677834   0.000000
     39         11.915663   0.000000
     40         12.488554   0.000000
     41         12.797997   0.000000
     42         13.310108   0.000000
     43         14.374632   0.000000
     44         14.925345   0.000000
     45         15.047381   0.000000
     46         15.497613   0.000000
     47         15.606102   0.000000
     48         16.382982   0.000000
 
  0.0000000E+00  0.0000000E+00  0.2173913E+00  0.5208333E-02
      1        -12.661708   1.000000
      2        -11.591021   1.000000
      3         -8.639122   1.000000
      4         -8.246486   1.000000
      5         -6.447089   1.000000
      6         -5.527753   1.000000
      7         -4.120388   1.000000
      8         -3.923249   1.000000
      9         -3.859357   1.000000
     10         -3.114874   1.000000
     11         -2.368726   1.000000
     12         -2.336315   1.000000
     13         -2.247248   1.000000
     14         -1.259046   1.000000
     15         -0.659251   1.000000
     16          0.023178   1.000000
     17          0.080280   1.000000
     18          0.081772   1.000000
     19          0.365076   1.000000
     20          1.813805   0.999988
     21          1.962869   0.982860
     22          3.102467   0.000000
     23          5.268320   0.000000
     24          5.445992   0.000000
     25          5.949808   0.000000
     26          6.324493   0.000000
     27          7.002158   0.000000
     28          7.359291   0.000000
     29          7.777944   0.000000
     30          8.821978   0.000000
     31          9.028149   0.000000
     32          9.247901   0.000000
     33          9.594531   0.000000
     34         10.421407   0.000000
     35         10.550353   0.000000
     36         11.139224   0.000000
     37         11.252040   0.000000
     38         11.709112   0.000000
     39         11.941457   0.000000
     40         12.535366   0.000000
     41         12.693770   0.000000
     42         13.361842   0.000000
     43         14.494547   0.000000
     44         14.768023   0.000000
     45         14.973323   0.000000
     46         15.356267   0.000000
     47         15.586670   0.000000
     48         16.398095   0.000000
 
  0.0000000E+00  0.0000000E+00  0.2391304E+00  0.5208333E-02
      1        -12.654759   1.000000
      2        -11.603656   1.000000
      3         -8.635460   1.000000
      4         -8.223432   1.000000
      5         -6.506341   1.000000
      6         -5.572420   1.000000
      7         -4.051987   1.000000
      8         -3.846293   1.000000
      9         -3.845070   1.000000
     10         -3.037837   1.000000
     11         -2.374033   1.000000
     12         -2.360833   1.000000
     13         -2.251173   1.000000
     14         -1.293237   1.000000
     15         -0.784226   1.000000
     16         -0.071927   1.000000
     17          0.090490   1.000000
     18          0.101534   1.000000
     19          0.422862   1.000000
     20          1.763315   1.000000
     21          1.924451   0.996094
     22          3.216482   0.000000
     23          5.208042   0.000000
     24          5.432751   0.000000
     25          5.948094   0.000000
     26          6.437153   0.000000
     27          7.031253   0.000000
     28          7.314087   0.000000
     29          7.784138   0.000000
     30          8.838580   0.000000
     31          9.103401   0.000000
     32          9.283629   0.000000
     33          9.689977   0.000000
     34         10.374155   0.000000
     35         10.502937   0.000000
     36         11.116332   0.000000
     37         11.226510   0.000000
     38         11.740283   0.000000
     39         11.975100   0.000000
     40         12.585741   0.000000
     41         12.588235   0.000000
     42         13.407361   0.000000
     43         14.609717   0.000000
     44         14.611133   0.000000
     45         14.902543   0.000000
     46         15.216160   0.000000
     47         15.558987   0.000000
     48         16.419490   0.000000
 
  0.0000000E+00  0.0000000E+00  0.2608696E+00  0.5208333E-02
      1        -12.647593   1.000000
      2        -11.616517   1.000000
      3         -8.631735   1.000000
      4         -8.199165   1.000000
      5         -6.565239   1.000000
      6         -5.614360   1.000000
      7         -3.985172   1.000000
      8         -3.830106   1.000000
      9         -3.766120   1.000000
     10         -2.957986   1.000000
     11         -2.411907   1.000000
     12         -2.352252   1.000000
     13         -2.254310   1.000000
     14         -1.328423   1.000000
     15         -0.910514   1.000000
     16         -0.170186   1.000000
     17          0.100553   1.000000
     18          0.122414   1.000000
     19          0.483075   1.000000
     20          1.712331   1.000000
     21          1.883055   0.999414
     22          3.327678   0.000000
     23          5.150283   0.000000
     24          5.418113   0.000000
     25          5.946888   0.000000
     26          6.556647   0.000000
     27          7.058026   0.000000
     28          7.270706   0.000000
     29          7.789267   0.000000
     30          8.855346   0.000000
     31          9.182087   0.000000
     32          9.320270   0.000000
     33          9.786155   0.000000
     34         10.196231   0.000000
     35         10.590204   0.000000
     36         11.092222   0.000000
     37         11.201349   0.000000
     38         11.770273   0.000000
     39         12.014941   0.000000
     40         12.474992   0.000000
     41         12.647539   0.000000
     42         13.444670   0.000000
     43         14.456963   0.000000
     44         14.718870   0.000000
     45         14.835492   0.000000
     46         15.078304   0.000000
     47         15.525518   0.000000
     48         16.451720   0.000000
 
  0.0000000E+00  0.0000000E+00  0.2826087E+00  0.5208333E-02
      1        -12.640339   1.000000
      2        -11.629387   1.000000
      3         -8.628023   1.000000
      4         -8.174001   1.000000
      5         -6.623051   1.000000
      6         -5.653351   1.000000
      7         -3.920566   1.000000
      8         -3.814703   1.000000
      9         -3.683064   1.000000
     10         -2.877133   1.000000
     11         -2.449355   1.000000
     12         -2.343446   1.000000
     13         -2.255530   1.000000
     14         -1.364056   1.000000
     15         -1.036513   1.000000
     16         -0.271300   1.000000
     17          0.110283   1.000000
     18          0.144113   1.000000
     19          0.545227   1.000000
     20          1.661624   1.000000
     21          1.838840   0.999946
     22          3.434878   0.000000
     23          5.095690   0.000000
     24          5.402129   0.000000
     25          5.946187   0.000000
     26          6.682308   0.000000
     27          7.082481   0.000000
     28          7.229677   0.000000
     29          7.793215   0.000000
     30          8.871788   0.000000
     31          9.263145   0.000000
     32          9.357102   0.000000
     33          9.882240   0.000000
     34         10.017319   0.000000
     35         10.681463   0.000000
     36         11.068947   0.000000
     37         11.177268   0.000000
     38         11.798059   0.000000
     39         12.058955   0.000000
     40         12.362600   0.000000
     41         12.713442   0.000000
     42         13.471614   0.000000
     43         14.308201   0.000000
     44         14.772308   0.000000
     45         14.820887   0.000000
     46         14.943734   0.000000
     47         15.488831   0.000000
     48         16.475103   0.000000
 
  0.0000000E+00  0.0000000E+00  0.3043478E+00  0.5208333E-02
      1        -12.633133   1.000000
      2        -11.642017   1.000000
      3         -8.624388   1.000000
      4         -8.148320   1.000000
      5         -6.679046   1.000000
      6         -5.689200   1.000000
      7         -3.858796   1.000000
      8         -3.799117   1.000000
      9         -3.597443   1.000000
     10         -2.797607   1.000000
     11         -2.485780   1.000000
     12         -2.335588   1.000000
     13         -2.252632   1.000000
     14         -1.399543   1.000000
     15         -1.160533   1.000000
     16         -0.374811   1.000000
     17          0.119538   1.000000
     18          0.166308   1.000000
     19          0.608813   1.000000
     20          1.611967   1.000000
     21          1.792048   0.999997
     22          3.537090   0.000000
     23          5.044802   0.000000
     24          5.384957   0.000000
     25          5.945963   0.000000
     26          6.813550   0.000000
     27          7.104576   0.000000
     28          7.191459   0.000000
     29          7.796021   0.000000
     30          8.887524   0.000000
     31          9.345480   0.000000
     32          9.393379   0.000000
     33          9.838038   0.000000
     34          9.977344   0.000000
     35         10.772959   0.000000
     36         11.050399   0.000000
     37         11.155141   0.000000
     38         11.822833   0.000000
     39         12.104730   0.000000
     40         12.249663   0.000000
     41         12.785817   0.000000
     42         13.485874   0.000000
     43         14.168317   0.000000
     44         14.712870   0.000000
     45         14.813700   0.000000
     46         14.914872   0.000000
     47         15.451240   0.000000
     48         16.448469   0.000000
 
  0.0000000E+00  0.0000000E+00  0.3260870E+00  0.5208333E-02
      1        -12.626115   1.000000
      2        -11.654174   1.000000
      3         -8.620905   1.000000
      4         -8.122570   1.000000
      5         -6.732507   1.000000
      6         -5.721733   1.000000
      7         -3.800523   1.000000
      8         -3.783640   1.000000
      9         -3.509650   1.000000
     10         -2.722540   1.000000
     11         -2.520598   1.000000
     12         -2.330562   1.000000
     13         -2.242292   1.000000
     14         -1.434231   1.000000
     15         -1.280672   1.000000
     16         -0.480127   1.000000
     17          0.128172   1.000000
     18          0.188610   1.000000
     19          0.673358   1.000000
     20          1.564159   1.000000
     21          1.742966   1.000000
     22          3.633287   0.000000
     23          4.998132   0.000000
     24          5.366835   0.000000
     25          5.946170   0.000000
     26          6.949832   0.000000
     27          7.124379   0.000000
     28          7.156425   0.000000
     29          7.797740   0.000000
     30          8.902244   0.000000
     31          9.427774   0.000000
     32          9.428379   0.000000
     33          9.658980   0.000000
     34         10.070418   0.000000
     35         10.853505   0.000000
     36         11.047520   0.000000
     37         11.135839   0.000000
     38         11.844068   0.000000
     39         12.137325   0.000000
     40         12.149344   0.000000
     41         12.864109   0.000000
     42         13.485116   0.000000
     43         14.041520   0.000000
     44         14.656831   0.000000
     45         14.689720   0.000000
     46         15.000076   0.000000
     47         15.414567   0.000000
     48         16.345728   0.000000
 
  0.0000000E+00  0.0000000E+00  0.3478261E+00  0.5208333E-02
      1        -12.619435   1.000000
      2        -11.665613   1.000000
      3         -8.617638   1.000000
      4         -8.097254   1.000000
      5         -6.782690   1.000000
      6         -5.750792   1.000000
      7         -3.768616   1.000000
      8         -3.746474   1.000000