 vasp.6.4.3 19Mar24 (build May 31 2024 16:31:43) complex                        
  
 executed on             LinuxIFC date 2024.11.21  18:34:02
 running   24 mpi-ranks, with    1 threads/rank, on    1 nodes
 distrk:  each k-point on   24 cores,    1 groups
 distr:  one band on NCORE=   1 cores,   24 groups


--------------------------------------------------------------------------------------------------------


 INCAR:
   SYSTEM = BS
   ISTART = 0
   ICHARG = 11
   PREC = Accurate
   LORBIT = 11
   ENCUT = 600
   ALGO = Normal
   NELM = 64
   EDIFF = 1E-6
   EDIFFG = -1E-3
   SIGMA = 0.1
   ISMEAR = 0
   GGA = PE
   IVDW = 12

 POTCAR:    PAW_PBE B 06Sep2000                   
 POTCAR:    PAW_PBE B 06Sep2000                   
   SHA256 =  a32ced30f5ae56fd4d10b4325ff17eb3e4e38ee0f4288bc219fb012fddfa6e97 B/POTCAR              
   COPYR  = (c) Copyright 06Sep2000 Georg Kresse                                                    
   COPYR  = This file is part of the software VASP. Any use, copying, and all other rights are regul
   COPYR  = If you do not have a valid VASP license, you may not use, copy or distribute this file. 
   VRHFIN =B: s2p1                                                                                  
   LEXCH  = PE                                                                                      
   EATOM  =    71.1703 eV,    5.2309 Ry                                                             
                                                                                                    
   TITEL  = PAW_PBE B 06Sep2000                                                                     
   LULTRA =        F    use ultrasoft PP ?                                                          
   IUNSCR =        1    unscreen: 0-lin 1-nonlin 2-no                                               
   RPACOR =    1.200    partial core radius                                                         
   POMASS =   10.811; ZVAL   =    3.000    mass and valenz                                          
   RCORE  =    1.700    outmost cutoff radius                                                       
   RWIGS  =    1.710; RWIGS  =    0.905    wigner-seitz radius (au A)                               
   ENMAX  =  318.614; ENMIN  =  238.960 eV                                                          
   ICORE  =        2    local potential                                                             
   LCOR   =        T    correct aug charges                                                         
   LPAW   =        T    paw PP                                                                      
   EAUG   =  535.514                                                                                
   DEXC   =    0.000                                                                                
   RMAX   =    1.732    core radius for proj-oper                                                   
   RAUG   =    1.300    factor for augmentation sphere                                              
   RDEP   =    1.757    radius for radial grids                                                     
   RDEPT  =    1.436    core radius for aug-charge                                                  
                                                                                                    
   Atomic configuration                                                                             
    4 entries                                                                                       
     n  l   j            E        occ.                                                              
     1  0  0.50      -180.5896   2.0000                                                             
     2  0  0.50        -9.4431   2.0000                                                             
     2  1  0.50        -3.6068   1.0000                                                             
     3  2  1.50        -4.0817   0.0000                                                             
   Description                                                                                      
     l       E           TYP  RCUT    TYP  RCUT                                                     
     0     -9.4430752     23  1.500                                                                 
     0      0.8675899     23  1.500                                                                 
     1     -3.6067955     23  1.700                                                                 
     1      6.1086146     23  1.700                                                                 
     2     -4.0817478      7  1.700                                                                 
  local pseudopotential read in
  partial core-charges read in
  partial kinetic energy density read in
  atomic valenz-charges read in
  non local Contribution for L=           0  read in
    real space projection operators read in
  non local Contribution for L=           0  read in
    real space projection operators read in
  non local Contribution for L=           1  read in
    real space projection operators read in
  non local Contribution for L=           1  read in
    real space projection operators read in
    PAW grid and wavefunctions read in
 
   number of l-projection  operators is LMAX  =           4
   number of lm-projection operators is LMMAX =           8
 
  PAW_PBE B 06Sep2000                   :
 energy of atom  1       EATOM=  -71.1703
 kinetic energy error for atom=    0.0007 (will be added to EATOM!!)
 
 
 POSCAR: o-B14
  positions in direct lattice
  No initial velocities read in
 IVDW         = 12
 VDW_S6       =    1.0000
 VDW_S8       =    0.7875
 VDW_A1       =    0.4289
 VDW_A2       =    4.4407
 VDW_RADIUS   =   50.2022 A
 VDW_CNRADIUS =   21.1671 A


 exchange-correlation table for PE
   RHO(1)=    0.500       N(1)  =     2000
   RHO(2)=  100.500       N(2)  =     4000
 


--------------------------------------------------------------------------------------------------------


 ion  position               nearest neighbor table
   1  0.521  0.500  0.638-  14 1.65   5 1.68  13 1.70   2 1.73   9 1.85  11 1.85
   2  0.479  0.500  0.362-  13 1.65   6 1.68  14 1.70   1 1.73  10 1.85  12 1.85
   3  0.979  0.500  0.638-  14 1.65   7 1.68  13 1.70   4 1.73   9 1.85  11 1.85
   4  0.021  0.500  0.362-  13 1.65   8 1.68  14 1.70   3 1.73  10 1.85  12 1.85
   5  0.597  0.500  0.900-   6 1.67   1 1.68   7 1.74   9 1.81  11 1.81
   6  0.403  0.500  0.100-   5 1.67   2 1.68   8 1.74  10 1.81  12 1.81
   7  0.903  0.500  0.900-   8 1.67   3 1.68   5 1.74   9 1.81  11 1.81
   8  0.097  0.500  0.100-   7 1.67   4 1.68   6 1.74  10 1.81  12 1.81
   9  0.750  0.792  0.730-  11 1.69   7 1.81   5 1.81   3 1.85   1 1.85  14 1.97
  10  0.250  0.208  0.270-  12 1.69   8 1.81   6 1.81   4 1.85   2 1.85  13 1.97
  11  0.750  0.208  0.730-   9 1.69   7 1.81   5 1.81   3 1.85   1 1.85  14 1.97
  12  0.250  0.792  0.270-  10 1.69   8 1.81   6 1.81   4 1.85   2 1.85  13 1.97
  13  0.250  0.500  0.524-   2 1.65   4 1.65   3 1.70   1 1.70  10 1.97  12 1.97
  14  0.750  0.500  0.476-   1 1.65   3 1.65   2 1.70   4 1.70   9 1.97  11 1.97
 
  LATTYP: Found a simple orthorhombic cell.
 ALAT       =     4.0440580961
 B/A-ratio  =     1.4097153303
 C/A-ratio  =     1.5335761871
  
  Lattice vectors:
  
 A1 = (   0.0000000000,  -4.0440580961,   0.0000000000)
 A2 = (   5.7009706948,   0.0000000000,   0.0000000000)
 A3 = (   0.0000000000,   0.0000000000,   6.2018711955)


Analysis of symmetry for initial positions (statically):
=====================================================================
 Subroutine PRICEL returns:
 Original cell was already a primitive cell.
 

 Routine SETGRP: Setting up the symmetry group for a 
 simple orthorhombic supercell.


 Subroutine GETGRP returns: Found  8 space group operations
 (whereof  4 operations were pure point group operations)
 out of a pool of  8 trial point group operations.


The static configuration has the point symmetry C_2h.
 The point group associated with its full space group is D_2h.


Analysis of symmetry for dynamics (positions and initial velocities):
=====================================================================
 Subroutine PRICEL returns:
 Original cell was already a primitive cell.
 

 Routine SETGRP: Setting up the symmetry group for a 
 simple orthorhombic supercell.


 Subroutine GETGRP returns: Found  8 space group operations
 (whereof  4 operations were pure point group operations)
 out of a pool of  8 trial point group operations.


The dynamic configuration has the point symmetry C_2h.
 The point group associated with its full space group is D_2h.


 Subroutine INISYM returns: Found  8 space group operations
 (whereof  4 operations are pure point group operations),
 and found     1 'primitive' translations


----------------------------------------------------------------------------------------

                                     Primitive cell                                     

  volume of cell :     142.9845

  direct lattice vectors                    reciprocal lattice vectors
     5.700970695  0.000000000  0.000000000     0.175408725  0.000000000  0.000000000
     0.000000000  4.044058096  0.000000000     0.000000000  0.247276368  0.000000000
     0.000000000  0.000000000  6.201871195     0.000000000  0.000000000  0.161241659

  length of vectors
     5.700970695  4.044058096  6.201871195     0.175408725  0.247276368  0.161241659

  position of ions in fractional coordinates (direct lattice)
     0.521289885  0.500000000  0.637957702
     0.478710115  0.500000000  0.362042298
     0.978710115  0.500000000  0.637957702
     0.021289885  0.500000000  0.362042298
     0.597449662  0.500000000  0.899868316
     0.402550338  0.500000000  0.100131684
     0.902550338  0.500000000  0.899868316
     0.097449662  0.500000000  0.100131684
     0.750000000  0.791564932  0.729579396
     0.250000000  0.208435068  0.270420604
     0.750000000  0.208435068  0.729579396
     0.250000000  0.791564932  0.270420604
     0.250000000  0.500000000  0.523993035
     0.750000000  0.500000000  0.476006965

  ion indices of the primitive-cell ions
   primitive index   ion index
                 1           1
                 2           2
                 3           3
                 4           4
                 5           5
                 6           6
                 7           7
                 8           8
                 9           9
                10          10
                11          11
                12          12
                13          13
                14          14

----------------------------------------------------------------------------------------

 
 
 KPOINTS: K-points                                

Interpolating k-points between supplied coordinates.

 Line segments in fractional coordinates (reciprocal lattice):
    0.000000  0.000000  0.000000  ...  0.000000  0.000000  0.500000
    0.000000  0.000000  0.500000  ...  0.000000  0.500000  0.500000
    0.000000  0.500000  0.500000  ...  0.000000  0.500000  0.000000
    0.000000  0.500000  0.000000  ...  0.500000  0.500000  0.000000
    0.500000  0.500000  0.000000  ...  0.500000  0.000000  0.000000
    0.500000  0.000000  0.000000  ...  0.500000  0.000000  0.500000
    0.500000  0.000000  0.500000  ...  0.500000  0.500000  0.500000
    0.500000  0.500000  0.500000  ...  0.000000  0.000000  0.000000

 Generated    24 points on each line segment, for a total of    192 k-points:

 Following reciprocal coordinates:
            Coordinates               Weight
  0.000000  0.000000  0.000000      0.005208
  0.000000  0.000000  0.021739      0.005208
  0.000000  0.000000  0.043478      0.005208
  0.000000  0.000000  0.065217      0.005208
  0.000000  0.000000  0.086957      0.005208
  0.000000  0.000000  0.108696      0.005208
  0.000000  0.000000  0.130435      0.005208
  0.000000  0.000000  0.152174      0.005208
  0.000000  0.000000  0.173913      0.005208
  0.000000  0.000000  0.195652      0.005208
  0.000000  0.000000  0.217391      0.005208
  0.000000  0.000000  0.239130      0.005208
  0.000000  0.000000  0.260870      0.005208
  0.000000  0.000000  0.282609      0.005208
  0.000000  0.000000  0.304348      0.005208
  0.000000  0.000000  0.326087      0.005208
  0.000000  0.000000  0.347826      0.005208
  0.000000  0.000000  0.369565      0.005208
  0.000000  0.000000  0.391304      0.005208
  0.000000  0.000000  0.413043      0.005208
  0.000000  0.000000  0.434783      0.005208
  0.000000  0.000000  0.456522      0.005208
  0.000000  0.000000  0.478261      0.005208
  0.000000  0.000000  0.500000      0.005208
  0.000000  0.000000  0.500000      0.005208
  0.000000  0.021739  0.500000      0.005208
  0.000000  0.043478  0.500000      0.005208
  0.000000  0.065217  0.500000      0.005208
  0.000000  0.086957  0.500000      0.005208
  0.000000  0.108696  0.500000      0.005208
  0.000000  0.130435  0.500000      0.005208
  0.000000  0.152174  0.500000      0.005208
  0.000000  0.173913  0.500000      0.005208
  0.000000  0.195652  0.500000      0.005208
  0.000000  0.217391  0.500000      0.005208
  0.000000  0.239130  0.500000      0.005208
  0.000000  0.260870  0.500000      0.005208
  0.000000  0.282609  0.500000      0.005208
  0.000000  0.304348  0.500000      0.005208
  0.000000  0.326087  0.500000      0.005208
  0.000000  0.347826  0.500000      0.005208
  0.000000  0.369565  0.500000      0.005208
  0.000000  0.391304  0.500000      0.005208
  0.000000  0.413043  0.500000      0.005208
  0.000000  0.434783  0.500000      0.005208
  0.000000  0.456522  0.500000      0.005208
  0.000000  0.478261  0.500000      0.005208
  0.000000  0.500000  0.500000      0.005208
  0.000000  0.500000  0.500000      0.005208
  0.000000  0.500000  0.478261      0.005208
  0.000000  0.500000  0.456522      0.005208
  0.000000  0.500000  0.434783      0.005208
  0.000000  0.500000  0.413043      0.005208
  0.000000  0.500000  0.391304      0.005208
  0.000000  0.500000  0.369565      0.005208
  0.000000  0.500000  0.347826      0.005208
  0.000000  0.500000  0.326087      0.005208
  0.000000  0.500000  0.304348      0.005208
  0.000000  0.500000  0.282609      0.005208
  0.000000  0.500000  0.260870      0.005208
  0.000000  0.500000  0.239130      0.005208
  0.000000  0.500000  0.217391      0.005208
  0.000000  0.500000  0.195652      0.005208
  0.000000  0.500000  0.173913      0.005208
  0.000000  0.500000  0.152174      0.005208
  0.000000  0.500000  0.130435      0.005208
  0.000000  0.500000  0.108696      0.005208
  0.000000  0.500000  0.086957      0.005208
  0.000000  0.500000  0.065217      0.005208
  0.000000  0.500000  0.043478      0.005208
  0.000000  0.500000  0.021739      0.005208
  0.000000  0.500000  0.000000      0.005208
  0.000000  0.500000  0.000000      0.005208
  0.021739  0.500000  0.000000      0.005208
  0.043478  0.500000  0.000000      0.005208
  0.065217  0.500000  0.000000      0.005208
  0.086957  0.500000  0.000000      0.005208
  0.108696  0.500000  0.000000      0.005208
  0.130435  0.500000  0.000000      0.005208
  0.152174  0.500000  0.000000      0.005208
  0.173913  0.500000  0.000000      0.005208
  0.195652  0.500000  0.000000      0.005208
  0.217391  0.500000  0.000000      0.005208
  0.239130  0.500000  0.000000      0.005208
  0.260870  0.500000  0.000000      0.005208
  0.282609  0.500000  0.000000      0.005208
  0.304348  0.500000  0.000000      0.005208
  0.326087  0.500000  0.000000      0.005208
  0.347826  0.500000  0.000000      0.005208
  0.369565  0.500000  0.000000      0.005208
  0.391304  0.500000  0.000000      0.005208
  0.413043  0.500000  0.000000      0.005208
  0.434783  0.500000  0.000000      0.005208
  0.456522  0.500000  0.000000      0.005208
  0.478261  0.500000  0.000000      0.005208
  0.500000  0.500000  0.000000      0.005208
  0.500000  0.500000  0.000000      0.005208
  0.500000  0.478261  0.000000      0.005208
  0.500000  0.456522  0.000000      0.005208
  0.500000  0.434783  0.000000      0.005208
  0.500000  0.413043  0.000000      0.005208
  0.500000  0.391304  0.000000      0.005208
  0.500000  0.369565  0.000000      0.005208
  0.500000  0.347826  0.000000      0.005208
  0.500000  0.326087  0.000000      0.005208
  0.500000  0.304348  0.000000      0.005208
  0.500000  0.282609  0.000000      0.005208
  0.500000  0.260870  0.000000      0.005208
  0.500000  0.239130  0.000000      0.005208
  0.500000  0.217391  0.000000      0.005208
  0.500000  0.195652  0.000000      0.005208
  0.500000  0.173913  0.000000      0.005208
  0.500000  0.152174  0.000000      0.005208
  0.500000  0.130435  0.000000      0.005208
  0.500000  0.108696  0.000000      0.005208
  0.500000  0.086957  0.000000      0.005208
  0.500000  0.065217  0.000000      0.005208
  0.500000  0.043478  0.000000      0.005208
  0.500000  0.021739  0.000000      0.005208
  0.500000  0.000000  0.000000      0.005208
  0.500000  0.000000  0.000000      0.005208
  0.500000  0.000000  0.021739      0.005208
  0.500000  0.000000  0.043478      0.005208
  0.500000  0.000000  0.065217      0.005208
  0.500000  0.000000  0.086957      0.005208
  0.500000  0.000000  0.108696      0.005208
  0.500000  0.000000  0.130435      0.005208
  0.500000  0.000000  0.152174      0.005208
  0.500000  0.000000  0.173913      0.005208
  0.500000  0.000000  0.195652      0.005208
  0.500000  0.000000  0.217391      0.005208
  0.500000  0.000000  0.239130      0.005208
  0.500000  0.000000  0.260870      0.005208
  0.500000  0.000000  0.282609      0.005208
  0.500000  0.000000  0.304348      0.005208
  0.500000  0.000000  0.326087      0.005208
  0.500000  0.000000  0.347826      0.005208
  0.500000  0.000000  0.369565      0.005208
  0.500000  0.000000  0.391304      0.005208
  0.500000  0.000000  0.413043      0.005208
  0.500000  0.000000  0.434783      0.005208
  0.500000  0.000000  0.456522      0.005208
  0.500000  0.000000  0.478261      0.005208
  0.500000  0.000000  0.500000      0.005208
  0.500000  0.000000  0.500000      0.005208
  0.500000  0.021739  0.500000      0.005208
  0.500000  0.043478  0.500000      0.005208
  0.500000  0.065217  0.500000      0.005208
  0.500000  0.086957  0.500000      0.005208
  0.500000  0.108696  0.500000      0.005208
  0.500000  0.130435  0.500000      0.005208
  0.500000  0.152174  0.500000      0.005208
  0.500000  0.173913  0.500000      0.005208
  0.500000  0.195652  0.500000      0.005208
  0.500000  0.217391  0.500000      0.005208
  0.500000  0.239130  0.500000      0.005208
  0.500000  0.260870  0.500000      0.005208
  0.500000  0.282609  0.500000      0.005208
  0.500000  0.304348  0.500000      0.005208
  0.500000  0.326087  0.500000      0.005208
  0.500000  0.347826  0.500000      0.005208
  0.500000  0.369565  0.500000      0.005208
  0.500000  0.391304  0.500000      0.005208
  0.500000  0.413043  0.500000      0.005208
  0.500000  0.434783  0.500000      0.005208
  0.500000  0.456522  0.500000      0.005208
  0.500000  0.478261  0.500000      0.005208
  0.500000  0.500000  0.500000      0.005208
  0.500000  0.500000  0.500000      0.005208
  0.478261  0.478261  0.478261      0.005208
  0.456522  0.456522  0.456522      0.005208
  0.434783  0.434783  0.434783      0.005208
  0.413043  0.413043  0.413043      0.005208
  0.391304  0.391304  0.391304      0.005208
  0.369565  0.369565  0.369565      0.005208
  0.347826  0.347826  0.347826      0.005208
  0.326087  0.326087  0.326087      0.005208
  0.304348  0.304348  0.304348      0.005208
  0.282609  0.282609  0.282609      0.005208
  0.260870  0.260870  0.260870      0.005208
  0.239130  0.239130  0.239130      0.005208
  0.217391  0.217391  0.217391      0.005208
  0.195652  0.195652  0.195652      0.005208
  0.173913  0.173913  0.173913      0.005208
  0.152174  0.152174  0.152174      0.005208
  0.130435  0.130435  0.130435      0.005208
  0.108696  0.108696  0.108696      0.005208
  0.086957  0.086957  0.086957      0.005208
  0.065217  0.065217  0.065217      0.005208
  0.043478  0.043478  0.043478      0.005208
  0.021739  0.021739  0.021739      0.005208
  0.000000  0.000000  0.000000      0.005208

 Following cartesian coordinates:
            Coordinates               Weight
  0.000000  0.000000  0.000000      0.005208
  0.000000  0.000000  0.003505      0.005208
  0.000000  0.000000  0.007011      0.005208
  0.000000  0.000000  0.010516      0.005208
  0.000000  0.000000  0.014021      0.005208
  0.000000  0.000000  0.017526      0.005208
  0.000000  0.000000  0.021032      0.005208
  0.000000  0.000000  0.024537      0.005208
  0.000000  0.000000  0.028042      0.005208
  0.000000  0.000000  0.031547      0.005208
  0.000000  0.000000  0.035053      0.005208
  0.000000  0.000000  0.038558      0.005208
  0.000000  0.000000  0.042063      0.005208
  0.000000  0.000000  0.045568      0.005208
  0.000000  0.000000  0.049074      0.005208
  0.000000  0.000000  0.052579      0.005208
  0.000000  0.000000  0.056084      0.005208
  0.000000  0.000000  0.059589      0.005208
  0.000000  0.000000  0.063095      0.005208
  0.000000  0.000000  0.066600      0.005208
  0.000000  0.000000  0.070105      0.005208
  0.000000  0.000000  0.073610      0.005208
  0.000000  0.000000  0.077116      0.005208
  0.000000  0.000000  0.080621      0.005208
  0.000000  0.000000  0.080621      0.005208
  0.000000  0.005376  0.080621      0.005208
  0.000000  0.010751  0.080621      0.005208
  0.000000  0.016127  0.080621      0.005208
  0.000000  0.021502  0.080621      0.005208
  0.000000  0.026878  0.080621      0.005208
  0.000000  0.032253  0.080621      0.005208
  0.000000  0.037629  0.080621      0.005208
  0.000000  0.043005  0.080621      0.005208
  0.000000  0.048380  0.080621      0.005208
  0.000000  0.053756  0.080621      0.005208
  0.000000  0.059131  0.080621      0.005208
  0.000000  0.064507  0.080621      0.005208
  0.000000  0.069882  0.080621      0.005208
  0.000000  0.075258  0.080621      0.005208
  0.000000  0.080634  0.080621      0.005208
  0.000000  0.086009  0.080621      0.005208
  0.000000  0.091385  0.080621      0.005208
  0.000000  0.096760  0.080621      0.005208
  0.000000  0.102136  0.080621      0.005208
  0.000000  0.107511  0.080621      0.005208
  0.000000  0.112887  0.080621      0.005208
  0.000000  0.118263  0.080621      0.005208
  0.000000  0.123638  0.080621      0.005208
  0.000000  0.123638  0.080621      0.005208
  0.000000  0.123638  0.077116      0.005208
  0.000000  0.123638  0.073610      0.005208
  0.000000  0.123638  0.070105      0.005208
  0.000000  0.123638  0.066600      0.005208
  0.000000  0.123638  0.063095      0.005208
  0.000000  0.123638  0.059589      0.005208
  0.000000  0.123638  0.056084      0.005208
  0.000000  0.123638  0.052579      0.005208
  0.000000  0.123638  0.049074      0.005208
  0.000000  0.123638  0.045568      0.005208
  0.000000  0.123638  0.042063      0.005208
  0.000000  0.123638  0.038558      0.005208
  0.000000  0.123638  0.035053      0.005208
  0.000000  0.123638  0.031547      0.005208
  0.000000  0.123638  0.028042      0.005208
  0.000000  0.123638  0.024537      0.005208
  0.000000  0.123638  0.021032      0.005208
  0.000000  0.123638  0.017526      0.005208
  0.000000  0.123638  0.014021      0.005208
  0.000000  0.123638  0.010516      0.005208
  0.000000  0.123638  0.007011      0.005208
  0.000000  0.123638  0.003505      0.005208
  0.000000  0.123638  0.000000      0.005208
  0.000000  0.123638  0.000000      0.005208
  0.003813  0.123638  0.000000      0.005208
  0.007626  0.123638  0.000000      0.005208
  0.011440  0.123638  0.000000      0.005208
  0.015253  0.123638  0.000000      0.005208
  0.019066  0.123638  0.000000      0.005208
  0.022879  0.123638  0.000000      0.005208
  0.026693  0.123638  0.000000      0.005208
  0.030506  0.123638  0.000000      0.005208
  0.034319  0.123638  0.000000      0.005208
  0.038132  0.123638  0.000000      0.005208
  0.041946  0.123638  0.000000      0.005208
  0.045759  0.123638  0.000000      0.005208
  0.049572  0.123638  0.000000      0.005208
  0.053385  0.123638  0.000000      0.005208
  0.057198  0.123638  0.000000      0.005208
  0.061012  0.123638  0.000000      0.005208
  0.064825  0.123638  0.000000      0.005208
  0.068638  0.123638  0.000000      0.005208
  0.072451  0.123638  0.000000      0.005208
  0.076265  0.123638  0.000000      0.005208
  0.080078  0.123638  0.000000      0.005208
  0.083891  0.123638  0.000000      0.005208
  0.087704  0.123638  0.000000      0.005208
  0.087704  0.123638  0.000000      0.005208
  0.087704  0.118263  0.000000      0.005208
  0.087704  0.112887  0.000000      0.005208
  0.087704  0.107511  0.000000      0.005208
  0.087704  0.102136  0.000000      0.005208
  0.087704  0.096760  0.000000      0.005208
  0.087704  0.091385  0.000000      0.005208
  0.087704  0.086009  0.000000      0.005208
  0.087704  0.080634  0.000000      0.005208
  0.087704  0.075258  0.000000      0.005208
  0.087704  0.069882  0.000000      0.005208
  0.087704  0.064507  0.000000      0.005208
  0.087704  0.059131  0.000000      0.005208
  0.087704  0.053756  0.000000      0.005208
  0.087704  0.048380  0.000000      0.005208
  0.087704  0.043005  0.000000      0.005208
  0.087704  0.037629  0.000000      0.005208
  0.087704  0.032253  0.000000      0.005208
  0.087704  0.026878  0.000000      0.005208
  0.087704  0.021502  0.000000      0.005208
  0.087704  0.016127  0.000000      0.005208
  0.087704  0.010751  0.000000      0.005208
  0.087704  0.005376  0.000000      0.005208
  0.087704  0.000000  0.000000      0.005208
  0.087704  0.000000  0.000000      0.005208
  0.087704  0.000000  0.003505      0.005208
  0.087704  0.000000  0.007011      0.005208
  0.087704  0.000000  0.010516      0.005208
  0.087704  0.000000  0.014021      0.005208
  0.087704  0.000000  0.017526      0.005208
  0.087704  0.000000  0.021032      0.005208
  0.087704  0.000000  0.024537      0.005208
  0.087704  0.000000  0.028042      0.005208
  0.087704  0.000000  0.031547      0.005208
  0.087704  0.000000  0.035053      0.005208
  0.087704  0.000000  0.038558      0.005208
  0.087704  0.000000  0.042063      0.005208
  0.087704  0.000000  0.045568      0.005208
  0.087704  0.000000  0.049074      0.005208
  0.087704  0.000000  0.052579      0.005208
  0.087704  0.000000  0.056084      0.005208
  0.087704  0.000000  0.059589      0.005208
  0.087704  0.000000  0.063095      0.005208
  0.087704  0.000000  0.066600      0.005208
  0.087704  0.000000  0.070105      0.005208
  0.087704  0.000000  0.073610      0.005208
  0.087704  0.000000  0.077116      0.005208
  0.087704  0.000000  0.080621      0.005208
  0.087704  0.000000  0.080621      0.005208
  0.087704  0.005376  0.080621      0.005208
  0.087704  0.010751  0.080621      0.005208
  0.087704  0.016127  0.080621      0.005208
  0.087704  0.021502  0.080621      0.005208
  0.087704  0.026878  0.080621      0.005208
  0.087704  0.032253  0.080621      0.005208
  0.087704  0.037629  0.080621      0.005208
  0.087704  0.043005  0.080621      0.005208
  0.087704  0.048380  0.080621      0.005208
  0.087704  0.053756  0.080621      0.005208
  0.087704  0.059131  0.080621      0.005208
  0.087704  0.064507  0.080621      0.005208
  0.087704  0.069882  0.080621      0.005208
  0.087704  0.075258  0.080621      0.005208
  0.087704  0.080634  0.080621      0.005208
  0.087704  0.086009  0.080621      0.005208
  0.087704  0.091385  0.080621      0.005208
  0.087704  0.096760  0.080621      0.005208
  0.087704  0.102136  0.080621      0.005208
  0.087704  0.107511  0.080621      0.005208
  0.087704  0.112887  0.080621      0.005208
  0.087704  0.118263  0.080621      0.005208
  0.087704  0.123638  0.080621      0.005208
  0.087704  0.123638  0.080621      0.005208
  0.083891  0.118263  0.077116      0.005208
  0.080078  0.112887  0.073610      0.005208
  0.076265  0.107511  0.070105      0.005208
  0.072451  0.102136  0.066600      0.005208
  0.068638  0.096760  0.063095      0.005208
  0.064825  0.091385  0.059589      0.005208
  0.061012  0.086009  0.056084      0.005208
  0.057198  0.080634  0.052579      0.005208
  0.053385  0.075258  0.049074      0.005208
  0.049572  0.069882  0.045568      0.005208
  0.045759  0.064507  0.042063      0.005208
  0.041946  0.059131  0.038558      0.005208
  0.038132  0.053756  0.035053      0.005208
  0.034319  0.048380  0.031547      0.005208
  0.030506  0.043005  0.028042      0.005208
  0.026693  0.037629  0.024537      0.005208
  0.022879  0.032253  0.021032      0.005208
  0.019066  0.026878  0.017526      0.005208
  0.015253  0.021502  0.014021      0.005208
  0.011440  0.016127  0.010516      0.005208
  0.007626  0.010751  0.007011      0.005208
  0.003813  0.005376  0.003505      0.005208
  0.000000  0.000000  0.000000      0.005208
 


--------------------------------------------------------------------------------------------------------




 Dimension of arrays:
   k-points           NKPTS =    192   k-points in BZ     NKDIM =    192   number of bands    NBANDS=     48
   number of dos      NEDOS =    301   number of ions     NIONS =     14
   non local maximal  LDIM  =      4   non local SUM 2l+1 LMDIM =      8
   total plane-waves  NPLWV =  76800
   max r-space proj   IRMAX =      1   max aug-charges    IRDMAX=   8575
   dimension x,y,z NGX =    48 NGY =   32 NGZ =   50
   dimension x,y,z NGXF=    96 NGYF=   64 NGZF=  100
   support grid    NGXF=    96 NGYF=   64 NGZF=  100
   ions per type =              14
   NGX,Y,Z   is equivalent  to a cutoff of  14.00, 13.15, 13.40 a.u.
   NGXF,Y,Z  is equivalent  to a cutoff of  27.99, 26.31, 26.81 a.u.

 SYSTEM =  BS                                      
 POSCAR =  o-B14

 Startparameter for this run:
   NWRITE =      2    write-flag & timer
   PREC   = accura    normal or accurate (medium, high low for compatibility)
   ISTART =      0    job   : 0-new  1-cont  2-samecut
   ICHARG =     11    charge: 1-file 2-atom 10-const
   ISPIN  =      1    spin polarized calculation?
   LNONCOLLINEAR =      F non collinear calculations
   LSORBIT =      F    spin-orbit coupling
   INIWAV =      1    electr: 0-lowe 1-rand  2-diag
   LASPH  =      F    aspherical Exc in radial PAW
 Electronic Relaxation 1
   ENCUT  =  600.0 eV  44.10 Ry    6.64 a.u.  11.39  8.08 12.39*2*pi/ulx,y,z
   ENINI  =  600.0     initial cutoff
   ENAUG  =  535.5 eV  augmentation charge cutoff
   NELM   =     64;   NELMIN=  2; NELMDL= -5     # of ELM steps 
   EDIFF  = 0.1E-05   stopping-criterion for ELM
   LREAL  =      F    real-space projection
   NLSPLINE    = F    spline interpolate recip. space projectors
   LCOMPAT=      F    compatible to vasp.4.4
   GGA_COMPAT  = T    GGA compatible to vasp.4.4-vasp.4.6
   LMAXPAW     = -100 max onsite density
   LMAXMIX     =    2 max onsite mixed and CHGCAR
   VOSKOWN=      0    Vosko Wilk Nusair interpolation
   ROPT   =    0.00000
 Ionic relaxation
   EDIFFG = -.1E-02   stopping-criterion for IOM
   NSW    =      0    number of steps for IOM
   NBLOCK =      1;   KBLOCK =      1    inner block; outer block 
   IBRION =     -1    ionic relax: 0-MD 1-quasi-New 2-CG
   NFREE  =      0    steps in history (QN), initial steepest desc. (CG)
   ISIF   =      2    stress and relaxation
   IWAVPR =     10    prediction:  0-non 1-charg 2-wave 3-comb
   ISYM   =      2    0-nonsym 1-usesym 2-fastsym
   LCORR  =      T    Harris-Foulkes like correction to forces

   POTIM  = 0.5000    time-step for ionic-motion
   TEIN   =    0.0    initial temperature
   TEBEG  =    0.0;   TEEND  =   0.0 temperature during run
   SMASS  =  -3.00    Nose mass-parameter (am)
   estimated Nose-frequenzy (Omega)   =  0.10E-29 period in steps = 0.13E+47 mass=  -0.743E-27a.u.
   SCALEE = 1.0000    scale energy and forces
   NPACO  =    256;   APACO  = 10.0  distance and # of slots for P.C.
   PSTRESS=    0.0 pullay stress

  Mass of Ions in am
   POMASS =  10.81
  Ionic Valenz
   ZVAL   =   3.00
  Atomic Wigner-Seitz radii
   RWIGS  =  -1.00
  virtual crystal weights 
   VCA    =   1.00
   NELECT =      42.0000    total number of electrons
   NUPDOWN=      -1.0000    fix difference up-down

 DOS related values:
   EMIN   =  10.00;   EMAX   =-10.00  energy-range for DOS
   EFERMI =   0.00;   METHOD = LEGACY      
   ISMEAR =     0;   SIGMA  =   0.10  broadening in eV -4-tet -1-fermi 0-gaus

 Electronic relaxation 2 (details)
   IALGO  =     38    algorithm
   LDIAG  =      T    sub-space diagonalisation (order eigenvalues)
   LSUBROT=      F    optimize rotation matrix (better conditioning)
   TURBO    =      0    0=normal 1=particle mesh
   IRESTART =      0    0=no restart 2=restart with 2 vectors
   NREBOOT  =      0    no. of reboots
   NMIN     =      0    reboot dimension
   EREF     =   0.00    reference energy to select bands
   IMIX   =      4    mixing-type and parameters
     AMIX     =   0.40;   BMIX     =  1.00
     AMIX_MAG =   1.60;   BMIX_MAG =  1.00
     AMIN     =   0.10
     WC   =   100.;   INIMIX=   1;  MIXPRE=   1;  MAXMIX= -45

 Intra band minimization:
   WEIMIN = 0.0000     energy-eigenvalue tresh-hold
   EBREAK =  0.52E-08  absolut break condition
   DEPER  =   0.30     relativ break condition  

   TIME   =   0.40     timestep for ELM

  volume/ion in A,a.u.               =      10.21        68.92
  Fermi-wavevector in a.u.,A,eV,Ry     =   1.088249  2.056492 16.113188  1.184286
  Thomas-Fermi vector in A             =   2.224426
 
 Write flags
   LWAVE        =      T    write WAVECAR
   LDOWNSAMPLE  =      F    k-point downsampling of WAVECAR
   LCHARG       =      T    write CHGCAR
   LVTOT        =      F    write LOCPOT, total local potential
   LVHAR        =      F    write LOCPOT, Hartree potential only
   WRT_POTENTIAL= false  ! write potential to hdf5 file
   LELF         =      F    write electronic localiz. function (ELF)
   LORBIT       =     11    0 simple, 1 ext, 2 COOP (PROOUT), +10 PAW based schemes


 Dipole corrections
   LMONO      =      F    monopole corrections only (constant potential shift)
   LDIPOL     =      F    correct potential (dipole corrections)
   IDIPOL     =      0    1-x, 2-y, 3-z, 4-all directions 
   EPSILON    =  1.0000000 bulk dielectric constant
   LVACPOTAV  =      F  vacuum potentials using an averaging scheme for the charge density
   VACPOTFLAT =  0.1000000 required flatness to determine vacuum potential
 Exchange correlation treatment:
   GGA     = PE    functional components
   XC_C    = 1    coefficients multiplying the functional components
   LIBXC   =     F    Libxc                    
   VOSKOWN =     0    Vosko Wilk Nusair interpolation
   LHFCALC =     F    Hartree Fock is set to
   LHFONE  =     F    Hartree Fock one center treatment
   AEXX    =    0.0000 exact exchange contribution

 Parameters of functionals:
   PE:
     No parameter
 
 Van der Waals corrections
   IVDW    =    12    specifies the selected vdW correction

 Linear response parameters
   LEPSILON=     F    determine dielectric tensor
   LRPA    =     F    only Hartree local field effects (RPA)
   LNABLA  =     F    use nabla operator in PAW spheres
   LVEL    =     F    velocity operator in full k-point grid
   CSHIFT  =0.1000    complex shift for real part using Kramers Kronig
   OMEGAMAX=  -1.0    maximum frequency
   DEG_THRESHOLD= 0.2000000E-02 threshold for treating states as degnerate
   RTIME   =   -0.100 relaxation time in fs
  (WPLASMAI=    0.000 imaginary part of plasma frequency in eV, 0.658/RTIME)
   DFIELD  = 0.0000000 0.0000000 0.0000000 field for delta impulse in time
 
  Optional k-point grid parameters
   LKPOINTS_OPT  =     F    use optional k-point grid
   KPOINTS_OPT_MODE=     1    mode for optional k-point grid
 
 Orbital magnetization related:
   ORBITALMAG=     F  switch on orbital magnetization
   LCHIMAG   =     F  perturbation theory with respect to B field
   DQ        =  0.001000  dq finite difference perturbation B field
   LLRAUG    =     F  two centre corrections for induced B field
   LBONE     =     F  B-component reconstruction in AE one-centre
   LVGVCALC  =     T  calculate vGv susceptibility
   LVGVAPPL  =     F  apply vGv susceptibility instead of pGv for G=0

 Random number generation:
   RANDOM_GENERATOR = DEFAULT
   PCG_SEED         = not used


--------------------------------------------------------------------------------------------------------


 Static calculation
 charge density and potential remain constant during run
 non-spin polarized calculation
 Variant of blocked Davidson
 Davidson routine will perform the subspace rotation
 perform sub-space diagonalisation
    after iterative eigenvector-optimisation
 no mixing
 using additional bands           27
 reciprocal scheme for non local part
 use partial core corrections
 calculate Harris-corrections to forces 
   (improved forces if not selfconsistent)
 use gradient corrections 
 WARNING: stress and forces are not correct
  (second derivative of E(xc) not defined)
 use of overlap-Matrix (Vanderbilt PP)
 Gauss-broadening in eV      SIGMA  =   0.10


--------------------------------------------------------------------------------------------------------


  energy-cutoff  :      600.00
  volume of cell :      142.98
      direct lattice vectors                 reciprocal lattice vectors
     5.700970695  0.000000000  0.000000000     0.175408725  0.000000000  0.000000000
     0.000000000  4.044058096  0.000000000     0.000000000  0.247276368  0.000000000
     0.000000000  0.000000000  6.201871195     0.000000000  0.000000000  0.161241659

  length of vectors
     5.700970695  4.044058096  6.201871195     0.175408725  0.247276368  0.161241659


 
 k-points in units of 2pi/SCALE and weight: K-points                                
   0.00000000  0.00000000  0.00000000       0.005
   0.00000000  0.00000000  0.00350525       0.005
   0.00000000  0.00000000  0.00701051       0.005
   0.00000000  0.00000000  0.01051576       0.005
   0.00000000  0.00000000  0.01402101       0.005
   0.00000000  0.00000000  0.01752627       0.005
   0.00000000  0.00000000  0.02103152       0.005
   0.00000000  0.00000000  0.02453677       0.005
   0.00000000  0.00000000  0.02804203       0.005
   0.00000000  0.00000000  0.03154728       0.005
   0.00000000  0.00000000  0.03505253       0.005
   0.00000000  0.00000000  0.03855779       0.005
   0.00000000  0.00000000  0.04206304       0.005
   0.00000000  0.00000000  0.04556829       0.005
   0.00000000  0.00000000  0.04907355       0.005
   0.00000000  0.00000000  0.05257880       0.005
   0.00000000  0.00000000  0.05608406       0.005
   0.00000000  0.00000000  0.05958931       0.005
   0.00000000  0.00000000  0.06309456       0.005
   0.00000000  0.00000000  0.06659982       0.005
   0.00000000  0.00000000  0.07010507       0.005
   0.00000000  0.00000000  0.07361032       0.005
   0.00000000  0.00000000  0.07711558       0.005
   0.00000000  0.00000000  0.08062083       0.005
   0.00000000  0.00000000  0.08062083       0.005
   0.00000000  0.00537557  0.08062083       0.005
   0.00000000  0.01075115  0.08062083       0.005
   0.00000000  0.01612672  0.08062083       0.005
   0.00000000  0.02150229  0.08062083       0.005
   0.00000000  0.02687787  0.08062083       0.005
   0.00000000  0.03225344  0.08062083       0.005
   0.00000000  0.03762901  0.08062083       0.005
   0.00000000  0.04300459  0.08062083       0.005
   0.00000000  0.04838016  0.08062083       0.005
   0.00000000  0.05375573  0.08062083       0.005
   0.00000000  0.05913131  0.08062083       0.005
   0.00000000  0.06450688  0.08062083       0.005
   0.00000000  0.06988245  0.08062083       0.005
   0.00000000  0.07525803  0.08062083       0.005
   0.00000000  0.08063360  0.08062083       0.005
   0.00000000  0.08600917  0.08062083       0.005
   0.00000000  0.09138474  0.08062083       0.005
   0.00000000  0.09676032  0.08062083       0.005
   0.00000000  0.10213589  0.08062083       0.005
   0.00000000  0.10751146  0.08062083       0.005
   0.00000000  0.11288704  0.08062083       0.005
   0.00000000  0.11826261  0.08062083       0.005
   0.00000000  0.12363818  0.08062083       0.005
   0.00000000  0.12363818  0.08062083       0.005
   0.00000000  0.12363818  0.07711558       0.005
   0.00000000  0.12363818  0.07361032       0.005
   0.00000000  0.12363818  0.07010507       0.005
   0.00000000  0.12363818  0.06659982       0.005
   0.00000000  0.12363818  0.06309456       0.005
   0.00000000  0.12363818  0.05958931       0.005
   0.00000000  0.12363818  0.05608406       0.005
   0.00000000  0.12363818  0.05257880       0.005
   0.00000000  0.12363818  0.04907355       0.005
   0.00000000  0.12363818  0.04556829       0.005
   0.00000000  0.12363818  0.04206304       0.005
   0.00000000  0.12363818  0.03855779       0.005
   0.00000000  0.12363818  0.03505253       0.005
   0.00000000  0.12363818  0.03154728       0.005
   0.00000000  0.12363818  0.02804203       0.005
   0.00000000  0.12363818  0.02453677       0.005
   0.00000000  0.12363818  0.02103152       0.005
   0.00000000  0.12363818  0.01752627       0.005
   0.00000000  0.12363818  0.01402101       0.005
   0.00000000  0.12363818  0.01051576       0.005
   0.00000000  0.12363818  0.00701051       0.005
   0.00000000  0.12363818  0.00350525       0.005
   0.00000000  0.12363818  0.00000000       0.005
   0.00000000  0.12363818  0.00000000       0.005
   0.00381323  0.12363818  0.00000000       0.005
   0.00762647  0.12363818  0.00000000       0.005
   0.01143970  0.12363818  0.00000000       0.005
   0.01525293  0.12363818  0.00000000       0.005
   0.01906617  0.12363818  0.00000000       0.005
   0.02287940  0.12363818  0.00000000       0.005
   0.02669263  0.12363818  0.00000000       0.005
   0.03050587  0.12363818  0.00000000       0.005
   0.03431910  0.12363818  0.00000000       0.005
   0.03813233  0.12363818  0.00000000       0.005
   0.04194556  0.12363818  0.00000000       0.005
   0.04575880  0.12363818  0.00000000       0.005
   0.04957203  0.12363818  0.00000000       0.005
   0.05338526  0.12363818  0.00000000       0.005
   0.05719850  0.12363818  0.00000000       0.005
   0.06101173  0.12363818  0.00000000       0.005
   0.06482496  0.12363818  0.00000000       0.005
   0.06863820  0.12363818  0.00000000       0.005
   0.07245143  0.12363818  0.00000000       0.005
   0.07626466  0.12363818  0.00000000       0.005
   0.08007790  0.12363818  0.00000000       0.005
   0.08389113  0.12363818  0.00000000       0.005
   0.08770436  0.12363818  0.00000000       0.005
   0.08770436  0.12363818  0.00000000       0.005
   0.08770436  0.11826261  0.00000000       0.005
   0.08770436  0.11288704  0.00000000       0.005
   0.08770436  0.10751146  0.00000000       0.005
   0.08770436  0.10213589  0.00000000       0.005
   0.08770436  0.09676032  0.00000000       0.005
   0.08770436  0.09138474  0.00000000       0.005
   0.08770436  0.08600917  0.00000000       0.005
   0.08770436  0.08063360  0.00000000       0.005
   0.08770436  0.07525803  0.00000000       0.005
   0.08770436  0.06988245  0.00000000       0.005
   0.08770436  0.06450688  0.00000000       0.005
   0.08770436  0.05913131  0.00000000       0.005
   0.08770436  0.05375573  0.00000000       0.005
   0.08770436  0.04838016  0.00000000       0.005
   0.08770436  0.04300459  0.00000000       0.005
   0.08770436  0.03762901  0.00000000       0.005
   0.08770436  0.03225344  0.00000000       0.005
   0.08770436  0.02687787  0.00000000       0.005
   0.08770436  0.02150229  0.00000000       0.005
   0.08770436  0.01612672  0.00000000       0.005
   0.08770436  0.01075115  0.00000000       0.005
   0.08770436  0.00537557  0.00000000       0.005
   0.08770436  0.00000000  0.00000000       0.005
   0.08770436  0.00000000  0.00000000       0.005
   0.08770436  0.00000000  0.00350525       0.005
   0.08770436  0.00000000  0.00701051       0.005
   0.08770436  0.00000000  0.01051576       0.005
   0.08770436  0.00000000  0.01402101       0.005
   0.08770436  0.00000000  0.01752627       0.005
   0.08770436  0.00000000  0.02103152       0.005
   0.08770436  0.00000000  0.02453677       0.005
   0.08770436  0.00000000  0.02804203       0.005
   0.08770436  0.00000000  0.03154728       0.005
   0.08770436  0.00000000  0.03505253       0.005
   0.08770436  0.00000000  0.03855779       0.005
   0.08770436  0.00000000  0.04206304       0.005
   0.08770436  0.00000000  0.04556829       0.005
   0.08770436  0.00000000  0.04907355       0.005
   0.08770436  0.00000000  0.05257880       0.005
   0.08770436  0.00000000  0.05608406       0.005
   0.08770436  0.00000000  0.05958931       0.005
   0.08770436  0.00000000  0.06309456       0.005
   0.08770436  0.00000000  0.06659982       0.005
   0.08770436  0.00000000  0.07010507       0.005
   0.08770436  0.00000000  0.07361032       0.005
   0.08770436  0.00000000  0.07711558       0.005
   0.08770436  0.00000000  0.08062083       0.005
   0.08770436  0.00000000  0.08062083       0.005
   0.08770436  0.00537557  0.08062083       0.005
   0.08770436  0.01075115  0.08062083       0.005
   0.08770436  0.01612672  0.08062083       0.005
   0.08770436  0.02150229  0.08062083       0.005
   0.08770436  0.02687787  0.08062083       0.005
   0.08770436  0.03225344  0.08062083       0.005
   0.08770436  0.03762901  0.08062083       0.005
   0.08770436  0.04300459  0.08062083       0.005
   0.08770436  0.04838016  0.08062083       0.005
   0.08770436  0.05375573  0.08062083       0.005
   0.08770436  0.05913131  0.08062083       0.005
   0.08770436  0.06450688  0.08062083       0.005
   0.08770436  0.06988245  0.08062083       0.005
   0.08770436  0.07525803  0.08062083       0.005
   0.08770436  0.08063360  0.08062083       0.005
   0.08770436  0.08600917  0.08062083       0.005
   0.08770436  0.09138474  0.08062083       0.005
   0.08770436  0.09676032  0.08062083       0.005
   0.08770436  0.10213589  0.08062083       0.005
   0.08770436  0.10751146  0.08062083       0.005
   0.08770436  0.11288704  0.08062083       0.005
   0.08770436  0.11826261  0.08062083       0.005
   0.08770436  0.12363818  0.08062083       0.005
   0.08770436  0.12363818  0.08062083       0.005
   0.08389113  0.11826261  0.07711558       0.005
   0.08007790  0.11288704  0.07361032       0.005
   0.07626466  0.10751146  0.07010507       0.005
   0.07245143  0.10213589  0.06659982       0.005
   0.06863820  0.09676032  0.06309456       0.005
   0.06482496  0.09138474  0.05958931       0.005
   0.06101173  0.08600917  0.05608406       0.005
   0.05719850  0.08063360  0.05257880       0.005
   0.05338526  0.07525803  0.04907355       0.005
   0.04957203  0.06988245  0.04556829       0.005
   0.04575880  0.06450688  0.04206304       0.005
   0.04194556  0.05913131  0.03855779       0.005
   0.03813233  0.05375573  0.03505253       0.005
   0.03431910  0.04838016  0.03154728       0.005
   0.03050587  0.04300459  0.02804203       0.005
   0.02669263  0.03762901  0.02453677       0.005
   0.02287940  0.03225344  0.02103152       0.005
   0.01906617  0.02687787  0.01752627       0.005
   0.01525293  0.02150229  0.01402101       0.005
   0.01143970  0.01612672  0.01051576       0.005
   0.00762647  0.01075115  0.00701051       0.005
   0.00381323  0.00537557  0.00350525       0.005
   0.00000000  0.00000000  0.00000000       0.005
 
 k-points in reciprocal lattice and weights: K-points                                
   0.00000000  0.00000000  0.00000000       0.005
   0.00000000  0.00000000  0.02173913       0.005
   0.00000000  0.00000000  0.04347826       0.005
   0.00000000  0.00000000  0.06521739       0.005
   0.00000000  0.00000000  0.08695652       0.005
   0.00000000  0.00000000  0.10869565       0.005
   0.00000000  0.00000000  0.13043478       0.005
   0.00000000  0.00000000  0.15217391       0.005
   0.00000000  0.00000000  0.17391304       0.005
   0.00000000  0.00000000  0.19565217       0.005
   0.00000000  0.00000000  0.21739130       0.005
   0.00000000  0.00000000  0.23913043       0.005
   0.00000000  0.00000000  0.26086957       0.005
   0.00000000  0.00000000  0.28260870       0.005
   0.00000000  0.00000000  0.30434783       0.005
   0.00000000  0.00000000  0.32608696       0.005
   0.00000000  0.00000000  0.34782609       0.005
   0.00000000  0.00000000  0.36956522       0.005
   0.00000000  0.00000000  0.39130435       0.005
   0.00000000  0.00000000  0.41304348       0.005
   0.00000000  0.00000000  0.43478261       0.005
   0.00000000  0.00000000  0.45652174       0.005
   0.00000000  0.00000000  0.47826087       0.005
   0.00000000  0.00000000  0.50000000       0.005
   0.00000000  0.00000000  0.50000000       0.005
   0.00000000  0.02173913  0.50000000       0.005
   0.00000000  0.04347826  0.50000000       0.005
   0.00000000  0.06521739  0.50000000       0.005
   0.00000000  0.08695652  0.50000000       0.005
   0.00000000  0.10869565  0.50000000       0.005
   0.00000000  0.13043478  0.50000000       0.005
   0.00000000  0.15217391  0.50000000       0.005
   0.00000000  0.17391304  0.50000000       0.005
   0.00000000  0.19565217  0.50000000       0.005
   0.00000000  0.21739130  0.50000000       0.005
   0.00000000  0.23913043  0.50000000       0.005
   0.00000000  0.26086957  0.50000000       0.005
   0.00000000  0.28260870  0.50000000       0.005
   0.00000000  0.30434783  0.50000000       0.005
   0.00000000  0.32608696  0.50000000       0.005
   0.00000000  0.34782609  0.50000000       0.005
   0.00000000  0.36956522  0.50000000       0.005
   0.00000000  0.39130435  0.50000000       0.005
   0.00000000  0.41304348  0.50000000       0.005
   0.00000000  0.43478261  0.50000000       0.005
   0.00000000  0.45652174  0.50000000       0.005
   0.00000000  0.47826087  0.50000000       0.005
   0.00000000  0.50000000  0.50000000       0.005
   0.00000000  0.50000000  0.50000000       0.005
   0.00000000  0.50000000  0.47826087       0.005
   0.00000000  0.50000000  0.45652174       0.005
   0.00000000  0.50000000  0.43478261       0.005
   0.00000000  0.50000000  0.41304348       0.005
   0.00000000  0.50000000  0.39130435       0.005
   0.00000000  0.50000000  0.36956522       0.005
   0.00000000  0.50000000  0.34782609       0.005
   0.00000000  0.50000000  0.32608696       0.005
   0.00000000  0.50000000  0.30434783       0.005
   0.00000000  0.50000000  0.28260870       0.005
   0.00000000  0.50000000  0.26086957       0.005
   0.00000000  0.50000000  0.23913043       0.005
   0.00000000  0.50000000  0.21739130       0.005
   0.00000000  0.50000000  0.19565217       0.005
   0.00000000  0.50000000  0.17391304       0.005
   0.00000000  0.50000000  0.15217391       0.005
   0.00000000  0.50000000  0.13043478       0.005
   0.00000000  0.50000000  0.10869565       0.005
   0.00000000  0.50000000  0.08695652       0.005
   0.00000000  0.50000000  0.06521739       0.005
   0.00000000  0.50000000  0.04347826       0.005
   0.00000000  0.50000000  0.02173913       0.005
   0.00000000  0.50000000  0.00000000       0.005
   0.00000000  0.50000000  0.00000000       0.005
   0.02173913  0.50000000  0.00000000       0.005
   0.04347826  0.50000000  0.00000000       0.005
   0.06521739  0.50000000  0.00000000       0.005
   0.08695652  0.50000000  0.00000000       0.005
   0.10869565  0.50000000  0.00000000       0.005
   0.13043478  0.50000000  0.00000000       0.005
   0.15217391  0.50000000  0.00000000       0.005
   0.17391304  0.50000000  0.00000000       0.005
   0.19565217  0.50000000  0.00000000       0.005
   0.21739130  0.50000000  0.00000000       0.005
   0.23913043  0.50000000  0.00000000       0.005
   0.26086957  0.50000000  0.00000000       0.005
   0.28260870  0.50000000  0.00000000       0.005
   0.30434783  0.50000000  0.00000000       0.005
   0.32608696  0.50000000  0.00000000       0.005
   0.34782609  0.50000000  0.00000000       0.005
   0.36956522  0.50000000  0.00000000       0.005
   0.39130435  0.50000000  0.00000000       0.005
   0.41304348  0.50000000  0.00000000       0.005
   0.43478261  0.50000000  0.00000000       0.005
   0.45652174  0.50000000  0.00000000       0.005
   0.47826087  0.50000000  0.00000000       0.005
   0.50000000  0.50000000  0.00000000       0.005
   0.50000000  0.50000000  0.00000000       0.005
   0.50000000  0.47826087  0.00000000       0.005
   0.50000000  0.45652174  0.00000000       0.005
   0.50000000  0.43478261  0.00000000       0.005
   0.50000000  0.41304348  0.00000000       0.005
   0.50000000  0.39130435  0.00000000       0.005
   0.50000000  0.36956522  0.00000000       0.005
   0.50000000  0.34782609  0.00000000       0.005
   0.50000000  0.32608696  0.00000000       0.005
   0.50000000  0.30434783  0.00000000       0.005
   0.50000000  0.28260870  0.00000000       0.005
   0.50000000  0.26086957  0.00000000       0.005
   0.50000000  0.23913043  0.00000000       0.005
   0.50000000  0.21739130  0.00000000       0.005
   0.50000000  0.19565217  0.00000000       0.005
   0.50000000  0.17391304  0.00000000       0.005
   0.50000000  0.15217391  0.00000000       0.005
   0.50000000  0.13043478  0.00000000       0.005
   0.50000000  0.10869565  0.00000000       0.005
   0.50000000  0.08695652  0.00000000       0.005
   0.50000000  0.06521739  0.00000000       0.005
   0.50000000  0.04347826  0.00000000       0.005
   0.50000000  0.02173913  0.00000000       0.005
   0.50000000  0.00000000  0.00000000       0.005
   0.50000000  0.00000000  0.00000000       0.005
   0.50000000  0.00000000  0.02173913       0.005
   0.50000000  0.00000000  0.04347826       0.005
   0.50000000  0.00000000  0.06521739       0.005
   0.50000000  0.00000000  0.08695652       0.005
   0.50000000  0.00000000  0.10869565       0.005
   0.50000000  0.00000000  0.13043478       0.005
   0.50000000  0.00000000  0.15217391       0.005
   0.50000000  0.00000000  0.17391304       0.005
   0.50000000  0.00000000  0.19565217       0.005
   0.50000000  0.00000000  0.21739130       0.005
   0.50000000  0.00000000  0.23913043       0.005
   0.50000000  0.00000000  0.26086957       0.005
   0.50000000  0.00000000  0.28260870       0.005
   0.50000000  0.00000000  0.30434783       0.005
   0.50000000  0.00000000  0.32608696       0.005
   0.50000000  0.00000000  0.34782609       0.005
   0.50000000  0.00000000  0.36956522       0.005
   0.50000000  0.00000000  0.39130435       0.005
   0.50000000  0.00000000  0.41304348       0.005
   0.50000000  0.00000000  0.43478261       0.005
   0.50000000  0.00000000  0.45652174       0.005
   0.50000000  0.00000000  0.47826087       0.005
   0.50000000  0.00000000  0.50000000       0.005
   0.50000000  0.00000000  0.50000000       0.005
   0.50000000  0.02173913  0.50000000       0.005
   0.50000000  0.04347826  0.50000000       0.005
   0.50000000  0.06521739  0.50000000       0.005
   0.50000000  0.08695652  0.50000000       0.005
   0.50000000  0.10869565  0.50000000       0.005
   0.50000000  0.13043478  0.50000000       0.005
   0.50000000  0.15217391  0.50000000       0.005
   0.50000000  0.17391304  0.50000000       0.005
   0.50000000  0.19565217  0.50000000       0.005
   0.50000000  0.21739130  0.50000000       0.005
   0.50000000  0.23913043  0.50000000       0.005
   0.50000000  0.26086957  0.50000000       0.005
   0.50000000  0.28260870  0.50000000       0.005
   0.50000000  0.30434783  0.50000000       0.005
   0.50000000  0.32608696  0.50000000       0.005
   0.50000000  0.34782609  0.50000000       0.005
   0.50000000  0.36956522  0.50000000       0.005
   0.50000000  0.39130435  0.50000000       0.005
   0.50000000  0.41304348  0.50000000       0.005
   0.50000000  0.43478261  0.50000000       0.005
   0.50000000  0.45652174  0.50000000       0.005
   0.50000000  0.47826087  0.50000000       0.005
   0.50000000  0.50000000  0.50000000       0.005
   0.50000000  0.50000000  0.50000000       0.005
   0.47826087  0.47826087  0.47826087       0.005
   0.45652174  0.45652174  0.45652174       0.005
   0.43478261  0.43478261  0.43478261       0.005
   0.41304348  0.41304348  0.41304348       0.005
   0.39130435  0.39130435  0.39130435       0.005
   0.36956522  0.36956522  0.36956522       0.005
   0.34782609  0.34782609  0.34782609       0.005
   0.32608696  0.32608696  0.32608696       0.005
   0.30434783  0.30434783  0.30434783       0.005
   0.28260870  0.28260870  0.28260870       0.005
   0.26086957  0.26086957  0.26086957       0.005
   0.23913043  0.23913043  0.23913043       0.005
   0.21739130  0.21739130  0.21739130       0.005
   0.19565217  0.19565217  0.19565217       0.005
   0.17391304  0.17391304  0.17391304       0.005
   0.15217391  0.15217391  0.15217391       0.005
   0.13043478  0.13043478  0.13043478       0.005
   0.10869565  0.10869565  0.10869565       0.005
   0.08695652  0.08695652  0.08695652       0.005
   0.06521739  0.06521739  0.06521739       0.005
   0.04347826  0.04347826  0.04347826       0.005
   0.02173913  0.02173913  0.02173913       0.005
   0.00000000  0.00000000  0.00000000       0.005
 
 position of ions in fractional coordinates (direct lattice) 
   0.52128988  0.50000000  0.63795770
   0.47871012  0.50000000  0.36204230
   0.97871012  0.50000000  0.63795770
   0.02128988  0.50000000  0.36204230
   0.59744966  0.50000000  0.89986832
   0.40255034  0.50000000  0.10013168
   0.90255034  0.50000000  0.89986832
   0.09744966  0.50000000  0.10013168
   0.75000000  0.79156493  0.72957940
   0.25000000  0.20843507  0.27042060
   0.75000000  0.20843507  0.72957940
   0.25000000  0.79156493  0.27042060
   0.25000000  0.50000000  0.52399303
   0.75000000  0.50000000  0.47600697
 
 position of ions in cartesian coordinates  (Angst):
   2.97185836  2.02202905  3.95653149
   2.72911234  2.02202905  2.24533970
   5.57959769  2.02202905  3.95653149
   0.12137301  2.02202905  2.24533970
   3.40604302  2.02202905  5.58086739
   2.29492768  2.02202905  0.62100381
   5.14541303  2.02202905  5.58086739
   0.55555767  2.02202905  0.62100381
   4.27572802  3.20113457  4.52475744
   1.42524267  0.84292352  1.67711376
   4.27572802  0.84292352  4.52475744
   1.42524267  3.20113457  1.67711376
   1.42524267  2.02202905  3.24973731
   4.27572802  2.02202905  2.95213389
 


--------------------------------------------------------------------------------------------------------


 k-point     1 :   0.0000 0.0000 0.0000  plane waves:    4791
 k-point     2 :   0.0000 0.0000 0.0217  plane waves:    4785
 k-point     3 :   0.0000 0.0000 0.0435  plane waves:    4773
 k-point     4 :   0.0000 0.0000 0.0652  plane waves:    4771
 k-point     5 :   0.0000 0.0000 0.0870  plane waves:    4765
 k-point     6 :   0.0000 0.0000 0.1087  plane waves:    4765
 k-point     7 :   0.0000 0.0000 0.1304  plane waves:    4759
 k-point     8 :   0.0000 0.0000 0.1522  plane waves:    4759
 k-point     9 :   0.0000 0.0000 0.1739  plane waves:    4759
 k-point    10 :   0.0000 0.0000 0.1957  plane waves:    4757
 k-point    11 :   0.0000 0.0000 0.2174  plane waves:    4759
 k-point    12 :   0.0000 0.0000 0.2391  plane waves:    4759
 k-point    13 :   0.0000 0.0000 0.2609  plane waves:    4743
 k-point    14 :   0.0000 0.0000 0.2826  plane waves:    4741
 k-point    15 :   0.0000 0.0000 0.3043  plane waves:    4743
 k-point    16 :   0.0000 0.0000 0.3261  plane waves:    4743
 k-point    17 :   0.0000 0.0000 0.3478  plane waves:    4737
 k-point    18 :   0.0000 0.0000 0.3696  plane waves:    4745
 k-point    19 :   0.0000 0.0000 0.3913  plane waves:    4748
 k-point    20 :   0.0000 0.0000 0.4130  plane waves:    4756
 k-point    21 :   0.0000 0.0000 0.4348  plane waves:    4748
 k-point    22 :   0.0000 0.0000 0.4565  plane waves:    4752
 k-point    23 :   0.0000 0.0000 0.4783  plane waves:    4750
 k-point    24 :   0.0000 0.0000 0.5000  plane waves:    4748
 k-point    25 :   0.0000 0.0000 0.5000  plane waves:    4748
 k-point    26 :   0.0000 0.0217 0.5000  plane waves:    4752
 k-point    27 :   0.0000 0.0435 0.5000  plane waves:    4756
 k-point    28 :   0.0000 0.0652 0.5000  plane waves:    4764
 k-point    29 :   0.0000 0.0870 0.5000  plane waves:    4758
 k-point    30 :   0.0000 0.1087 0.5000  plane waves:    4756
 k-point    31 :   0.0000 0.1304 0.5000  plane waves:    4772
 k-point    32 :   0.0000 0.1522 0.5000  plane waves:    4776
 k-point    33 :   0.0000 0.1739 0.5000  plane waves:    4784
 k-point    34 :   0.0000 0.1957 0.5000  plane waves:    4782
 k-point    35 :   0.0000 0.2174 0.5000  plane waves:    4774
 k-point    36 :   0.0000 0.2391 0.5000  plane waves:    4776
 k-point    37 :   0.0000 0.2609 0.5000  plane waves:    4782
 k-point    38 :   0.0000 0.2826 0.5000  plane waves:    4790
 k-point    39 :   0.0000 0.3043 0.5000  plane waves:    4788
 k-point    40 :   0.0000 0.3261 0.5000  plane waves:    4788
 k-point    41 :   0.0000 0.3478 0.5000  plane waves:    4804
 k-point    42 :   0.0000 0.3696 0.5000  plane waves:    4804
 k-point    43 :   0.0000 0.3913 0.5000  plane waves:    4796
 k-point    44 :   0.0000 0.4130 0.5000  plane waves:    4784
 k-point    45 :   0.0000 0.4348 0.5000  plane waves:    4778
 k-point    46 :   0.0000 0.4565 0.5000  plane waves:    4782
 k-point    47 :   0.0000 0.4783 0.5000  plane waves:    4780
 k-point    48 :   0.0000 0.5000 0.5000  plane waves:    4776
 k-point    49 :   0.0000 0.5000 0.5000  plane waves:    4776
 k-point    50 :   0.0000 0.5000 0.4783  plane waves:    4780
 k-point    51 :   0.0000 0.5000 0.4565  plane waves:    4792
 k-point    52 :   0.0000 0.5000 0.4348  plane waves:    4784
 k-point    53 :   0.0000 0.5000 0.4130  plane waves:    4776
 k-point    54 :   0.0000 0.5000 0.3913  plane waves:    4770
 k-point    55 :   0.0000 0.5000 0.3696  plane waves:    4774
 k-point    56 :   0.0000 0.5000 0.3478  plane waves:    4786
 k-point    57 :   0.0000 0.5000 0.3261  plane waves:    4786
 k-point    58 :   0.0000 0.5000 0.3043  plane waves:    4794
 k-point    59 :   0.0000 0.5000 0.2826  plane waves:    4800
 k-point    60 :   0.0000 0.5000 0.2609  plane waves:    4800
 k-point    61 :   0.0000 0.5000 0.2391  plane waves:    4792
 k-point    62 :   0.0000 0.5000 0.2174  plane waves:    4802
 k-point    63 :   0.0000 0.5000 0.1957  plane waves:    4802
 k-point    64 :   0.0000 0.5000 0.1739  plane waves:    4794
 k-point    65 :   0.0000 0.5000 0.1522  plane waves:    4810
 k-point    66 :   0.0000 0.5000 0.1304  plane waves:    4810
 k-point    67 :   0.0000 0.5000 0.1087  plane waves:    4810
 k-point    68 :   0.0000 0.5000 0.0870  plane waves:    4818
 k-point    69 :   0.0000 0.5000 0.0652  plane waves:    4804
 k-point    70 :   0.0000 0.5000 0.0435  plane waves:    4796
 k-point    71 :   0.0000 0.5000 0.0217  plane waves:    4792
 k-point    72 :   0.0000 0.5000 0.0000  plane waves:    4788
 k-point    73 :   0.0000 0.5000 0.0000  plane waves:    4788
 k-point    74 :   0.0217 0.5000 0.0000  plane waves:    4796
 k-point    75 :   0.0435 0.5000 0.0000  plane waves:    4788
 k-point    76 :   0.0652 0.5000 0.0000  plane waves:    4800
 k-point    77 :   0.0870 0.5000 0.0000  plane waves:    4796
 k-point    78 :   0.1087 0.5000 0.0000  plane waves:    4796
 k-point    79 :   0.1304 0.5000 0.0000  plane waves:    4804
 k-point    80 :   0.1522 0.5000 0.0000  plane waves:    4800
 k-point    81 :   0.1739 0.5000 0.0000  plane waves:    4794
 k-point    82 :   0.1957 0.5000 0.0000  plane waves:    4784
 k-point    83 :   0.2174 0.5000 0.0000  plane waves:    4784
 k-point    84 :   0.2391 0.5000 0.0000  plane waves:    4778
 k-point    85 :   0.2609 0.5000 0.0000  plane waves:    4784
 k-point    86 :   0.2826 0.5000 0.0000  plane waves:    4786
 k-point    87 :   0.3043 0.5000 0.0000  plane waves:    4790
 k-point    88 :   0.3261 0.5000 0.0000  plane waves:    4794
 k-point    89 :   0.3478 0.5000 0.0000  plane waves:    4804
 k-point    90 :   0.3696 0.5000 0.0000  plane waves:    4798
 k-point    91 :   0.3913 0.5000 0.0000  plane waves:    4794
 k-point    92 :   0.4130 0.5000 0.0000  plane waves:    4786
 k-point    93 :   0.4348 0.5000 0.0000  plane waves:    4794
 k-point    94 :   0.4565 0.5000 0.0000  plane waves:    4796
 k-point    95 :   0.4783 0.5000 0.0000  plane waves:    4796
 k-point    96 :   0.5000 0.5000 0.0000  plane waves:    4796
 k-point    97 :   0.5000 0.5000 0.0000  plane waves:    4796
 k-point    98 :   0.5000 0.4783 0.0000  plane waves:    4796
 k-point    99 :   0.5000 0.4565 0.0000  plane waves:    4784
 k-point   100 :   0.5000 0.4348 0.0000  plane waves:    4794
 k-point   101 :   0.5000 0.4130 0.0000  plane waves:    4788
 k-point   102 :   0.5000 0.3913 0.0000  plane waves:    4788
 k-point   103 :   0.5000 0.3696 0.0000  plane waves:    4794
 k-point   104 :   0.5000 0.3478 0.0000  plane waves:    4776
 k-point   105 :   0.5000 0.3261 0.0000  plane waves:    4772
 k-point   106 :   0.5000 0.3043 0.0000  plane waves:    4770
 k-point   107 :   0.5000 0.2826 0.0000  plane waves:    4770
 k-point   108 :   0.5000 0.2609 0.0000  plane waves:    4778
 k-point   109 :   0.5000 0.2391 0.0000  plane waves:    4778
 k-point   110 :   0.5000 0.2174 0.0000  plane waves:    4762
 k-point   111 :   0.5000 0.1957 0.0000  plane waves:    4766
 k-point   112 :   0.5000 0.1739 0.0000  plane waves:    4766
 k-point   113 :   0.5000 0.1522 0.0000  plane waves:    4762
 k-point   114 :   0.5000 0.1304 0.0000  plane waves:    4754
 k-point   115 :   0.5000 0.1087 0.0000  plane waves:    4766
 k-point   116 :   0.5000 0.0870 0.0000  plane waves:    4762
 k-point   117 :   0.5000 0.0652 0.0000  plane waves:    4772
 k-point   118 :   0.5000 0.0435 0.0000  plane waves:    4764
 k-point   119 :   0.5000 0.0217 0.0000  plane waves:    4764
 k-point   120 :   0.5000 0.0000 0.0000  plane waves:    4762
 k-point   121 :   0.5000 0.0000 0.0000  plane waves:    4762
 k-point   122 :   0.5000 0.0000 0.0217  plane waves:    4766
 k-point   123 :   0.5000 0.0000 0.0435  plane waves:    4774
 k-point   124 :   0.5000 0.0000 0.0652  plane waves:    4770
 k-point   125 :   0.5000 0.0000 0.0870  plane waves:    4764
 k-point   126 :   0.5000 0.0000 0.1087  plane waves:    4752
 k-point   127 :   0.5000 0.0000 0.1304  plane waves:    4748
 k-point   128 :   0.5000 0.0000 0.1522  plane waves:    4756
 k-point   129 :   0.5000 0.0000 0.1739  plane waves:    4762
 k-point   130 :   0.5000 0.0000 0.1957  plane waves:    4754
 k-point   131 :   0.5000 0.0000 0.2174  plane waves:    4762
 k-point   132 :   0.5000 0.0000 0.2391  plane waves:    4766
 k-point   133 :   0.5000 0.0000 0.2609  plane waves:    4772
 k-point   134 :   0.5000 0.0000 0.2826  plane waves:    4762
 k-point   135 :   0.5000 0.0000 0.3043  plane waves:    4766
 k-point   136 :   0.5000 0.0000 0.3261  plane waves:    4784
 k-point   137 :   0.5000 0.0000 0.3478  plane waves:    4780
 k-point   138 :   0.5000 0.0000 0.3696  plane waves:    4784
 k-point   139 :   0.5000 0.0000 0.3913  plane waves:    4776
 k-point   140 :   0.5000 0.0000 0.4130  plane waves:    4764
 k-point   141 :   0.5000 0.0000 0.4348  plane waves:    4768
 k-point   142 :   0.5000 0.0000 0.4565  plane waves:    4776
 k-point   143 :   0.5000 0.0000 0.4783  plane waves:    4780
 k-point   144 :   0.5000 0.0000 0.5000  plane waves:    4772
 k-point   145 :   0.5000 0.0000 0.5000  plane waves:    4772
 k-point   146 :   0.5000 0.0217 0.5000  plane waves:    4768
 k-point   147 :   0.5000 0.0435 0.5000  plane waves:    4772
 k-point   148 :   0.5000 0.0652 0.5000  plane waves:    4768
 k-point   149 :   0.5000 0.0870 0.5000  plane waves:    4760
 k-point   150 :   0.5000 0.1087 0.5000  plane waves:    4752
 k-point   151 :   0.5000 0.1304 0.5000  plane waves:    4756
 k-point   152 :   0.5000 0.1522 0.5000  plane waves:    4764
 k-point   153 :   0.5000 0.1739 0.5000  plane waves:    4760
 k-point   154 :   0.5000 0.1957 0.5000  plane waves:    4772
 k-point   155 :   0.5000 0.2174 0.5000  plane waves:    4780
 k-point   156 :   0.5000 0.2391 0.5000  plane waves:    4772
 k-point   157 :   0.5000 0.2609 0.5000  plane waves:    4776
 k-point   158 :   0.5000 0.2826 0.5000  plane waves:    4772
 k-point   159 :   0.5000 0.3043 0.5000  plane waves:    4768
 k-point   160 :   0.5000 0.3261 0.5000  plane waves:    4772
 k-point   161 :   0.5000 0.3478 0.5000  plane waves:    4768
 k-point   162 :   0.5000 0.3696 0.5000  plane waves:    4760
 k-point   163 :   0.5000 0.3913 0.5000  plane waves:    4768
 k-point   164 :   0.5000 0.4130 0.5000  plane waves:    4760
 k-point   165 :   0.5000 0.4348 0.5000  plane waves:    4752
 k-point   166 :   0.5000 0.4565 0.5000  plane waves:    4752
 k-point   167 :   0.5000 0.4783 0.5000  plane waves:    4756
 k-point   168 :   0.5000 0.5000 0.5000  plane waves:    4752
 k-point   169 :   0.5000 0.5000 0.5000  plane waves:    4752
 k-point   170 :   0.4783 0.4783 0.4783  plane waves:    4756
 k-point   171 :   0.4565 0.4565 0.4565  plane waves:    4754
 k-point   172 :   0.4348 0.4348 0.4348  plane waves:    4763
 k-point   173 :   0.4130 0.4130 0.4130  plane waves:    4763
 k-point   174 :   0.3913 0.3913 0.3913  plane waves:    4760
 k-point   175 :   0.3696 0.3696 0.3696  plane waves:    4766
 k-point   176 :   0.3478 0.3478 0.3478  plane waves:    4771
 k-point   177 :   0.3261 0.3261 0.3261  plane waves:    4770
 k-point   178 :   0.3043 0.3043 0.3043  plane waves:    4770
 k-point   179 :   0.2826 0.2826 0.2826  plane waves:    4774
 k-point   180 :   0.2609 0.2609 0.2609  plane waves:    4766
 k-point   181 :   0.2391 0.2391 0.2391  plane waves:    4770
 k-point   182 :   0.2174 0.2174 0.2174  plane waves:    4774
 k-point   183 :   0.1957 0.1957 0.1957  plane waves:    4781
 k-point   184 :   0.1739 0.1739 0.1739  plane waves:    4782
 k-point   185 :   0.1522 0.1522 0.1522  plane waves:    4771
 k-point   186 :   0.1304 0.1304 0.1304  plane waves:    4768
 k-point   187 :   0.1087 0.1087 0.1087  plane waves:    4767
 k-point   188 :   0.0870 0.0870 0.0870  plane waves:    4765
 k-point   189 :   0.0652 0.0652 0.0652  plane waves:    4766
 k-point   190 :   0.0435 0.0435 0.0435  plane waves:    4771
 k-point   191 :   0.0217 0.0217 0.0217  plane waves:    4778
 k-point   192 :   0.0000 0.0000 0.0000  plane waves:    4791

 maximum and minimum number of plane-waves per node :      4818     4737

 maximum number of plane-waves:      4818
 maximum index in each direction: 
   IXMAX=   11   IYMAX=    8   IZMAX=   12
   IXMIN=  -11   IYMIN=   -8   IZMIN=  -12


 serial   3D FFT for wavefunctions
 parallel 3D FFT for charge:
    minimum data exchange during FFTs selected (reduces bandwidth)


 total amount of memory used by VASP MPI-rank0   126316. kBytes
=======================================================================

   base      :      30000. kBytes
   nonl-proj :      60357. kBytes
   fftplans  :       1200. kBytes
   grid      :       4341. kBytes
   one-center:         43. kBytes
   wavefun   :      30375. kBytes
 
     INWAV:  cpu time      0.0001: real time      0.0003
 initial charge density was supplied:
 number of electron      41.9999999 magnetization 
 keeping initial charge density in first step


--------------------------------------------------------------------------------------------------------


 Maximum index for augmentation-charges          471 (set IRDMAX)


--------------------------------------------------------------------------------------------------------


 First call to EWALD:  gamma=   0.339
 Maximum number of real-space cells 3x 3x 2
 Maximum number of reciprocal cells 3x 2x 3

    FEWALD:  cpu time      0.0011: real time      0.0013


--------------------------------------- Ionic step        1  -------------------------------------------




--------------------------------------- Iteration      1(   1)  ---------------------------------------


    POTLOK:  cpu time      0.0142: real time      0.0151
    SETDIJ:  cpu time      0.0017: real time      0.0017
     EDDAV:  cpu time      5.9008: real time      5.9453
       DOS:  cpu time      0.0017: real time      0.0017
    --------------------------------------------
      LOOP:  cpu time      5.9184: real time      5.9637

 eigenvalue-minimisations  : 18432
 total energy-change (2. order) : 0.7347520E+02  (-0.1962223E+04)
 number of electron      41.9999999 magnetization 
 augmentation part       41.9999999 magnetization 

 Free energy of the ion-electron system (eV)
  ---------------------------------------------------
  alpha Z        PSCENC =        94.30280740
  Ewald energy   TEWEN  =      -798.79353645
  -Hartree energ DENC   =      -346.67156164
  -exchange      EXHF   =         0.00000000
  -V(xc)+E(xc)   XCENC  =       101.54540939
  PAW double counting   =      3725.05048951    -3714.23337423
  entropy T*S    EENTRO =        -0.00999327
  eigenvalues    EBANDS =        15.91055187
  atomic energy  EATOM  =       996.37441054
  Solvation  Ediel_sol  =         0.00000000
  ---------------------------------------------------
  free energy    TOTEN  =        73.47520313 eV

  energy without entropy =       73.48519639  energy(sigma->0) =       73.48019976


--------------------------------------------------------------------------------------------------------




--------------------------------------- Iteration      1(   2)  ---------------------------------------


     EDDAV:  cpu time      7.8404: real time      7.8981
       DOS:  cpu time      0.0013: real time      0.0013
    --------------------------------------------
      LOOP:  cpu time      7.8418: real time      7.8995

 eigenvalue-minimisations  : 25752
 total energy-change (2. order) :-0.1588245E+03  (-0.1476284E+03)
 number of electron      41.9999999 magnetization 
 augmentation part       41.9999999 magnetization 

 Free energy of the ion-electron system (eV)
  ---------------------------------------------------
  alpha Z        PSCENC =        94.30280740
  Ewald energy   TEWEN  =      -798.79353645
  -Hartree energ DENC   =      -346.67156164
  -exchange      EXHF   =         0.00000000
  -V(xc)+E(xc)   XCENC  =       101.54540939
  PAW double counting   =      3725.05048951    -3714.23337423
  entropy T*S    EENTRO =        -0.01198464
  eigenvalues    EBANDS =      -142.91191869
  atomic energy  EATOM  =       996.37441054
  Solvation  Ediel_sol  =         0.00000000
  ---------------------------------------------------
  free energy    TOTEN  =       -85.34925881 eV

  energy without entropy =      -85.33727417  energy(sigma->0) =      -85.34326649


--------------------------------------------------------------------------------------------------------




--------------------------------------- Iteration      1(   3)  ---------------------------------------


     EDDAV:  cpu time      8.2051: real time      8.2599
       DOS:  cpu time      0.0013: real time      0.0013
    --------------------------------------------
      LOOP:  cpu time      8.2064: real time      8.2612

 eigenvalue-minimisations  : 26952
 total energy-change (2. order) :-0.5334206E+01  (-0.5304625E+01)
 number of electron      41.9999999 magnetization 
 augmentation part       41.9999999 magnetization 

 Free energy of the ion-electron system (eV)
  ---------------------------------------------------
  alpha Z        PSCENC =        94.30280740
  Ewald energy   TEWEN  =      -798.79353645
  -Hartree energ DENC   =      -346.67156164
  -exchange      EXHF   =         0.00000000
  -V(xc)+E(xc)   XCENC  =       101.54540939
  PAW double counting   =      3725.05048951    -3714.23337423
  entropy T*S    EENTRO =        -0.01335814
  eigenvalues    EBANDS =      -148.24475147
  atomic energy  EATOM  =       996.37441054
  Solvation  Ediel_sol  =         0.00000000
  ---------------------------------------------------
  free energy    TOTEN  =       -90.68346509 eV

  energy without entropy =      -90.67010695  energy(sigma->0) =      -90.67678602


--------------------------------------------------------------------------------------------------------




--------------------------------------- Iteration      1(   4)  ---------------------------------------


     EDDAV:  cpu time      6.9282: real time      6.9799
       DOS:  cpu time      0.0013: real time      0.0013
    --------------------------------------------
      LOOP:  cpu time      6.9295: real time      6.9812

 eigenvalue-minimisations  : 22488
 total energy-change (2. order) :-0.2617116E-01  (-0.2616983E-01)
 number of electron      41.9999999 magnetization 
 augmentation part       41.9999999 magnetization 

 Free energy of the ion-electron system (eV)
  ---------------------------------------------------
  alpha Z        PSCENC =        94.30280740
  Ewald energy   TEWEN  =      -798.79353645
  -Hartree energ DENC   =      -346.67156164
  -exchange      EXHF   =         0.00000000
  -V(xc)+E(xc)   XCENC  =       101.54540939
  PAW double counting   =      3725.05048951    -3714.23337423
  entropy T*S    EENTRO =        -0.01336511
  eigenvalues    EBANDS =      -148.27091565
  atomic energy  EATOM  =       996.37441054
  Solvation  Ediel_sol  =         0.00000000
  ---------------------------------------------------
  free energy    TOTEN  =       -90.70963625 eV

  energy without entropy =      -90.69627113  energy(sigma->0) =      -90.70295369


--------------------------------------------------------------------------------------------------------




--------------------------------------- Iteration      1(   5)  ---------------------------------------


     EDDAV:  cpu time      8.2064: real time      8.2637
       DOS:  cpu time      0.0020: real time      0.0026
    --------------------------------------------
      LOOP:  cpu time      8.2083: real time      8.2663

 eigenvalue-minimisations  : 26976
 total energy-change (2. order) :-0.2315668E-03  (-0.2315622E-03)
 number of electron      41.9999999 magnetization 
 augmentation part       41.9999999 magnetization 

 Free energy of the ion-electron system (eV)
  ---------------------------------------------------
  alpha Z        PSCENC =        94.30280740
  Ewald energy   TEWEN  =      -798.79353645
  -Hartree energ DENC   =      -346.67156164
  -exchange      EXHF   =         0.00000000
  -V(xc)+E(xc)   XCENC  =       101.54540939
  PAW double counting   =      3725.05048951    -3714.23337423
  entropy T*S    EENTRO =        -0.01336518
  eigenvalues    EBANDS =      -148.27114715
  atomic energy  EATOM  =       996.37441054
  Solvation  Ediel_sol  =         0.00000000
  ---------------------------------------------------
  free energy    TOTEN  =       -90.70986782 eV

  energy without entropy =      -90.69650263  energy(sigma->0) =      -90.70318522


--------------------------------------------------------------------------------------------------------




--------------------------------------- Iteration      1(   6)  ---------------------------------------


     EDDAV:  cpu time      6.6537: real time      6.7046
       DOS:  cpu time      0.0016: real time      0.0016
    --------------------------------------------
      LOOP:  cpu time      6.6552: real time      6.7062

 eigenvalue-minimisations  : 21360
 total energy-change (2. order) :-0.2789562E-05  (-0.2789366E-05)
 number of electron      41.9999999 magnetization 
 augmentation part       41.9999999 magnetization 

 Free energy of the ion-electron system (eV)
  ---------------------------------------------------
  alpha Z        PSCENC =        94.30280740
  Ewald energy   TEWEN  =      -798.79353645
  -Hartree energ DENC   =      -346.67156164
  -exchange      EXHF   =         0.00000000
  -V(xc)+E(xc)   XCENC  =       101.54540939
  PAW double counting   =      3725.05048951    -3714.23337423
[...]
      1     -12.6584      2.00000
      2     -11.5437      2.00000
      3      -8.6399      2.00000
      4      -8.3206      2.00000
      5      -6.0943      2.00000
      6      -5.2898      2.00000
      7      -4.6569      2.00000
      8      -4.3476      2.00000
      9      -4.0173      2.00000
     10      -3.2866      2.00000
     11      -3.0928      2.00000
     12      -1.9394      2.00000
     13      -1.2751      2.00000
     14      -1.2137      2.00000
     15      -0.2468      2.00000
     16      -0.0815      2.00000
     17      -0.0020      2.00000
     18       0.1078      2.00000
     19       0.5715      2.00000
     20       1.7539      2.00000
     21       1.9677      1.95950
     22       2.4249      0.00001
     23       5.5955      0.00000
     24       5.7189      0.00000
     25       5.8368      0.00000
     26       5.9717      0.00000
     27       6.9856      0.00000
     28       7.6026      0.00000
     29       8.1344      0.00000
     30       8.3465      0.00000
     31       8.9112      0.00000
     32       9.1912      0.00000
     33       9.2968      0.00000
     34      10.4605      0.00000
     35      11.0911      0.00000
     36      11.2397      0.00000
     37      11.3900      0.00000
     38      11.6277      0.00000
     39      12.0802      0.00000
     40      12.5717      0.00000
     41      13.0940      0.00000
     42      13.2401      0.00000
     43      13.5186      0.00000
     44      15.0714      0.00000
     45      15.3943      0.00000
     46      15.8225      0.00000
     47      15.9680      0.00000
     48      16.2819      0.00000

 k-point   189 :       0.0652    0.0652    0.0652
  band No.  band energies     occupation 
      1     -12.6765      2.00000
      2     -11.5330      2.00000
      3      -8.6470      2.00000
      4      -8.3415      2.00000
      5      -6.0749      2.00000
      6      -5.2363      2.00000
      7      -4.6565      2.00000
      8      -4.2656      2.00000
      9      -4.0810      2.00000
     10      -3.3885      2.00000
     11      -2.8648      2.00000
     12      -2.1184      2.00000
     13      -1.4812      2.00000
     14      -1.1536      2.00000
     15      -0.1658      2.00000
     16      -0.0402      2.00000
     17       0.0362      2.00000
     18       0.0901      2.00000
     19       0.6118      2.00000
     20       1.9083      1.99612
     21       2.0342      1.73193
     22       2.3648      0.00036
     23       5.5958      0.00000
     24       5.6794      0.00000
     25       5.8001      0.00000
     26       5.9636      0.00000
     27       6.8771      0.00000
     28       7.5898      0.00000
     29       8.0123      0.00000
     30       8.4133      0.00000
     31       8.8849      0.00000
     32       9.1078      0.00000
     33       9.1597      0.00000
     34      10.3055      0.00000
     35      11.2273      0.00000
     36      11.3339      0.00000
     37      11.4347      0.00000
     38      11.5705      0.00000
     39      12.0224      0.00000
     40      12.4547      0.00000
     41      13.0573      0.00000
     42      13.2687      0.00000
     43      13.5076      0.00000
     44      15.2298      0.00000
     45      15.4854      0.00000
     46      15.9082      0.00000
     47      16.1218      0.00000
     48      16.2902      0.00000

 k-point   190 :       0.0435    0.0435    0.0435
  band No.  band energies     occupation 
      1     -12.6895      2.00000
      2     -11.5251      2.00000
      3      -8.6537      2.00000
      4      -8.3561      2.00000
      5      -6.0628      2.00000
      6      -5.1728      2.00000
      7      -4.6623      2.00000
      8      -4.2998      2.00000
      9      -4.0305      2.00000
     10      -3.4651      2.00000
     11      -2.6334      2.00000
     12      -2.2670      2.00000
     13      -1.7012      2.00000
     14      -1.1057      2.00000
     15      -0.1010      2.00000
     16      -0.0006      2.00000
     17       0.0593      2.00000
     18       0.0729      2.00000
     19       0.6444      2.00000
     20       2.0269      1.77414
     21       2.0874      1.27839
     22       2.3086      0.00556
     23       5.5566      0.00000
     24       5.6814      0.00000
     25       5.7789      0.00000
     26       5.9650      0.00000
     27       6.7944      0.00000
     28       7.6046      0.00000
     29       7.8951      0.00000
     30       8.4990      0.00000
     31       8.8576      0.00000
     32       9.0165      0.00000
     33       9.0816      0.00000
     34      10.1630      0.00000
     35      11.2417      0.00000
     36      11.3460      0.00000
     37      11.5365      0.00000
     38      11.6185      0.00000
     39      11.9854      0.00000
     40      12.3670      0.00000
     41      12.9869      0.00000
     42      13.3188      0.00000
     43      13.5082      0.00000
     44      15.3879      0.00000
     45      15.5176      0.00000
     46      15.9502      0.00000
     47      16.2921      0.00000
     48      16.3025      0.00000

 k-point   191 :       0.0217    0.0217    0.0217
  band No.  band energies     occupation 
      1     -12.6974      2.00000
      2     -11.5202      2.00000
      3      -8.6585      2.00000
      4      -8.3645      2.00000
      5      -6.0565      2.00000
      6      -5.1165      2.00000
      7      -4.6736      2.00000
      8      -4.3558      2.00000
      9      -3.9620      2.00000
     10      -3.5120      2.00000
     11      -2.4036      2.00000
     12      -2.3683      2.00000
     13      -1.9250      2.00000
     14      -1.0763      2.00000
     15      -0.0501      2.00000
     16       0.0286      2.00000
     17       0.0374      2.00000
     18       0.0847      2.00000
     19       0.6657      2.00000
     20       2.0990      1.15147
     21       2.1297      0.80862
     22       2.2635      0.03281
     23       5.5189      0.00000
     24       5.7045      0.00000
     25       5.7564      0.00000
     26       5.9694      0.00000
     27       6.7424      0.00000
     28       7.6445      0.00000
     29       7.7932      0.00000
     30       8.5813      0.00000
     31       8.8398      0.00000
     32       8.9177      0.00000
     33       9.0573      0.00000
     34      10.0628      0.00000
     35      11.2062      0.00000
     36      11.3902      0.00000
     37      11.5222      0.00000
     38      11.7394      0.00000
     39      11.9651      0.00000
     40      12.3130      0.00000
     41      12.9384      0.00000
     42      13.3391      0.00000
     43      13.5203      0.00000
     44      15.5214      0.00000
     45      15.5242      0.00000
     46      15.9397      0.00000
     47      16.3062      0.00000
     48      16.4575      0.00000

 k-point   192 :       0.0000    0.0000    0.0000
  band No.  band energies     occupation 
      1     -12.7001      2.00000
      2     -11.5185      2.00000
      3      -8.6602      2.00000
      4      -8.3673      2.00000
      5      -6.0547      2.00000
      6      -5.0926      2.00000
      7      -4.6806      2.00000
      8      -4.3776      2.00000
      9      -3.9349      2.00000
     10      -3.5278      2.00000
     11      -2.4047      2.00000
     12      -2.2223      2.00000
     13      -2.1044      2.00000
     14      -1.0664      2.00000
     15      -0.0204      2.00000
     16       0.0138      2.00000
     17       0.0412      2.00000
     18       0.0897      2.00000
     19       0.6731      2.00000
     20       2.1195      0.92164
     21       2.1534      0.56312
     22       2.2423      0.06651
     23       5.5052      0.00000
     24       5.7269      0.00000
     25       5.7350      0.00000
     26       5.9715      0.00000
     27       6.7245      0.00000
     28       7.6981      0.00000
     29       7.7190      0.00000
     30       8.6219      0.00000
     31       8.8502      0.00000
     32       8.8550      0.00000
     33       9.0512      0.00000
     34      10.0266      0.00000
     35      11.1920      0.00000
     36      11.4064      0.00000
     37      11.5179      0.00000
     38      11.7820      0.00000
     39      11.9585      0.00000
     40      12.2948      0.00000
     41      12.9215      0.00000
     42      13.3422      0.00000
     43      13.5277      0.00000
     44      15.5237      0.00000
     45      15.5817      0.00000
     46      15.9208      0.00000
     47      16.3105      0.00000
     48      16.5403      0.00000


--------------------------------------------------------------------------------------------------------


 soft charge-density along one line, spin component           1
         0         1         2         3         4         5         6         7         8         9
 total charge-density along one line
 
 pseudopotential strength for first ion, spin component:           1
  6.445   9.813  -0.000  -0.009   0.005  -0.000  -0.014   0.008
  9.813  14.936  -0.000  -0.013   0.008  -0.000  -0.021   0.011
 -0.000  -0.000  -2.174  -0.000  -0.000  -3.694  -0.000  -0.000
 -0.009  -0.013  -0.000  -2.178  -0.001  -0.000  -3.704  -0.002
  0.005   0.008  -0.000  -0.001  -2.177  -0.000  -0.002  -3.702
 -0.000  -0.000  -3.694  -0.000  -0.000  -6.079  -0.000  -0.000
 -0.014  -0.021  -0.000  -3.704  -0.002  -0.000  -6.101  -0.004
  0.008   0.011  -0.000  -0.002  -3.702  -0.000  -0.004  -6.096
 total augmentation occupancy for first ion, spin component:           1
  2.000   0.000   0.000   0.000   0.000   0.000   0.000   0.000
  0.000   0.000   0.000   0.000   0.000   0.000   0.000   0.000
  0.000   0.000   0.333   0.000   0.000   0.000   0.000   0.000
  0.000   0.000   0.000   0.333   0.000   0.000   0.000   0.000
  0.000   0.000   0.000   0.000   0.333   0.000   0.000   0.000
  0.000   0.000   0.000   0.000   0.000   0.000   0.000   0.000
  0.000   0.000   0.000   0.000   0.000   0.000   0.000   0.000
  0.000   0.000   0.000   0.000   0.000   0.000   0.000   0.000


------------------------ aborting loop because EDIFF is reached ----------------------------------------





 total charge

# of ion       s       p       d       tot
------------------------------------------
    1        0.708   1.381   0.000   2.089
    2        0.708   1.381   0.000   2.089
    3        0.708   1.381   0.000   2.089
    4        0.708   1.381   0.000   2.089
    5        0.716   1.307   0.000   2.023
    6        0.716   1.307   0.000   2.023
    7        0.716   1.307   0.000   2.023
    8        0.716   1.307   0.000   2.023
    9        0.700   1.208   0.000   1.908
   10        0.700   1.208   0.000   1.908
   11        0.700   1.208   0.000   1.908
   12        0.700   1.208   0.000   1.908
   13        0.713   1.394   0.000   2.108
   14        0.713   1.394   0.000   2.108
--------------------------------------------------
tot          9.923  18.373   0.000  28.296
 
    CHARGE:  cpu time      0.0991: real time      0.1030
    FORLOC:  cpu time      0.0012: real time      0.0013
    FORNL :  cpu time      0.8913: real time      0.8951
    STRESS:  cpu time      4.1349: real time      4.1521
    FORCOR:  cpu time      0.0107: real time      0.0107
    FORHAR:  cpu time      0.0033: real time      0.0033
    OFIELD:  cpu time      0.0000: real time      0.0000

 ---------------------------------------------------------------------------------------------

         DFTD3 V3.0 Rev 1        
 DF pbe       
 parameters
 k1-k3        =   16.0000    1.3333   -4.0000
 Edisp (eV)   -1.96230

 E6    (eV) :    -1.3220
 E8    (eV) :    -0.6403
 % E8        : 32.63
    FORVDW:  cpu time      0.0579: real time      0.0583

  FORCE on cell =-STRESS in cart. coord.  units (eV):
  Direction    XX          YY          ZZ          XY          YZ          ZX
  --------------------------------------------------------------------------------------
  Alpha Z    94.30281    94.30281    94.30281
  Ewald     -93.12989  -561.95728  -143.70902    -0.00000    -0.00000     0.00000
  Hartree   190.57797    -2.77225   159.12834    -0.00000    -0.00000     0.00000
  E(xc)    -134.85922  -135.81394  -134.83982     0.00000    -0.00000     0.00000
  Local    -497.30519   143.02371  -414.32723     0.00000    -0.00000    -0.00000
  n-local    -9.45379   -10.59390   -10.00700    -0.00599    -0.00197     0.03627
  augment     1.31159     1.37489     1.32830    -0.00000     0.00000    -0.00000
  Kinetic   446.81063   475.33887   447.05214     0.06245     0.03234    -0.35783
  Fock        0.00000     0.00000     0.00000     0.00000     0.00000     0.00000
  vdW        -2.04354    -2.13134    -2.01285     0.00000     0.00000     0.00000
  -------------------------------------------------------------------------------------
  Total      -3.78863     0.77157    -3.08433     0.00000     0.00000     0.00000
  in kB     -42.45257     8.64567   -34.56067     0.00000     0.00000     0.00000
  external pressure =      -22.79 kB  Pullay stress =        0.00 kB


 VOLUME and BASIS-vectors are now :
 -----------------------------------------------------------------------------
  energy-cutoff  :      600.00
  volume of cell :      142.98
      direct lattice vectors                 reciprocal lattice vectors
     5.700970695  0.000000000  0.000000000     0.175408725  0.000000000  0.000000000
     0.000000000  4.044058096  0.000000000     0.000000000  0.247276368  0.000000000
     0.000000000  0.000000000  6.201871195     0.000000000  0.000000000  0.161241659

  length of vectors
     5.700970695  4.044058096  6.201871195     0.175408725  0.247276368  0.161241659


 FORCES acting on ions
    electron-ion (+dipol)            ewald-force                    non-local-force                 convergence-correction
 -----------------------------------------------------------------------------------------------
   0.484E+02 0.908E-12 -.247E+02   -.511E+02 0.185E-14 0.280E+02   0.196E+01 0.407E-19 -.348E+01   0.418E+00 -.426E-12 0.117E+00
   -.484E+02 -.205E-12 0.247E+02   0.511E+02 0.687E-16 -.280E+02   -.196E+01 0.362E-20 0.348E+01   -.418E+00 -.204E-12 -.117E+00
   -.484E+02 0.885E-12 -.247E+02   0.511E+02 -.149E-14 0.280E+02   -.196E+01 0.123E-19 -.348E+01   -.418E+00 0.218E-12 0.117E+00
   0.484E+02 0.415E-13 0.247E+02   -.511E+02 -.171E-14 -.280E+02   0.196E+01 -.500E-21 0.348E+01   0.418E+00 -.356E-12 -.117E+00
   0.286E+02 -.270E-12 -.505E+02   -.315E+02 0.387E-14 0.550E+02   0.247E+01 -.258E-19 -.428E+01   0.281E+00 -.102E-11 -.214E+00
   -.286E+02 0.344E-12 0.505E+02   0.315E+02 0.345E-14 -.550E+02   -.247E+01 -.749E-20 0.428E+01   -.281E+00 -.790E-12 0.214E+00
   -.286E+02 -.129E-11 -.505E+02   0.315E+02 0.431E-14 0.550E+02   -.247E+01 0.538E-19 -.428E+01   -.281E+00 -.915E-12 -.214E+00
   0.286E+02 -.128E-13 0.505E+02   -.315E+02 0.344E-14 -.550E+02   0.247E+01 0.204E-20 0.428E+01   0.281E+00 -.131E-11 0.214E+00
   0.283E-13 -.563E+02 -.162E+02   0.938E-14 0.606E+02 0.172E+02   0.207E-18 -.544E+01 -.109E+01   0.121E-11 0.560E+00 0.533E-01
   0.140E-13 0.563E+02 0.162E+02   0.312E-14 -.606E+02 -.172E+02   0.177E-19 0.544E+01 0.109E+01   -.681E-12 -.560E+00 -.533E-01
   0.279E-13 0.563E+02 -.162E+02   0.561E-14 -.606E+02 0.172E+02   -.288E-18 0.544E+01 -.109E+01   0.604E-12 -.560E+00 0.533E-01
   0.134E-13 -.563E+02 0.162E+02   -.935E-15 0.606E+02 -.172E+02   0.353E-18 -.544E+01 0.109E+01   -.443E-12 0.560E+00 -.533E-01
   0.792E-14 0.367E-12 -.613E+02   -.559E-13 0.564E-16 0.647E+02   -.295E-19 0.102E-18 -.264E+01   0.108E-11 -.115E-12 -.458E+00
   0.827E-14 -.937E-13 0.613E+02   -.571E-13 -.472E-15 -.647E+02   0.466E-20 0.819E-19 0.264E+01   -.254E-11 0.280E-13 0.458E+00
 -----------------------------------------------------------------------------------------------
   -.118E-11 0.644E-12 0.273E-10   -.389E-13 -.415E-15 -.142E-13   -.444E-15 -.888E-15 -.888E-15   0.191E-11 -.446E-11 0.410E-13
 
 
 POSITION                                       TOTAL-FORCE (eV/Angst)
 -----------------------------------------------------------------------------------
      2.97186      2.02203      3.95653        -0.283640     -0.000000     -0.018270
      2.72911      2.02203      2.24534         0.283640     -0.000000      0.018270
      5.57960      2.02203      3.95653         0.283640     -0.000000     -0.018270
      0.12137      2.02203      2.24534        -0.283640      0.000000      0.018270
      3.40604      2.02203      5.58087        -0.181535     -0.000000      0.057968
      2.29493      2.02203      0.62100         0.181535     -0.000000     -0.057968
      5.14541      2.02203      5.58087         0.181535      0.000000      0.057968
      0.55556      2.02203      0.62100        -0.181535      0.000000     -0.057968
      4.27573      3.20113      4.52476        -0.000000     -0.618097     -0.015766
      1.42524      0.84292      1.67711        -0.000000      0.618097      0.015766
      4.27573      0.84292      4.52476        -0.000000      0.618097     -0.015766
      1.42524      3.20113      1.67711        -0.000000     -0.618097      0.015766
      1.42524      2.02203      3.24974        -0.000000     -0.000000      0.310725
      4.27573      2.02203      2.95213        -0.000000      0.000000     -0.310725
 -----------------------------------------------------------------------------------
    total drift:                                0.000000     -0.000000      0.000000


--------------------------------------------------------------------------------------------------------



  FREE ENERGIE OF THE ION-ELECTRON SYSTEM (eV)
  ---------------------------------------------------
  free  energy   TOTEN  =       -92.67216691 eV

  energy  without entropy=      -92.65880172  energy(sigma->0) =      -92.66548432
 


--------------------------------------------------------------------------------------------------------


    POTLOK:  cpu time      0.0169: real time      0.0170


--------------------------------------------------------------------------------------------------------


 writing wavefunctions
     LOOP+:  cpu time     58.9543: real time     59.4360
    4ORBIT:  cpu time      0.0000: real time      0.0000



 total charge

# of ion       s       p       d       tot
------------------------------------------
    1        0.708   1.381   0.000   2.089
    2        0.708   1.381   0.000   2.089
    3        0.708   1.381   0.000   2.089
    4        0.708   1.381   0.000   2.089
    5        0.716   1.307   0.000   2.023
    6        0.716   1.307   0.000   2.023
    7        0.716   1.307   0.000   2.023
    8        0.716   1.307   0.000   2.023
    9        0.700   1.208   0.000   1.908
   10        0.700   1.208   0.000   1.908
   11        0.700   1.208   0.000   1.908
   12        0.700   1.208   0.000   1.908
   13        0.713   1.394   0.000   2.108
   14        0.713   1.394   0.000   2.108
--------------------------------------------------
tot          9.923  18.373   0.000  28.296
 

 total amount of memory used by VASP MPI-rank0   126316. kBytes
=======================================================================

   base      :      30000. kBytes
   nonl-proj :      60357. kBytes
   fftplans  :       1200. kBytes
   grid      :       4341. kBytes
   one-center:         43. kBytes
   wavefun   :      30375. kBytes
 
  
  
 General timing and accounting informations for this job:
 ========================================================
  
                  Total CPU time used (sec):       64.342
                            User time (sec):       62.562
                          System time (sec):        1.780
                         Elapsed time (sec):       67.054
  
                   Maximum memory used (kb):      490912.
                   Average memory used (kb):          N/A
  
                          Minor page faults:       308796
                          Major page faults:         1261
                 Voluntary context switches:         4049
