       N       E                     dE             d eps       ncg     rms          rms(c)
DAV:   1     0.143113314022E+03    0.14311E+03   -0.25984E+04120960   0.125E+03
