 running   24 mpi-ranks, with    1 threads/rank, on    1 nodes
 distrk:  each k-point on   24 cores,    1 groups
 distr:  one band on    1 cores,   24 groups
 vasp.6.4.3 19Mar24 (build May 31 2024 16:31:43) complex                        
  
 POSCAR found type information on POSCAR B 
 POSCAR found :  1 types and      14 ions
 Reading from existing POTCAR
 scaLAPACK will be used
 Reading from existing POTCAR
 LDA part: xc-table for (Slater+PW92), standard interpolation
 POSCAR, INCAR and KPOINTS ok, starting setup
 FFT: planning ... GRIDC
 FFT: planning ... GRID_SOFT
 FFT: planning ... GRID
 WAVECAR not read
 entering main loop
       N       E                     dE             d eps       ncg     rms          rms(c)
DAV:   1     0.143113314022E+03    0.14311E+03   -0.25984E+04120960   0.125E+03
DAV:   2    -0.886016616013E+02   -0.23171E+03   -0.21460E+03161304   0.205E+02
DAV:   3    -0.975927020550E+02   -0.89910E+01   -0.89112E+01180456   0.355E+01
DAV:   4    -0.976485671398E+02   -0.55865E-01   -0.55861E-01135000   0.322E+00
DAV:   5    -0.976491362177E+02   -0.56908E-03   -0.56906E-03180648   0.309E-01    0.123E+01
DAV:   6    -0.922346797071E+02    0.54145E+01   -0.39473E+00175296   0.658E+00    0.679E+00
DAV:   7    -0.905836895559E+02    0.16510E+01   -0.32096E+00180552   0.586E+00    0.172E+00
DAV:   8    -0.905947789279E+02   -0.11089E-01   -0.22981E-01132528   0.166E+00    0.751E-01
DAV:   9    -0.906094497782E+02   -0.14671E-01   -0.17580E-02170880   0.460E-01    0.206E-01
DAV:  10    -0.906138284256E+02   -0.43786E-02   -0.26244E-03133248   0.182E-01    0.665E-02
