  14  14   0   0
  0.1018897E+02  0.5691303E-09  0.4043852E-09  0.6197996E-09  0.5000000E-15
  1.000000000000000E-004
  CAR 
 Convergence                             
     18.02618700    -14.19278103  301      1.90156319      1.00000000
    -14.193  0.0000E+00  0.0000E+00
    -14.085  0.0000E+00  0.0000E+00
    -13.978  0.0000E+00  0.0000E+00
    -13.871  0.0000E+00  0.0000E+00
    -13.763  0.0000E+00  0.0000E+00
    -13.656  0.0000E+00  0.0000E+00
    -13.548  0.0000E+00  0.0000E+00
    -13.441  0.0000E+00  0.0000E+00
    -13.334  0.0000E+00  0.0000E+00
    -13.226  0.0000E+00  0.0000E+00
    -13.119  0.0000E+00  0.0000E+00
    -13.011  0.3938E-16  0.4229E-17
    -12.904  0.2823E-07  0.3032E-08
    -12.797  0.3770E-02  0.4049E-03
    -12.689  0.5074E+00  0.5489E-01
    -12.582  0.2387E+01  0.3112E+00
    -12.474  0.3557E+01  0.6932E+00
    -12.367  0.4366E+01  0.1162E+01
    -12.260  0.3539E+01  0.1542E+01
    -12.152  0.2734E+01  0.1836E+01
    -12.045  0.2748E+01  0.2131E+01
    -11.937  0.2510E+01  0.2400E+01
    -11.830  0.2771E+01  0.2698E+01
    -11.723  0.3438E+01  0.3067E+01
    -11.615  0.3534E+01  0.3447E+01
    -11.508  0.3097E+01  0.3779E+01
    -11.400  0.1644E+01  0.3956E+01
    -11.293  0.4041E+00  0.3999E+01
    -11.186  0.6265E-02  0.4000E+01
    -11.078  0.1242E-06  0.4000E+01
    -10.971  0.5120E-15  0.4000E+01
    -10.863  0.0000E+00  0.4000E+01
    -10.756  0.0000E+00  0.4000E+01
    -10.649  0.0000E+00  0.4000E+01
    -10.541  0.0000E+00  0.4000E+01
    -10.434  0.0000E+00  0.4000E+01
    -10.327  0.0000E+00  0.4000E+01
    -10.219  0.0000E+00  0.4000E+01
    -10.112  0.0000E+00  0.4000E+01
    -10.004  0.0000E+00  0.4000E+01
     -9.897  0.0000E+00  0.4000E+01
     -9.790  0.0000E+00  0.4000E+01
     -9.682  0.0000E+00  0.4000E+01
     -9.575  0.0000E+00  0.4000E+01
     -9.467  0.0000E+00  0.4000E+01
     -9.360  0.0000E+00  0.4000E+01
     -9.253  0.0000E+00  0.4000E+01
     -9.145  0.0000E+00  0.4000E+01
     -9.038  0.8363E-09  0.4000E+01
     -8.930  0.5943E-03  0.4000E+01
     -8.823  0.2719E+00  0.4029E+01
     -8.716  0.2075E+01  0.4252E+01
     -8.608  0.5297E+01  0.4821E+01
     -8.501  0.6968E+01  0.5569E+01
     -8.393  0.6308E+01  0.6247E+01
     -8.286  0.5323E+01  0.6818E+01
     -8.179  0.4826E+01  0.7337E+01
     -8.071  0.3879E+01  0.7753E+01
     -7.964  0.1668E+01  0.7933E+01
     -7.856  0.5767E+00  0.7994E+01
     -7.749  0.5150E-01  0.8000E+01
     -7.642  0.2312E-04  0.8000E+01
     -7.534  0.2436E-11  0.8000E+01
     -7.427  0.0000E+00  0.8000E+01
     -7.319  0.0000E+00  0.8000E+01
     -7.212  0.0000E+00  0.8000E+01
     -7.105  0.5412E-09  0.8000E+01
     -6.997  0.4265E-03  0.8000E+01
     -6.890  0.1153E+00  0.8012E+01
     -6.782  0.2563E+00  0.8040E+01
     -6.675  0.4276E+00  0.8086E+01
     -6.568  0.7659E+00  0.8168E+01
     -6.460  0.8563E+00  0.8260E+01
     -6.353  0.1453E+01  0.8416E+01
     -6.245  0.1984E+01  0.8629E+01
     -6.138  0.3061E+01  0.8958E+01
     -6.031  0.3772E+01  0.9363E+01
     -5.923  0.4106E+01  0.9804E+01
     -5.816  0.4040E+01  0.1024E+02
     -5.708  0.3843E+01  0.1065E+02
     -5.601  0.4070E+01  0.1109E+02
     -5.494  0.4223E+01  0.1154E+02
     -5.386  0.4528E+01  0.1203E+02
     -5.279  0.4579E+01  0.1252E+02
     -5.171  0.4486E+01  0.1300E+02
     -5.064  0.3857E+01  0.1342E+02
     -4.957  0.3232E+01  0.1376E+02
     -4.849  0.2934E+01  0.1408E+02
     -4.742  0.2361E+01  0.1433E+02
     -4.634  0.2896E+01  0.1464E+02
     -4.527  0.3364E+01  0.1500E+02
     -4.420  0.3492E+01  0.1538E+02
     -4.312  0.3307E+01  0.1573E+02
     -4.205  0.2948E+01  0.1605E+02
     -4.098  0.2904E+01  0.1636E+02
     -3.990  0.2956E+01  0.1668E+02
     -3.883  0.2843E+01  0.1698E+02
     -3.775  0.3129E+01  0.1732E+02
     -3.668  0.2856E+01  0.1763E+02
     -3.561  0.2704E+01  0.1792E+02
     -3.453  0.3053E+01  0.1825E+02
     -3.346  0.2621E+01  0.1853E+02
     -3.238  0.2886E+01  0.1884E+02
     -3.131  0.2705E+01  0.1913E+02
     -3.024  0.2762E+01  0.1942E+02
     -2.916  0.3016E+01  0.1975E+02
     -2.809  0.2965E+01  0.2007E+02
     -2.701  0.2419E+01  0.2033E+02
     -2.594  0.2673E+01  0.2061E+02
     -2.487  0.3027E+01  0.2094E+02
     -2.379  0.2972E+01  0.2126E+02
     -2.272  0.3203E+01  0.2160E+02
     -2.164  0.4024E+01  0.2203E+02
     -2.057  0.3655E+01  0.2243E+02
     -1.950  0.3313E+01  0.2278E+02
     -1.842  0.5235E+01  0.2334E+02
     -1.735  0.5629E+01  0.2395E+02
     -1.627  0.5567E+01  0.2455E+02
     -1.520  0.6186E+01  0.2521E+02
     -1.413  0.6082E+01  0.2586E+02
     -1.305  0.5526E+01  0.2646E+02
     -1.198  0.4691E+01  0.2696E+02
     -1.090  0.6483E+01  0.2766E+02
     -0.983  0.3824E+01  0.2807E+02
     -0.876  0.2263E+01  0.2831E+02
     -0.768  0.2693E+01  0.2860E+02
     -0.661  0.2881E+01  0.2891E+02
     -0.553  0.4607E+01  0.2941E+02
     -0.446  0.6887E+01  0.3014E+02
     -0.339  0.5647E+01  0.3075E+02
     -0.231  0.6748E+01  0.3148E+02
     -0.124  0.6355E+01  0.3216E+02
     -0.016  0.6755E+01  0.3288E+02
      0.091  0.6685E+01  0.3360E+02
      0.198  0.6350E+01  0.3428E+02
      0.306  0.8775E+01  0.3523E+02
      0.413  0.7887E+01  0.3607E+02
      0.521  0.8712E+01  0.3701E+02
      0.628  0.5124E+01  0.3756E+02
      0.735  0.2875E+01  0.3787E+02
      0.843  0.3343E+01  0.3823E+02
      0.950  0.3584E+01  0.3861E+02
      1.058  0.3533E+01  0.3899E+02
      1.165  0.2784E+01  0.3929E+02
      1.272  0.3421E+01  0.3966E+02
      1.380  0.4506E+01  0.4014E+02
      1.487  0.3748E+01  0.4054E+02
      1.595  0.3748E+01  0.4095E+02
      1.702  0.4560E+01  0.4144E+02
      1.809  0.3128E+01  0.4177E+02
      1.917  0.2487E+01  0.4204E+02
      2.024  0.2639E+01  0.4232E+02
      2.131  0.2095E+01  0.4255E+02
      2.239  0.2653E+01  0.4283E+02
      2.346  0.2536E+01  0.4310E+02
      2.454  0.1897E+01  0.4331E+02
      2.561  0.8076E+00  0.4340E+02
      2.668  0.3788E+00  0.4344E+02
      2.776  0.5687E+00  0.4350E+02
      2.883  0.4183E+00  0.4354E+02
      2.991  0.3065E+00  0.4357E+02
      3.098  0.7803E+00  0.4366E+02
      3.205  0.1004E+01  0.4377E+02
      3.313  0.5080E+00  0.4382E+02
      3.420  0.1039E-01  0.4382E+02
      3.528  0.1417E+00  0.4384E+02
      3.635  0.3988E+00  0.4388E+02
      3.742  0.3212E+00  0.4391E+02
      3.850  0.3795E+00  0.4396E+02
      3.957  0.3911E+00  0.4400E+02
      4.065  0.2228E-01  0.4400E+02
      4.172  0.7370E-04  0.4400E+02
      4.279  0.4429E-01  0.4400E+02
      4.387  0.1871E+00  0.4402E+02
      4.494  0.4093E+00  0.4407E+02
      4.602  0.4895E+00  0.4412E+02
      4.709  0.6485E+00  0.4419E+02
      4.816  0.8975E+00  0.4429E+02
      4.924  0.8486E+00  0.4438E+02
      5.031  0.8567E+00  0.4447E+02
      5.139  0.1288E+01  0.4461E+02
      5.246  0.1136E+01  0.4473E+02
      5.353  0.1662E+01  0.4491E+02
      5.461  0.2223E+01  0.4515E+02
      5.568  0.2480E+01  0.4541E+02
      5.676  0.2781E+01  0.4571E+02
      5.783  0.3422E+01  0.4608E+02
      5.890  0.3196E+01  0.4642E+02
      5.998  0.4359E+01  0.4689E+02
      6.105  0.4708E+01  0.4740E+02
      6.213  0.4026E+01  0.4783E+02
      6.320  0.4636E+01  0.4833E+02
      6.427  0.4053E+01  0.4876E+02
      6.535  0.4069E+01  0.4920E+02
      6.642  0.4434E+01  0.4968E+02
      6.750  0.3214E+01  0.5002E+02
      6.857  0.4027E+01  0.5045E+02
      6.964  0.4615E+01  0.5095E+02
      7.072  0.4525E+01  0.5144E+02
      7.179  0.4342E+01  0.5190E+02
      7.287  0.5617E+01  0.5251E+02
      7.394  0.4865E+01  0.5303E+02
      7.501  0.4431E+01  0.5350E+02
      7.609  0.4155E+01  0.5395E+02
      7.716  0.3546E+01  0.5433E+02
      7.824  0.3141E+01  0.5467E+02
      7.931  0.2990E+01  0.5499E+02
      8.038  0.2993E+01  0.5531E+02
      8.146  0.4172E+01  0.5576E+02
      8.253  0.3859E+01  0.5617E+02
      8.360  0.3646E+01  0.5656E+02
      8.468  0.3980E+01  0.5699E+02
      8.575  0.4184E+01  0.5744E+02
      8.683  0.4428E+01  0.5792E+02
      8.790  0.4174E+01  0.5837E+02
      8.897  0.5199E+01  0.5892E+02
      9.005  0.5049E+01  0.5947E+02
      9.112  0.5294E+01  0.6003E+02
      9.220  0.5250E+01  0.6060E+02
      9.327  0.4931E+01  0.6113E+02
      9.434  0.4711E+01  0.6163E+02
      9.542  0.4345E+01  0.6210E+02
      9.649  0.5112E+01  0.6265E+02
      9.757  0.5019E+01  0.6319E+02
      9.864  0.5313E+01  0.6376E+02
      9.971  0.4466E+01  0.6424E+02
     10.079  0.3601E+01  0.6463E+02
     10.186  0.5161E+01  0.6518E+02
     10.294  0.4711E+01  0.6569E+02
     10.401  0.4083E+01  0.6612E+02
     10.508  0.5480E+01  0.6671E+02
     10.616  0.5787E+01  0.6733E+02
     10.723  0.4052E+01  0.6777E+02
     10.831  0.3864E+01  0.6818E+02
     10.938  0.3204E+01  0.6853E+02
     11.045  0.4657E+01  0.6903E+02
     11.153  0.5535E+01  0.6962E+02
     11.260  0.6115E+01  0.7028E+02
     11.368  0.5980E+01  0.7092E+02
     11.475  0.5352E+01  0.7150E+02
     11.582  0.4219E+01  0.7195E+02
     11.690  0.4470E+01  0.7243E+02
     11.797  0.4898E+01  0.7296E+02
     11.905  0.4794E+01  0.7347E+02
     12.012  0.6054E+01  0.7412E+02
     12.119  0.5927E+01  0.7476E+02
     12.227  0.5923E+01  0.7539E+02
     12.334  0.5663E+01  0.7600E+02
     12.442  0.5033E+01  0.7654E+02
     12.549  0.5652E+01  0.7715E+02
     12.656  0.6010E+01  0.7779E+02
     12.764  0.6077E+01  0.7845E+02
     12.871  0.5842E+01  0.7907E+02
     12.979  0.5842E+01  0.7970E+02
     13.086  0.5575E+01  0.8030E+02
     13.193  0.6347E+01  0.8098E+02
     13.301  0.6228E+01  0.8165E+02
     13.408  0.5336E+01  0.8222E+02
     13.516  0.6144E+01  0.8288E+02
     13.623  0.5269E+01  0.8345E+02
     13.730  0.4797E+01  0.8397E+02
     13.838  0.6084E+01  0.8462E+02
     13.945  0.5526E+01  0.8521E+02
     14.053  0.5327E+01  0.8578E+02
     14.160  0.5473E+01  0.8637E+02
     14.267  0.4696E+01  0.8688E+02
     14.375  0.4859E+01  0.8740E+02
     14.482  0.5063E+01  0.8794E+02
     14.589  0.4977E+01  0.8848E+02
     14.697  0.5269E+01  0.8904E+02
     14.804  0.5142E+01  0.8959E+02
     14.912  0.4089E+01  0.9003E+02
     15.019  0.5129E+01  0.9058E+02
     15.126  0.6217E+01  0.9125E+02
     15.234  0.5597E+01  0.9185E+02
     15.341  0.5633E+01  0.9246E+02
     15.449  0.6051E+01  0.9311E+02
     15.556  0.5708E+01  0.9372E+02
     15.663  0.5907E+01  0.9436E+02
     15.771  0.4568E+01  0.9485E+02
     15.878  0.2441E+01  0.9511E+02
     15.986  0.2700E+01  0.9540E+02
     16.093  0.1875E+01  0.9560E+02
     16.200  0.1154E+01  0.9572E+02
     16.308  0.8735E+00  0.9582E+02
     16.415  0.7103E+00  0.9589E+02
     16.523  0.8125E+00  0.9598E+02
     16.630  0.1757E+00  0.9600E+02
     16.737  0.1665E-02  0.9600E+02
     16.845  0.1974E-07  0.9600E+02
     16.952  0.3282E-16  0.9600E+02
     17.060  0.0000E+00  0.9600E+02
     17.167  0.0000E+00  0.9600E+02
     17.274  0.0000E+00  0.9600E+02
     17.382  0.0000E+00  0.9600E+02
     17.489  0.0000E+00  0.9600E+02
     17.597  0.0000E+00  0.9600E+02
     17.704  0.0000E+00  0.9600E+02
     17.811  0.0000E+00  0.9600E+02
     17.919  0.0000E+00  0.9600E+02
     18.026  0.0000E+00  0.9600E+02
