 running   24 mpi-ranks, with    1 threads/rank, on    1 nodes
 distrk:  each k-point on   24 cores,    1 groups
 distr:  one band on    1 cores,   24 groups
 vasp.6.4.3 19Mar24 (build May 31 2024 16:31:43) complex                        
  
 POSCAR found type information on POSCAR B 
 POSCAR found :  1 types and      14 ions
 Reading from existing POTCAR
 scaLAPACK will be used
 Reading from existing POTCAR
 LDA part: xc-table for (Slater+PW92), standard interpolation
 POSCAR, INCAR and KPOINTS ok, starting setup
 FFT: planning ... GRIDC
 FFT: planning ... GRID_SOFT
 FFT: planning ... GRID
 WAVECAR not read
 entering main loop
       N       E                     dE             d eps       ncg     rms          rms(c)
DAV:   1     0.790772324548E+02    0.79077E+02   -0.19978E+04 16800   0.862E+02
DAV:   2    -0.918708455103E+02   -0.17095E+03   -0.16032E+03 23112   0.168E+02
DAV:   3    -0.976636094103E+02   -0.57928E+01   -0.57598E+01 24600   0.274E+01
DAV:   4    -0.976975424205E+02   -0.33933E-01   -0.33931E-01 20280   0.243E+00
DAV:   5    -0.976979180085E+02   -0.37559E-03   -0.37558E-03 24504   0.244E-01    0.124E+01
DAV:   6    -0.922377246478E+02    0.54602E+01   -0.39797E+00 24312   0.662E+00    0.683E+00
DAV:   7    -0.905743956509E+02    0.16633E+01   -0.32418E+00 25152   0.589E+00    0.172E+00
DAV:   8    -0.905867861045E+02   -0.12390E-01   -0.23694E-01 18360   0.168E+00    0.706E-01
DAV:   9    -0.906009381836E+02   -0.14152E-01   -0.16978E-02 23544   0.440E-01    0.199E-01
DAV:  10    -0.906049882369E+02   -0.40501E-02   -0.20960E-03 19008   0.161E-01    0.610E-02
DAV:  11    -0.906060545700E+02   -0.10663E-02   -0.62512E-04 21816   0.868E-02    0.321E-02
DAV:  12    -0.906061712767E+02   -0.11671E-03   -0.93736E-05 20592   0.372E-02    0.429E-03
DAV:  13    -0.906061761552E+02   -0.48785E-05   -0.41568E-06 23664   0.886E-03    0.184E-03
DAV:  14    -0.906061768445E+02   -0.68926E-06   -0.29191E-07 20376   0.232E-03
   1 F= -.90606177E+02 E0= -.90604571E+02  d E =-.321201E-02
