 running   24 mpi-ranks, with    1 threads/rank, on    1 nodes
 distrk:  each k-point on   24 cores,    1 groups
 distr:  one band on    1 cores,   24 groups
 vasp.6.4.3 19Mar24 (build May 31 2024 16:31:43) complex                        
  
 POSCAR found type information on POSCAR B 
 POSCAR found :  1 types and       1 ions
 Reading from existing POTCAR
 scaLAPACK will be used
 Reading from existing POTCAR
 LDA part: xc-table for (Slater+PW92), standard interpolation
 POSCAR, INCAR and KPOINTS ok, starting setup
 FFT: planning ... GRIDC
 FFT: planning ... GRID_SOFT
 FFT: planning ... GRID
 WAVECAR not read
 entering main loop
       N       E                     dE             d eps       ncg     rms          rms(c)
DAV:   1     0.811804315041E+01    0.81180E+01   -0.34830E+02  8400   0.401E+01
DAV:   2     0.118190950204E+00   -0.79999E+01   -0.79718E+01 16320   0.581E+00
DAV:   3    -0.546638834395E-01   -0.17285E+00   -0.15065E+00  8640   0.149E+00
DAV:   4    -0.582116020727E-01   -0.35477E-02   -0.33350E-02  9264   0.181E-01
