 running   24 mpi-ranks, with    1 threads/rank, on    1 nodes
 distrk:  each k-point on   24 cores,    1 groups
 distr:  one band on    1 cores,   24 groups
 vasp.6.4.3 19Mar24 (build May 31 2024 16:31:43) complex                        
  
 POSCAR found type information on POSCAR B 
 POSCAR found :  1 types and      14 ions
 Reading from existing POTCAR
 scaLAPACK will be used
 Reading from existing POTCAR
 LDA part: xc-table for (Slater+PW92), standard interpolation
 POSCAR, INCAR and KPOINTS ok, starting setup
 FFT: planning ... GRIDC
 FFT: planning ... GRID_SOFT
 FFT: planning ... GRID
 WAVECAR not read
 entering main loop
       N       E                     dE             d eps       ncg     rms          rms(c)
DAV:   1     0.633216044603E+02    0.63322E+02   -0.18568E+04 16800   0.777E+02
DAV:   2    -0.925031698103E+02   -0.15582E+03   -0.14643E+03 23232   0.157E+02
DAV:   3    -0.976003333800E+02   -0.50972E+01   -0.50704E+01 24624   0.254E+01
DAV:   4    -0.976300241604E+02   -0.29691E-01   -0.29689E-01 20352   0.223E+00
DAV:   5    -0.976303599899E+02   -0.33583E-03   -0.33582E-03 24576   0.228E-01    0.123E+01
DAV:   6    -0.922149283151E+02    0.54154E+01   -0.39490E+00 24336   0.658E+00    0.680E+00
DAV:   7    -0.905636838257E+02    0.16512E+01   -0.32204E+00 25152   0.586E+00    0.171E+00
DAV:   8    -0.905760384751E+02   -0.12355E-01   -0.23421E-01 18576   0.167E+00    0.705E-01
DAV:   9    -0.905902078996E+02   -0.14169E-01   -0.16912E-02 23328   0.437E-01    0.198E-01
DAV:  10    -0.905942577739E+02   -0.40499E-02   -0.20961E-03 18984   0.161E-01    0.609E-02
DAV:  11    -0.905953231716E+02   -0.10654E-02   -0.62300E-04 21696   0.859E-02    0.321E-02
DAV:  12    -0.905954375916E+02   -0.11442E-03   -0.90830E-05 20880   0.361E-02    0.428E-03
DAV:  13    -0.905954422936E+02   -0.47020E-05   -0.39584E-06 23448   0.845E-03    0.182E-03
DAV:  14    -0.905954429540E+02   -0.66043E-06   -0.27297E-07 20400   0.219E-03
   1 F= -.90595443E+02 E0= -.90593836E+02  d E =-.321325E-02
