   14   14    1    1
  0.1021960E+02  0.5697000E-09  0.4047900E-09  0.6204200E-09  0.5000000E-15
  1.000000000000000E-004
  CAR 
 Kpoints                                 
     42   1260     48
 
  0.0000000E+00  0.0000000E+00  0.0000000E+00  0.1146657E-03
      1        -12.733286   1.000000
      2        -11.576217   1.000000
      3         -8.662011   1.000000
      4         -8.424780   1.000000
      5         -6.077335   1.000000
      6         -5.059300   1.000000
      7         -4.638156   1.000000
      8         -4.349408   1.000000
      9         -3.973389   1.000000
     10         -3.598503   1.000000
     11         -2.421865   1.000000
     12         -2.242401   1.000000
     13         -2.183103   1.000000
     14         -1.052571   1.000000
     15         -0.037031   1.000000
     16         -0.003151   1.000000
     17          0.149701   1.000000
     18          0.173203   1.000000
     19          0.564978   1.000000
     20          2.080017   0.000000
     21          2.126214   0.000000
     22          2.214991   0.000000
     23          5.411794   0.000000
     24          5.802009   0.000000
     25          5.817588   0.000000
     26          5.910920   0.000000
     27          6.786129   0.000000
     28          7.673076   0.000000
     29          7.701601   0.000000
     30          8.634398   0.000000
     31          8.752945   0.000000
     32          8.853214   0.000000
     33          9.041008   0.000000
     34         10.029484   0.000000
     35         11.144239   0.000000
     36         11.399927   0.000000
     37         11.769843   0.000000
     38         11.802397   0.000000
     39         11.899376   0.000000
     40         12.354764   0.000000
     41         12.804761   0.000000
     42         13.395119   0.000000
     43         13.574123   0.000000
     44         15.554878   0.000000
     45         15.567768   0.000000
     46         15.942168   0.000000
     47         16.358952   0.000000
     48         16.599197   0.000000
 
  0.5263158E-01  0.0000000E+00  0.0000000E+00  0.2293315E-03
      1        -12.727189   1.000000
      2        -11.586858   1.000000
      3         -8.659189   1.000000
      4         -8.422962   1.000000
      5         -6.064488   1.000000
      6         -5.141282   1.000000
      7         -4.669994   1.000000
      8         -4.252648   1.000000
      9         -3.964838   1.000000
     10         -3.539328   1.000000
     11         -2.419242   1.000000
     12         -2.244102   1.000000
     13         -2.203079   1.000000
     14         -1.098697   1.000000
     15         -0.030918   1.000000
     16          0.007037   1.000000
     17          0.154450   1.000000
     18          0.156848   1.000000
     19          0.550970   1.000000
     20          2.067056   0.000000
     21          2.114772   0.000000
     22          2.198525   0.000000
     23          5.425678   0.000000
     24          5.794058   0.000000
     25          5.797477   0.000000
     26          5.992243   0.000000
     27          6.772863   0.000000
     28          7.497485   0.000000
     29          7.847182   0.000000
     30          8.654719   0.000000
     31          8.808664   0.000000
     32          8.890098   0.000000
     33          9.043914   0.000000
     34         10.047812   0.000000
     35         11.154546   0.000000
     36         11.340150   0.000000
     37         11.665219   0.000000
     38         11.766789   0.000000
     39         11.932175   0.000000
     40         12.366931   0.000000
     41         12.874464   0.000000
     42         13.504009   0.000000
     43         13.516807   0.000000
     44         15.363242   0.000000
     45         15.602451   0.000000
     46         16.080339   0.000000
     47         16.345401   0.000000
     48         16.374897   0.000000
 
  0.1052632E+00  0.0000000E+00  0.0000000E+00  0.2293315E-03
      1        -12.708942   1.000000
      2        -11.618129   1.000000
      3         -8.650546   1.000000
      4         -8.417850   1.000000
      5         -6.031113   1.000000
      6         -5.313596   1.000000
      7         -4.738876   1.000000
      8         -4.036362   1.000000
      9         -3.939253   1.000000
     10         -3.384543   1.000000
     11         -2.411279   1.000000
     12         -2.260911   1.000000
     13         -2.249182   1.000000
     14         -1.231349   1.000000
     15         -0.012827   1.000000
     16          0.036048   1.000000
     17          0.099039   1.000000
     18          0.176244   1.000000
     19          0.509441   1.000000
     20          2.029435   0.000010
     21          2.081436   0.000000
     22          2.149001   0.000000
     23          5.464536   0.000000
     24          5.772233   0.000000
     25          5.814746   0.000000
     26          6.156567   0.000000
     27          6.735229   0.000000
     28          7.300203   0.000000
     29          7.969494   0.000000
     30          8.712623   0.000000
     31          8.957903   0.000000
     32          8.995359   0.000000
     33          9.051018   0.000000
     34         10.104093   0.000000
     35         11.169290   0.000000
     36         11.185901   0.000000
     37         11.410707   0.000000
     38         11.703921   0.000000
     39         12.027351   0.000000
     40         12.403053   0.000000
     41         13.024687   0.000000
     42         13.357625   0.000000
     43         13.771831   0.000000
     44         15.059421   0.000000
     45         15.695960   0.000000
     46         16.063851   0.000000
     47         16.246424   0.000000
     48         16.420992   0.000000
 
  0.1578947E+00  0.0000000E+00  0.0000000E+00  0.2293315E-03
      1        -12.678760   1.000000
      2        -11.668216   1.000000
      3         -8.635763   1.000000
      4         -8.410398   1.000000
      5         -5.992697   1.000000
      6         -5.502348   1.000000
      7         -4.794844   1.000000
      8         -3.896857   1.000000
      9         -3.775948   1.000000
     10         -3.172489   1.000000
     11         -2.397675   1.000000
     12         -2.351163   1.000000
     13         -2.257492   1.000000
     14         -1.435878   1.000000
     15          0.009426   1.000000
     16          0.016509   1.000000
     17          0.079698   1.000000
     18          0.196575   1.000000
     19          0.449129   1.000000
     20          1.970752   0.004492
     21          2.028991   0.000010
     22          2.066481   0.000000
     23          5.520825   0.000000
     24          5.742082   0.000000
     25          5.897425   0.000000
     26          6.370057   0.000000
     27          6.679069   0.000000
     28          7.114163   0.000000
     29          8.066400   0.000000
     30          8.797769   0.000000
     31          9.031259   0.000000
     32          9.162671   0.000000
     33          9.180447   0.000000
     34         10.204255   0.000000
     35         10.909264   0.000000
     36         11.093203   0.000000
     37         11.238063   0.000000
     38         11.678590   0.000000
     39         12.168022   0.000000
     40         12.469401   0.000000
     41         13.123640   0.000000
     42         13.134132   0.000000
     43         14.114972   0.000000
     44         14.820011   0.000000
     45         15.758187   0.000000
     46         15.827201   0.000000
     47         16.321279   0.000000
     48         16.493216   0.000000
 
  0.2105263E+00  0.0000000E+00  0.0000000E+00  0.2293315E-03
      1        -12.637004   1.000000
      2        -11.734370   1.000000
      3         -8.614635   1.000000
      4         -8.402191   1.000000
      5         -5.971433   1.000000
      6         -5.680704   1.000000
      7         -4.794929   1.000000
      8         -3.838024   1.000000
      9         -3.501783   1.000000
     10         -2.930083   1.000000
     11         -2.466567   1.000000
     12         -2.377912   1.000000
     13         -2.268647   1.000000
     14         -1.692991   1.000000
     15         -0.110423   1.000000
     16          0.055801   1.000000
     17          0.132393   1.000000
     18          0.172906   1.000000
     19          0.414318   1.000000
     20          1.897096   0.298267
     21          1.952476   0.018051
     22          1.961815   0.009139
     23          5.584608   0.000000
     24          5.711196   0.000000
     25          6.046713   0.000000
     26          6.612650   0.000000
     27          6.622519   0.000000
     28          6.950287   0.000000
     29          8.149597   0.000000
     30          8.887540   0.000000
     31          8.996086   0.000000
     32          9.392440   0.000000
     33          9.407753   0.000000
     34         10.360981   0.000000
     35         10.584403   0.000000
     36         10.774088   0.000000
     37         11.305273   0.000000
     38         11.723185   0.000000
     39         12.303509   0.000000
     40         12.601389   0.000000
     41         12.840339   0.000000
     42         13.080089   0.000000
     43         14.488104   0.000000
     44         14.747383   0.000000
     45         15.442080   0.000000
     46         15.978510   0.000000
     47         16.216706   0.000000
     48         16.490973   0.000000
 
  0.2631579E+00  0.0000000E+00  0.0000000E+00  0.2293315E-03
      1        -12.584205   1.000000
      2        -11.813277   1.000000
      3         -8.587530   1.000000
      4         -8.395364   1.000000
      5         -5.983061   1.000000
      6         -5.837607   1.000000
      7         -4.714472   1.000000
      8         -3.763272   1.000000
      9         -3.233514   1.000000
     10         -2.675553   1.000000
     11         -2.599607   1.000000
     12         -2.353111   1.000000
     13         -2.281335   1.000000
     14         -1.978230   1.000000
     15         -0.254797   1.000000
     16          0.058675   1.000000
     17          0.102964   1.000000
     18          0.187921   1.000000
     19          0.454539   1.000000
     20          1.810783   0.972057
     21          1.816400   0.960203
     22          1.885409   0.421200
     23          5.645747   0.000000
     24          5.686980   0.000000
     25          6.258377   0.000000
     26          6.545508   0.000000
     27          6.811936   0.000000
     28          6.906663   0.000000
     29          8.224125   0.000000
     30          8.930088   0.000000
     31          8.935792   0.000000
     32          9.633651   0.000000
     33          9.668384   0.000000
     34         10.213843   0.000000
     35         10.517751   0.000000
     36         10.589474   0.000000
     37         11.370006   0.000000
     38         11.841595   0.000000
     39         12.390679   0.000000
     40         12.526385   0.000000
     41         12.824314   0.000000
     42         12.842159   0.000000
     43         14.832413   0.000000
     44         14.868990   0.000000
     45         15.129374   0.000000
     46         15.967238   0.000000
     47         16.095555   0.000000
     48         16.137036   0.000000
 
  0.3157895E+00  0.0000000E+00  0.0000000E+00  0.2293315E-03
      1        -12.521058   1.000000
      2        -11.901375   1.000000
      3         -8.555551   1.000000
      4         -8.392323   1.000000
      5         -6.023798   1.000000
      6         -5.966774   1.000000
      7         -4.554136   1.000000
      8         -3.673352   1.000000
      9         -3.002559   1.000000
     10         -2.743376   1.000000
     11         -2.434305   1.000000
     12         -2.371877   1.000000
     13         -2.284500   1.000000
     14         -2.207208   1.000000
     15         -0.414872   1.000000
     16         -0.111999   1.000000
     17          0.154997   1.000000
     18          0.239792   1.000000
     19          0.542392   1.000000
     20          1.647830   1.000000
     21          1.738068   0.999964
     22          1.806211   0.979385
     23          5.674491   0.000000
     24          5.695095   0.000000
     25          6.487569   0.000000
     26          6.525465   0.000000
     27          6.698079   0.000000
     28          7.216719   0.000000
     29          8.291751   0.000000
     30          8.841993   0.000000
     31          8.870527   0.000000
     32          9.819586   0.000000
     33          9.884335   0.000000
     34          9.936968   0.000000
     35         10.398224   0.000000
     36         10.897657   0.000000
     37         11.404134   0.000000
     38         12.022471   0.000000
     39         12.195188   0.000000
     40         12.456234   0.000000
     41         12.503199   0.000000
     42         13.082849   0.000000
     43         14.840867   0.000000
     44         14.954758   0.000000
     45         15.244148   0.000000
     46         15.602774   0.000000
     47         15.659353   0.000000
     48         16.289209   0.000000
 
  0.3684211E+00  0.0000000E+00  0.0000000E+00  0.2293315E-03
      1        -12.448478   1.000000
      2        -11.995167   1.000000
      3         -8.520621   1.000000
      4         -8.395418   1.000000
      5         -6.076571   1.000000
      6         -6.064139   1.000000
      7         -4.330375   1.000000
      8         -3.569217   1.000000
      9         -2.919972   1.000000
     10         -2.892033   1.000000
     11         -2.525433   1.000000
     12         -2.348960   1.000000
     13         -2.177156   1.000000
     14         -2.154123   1.000000
     15         -0.574828   1.000000
     16         -0.307830   1.000000
     17          0.207653   1.000000
     18          0.281271   1.000000
     19          0.657391   1.000000
     20          1.471796   1.000000
     21          1.672083   1.000000
     22          1.731431   0.999984
     23          5.675446   0.000000
     24          5.725813   0.000000
     25          6.448087   0.000000
     26          6.606026   0.000000
     27          6.839366   0.000000
     28          7.548085   0.000000
     29          8.354890   0.000000
     30          8.653533   0.000000
     31          8.744614   0.000000
     32          9.419826   0.000000
     33         10.143443   0.000000
     34         10.192520   0.000000
     35         10.451346   0.000000
     36         11.276068   0.000000
     37         11.386887   0.000000
     38         11.856919   0.000000
     39         12.130300   0.000000
     40         12.253715   0.000000
     41         12.510269   0.000000
     42         13.289080   0.000000
     43         14.618331   0.000000
     44         15.013469   0.000000
     45         15.137019   0.000000
     46         15.334338   0.000000
     47         15.602582   0.000000
     48         16.412852   0.000000
 
  0.4210526E+00  0.0000000E+00  0.0000000E+00  0.2293315E-03
      1        -12.367618   1.000000
      2        -12.091387   1.000000
      3         -8.485375   1.000000
      4         -8.406375   1.000000
      5         -6.127413   1.000000
      6         -6.124093   1.000000
      7         -4.061139   1.000000
      8         -3.452100   1.000000
      9         -3.133674   1.000000
     10         -3.040732   1.000000
     11         -2.503513   1.000000
     12         -2.367510   1.000000
     13         -2.058130   1.000000
     14         -1.974901   1.000000
     15         -0.703182   1.000000
     16         -0.505074   1.000000
     17          0.255375   1.000000
     18          0.306010   1.000000
     19          0.793229   1.000000
     20          1.291307   1.000000
     21          1.627853   1.000000
     22          1.668985   1.000000
     23          5.688124   0.000000
     24          5.735148   0.000000
     25          6.433407   0.000000
     26          6.533372   0.000000
     27          7.190254   0.000000
     28          7.897150   0.000000
     29          8.328070   0.000000
     30          8.417674   0.000000
     31          8.649000   0.000000
     32          9.024298   0.000000
     33         10.395742   0.000000
     34         10.416923   0.000000
     35         10.635218   0.000000
     36         11.331979   0.000000
     37         11.520665   0.000000
     38         11.683049   0.000000
     39         11.783938   0.000000
     40         12.509974   0.000000
     41         12.514202   0.000000
     42         13.311835   0.000000
     43         14.540456   0.000000
     44         14.816323   0.000000
     45         14.972443   0.000000
     46         15.027666   0.000000
     47         15.931709   0.000000
     48         16.468221   0.000000
 
  0.4736842E+00  0.0000000E+00  0.0000000E+00  0.2293315E-03
      1        -12.279926   1.000000
      2        -12.187146   1.000000
      3         -8.452811   1.000000
      4         -8.425782   1.000000
      5         -6.156433   1.000000
      6         -6.153576   1.000000
      7         -3.761317   1.000000
      8         -3.444784   1.000000
      9         -3.323580   1.000000
     10         -3.185621   1.000000
     11         -2.443849   1.000000
     12         -2.399641   1.000000
     13         -1.934825   1.000000
     14         -1.890362   1.000000
     15         -0.746535   1.000000
     16         -0.669181   1.000000
     17          0.291455   1.000000
     18          0.309576   1.000000
     19          0.946619   1.000000
     20          1.114170   1.000000
     21          1.612148   1.000000
     22          1.626944   1.000000
     23          5.707608   0.000000
     24          5.726365   0.000000
     25          6.444743   0.000000
     26          6.479163   0.000000
     27          7.566490   0.000000
     28          7.953186   0.000000
     29          8.260959   0.000000
     30          8.485281   0.000000
     31          8.561831   0.000000
     32          8.637301   0.000000
     33         10.574199   0.000000
     34         10.577073   0.000000
     35         10.894504   0.000000
     36         11.195858   0.000000
     37         11.317278   0.000000
     38         11.470187   0.000000
     39         12.093342   0.000000
     40         12.382134   0.000000
     41         12.803024   0.000000
     42         13.101964   0.000000
     43         14.621789   0.000000
     44         14.737627   0.000000
     45         14.779867   0.000000
     46         14.852058   0.000000
     47         16.211349   0.000000
     48         16.404257   0.000000
 
  0.0000000E+00  0.3703704E-01  0.0000000E+00  0.2293315E-03
      1        -12.729974   1.000000
      2        -11.573241   1.000000
      3         -8.659406   1.000000
      4         -8.421571   1.000000
      5         -6.073665   1.000000
      6         -5.054169   1.000000
      7         -4.635115   1.000000
      8         -4.358905   1.000000
      9         -4.049345   1.000000
     10         -3.595069   1.000000
     11         -2.600836   1.000000
     12         -2.323902   1.000000
     13         -1.809663   1.000000
     14         -1.051934   1.000000
     15         -0.077322   1.000000
     16         -0.050695   1.000000
     17          0.152145   1.000000
     18          0.195822   1.000000
     19          0.581148   1.000000
     20          2.027498   0.000012
     21          2.088946   0.000000
     22          2.235783   0.000000
     23          5.447695   0.000000
     24          5.759880   0.000000
     25          5.861196   0.000000
     26          5.877924   0.000000
     27          6.828874   0.000000
     28          7.728656   0.000000
     29          7.729719   0.000000
     30          8.509300   0.000000
     31          8.752720   0.000000
     32          8.921069   0.000000
     33          9.049214   0.000000
     34         10.115344   0.000000
     35         11.177907   0.000000
     36         11.388311   0.000000
     37         11.758669   0.000000
     38         11.817741   0.000000
     39         11.913523   0.000000
     40         12.394674   0.000000
     41         12.806323   0.000000
     42         13.349344   0.000000
     43         13.526800   0.000000
     44         15.538883   0.000000
     45         15.549653   0.000000
     46         15.953623   0.000000
     47         16.332495   0.000000
     48         16.484044   0.000000
 
  0.5263158E-01  0.3703704E-01  0.0000000E+00  0.4586630E-03
      1        -12.723871   1.000000
      2        -11.583876   1.000000
      3         -8.656584   1.000000
      4         -8.419765   1.000000
      5         -6.060784   1.000000
      6         -5.136555   1.000000
      7         -4.666973   1.000000
      8         -4.266504   1.000000
      9         -4.036164   1.000000
     10         -3.535948   1.000000
     11         -2.610341   1.000000
     12         -2.321141   1.000000
     13         -1.822294   1.000000
     14         -1.098057   1.000000
     15         -0.071372   1.000000
     16         -0.041934   1.000000
     17          0.159487   1.000000
     18          0.178968   1.000000
     19          0.567057   1.000000
     20          2.014866   0.000057
     21          2.077529   0.000000
     22          2.218884   0.000000
     23          5.461845   0.000000
     24          5.747339   0.000000
     25          5.839696   0.000000
     26          5.964924   0.000000
     27          6.815634   0.000000
     28          7.541123   0.000000
     29          7.887129   0.000000
     30          8.530653   0.000000
     31          8.809129   0.000000
     32          8.957393   0.000000
     33          9.053408   0.000000
     34         10.129912   0.000000
     35         11.187843   0.000000
     36         11.328591   0.000000
     37         11.655017   0.000000
     38         11.780824   0.000000
     39         11.946402   0.000000
     40         12.406679   0.000000
     41         12.876241   0.000000
     42         13.458906   0.000000
     43         13.469781   0.000000
     44         15.368660   0.000000
     45         15.572235   0.000000
     46         16.068087   0.000000
     47         16.316750   0.000000
     48         16.356911   0.000000
 
  0.1052632E+00  0.3703704E-01  0.0000000E+00  0.4586630E-03
      1        -12.705629   1.000000
      2        -11.615136   1.000000
      3         -8.647936   1.000000
      4         -8.414666   1.000000
      5         -6.027308   1.000000
      6         -5.309251   1.000000
      7         -4.735966   1.000000
      8         -4.093144   1.000000
      9         -3.967696   1.000000
     10         -3.381393   1.000000
     11         -2.639154   1.000000
     12         -2.312818   1.000000
     13         -1.857576   1.000000
     14         -1.230675   1.000000
     15         -0.054075   1.000000
     16         -0.021283   1.000000
     17          0.133087   1.000000
     18          0.179799   1.000000
     19          0.525368   1.000000
     20          1.978020   0.002414
     21          2.044222   0.000001
     22          2.168276   0.000000
     23          5.501385   0.000000
     24          5.754486   0.000000
     25          5.829315   0.000000
     26          6.127012   0.000000
     27          6.778114   0.000000
     28          7.345664   0.000000
     29          8.007939   0.000000
     30          8.591206   0.000000
     31          8.959915   0.000000
     32          9.058090   0.000000
     33          9.067897   0.000000
     34         10.174566   0.000000
     35         11.157895   0.000000
     36         11.218111   0.000000
     37         11.399013   0.000000
     38         11.721117   0.000000
     39         12.041779   0.000000
     40         12.442327   0.000000
     41         13.027310   0.000000
     42         13.311290   0.000000
     43         13.725302   0.000000
     44         15.073948   0.000000
     45         15.660946   0.000000
     46         16.056587   0.000000
     47         16.185654   0.000000
     48         16.431892   0.000000
 
  0.1578947E+00  0.3703704E-01  0.0000000E+00  0.4586630E-03
      1        -12.675456   1.000000
      2        -11.665209   1.000000
      3         -8.633133   1.000000
      4         -8.407252   1.000000
      5         -5.988715   1.000000
      6         -5.498130   1.000000
      7         -4.792126   1.000000
      8         -4.007055   1.000000
      9         -3.751444   1.000000
     10         -3.170163   1.000000
     11         -2.687586   1.000000
     12         -2.298732   1.000000
     13         -1.908723   1.000000
     14         -1.435108   1.000000
     15         -0.027263   1.000000
     16         -0.026066   1.000000
     17          0.093437   1.000000
     18          0.203687   1.000000
     19          0.463908   1.000000
     20          1.920119   0.118886
     21          1.991844   0.000665
     22          2.084545   0.000000
     23          5.558578   0.000000
     24          5.756529   0.000000
     25          5.880590   0.000000
     26          6.337595   0.000000
     27          6.722109   0.000000
     28          7.163377   0.000000
     29          8.103268   0.000000
     30          8.679368   0.000000
     31          9.059274   0.000000
     32          9.166081   0.000000
     33          9.238208   0.000000
     34         10.254457   0.000000
     35         10.898390   0.000000
     36         11.081222   0.000000
     37         11.268432   0.000000
     38         11.702492   0.000000
     39         12.183172   0.000000
     40         12.507360   0.000000
     41         13.078543   0.000000
     42         13.138131   0.000000
     43         14.059087   0.000000
     44         14.847436   0.000000
     45         15.736378   0.000000
     46         15.814281   0.000000
     47         16.220268   0.000000
     48         16.527869   0.000000
 
  0.2105263E+00  0.3703704E-01  0.0000000E+00  0.4586630E-03
      1        -12.633714   1.000000
      2        -11.731345   1.000000
      3         -8.611991   1.000000
      4         -8.399100   1.000000
      5         -5.967247   1.000000
      6         -5.676507   1.000000
      7         -4.792460   1.000000
      8         -3.943417   1.000000
      9         -3.482516   1.000000
     10         -2.933651   1.000000
     11         -2.751266   1.000000
     12         -2.278685   1.000000
     13         -1.967590   1.000000
     14         -1.692038   1.000000
     15         -0.117225   1.000000
     16          0.003442   1.000000
     17          0.118916   1.000000
     18          0.194287   1.000000
     19          0.423281   1.000000
     20          1.846138   0.819093
     21          1.924767   0.094755
     22          1.970296   0.004664
     23          5.623169   0.000000
     24          5.733314   0.000000
     25          6.022848   0.000000
     26          6.582561   0.000000
     27          6.655926   0.000000
     28          7.008452   0.000000
     29          8.185197   0.000000
     30          8.770826   0.000000
     31          9.036419   0.000000
     32          9.396719   0.000000
     33          9.463193   0.000000
     34         10.372870   0.000000
     35         10.581350   0.000000
     36         10.769014   0.000000
     37         11.332717   0.000000
     38         11.755287   0.000000
     39         12.322575   0.000000
     40         12.632860   0.000000
     41         12.799084   0.000000
     42         13.085057   0.000000
     43         14.402073   0.000000
     44         14.807986   0.000000
     45         15.453760   0.000000
     46         15.924818   0.000000
     47         16.144768   0.000000
     48         16.501921   0.000000
 
  0.2631579E+00  0.3703704E-01  0.0000000E+00  0.4586630E-03
      1        -12.580929   1.000000
      2        -11.810228   1.000000
      3         -8.584873   1.000000
      4         -8.392322   1.000000
      5         -5.978705   1.000000
      6         -5.833375   1.000000
      7         -4.712232   1.000000
      8         -3.869820   1.000000
      9         -3.212918   1.000000
     10         -2.862311   1.000000
     11         -2.655618   1.000000
     12         -2.254962   1.000000
     13         -2.027421   1.000000
     14         -1.976441   1.000000
     15         -0.254580   1.000000
     16          0.002037   1.000000
     17          0.133971   1.000000
     18          0.168666   1.000000
     19          0.458146   1.000000
     20          1.759836   0.999600
     21          1.833643   0.897124
     22          1.848494   0.801024
     23          5.684680   0.000000
     24          5.711811   0.000000
     25          6.232617   0.000000
     26          6.589129   0.000000
     27          6.790697   0.000000
     28          6.947676   0.000000
     29          8.258608   0.000000
     30          8.820011   0.000000
     31          8.987580   0.000000
     32          9.638505   0.000000
     33          9.716392   0.000000
     34         10.188101   0.000000
     35         10.461835   0.000000
     36         10.653578   0.000000
     37         11.392699   0.000000
     38         11.881381   0.000000
     39         12.413794   0.000000
     40         12.484353   0.000000
     41         12.847711   0.000000
     42         12.855690   0.000000
     43         14.696462   0.000000
     44         14.982884   0.000000
     45         15.150706   0.000000
     46         15.938067   0.000000
     47         15.950185   0.000000
     48         16.251295   0.000000
 
  0.3157895E+00  0.3703704E-01  0.0000000E+00  0.4586630E-03
      1        -12.517800   1.000000
      2        -11.898304   1.000000
      3         -8.552876   1.000000
      4         -8.389346   1.000000
      5         -6.019343   1.000000
      6         -5.962494   1.000000
      7         -4.552053   1.000000
      8         -3.783585   1.000000