  14  14   0   0
  0.1021960E+02  0.5697000E-09  0.4047900E-09  0.6204200E-09  0.5000000E-15
  1.000000000000000E-004
  CAR 
 Kpoints                                 
     18.04614816    -14.19763016  301      1.88563830      1.00000000
    -14.198  0.0000E+00  0.0000E+00
    -14.090  0.0000E+00  0.0000E+00
    -13.983  0.0000E+00  0.0000E+00
    -13.875  0.0000E+00  0.0000E+00
    -13.768  0.0000E+00  0.0000E+00
    -13.660  0.0000E+00  0.0000E+00
    -13.553  0.0000E+00  0.0000E+00
    -13.445  0.0000E+00  0.0000E+00
    -13.338  0.0000E+00  0.0000E+00
    -13.230  0.0000E+00  0.0000E+00
    -13.123  0.0000E+00  0.0000E+00
    -13.015  0.1026E-16  0.1103E-17
    -12.908  0.1086E-07  0.1168E-08
    -12.800  0.2230E-02  0.2397E-03
    -12.693  0.4255E+00  0.4598E-01
    -12.585  0.2278E+01  0.2908E+00
    -12.478  0.3524E+01  0.6696E+00
    -12.370  0.4343E+01  0.1136E+01
    -12.263  0.3560E+01  0.1519E+01
    -12.156  0.2868E+01  0.1827E+01
    -12.048  0.2634E+01  0.2110E+01
    -11.941  0.2588E+01  0.2388E+01
    -11.833  0.2745E+01  0.2684E+01
    -11.726  0.3329E+01  0.3041E+01
    -11.618  0.3620E+01  0.3430E+01
    -11.511  0.3118E+01  0.3765E+01
    -11.403  0.1718E+01  0.3950E+01
    -11.296  0.4550E+00  0.3999E+01
    -11.188  0.8819E-02  0.4000E+01
    -11.081  0.3385E-06  0.4000E+01
    -10.973  0.3293E-14  0.4000E+01
    -10.866  0.0000E+00  0.4000E+01
    -10.758  0.0000E+00  0.4000E+01
    -10.651  0.0000E+00  0.4000E+01
    -10.543  0.0000E+00  0.4000E+01
    -10.436  0.0000E+00  0.4000E+01
    -10.328  0.0000E+00  0.4000E+01
    -10.221  0.0000E+00  0.4000E+01
    -10.113  0.0000E+00  0.4000E+01
    -10.006  0.0000E+00  0.4000E+01
     -9.898  0.0000E+00  0.4000E+01
     -9.791  0.0000E+00  0.4000E+01
     -9.684  0.0000E+00  0.4000E+01
     -9.576  0.0000E+00  0.4000E+01
     -9.469  0.0000E+00  0.4000E+01
     -9.361  0.0000E+00  0.4000E+01
     -9.254  0.0000E+00  0.4000E+01
     -9.146  0.0000E+00  0.4000E+01
     -9.039  0.1051E-08  0.4000E+01
     -8.931  0.6975E-03  0.4000E+01
     -8.824  0.2998E+00  0.4032E+01
     -8.716  0.2161E+01  0.4265E+01
     -8.609  0.5409E+01  0.4846E+01
     -8.501  0.7010E+01  0.5599E+01
     -8.394  0.6222E+01  0.6268E+01
     -8.286  0.5297E+01  0.6837E+01
     -8.179  0.4868E+01  0.7361E+01
     -8.071  0.3739E+01  0.7762E+01
     -7.964  0.1624E+01  0.7937E+01
     -7.856  0.5451E+00  0.7996E+01
     -7.749  0.4116E-01  0.8000E+01
     -7.641  0.2549E-04  0.8000E+01
     -7.534  0.6481E-11  0.8000E+01
     -7.426  0.0000E+00  0.8000E+01
     -7.319  0.0000E+00  0.8000E+01
     -7.211  0.2628E-14  0.8000E+01
     -7.104  0.2355E-06  0.8000E+01
     -6.997  0.3947E-02  0.8000E+01
     -6.889  0.1066E+00  0.8012E+01
     -6.782  0.2963E+00  0.8044E+01
     -6.674  0.4574E+00  0.8093E+01
     -6.567  0.7237E+00  0.8171E+01
     -6.459  0.8910E+00  0.8266E+01
     -6.352  0.1502E+01  0.8428E+01
     -6.244  0.2068E+01  0.8650E+01
     -6.137  0.3121E+01  0.8986E+01
     -6.029  0.3832E+01  0.9397E+01
     -5.922  0.4106E+01  0.9839E+01
     -5.814  0.3918E+01  0.1026E+02
     -5.707  0.4156E+01  0.1071E+02
     -5.599  0.4025E+01  0.1114E+02
     -5.492  0.4122E+01  0.1158E+02
     -5.384  0.4413E+01  0.1206E+02
     -5.277  0.4847E+01  0.1258E+02
     -5.169  0.4346E+01  0.1304E+02
     -5.062  0.3886E+01  0.1346E+02
     -4.954  0.3345E+01  0.1382E+02
     -4.847  0.2456E+01  0.1409E+02
     -4.739  0.2400E+01  0.1434E+02
     -4.632  0.3086E+01  0.1468E+02
     -4.524  0.3571E+01  0.1506E+02
     -4.417  0.3441E+01  0.1543E+02
     -4.310  0.3161E+01  0.1577E+02
     -4.202  0.2828E+01  0.1607E+02
     -4.095  0.2962E+01  0.1639E+02
     -3.987  0.2999E+01  0.1671E+02
     -3.880  0.2951E+01  0.1703E+02
     -3.772  0.2981E+01  0.1735E+02
     -3.665  0.3030E+01  0.1768E+02
     -3.557  0.2663E+01  0.1796E+02
     -3.450  0.2833E+01  0.1827E+02
     -3.342  0.2850E+01  0.1857E+02
     -3.235  0.2727E+01  0.1887E+02
     -3.127  0.2675E+01  0.1915E+02
     -3.020  0.3026E+01  0.1948E+02
     -2.912  0.3096E+01  0.1981E+02
     -2.805  0.2657E+01  0.2010E+02
     -2.697  0.2518E+01  0.2037E+02
     -2.590  0.2597E+01  0.2065E+02
     -2.482  0.2963E+01  0.2097E+02
     -2.375  0.3263E+01  0.2132E+02
     -2.267  0.3686E+01  0.2171E+02
     -2.160  0.3434E+01  0.2208E+02
     -2.052  0.3361E+01  0.2244E+02
     -1.945  0.4149E+01  0.2289E+02
     -1.838  0.4929E+01  0.2342E+02
     -1.730  0.5461E+01  0.2401E+02
     -1.623  0.5964E+01  0.2465E+02
     -1.515  0.6145E+01  0.2531E+02
     -1.408  0.5867E+01  0.2594E+02
     -1.300  0.5774E+01  0.2656E+02
     -1.193  0.5218E+01  0.2712E+02
     -1.085  0.5123E+01  0.2767E+02
     -0.978  0.3844E+01  0.2808E+02
     -0.870  0.2833E+01  0.2839E+02
     -0.763  0.2193E+01  0.2862E+02
     -0.655  0.3587E+01  0.2901E+02
     -0.548  0.5183E+01  0.2957E+02
     -0.440  0.6004E+01  0.3021E+02
     -0.333  0.6278E+01  0.3089E+02
     -0.225  0.6350E+01  0.3157E+02
     -0.118  0.6822E+01  0.3230E+02
     -0.010  0.6720E+01  0.3302E+02
      0.097  0.6368E+01  0.3371E+02
      0.205  0.6997E+01  0.3446E+02
      0.312  0.8459E+01  0.3537E+02
      0.420  0.8377E+01  0.3627E+02
      0.527  0.8435E+01  0.3718E+02
      0.635  0.4392E+01  0.3765E+02
      0.742  0.2756E+01  0.3794E+02
      0.849  0.3139E+01  0.3828E+02
      0.957  0.3248E+01  0.3863E+02
      1.064  0.3788E+01  0.3904E+02
      1.172  0.3513E+01  0.3942E+02
      1.279  0.3495E+01  0.3979E+02
      1.387  0.4071E+01  0.4023E+02
      1.494  0.3717E+01  0.4063E+02
      1.602  0.4080E+01  0.4107E+02
      1.709  0.3662E+01  0.4146E+02
      1.817  0.3014E+01  0.4178E+02
      1.924  0.3122E+01  0.4212E+02
      2.032  0.2802E+01  0.4242E+02
      2.139  0.2262E+01  0.4266E+02
      2.247  0.2353E+01  0.4292E+02
      2.354  0.2084E+01  0.4314E+02
      2.462  0.1398E+01  0.4329E+02
      2.569  0.7397E+00  0.4337E+02
      2.677  0.6679E+00  0.4344E+02
      2.784  0.7704E+00  0.4353E+02
      2.892  0.6098E+00  0.4359E+02
      2.999  0.4364E+00  0.4364E+02
      3.107  0.4037E+00  0.4368E+02
      3.214  0.5604E+00  0.4374E+02
      3.321  0.4975E+00  0.4380E+02
      3.429  0.3044E+00  0.4383E+02
      3.536  0.3111E+00  0.4386E+02
      3.644  0.4012E+00  0.4390E+02
      3.751  0.3302E+00  0.4394E+02
      3.859  0.2141E+00  0.4396E+02
      3.966  0.2585E+00  0.4399E+02
      4.074  0.8559E-01  0.4400E+02
      4.181  0.1512E-02  0.4400E+02
      4.289  0.7506E-01  0.4401E+02
      4.396  0.2612E+00  0.4404E+02
      4.504  0.3778E+00  0.4408E+02
      4.611  0.5578E+00  0.4414E+02
      4.719  0.7410E+00  0.4422E+02
      4.826  0.8319E+00  0.4431E+02
      4.934  0.8879E+00  0.4440E+02
      5.041  0.1007E+01  0.4451E+02
      5.149  0.1160E+01  0.4463E+02
      5.256  0.1410E+01  0.4479E+02
      5.364  0.1753E+01  0.4497E+02
      5.471  0.2244E+01  0.4522E+02
      5.579  0.2635E+01  0.4550E+02
      5.686  0.2950E+01  0.4582E+02
      5.794  0.3381E+01  0.4618E+02
      5.901  0.3751E+01  0.4658E+02
      6.008  0.4232E+01  0.4704E+02
      6.116  0.4545E+01  0.4753E+02
      6.223  0.4549E+01  0.4801E+02
      6.331  0.4143E+01  0.4846E+02
      6.438  0.4125E+01  0.4890E+02
      6.546  0.4479E+01  0.4938E+02
      6.653  0.3766E+01  0.4979E+02
      6.761  0.3582E+01  0.5017E+02
      6.868  0.4050E+01  0.5061E+02
      6.976  0.4559E+01  0.5110E+02
      7.083  0.4718E+01  0.5161E+02
      7.191  0.5256E+01  0.5217E+02
      7.298  0.4853E+01  0.5269E+02
      7.406  0.4614E+01  0.5319E+02
      7.513  0.4392E+01  0.5366E+02
      7.621  0.4074E+01  0.5410E+02
      7.728  0.3331E+01  0.5446E+02
      7.836  0.3094E+01  0.5479E+02
      7.943  0.3180E+01  0.5513E+02
      8.051  0.3421E+01  0.5550E+02
      8.158  0.3675E+01  0.5589E+02
      8.266  0.3883E+01  0.5631E+02
      8.373  0.4044E+01  0.5675E+02
      8.480  0.4193E+01  0.5720E+02
      8.588  0.3942E+01  0.5762E+02
      8.695  0.4413E+01  0.5809E+02
      8.803  0.4862E+01  0.5862E+02
      8.910  0.5195E+01  0.5918E+02
      9.018  0.5228E+01  0.5974E+02
      9.125  0.4748E+01  0.6025E+02
      9.233  0.5262E+01  0.6081E+02
      9.340  0.5038E+01  0.6135E+02
      9.448  0.4604E+01  0.6185E+02
      9.555  0.4649E+01  0.6235E+02
      9.663  0.4761E+01  0.6286E+02
      9.770  0.5188E+01  0.6342E+02
      9.878  0.4996E+01  0.6396E+02
      9.985  0.5013E+01  0.6449E+02
     10.093  0.3743E+01  0.6490E+02
     10.200  0.4465E+01  0.6538E+02
     10.308  0.4156E+01  0.6582E+02
     10.415  0.5363E+01  0.6640E+02
     10.523  0.5636E+01  0.6701E+02
     10.630  0.4731E+01  0.6751E+02
     10.738  0.4421E+01  0.6799E+02
     10.845  0.3663E+01  0.6838E+02
     10.953  0.3592E+01  0.6877E+02
     11.060  0.4854E+01  0.6929E+02
     11.167  0.5689E+01  0.6990E+02
     11.275  0.6482E+01  0.7060E+02
     11.382  0.5375E+01  0.7118E+02
     11.490  0.4826E+01  0.7169E+02
     11.597  0.4699E+01  0.7220E+02
     11.705  0.4712E+01  0.7271E+02
     11.812  0.4882E+01  0.7323E+02
     11.920  0.5211E+01  0.7379E+02
     12.027  0.6222E+01  0.7446E+02
     12.135  0.5973E+01  0.7510E+02
     12.242  0.5284E+01  0.7567E+02
     12.350  0.5413E+01  0.7625E+02
     12.457  0.5527E+01  0.7685E+02
     12.565  0.6062E+01  0.7750E+02
     12.672  0.5860E+01  0.7813E+02
     12.780  0.5812E+01  0.7875E+02
     12.887  0.5916E+01  0.7939E+02
     12.995  0.5986E+01  0.8003E+02
     13.102  0.6024E+01  0.8068E+02
     13.210  0.6314E+01  0.8136E+02
     13.317  0.5816E+01  0.8198E+02
     13.425  0.5475E+01  0.8257E+02
     13.532  0.5518E+01  0.8316E+02
     13.639  0.5343E+01  0.8374E+02
     13.747  0.5419E+01  0.8432E+02
     13.854  0.5752E+01  0.8494E+02
     13.962  0.5746E+01  0.8556E+02
     14.069  0.5274E+01  0.8612E+02
     14.177  0.4787E+01  0.8664E+02
     14.284  0.5344E+01  0.8721E+02
     14.392  0.4654E+01  0.8771E+02
     14.499  0.4972E+01  0.8825E+02
     14.607  0.5357E+01  0.8882E+02
     14.714  0.5089E+01  0.8937E+02
     14.822  0.4204E+01  0.8982E+02
     14.929  0.4607E+01  0.9032E+02
     15.037  0.5916E+01  0.9095E+02
     15.144  0.5796E+01  0.9158E+02
     15.252  0.6092E+01  0.9223E+02
     15.359  0.5630E+01  0.9284E+02
     15.467  0.5893E+01  0.9347E+02
     15.574  0.6098E+01  0.9412E+02
     15.682  0.4771E+01  0.9464E+02
     15.789  0.3623E+01  0.9503E+02
     15.897  0.2463E+01  0.9529E+02
     16.004  0.2084E+01  0.9551E+02
     16.112  0.1349E+01  0.9566E+02
     16.219  0.1071E+01  0.9577E+02
     16.326  0.9359E+00  0.9588E+02
     16.434  0.7729E+00  0.9596E+02
     16.541  0.3377E+00  0.9599E+02
     16.649  0.4734E-01  0.9600E+02
     16.756  0.6050E-03  0.9600E+02
     16.864  0.5158E-08  0.9600E+02
     16.971  0.5941E-17  0.9600E+02
     17.079  0.0000E+00  0.9600E+02
     17.186  0.0000E+00  0.9600E+02
     17.294  0.0000E+00  0.9600E+02
     17.401  0.0000E+00  0.9600E+02
     17.509  0.0000E+00  0.9600E+02
     17.616  0.0000E+00  0.9600E+02
     17.724  0.0000E+00  0.9600E+02
     17.831  0.0000E+00  0.9600E+02
     17.939  0.0000E+00  0.9600E+02
     18.046  0.0000E+00  0.9600E+02
