<?xml version="1.0" encoding="ISO-8859-1"?>
<modeling>
 <generator>
  <i name="program" type="string">vasp </i>
  <i name="version" type="string">6.4.3  </i>
  <i name="subversion" type="string">19Mar24 (build May 31 2024 16:31:43) complex                          parallel </i>
  <i name="platform" type="string">LinuxIFC </i>
  <i name="date" type="string">2024 10 29 </i>
  <i name="time" type="string">15:51:20 </i>
 </generator>
 <incar>
  <i type="string" name="SYSTEM">Kpoints</i>
  <i type="int" name="ISTART">     0</i>
  <i type="string" name="PREC">Accurate</i>
  <i type="string" name="ALGO">Normal</i>
  <i type="int" name="ISPIN">     1</i>
  <i type="int" name="ICHARG">     2</i>
  <i type="int" name="NELM">   100</i>
  <i type="int" name="IBRION">    -1</i>
  <i name="EDIFF">      0.00000100</i>
  <i name="EDIFFG">     -0.00100000</i>
  <i type="int" name="NSW">     0</i>
  <i type="int" name="ISIF">     2</i>
  <i name="ENCUT">    450.00000000</i>
  <i name="POTIM">      0.50000000</i>
  <i type="int" name="ISMEAR">     0</i>
  <i name="SIGMA">      0.05000000</i>
  <i type="logical" name="LWAVE"> F  </i>
  <i type="logical" name="LCHARG"> F  </i>
  <i type="string" name="GGA">PE</i>
 </incar>
 <primitive_cell>
  <structure name="primitive_cell" >
   <crystal>
    <varray name="basis" >
     <v>       5.69700000       0.00000000       0.00000000 </v>
     <v>       0.00000000       4.04790000       0.00000000 </v>
     <v>       0.00000000       0.00000000       6.20420000 </v>
    </varray>
    <i name="volume">    143.07435078 </i>
    <varray name="rec_basis" >
     <v>       0.17553098       0.00000000       0.00000000 </v>
     <v>       0.00000000       0.24704168       0.00000000 </v>
     <v>       0.00000000       0.00000000       0.16118114 </v>
    </varray>
   </crystal>
   <varray name="positions" >
    <v>       0.52123000       0.50000000       0.63796000 </v>
    <v>       0.47877000       0.50000000       0.36204000 </v>
    <v>       0.97877000       0.50000000       0.63796000 </v>
    <v>       0.02123000       0.50000000       0.36204000 </v>
    <v>       0.60090000       0.50000000       0.89991000 </v>
    <v>       0.39910000       0.50000000       0.10009000 </v>
    <v>       0.89910000       0.50000000       0.89991000 </v>
    <v>       0.10090000       0.50000000       0.10009000 </v>
    <v>       0.75000000       0.79171000       0.72973000 </v>
    <v>       0.25000000       0.20829000       0.27027000 </v>
    <v>       0.75000000       0.20829000       0.72973000 </v>
    <v>       0.25000000       0.79171000       0.27027000 </v>
    <v>       0.25000000       0.50000000       0.52367000 </v>
    <v>       0.75000000       0.50000000       0.47633000 </v>
   </varray>
  </structure>
  <varray name="primitive_index" >
   <v type="int" >        1 </v>
   <v type="int" >        2 </v>
   <v type="int" >        3 </v>
   <v type="int" >        4 </v>
   <v type="int" >        5 </v>
   <v type="int" >        6 </v>
   <v type="int" >        7 </v>
   <v type="int" >        8 </v>
   <v type="int" >        9 </v>
   <v type="int" >       10 </v>
   <v type="int" >       11 </v>
   <v type="int" >       12 </v>
   <v type="int" >       13 </v>
   <v type="int" >       14 </v>
  </varray>
 </primitive_cell>
 <kpoints>
  <generation param="Monkhorst-Pack">
   <v type="int" name="divisions">      18       25       17 </v>
   <v name="usershift">      0.00000000       0.00000000       0.00000000 </v>
   <v name="genvec1">      0.05555556       0.00000000       0.00000000 </v>
   <v name="genvec2">      0.00000000       0.04000000       0.00000000 </v>
   <v name="genvec3">      0.00000000       0.00000000       0.05882353 </v>
   <v name="shift">      0.50000000       0.00000000       0.00000000 </v>
  </generation>
  <varray name="kpointlist" >
   <v>       0.02777778       0.00000000       0.00000000 </v>
   <v>       0.08333333       0.00000000       0.00000000 </v>
   <v>       0.13888889       0.00000000       0.00000000 </v>
   <v>       0.19444444       0.00000000       0.00000000 </v>
   <v>       0.25000000       0.00000000       0.00000000 </v>
   <v>       0.30555556       0.00000000       0.00000000 </v>
   <v>       0.36111111       0.00000000       0.00000000 </v>
   <v>       0.41666667       0.00000000       0.00000000 </v>
   <v>       0.47222222       0.00000000       0.00000000 </v>
   <v>       0.02777778       0.04000000       0.00000000 </v>
   <v>       0.08333333       0.04000000       0.00000000 </v>
   <v>       0.13888889       0.04000000       0.00000000 </v>
   <v>       0.19444444       0.04000000       0.00000000 </v>
   <v>       0.25000000       0.04000000       0.00000000 </v>
   <v>       0.30555556       0.04000000       0.00000000 </v>
   <v>       0.36111111       0.04000000       0.00000000 </v>
   <v>       0.41666667       0.04000000       0.00000000 </v>
   <v>       0.47222222       0.04000000       0.00000000 </v>
   <v>       0.02777778       0.08000000       0.00000000 </v>
   <v>       0.08333333       0.08000000       0.00000000 </v>
   <v>       0.13888889       0.08000000       0.00000000 </v>
   <v>       0.19444444       0.08000000       0.00000000 </v>
   <v>       0.25000000       0.08000000       0.00000000 </v>
   <v>       0.30555556       0.08000000       0.00000000 </v>
   <v>       0.36111111       0.08000000       0.00000000 </v>
   <v>       0.41666667       0.08000000       0.00000000 </v>
   <v>       0.47222222       0.08000000       0.00000000 </v>
   <v>       0.02777778       0.12000000       0.00000000 </v>
   <v>       0.08333333       0.12000000       0.00000000 </v>
   <v>       0.13888889       0.12000000       0.00000000 </v>
   <v>       0.19444444       0.12000000       0.00000000 </v>
   <v>       0.25000000       0.12000000       0.00000000 </v>
   <v>       0.30555556       0.12000000       0.00000000 </v>
   <v>       0.36111111       0.12000000       0.00000000 </v>
   <v>       0.41666667       0.12000000       0.00000000 </v>
   <v>       0.47222222       0.12000000       0.00000000 </v>
   <v>       0.02777778       0.16000000       0.00000000 </v>
   <v>       0.08333333       0.16000000       0.00000000 </v>
   <v>       0.13888889       0.16000000       0.00000000 </v>
   <v>       0.19444444       0.16000000       0.00000000 </v>
   <v>       0.25000000       0.16000000       0.00000000 </v>
   <v>       0.30555556       0.16000000       0.00000000 </v>
   <v>       0.36111111       0.16000000       0.00000000 </v>
   <v>       0.41666667       0.16000000       0.00000000 </v>
   <v>       0.47222222       0.16000000       0.00000000 </v>
   <v>       0.02777778       0.20000000       0.00000000 </v>
   <v>       0.08333333       0.20000000       0.00000000 </v>
   <v>       0.13888889       0.20000000       0.00000000 </v>
   <v>       0.19444444       0.20000000       0.00000000 </v>
   <v>       0.25000000       0.20000000       0.00000000 </v>
   <v>       0.30555556       0.20000000       0.00000000 </v>
   <v>       0.36111111       0.20000000       0.00000000 </v>
   <v>       0.41666667       0.20000000       0.00000000 </v>
   <v>       0.47222222       0.20000000       0.00000000 </v>
   <v>       0.02777778       0.24000000       0.00000000 </v>
   <v>       0.08333333       0.24000000       0.00000000 </v>
   <v>       0.13888889       0.24000000       0.00000000 </v>
   <v>       0.19444444       0.24000000       0.00000000 </v>
   <v>       0.25000000       0.24000000       0.00000000 </v>
   <v>       0.30555556       0.24000000       0.00000000 </v>
   <v>       0.36111111       0.24000000       0.00000000 </v>
   <v>       0.41666667       0.24000000       0.00000000 </v>
   <v>       0.47222222       0.24000000       0.00000000 </v>
   <v>       0.02777778       0.28000000       0.00000000 </v>
   <v>       0.08333333       0.28000000       0.00000000 </v>
   <v>       0.13888889       0.28000000       0.00000000 </v>
   <v>       0.19444444       0.28000000       0.00000000 </v>
   <v>       0.25000000       0.28000000       0.00000000 </v>
   <v>       0.30555556       0.28000000       0.00000000 </v>
   <v>       0.36111111       0.28000000       0.00000000 </v>
   <v>       0.41666667       0.28000000       0.00000000 </v>
   <v>       0.47222222       0.28000000       0.00000000 </v>
   <v>       0.02777778       0.32000000       0.00000000 </v>
   <v>       0.08333333       0.32000000       0.00000000 </v>
   <v>       0.13888889       0.32000000       0.00000000 </v>
   <v>       0.19444444       0.32000000       0.00000000 </v>
   <v>       0.25000000       0.32000000       0.00000000 </v>
   <v>       0.30555556       0.32000000       0.00000000 </v>
   <v>       0.36111111       0.32000000       0.00000000 </v>
   <v>       0.41666667       0.32000000       0.00000000 </v>
   <v>       0.47222222       0.32000000       0.00000000 </v>
   <v>       0.02777778       0.36000000       0.00000000 </v>
   <v>       0.08333333       0.36000000       0.00000000 </v>
   <v>       0.13888889       0.36000000       0.00000000 </v>
   <v>       0.19444444       0.36000000       0.00000000 </v>
   <v>       0.25000000       0.36000000       0.00000000 </v>
   <v>       0.30555556       0.36000000       0.00000000 </v>
   <v>       0.36111111       0.36000000       0.00000000 </v>
   <v>       0.41666667       0.36000000       0.00000000 </v>
   <v>       0.47222222       0.36000000       0.00000000 </v>
   <v>       0.02777778       0.40000000       0.00000000 </v>
   <v>       0.08333333       0.40000000       0.00000000 </v>
   <v>       0.13888889       0.40000000       0.00000000 </v>
   <v>       0.19444444       0.40000000       0.00000000 </v>
   <v>       0.25000000       0.40000000       0.00000000 </v>
   <v>       0.30555556       0.40000000       0.00000000 </v>
   <v>       0.36111111       0.40000000       0.00000000 </v>
   <v>       0.41666667       0.40000000       0.00000000 </v>
   <v>       0.47222222       0.40000000       0.00000000 </v>
   <v>       0.02777778       0.44000000       0.00000000 </v>
   <v>       0.08333333       0.44000000       0.00000000 </v>
   <v>       0.13888889       0.44000000       0.00000000 </v>
   <v>       0.19444444       0.44000000       0.00000000 </v>
   <v>       0.25000000       0.44000000       0.00000000 </v>
   <v>       0.30555556       0.44000000       0.00000000 </v>
   <v>       0.36111111       0.44000000       0.00000000 </v>
   <v>       0.41666667       0.44000000       0.00000000 </v>
   <v>       0.47222222       0.44000000       0.00000000 </v>
   <v>       0.02777778       0.48000000       0.00000000 </v>
   <v>       0.08333333       0.48000000       0.00000000 </v>
   <v>       0.13888889       0.48000000       0.00000000 </v>
   <v>       0.19444444       0.48000000       0.00000000 </v>
   <v>       0.25000000       0.48000000       0.00000000 </v>
   <v>       0.30555556       0.48000000       0.00000000 </v>
   <v>       0.36111111       0.48000000       0.00000000 </v>
   <v>       0.41666667       0.48000000       0.00000000 </v>
   <v>       0.47222222       0.48000000       0.00000000 </v>
   <v>       0.02777778       0.00000000       0.05882353 </v>
   <v>       0.08333333       0.00000000       0.05882353 </v>
   <v>       0.13888889       0.00000000       0.05882353 </v>
   <v>       0.19444444       0.00000000       0.05882353 </v>
   <v>       0.25000000       0.00000000       0.05882353 </v>
   <v>       0.30555556       0.00000000       0.05882353 </v>
   <v>       0.36111111       0.00000000       0.05882353 </v>
   <v>       0.41666667       0.00000000       0.05882353 </v>
   <v>       0.47222222       0.00000000       0.05882353 </v>
   <v>       0.02777778       0.04000000       0.05882353 </v>
   <v>       0.08333333       0.04000000       0.05882353 </v>
   <v>       0.13888889       0.04000000       0.05882353 </v>
   <v>       0.19444444       0.04000000       0.05882353 </v>
   <v>       0.25000000       0.04000000       0.05882353 </v>
   <v>       0.30555556       0.04000000       0.05882353 </v>
   <v>       0.36111111       0.04000000       0.05882353 </v>
   <v>       0.41666667       0.04000000       0.05882353 </v>
   <v>       0.47222222       0.04000000       0.05882353 </v>
   <v>       0.02777778       0.08000000       0.05882353 </v>
   <v>       0.08333333       0.08000000       0.05882353 </v>
   <v>       0.13888889       0.08000000       0.05882353 </v>
   <v>       0.19444444       0.08000000       0.05882353 </v>
   <v>       0.25000000       0.08000000       0.05882353 </v>
   <v>       0.30555556       0.08000000       0.05882353 </v>
   <v>       0.36111111       0.08000000       0.05882353 </v>
   <v>       0.41666667       0.08000000       0.05882353 </v>
   <v>       0.47222222       0.08000000       0.05882353 </v>
   <v>       0.02777778       0.12000000       0.05882353 </v>
   <v>       0.08333333       0.12000000       0.05882353 </v>
   <v>       0.13888889       0.12000000       0.05882353 </v>
   <v>       0.19444444       0.12000000       0.05882353 </v>
   <v>       0.25000000       0.12000000       0.05882353 </v>
   <v>       0.30555556       0.12000000       0.05882353 </v>
   <v>       0.36111111       0.12000000       0.05882353 </v>
   <v>       0.41666667       0.12000000       0.05882353 </v>
   <v>       0.47222222       0.12000000       0.05882353 </v>
   <v>       0.02777778       0.16000000       0.05882353 </v>
   <v>       0.08333333       0.16000000       0.05882353 </v>
   <v>       0.13888889       0.16000000       0.05882353 </v>
   <v>       0.19444444       0.16000000       0.05882353 </v>
   <v>       0.25000000       0.16000000       0.05882353 </v>
   <v>       0.30555556       0.16000000       0.05882353 </v>
   <v>       0.36111111       0.16000000       0.05882353 </v>
   <v>       0.41666667       0.16000000       0.05882353 </v>
   <v>       0.47222222       0.16000000       0.05882353 </v>
   <v>       0.02777778       0.20000000       0.05882353 </v>
   <v>       0.08333333       0.20000000       0.05882353 </v>
   <v>       0.13888889       0.20000000       0.05882353 </v>
   <v>       0.19444444       0.20000000       0.05882353 </v>
   <v>       0.25000000       0.20000000       0.05882353 </v>
   <v>       0.30555556       0.20000000       0.05882353 </v>
   <v>       0.36111111       0.20000000       0.05882353 </v>
   <v>       0.41666667       0.20000000       0.05882353 </v>
   <v>       0.47222222       0.20000000       0.05882353 </v>
   <v>       0.02777778       0.24000000       0.05882353 </v>
   <v>       0.08333333       0.24000000       0.05882353 </v>
   <v>       0.13888889       0.24000000       0.05882353 </v>
   <v>       0.19444444       0.24000000       0.05882353 </v>
   <v>       0.25000000       0.24000000       0.05882353 </v>
   <v>       0.30555556       0.24000000       0.05882353 </v>
   <v>       0.36111111       0.24000000       0.05882353 </v>
   <v>       0.41666667       0.24000000       0.05882353 </v>
   <v>       0.47222222       0.24000000       0.05882353 </v>
   <v>       0.02777778       0.28000000       0.05882353 </v>
   <v>       0.08333333       0.28000000       0.05882353 </v>
   <v>       0.13888889       0.28000000       0.05882353 </v>
   <v>       0.19444444       0.28000000       0.05882353 </v>
   <v>       0.25000000       0.28000000       0.05882353 </v>
   <v>       0.30555556       0.28000000       0.05882353 </v>
   <v>       0.36111111       0.28000000       0.05882353 </v>
   <v>       0.41666667       0.28000000       0.05882353 </v>
   <v>       0.47222222       0.28000000       0.05882353 </v>
   <v>       0.02777778       0.32000000       0.05882353 </v>
   <v>       0.08333333       0.32000000       0.05882353 </v>
   <v>       0.13888889       0.32000000       0.05882353 </v>
   <v>       0.19444444       0.32000000       0.05882353 </v>
   <v>       0.25000000       0.32000000       0.05882353 </v>
   <v>       0.30555556       0.32000000       0.05882353 </v>
   <v>       0.36111111       0.32000000       0.05882353 </v>
   <v>       0.41666667       0.32000000       0.05882353 </v>
   <v>       0.47222222       0.32000000       0.05882353 </v>
   <v>       0.02777778       0.36000000       0.05882353 </v>
   <v>       0.08333333       0.36000000       0.05882353 </v>
   <v>       0.13888889       0.36000000       0.05882353 </v>
   <v>       0.19444444       0.36000000       0.05882353 </v>
   <v>       0.25000000       0.36000000       0.05882353 </v>
   <v>       0.30555556       0.36000000       0.05882353 </v>
   <v>       0.36111111       0.36000000       0.05882353 </v>
   <v>       0.41666667       0.36000000       0.05882353 </v>
   <v>       0.47222222       0.36000000       0.05882353 </v>
   <v>       0.02777778       0.40000000       0.05882353 </v>
   <v>       0.08333333       0.40000000       0.05882353 </v>
   <v>       0.13888889       0.40000000       0.05882353 </v>
   <v>       0.19444444       0.40000000       0.05882353 </v>
   <v>       0.25000000       0.40000000       0.05882353 </v>
   <v>       0.30555556       0.40000000       0.05882353 </v>
   <v>       0.36111111       0.40000000       0.05882353 </v>
   <v>       0.41666667       0.40000000       0.05882353 </v>
   <v>       0.47222222       0.40000000       0.05882353 </v>
   <v>       0.02777778       0.44000000       0.05882353 </v>
   <v>       0.08333333       0.44000000       0.05882353 </v>
   <v>       0.13888889       0.44000000       0.05882353 </v>
   <v>       0.19444444       0.44000000       0.05882353 </v>
   <v>       0.25000000       0.44000000       0.05882353 </v>
   <v>       0.30555556       0.44000000       0.05882353 </v>
   <v>       0.36111111       0.44000000       0.05882353 </v>
   <v>       0.41666667       0.44000000       0.05882353 </v>
   <v>       0.47222222       0.44000000       0.05882353 </v>
   <v>       0.02777778       0.48000000       0.05882353 </v>
   <v>       0.08333333       0.48000000       0.05882353 </v>
   <v>       0.13888889       0.48000000       0.05882353 </v>
   <v>       0.19444444       0.48000000       0.05882353 </v>
   <v>       0.25000000       0.48000000       0.05882353 </v>
   <v>       0.30555556       0.48000000       0.05882353 </v>
   <v>       0.36111111       0.48000000       0.05882353 </v>
   <v>       0.41666667       0.48000000       0.05882353 </v>
   <v>       0.47222222       0.48000000       0.05882353 </v>
   <v>       0.02777778       0.00000000       0.11764706 </v>
   <v>       0.08333333       0.00000000       0.11764706 </v>
   <v>       0.13888889       0.00000000       0.11764706 </v>
   <v>       0.19444444       0.00000000       0.11764706 </v>
   <v>       0.25000000       0.00000000       0.11764706 </v>
   <v>       0.30555556       0.00000000       0.11764706 </v>
   <v>       0.36111111       0.00000000       0.11764706 </v>
   <v>       0.41666667       0.00000000       0.11764706 </v>
   <v>       0.47222222       0.00000000       0.11764706 </v>
   <v>       0.02777778       0.04000000       0.11764706 </v>
   <v>       0.08333333       0.04000000       0.11764706 </v>
   <v>       0.13888889       0.04000000       0.11764706 </v>
   <v>       0.19444444       0.04000000       0.11764706 </v>
   <v>       0.25000000       0.04000000       0.11764706 </v>
   <v>       0.30555556       0.04000000       0.11764706 </v>
   <v>       0.36111111       0.04000000       0.11764706 </v>
   <v>       0.41666667       0.04000000       0.11764706 </v>
   <v>       0.47222222       0.04000000       0.11764706 </v>
   <v>       0.02777778       0.08000000       0.11764706 </v>
   <v>       0.08333333       0.08000000       0.11764706 </v>
   <v>       0.13888889       0.08000000       0.11764706 </v>
   <v>       0.19444444       0.08000000       0.11764706 </v>
   <v>       0.25000000       0.08000000       0.11764706 </v>
   <v>       0.30555556       0.08000000       0.11764706 </v>
   <v>       0.36111111       0.08000000       0.11764706 </v>
   <v>       0.41666667       0.08000000       0.11764706 </v>
   <v>       0.47222222       0.08000000       0.11764706 </v>
   <v>       0.02777778       0.12000000       0.11764706 </v>
   <v>       0.08333333       0.12000000       0.11764706 </v>
   <v>       0.13888889       0.12000000       0.11764706 </v>
   <v>       0.19444444       0.12000000       0.11764706 </v>
   <v>       0.25000000       0.12000000       0.11764706 </v>
   <v>       0.30555556       0.12000000       0.11764706 </v>
   <v>       0.36111111       0.12000000       0.11764706 </v>
   <v>       0.41666667       0.12000000       0.11764706 </v>
   <v>       0.47222222       0.12000000       0.11764706 </v>
   <v>       0.02777778       0.16000000       0.11764706 </v>
   <v>       0.08333333       0.16000000       0.11764706 </v>
   <v>       0.13888889       0.16000000       0.11764706 </v>
   <v>       0.19444444       0.16000000       0.11764706 </v>
   <v>       0.25000000       0.16000000       0.11764706 </v>
   <v>       0.30555556       0.16000000       0.11764706 </v>
   <v>       0.36111111       0.16000000       0.11764706 </v>
   <v>       0.41666667       0.16000000       0.11764706 </v>
   <v>       0.47222222       0.16000000       0.11764706 </v>
   <v>       0.02777778       0.20000000       0.11764706 </v>
   <v>       0.08333333       0.20000000       0.11764706 </v>
   <v>       0.13888889       0.20000000       0.11764706 </v>
   <v>       0.19444444       0.20000000       0.11764706 </v>
   <v>       0.25000000       0.20000000       0.11764706 </v>
   <v>       0.30555556       0.20000000       0.11764706 </v>
   <v>       0.36111111       0.20000000       0.11764706 </v>
   <v>       0.41666667       0.20000000       0.11764706 </v>
   <v>       0.47222222       0.20000000       0.11764706 </v>
   <v>       0.02777778       0.24000000       0.11764706 </v>
   <v>       0.08333333       0.24000000       0.11764706 </v>
   <v>       0.13888889       0.24000000       0.11764706 </v>
   <v>       0.19444444       0.24000000       0.11764706 </v>
   <v>       0.25000000       0.24000000       0.11764706 </v>
   <v>       0.30555556       0.24000000       0.11764706 </v>
   <v>       0.36111111       0.24000000       0.11764706 </v>
   <v>       0.41666667       0.24000000       0.11764706 </v>
   <v>       0.47222222       0.24000000       0.11764706 </v>
   <v>       0.02777778       0.28000000       0.11764706 </v>
   <v>       0.08333333       0.28000000       0.11764706 </v>
   <v>       0.13888889       0.28000000       0.11764706 </v>
   <v>       0.19444444       0.28000000       0.11764706 </v>
   <v>       0.25000000       0.28000000       0.11764706 </v>
   <v>       0.30555556       0.28000000       0.11764706 </v>
   <v>       0.36111111       0.28000000       0.11764706 </v>
   <v>       0.41666667       0.28000000       0.11764706 </v>
   <v>       0.47222222       0.28000000       0.11764706 </v>
   <v>       0.02777778       0.32000000       0.11764706 </v>
   <v>       0.08333333       0.32000000       0.11764706 </v>
   <v>       0.13888889       0.32000000       0.11764706 </v>
   <v>       0.19444444       0.32000000       0.11764706 </v>
   <v>       0.25000000       0.32000000       0.11764706 </v>
   <v>       0.30555556       0.32000000       0.11764706 </v>
   <v>       0.36111111       0.32000000       0.11764706 </v>
   <v>       0.41666667       0.32000000       0.11764706 </v>
   <v>       0.47222222       0.32000000       0.11764706 </v>
   <v>       0.02777778       0.36000000       0.11764706 </v>
   <v>       0.08333333       0.36000000       0.11764706 </v>
   <v>       0.13888889       0.36000000       0.11764706 </v>
   <v>       0.19444444       0.36000000       0.11764706 </v>
   <v>       0.25000000       0.36000000       0.11764706 </v>
   <v>       0.30555556       0.36000000       0.11764706 </v>
   <v>       0.36111111       0.36000000       0.11764706 </v>
   <v>       0.41666667       0.36000000       0.11764706 </v>
   <v>       0.47222222       0.36000000       0.11764706 </v>
   <v>       0.02777778       0.40000000       0.11764706 </v>
   <v>       0.08333333       0.40000000       0.11764706 </v>
   <v>       0.13888889       0.40000000       0.11764706 </v>
   <v>       0.19444444       0.40000000       0.11764706 </v>
   <v>       0.25000000       0.40000000       0.11764706 </v>
   <v>       0.30555556       0.40000000       0.11764706 </v>
   <v>       0.36111111       0.40000000       0.11764706 </v>
   <v>       0.41666667       0.40000000       0.11764706 </v>
   <v>       0.47222222       0.40000000       0.11764706 </v>
   <v>       0.02777778       0.44000000       0.11764706 </v>
   <v>       0.08333333       0.44000000       0.11764706 </v>
   <v>       0.13888889       0.44000000       0.11764706 </v>
   <v>       0.19444444       0.44000000       0.11764706 </v>
   <v>       0.25000000       0.44000000       0.11764706 </v>
   <v>       0.30555556       0.44000000       0.11764706 </v>
   <v>       0.36111111       0.44000000       0.11764706 </v>
   <v>       0.41666667       0.44000000       0.11764706 </v>
   <v>       0.47222222       0.44000000       0.11764706 </v>
   <v>       0.02777778       0.48000000       0.11764706 </v>
   <v>       0.08333333       0.48000000       0.11764706 </v>
   <v>       0.13888889       0.48000000       0.11764706 </v>
   <v>       0.19444444       0.48000000       0.11764706 </v>
   <v>       0.25000000       0.48000000       0.11764706 </v>
   <v>       0.30555556       0.48000000       0.11764706 </v>
   <v>       0.36111111       0.48000000       0.11764706 </v>
   <v>       0.41666667       0.48000000       0.11764706 </v>
   <v>       0.47222222       0.48000000       0.11764706 </v>
   <v>       0.02777778       0.00000000       0.17647059 </v>
   <v>       0.08333333       0.00000000       0.17647059 </v>
   <v>       0.13888889       0.00000000       0.17647059 </v>
   <v>       0.19444444       0.00000000       0.17647059 </v>
   <v>       0.25000000       0.00000000       0.17647059 </v>
   <v>       0.30555556       0.00000000       0.17647059 </v>
   <v>       0.36111111       0.00000000       0.17647059 </v>
   <v>       0.41666667       0.00000000       0.17647059 </v>
   <v>       0.47222222       0.00000000       0.17647059 </v>
   <v>       0.02777778       0.04000000       0.17647059 </v>
   <v>       0.08333333       0.04000000       0.17647059 </v>
   <v>       0.13888889       0.04000000       0.17647059 </v>
   <v>       0.19444444       0.04000000       0.17647059 </v>
   <v>       0.25000000       0.04000000       0.17647059 </v>
   <v>       0.30555556       0.04000000       0.17647059 </v>
   <v>       0.36111111       0.04000000       0.17647059 </v>
   <v>       0.41666667       0.04000000       0.17647059 </v>
   <v>       0.47222222       0.04000000       0.17647059 </v>
   <v>       0.02777778       0.08000000       0.17647059 </v>
   <v>       0.08333333       0.08000000       0.17647059 </v>
   <v>       0.13888889       0.08000000       0.17647059 </v>
   <v>       0.19444444       0.08000000       0.17647059 </v>
   <v>       0.25000000       0.08000000       0.17647059 </v>
   <v>       0.30555556       0.08000000       0.17647059 </v>
   <v>       0.36111111       0.08000000       0.17647059 </v>
   <v>       0.41666667       0.08000000       0.17647059 </v>
   <v>       0.47222222       0.08000000       0.17647059 </v>
   <v>       0.02777778       0.12000000       0.17647059 </v>
   <v>       0.08333333       0.12000000       0.17647059 </v>
   <v>       0.13888889       0.12000000       0.17647059 </v>
   <v>       0.19444444       0.12000000       0.17647059 </v>
   <v>       0.25000000       0.12000000       0.17647059 </v>
   <v>       0.30555556       0.12000000       0.17647059 </v>
   <v>       0.36111111       0.12000000       0.17647059 </v>
   <v>       0.41666667       0.12000000       0.17647059 </v>
   <v>       0.47222222       0.12000000       0.17647059 </v>
   <v>       0.02777778       0.16000000       0.17647059 </v>
   <v>       0.08333333       0.16000000       0.17647059 </v>
   <v>       0.13888889       0.16000000       0.17647059 </v>
   <v>       0.19444444       0.16000000       0.17647059 </v>
   <v>       0.25000000       0.16000000       0.17647059 </v>
   <v>       0.30555556       0.16000000       0.17647059 </v>
   <v>       0.36111111       0.16000000       0.17647059 </v>
   <v>       0.41666667       0.16000000       0.17647059 </v>
   <v>       0.47222222       0.16000000       0.17647059 </v>
   <v>       0.02777778       0.20000000       0.17647059 </v>
   <v>       0.08333333       0.20000000       0.17647059 </v>
   <v>       0.13888889       0.20000000       0.17647059 </v>
   <v>       0.19444444       0.20000000       0.17647059 </v>
   <v>       0.25000000       0.20000000       0.17647059 </v>
   <v>       0.30555556       0.20000000       0.17647059 </v>
   <v>       0.36111111       0.20000000       0.17647059 </v>
   <v>       0.41666667       0.20000000       0.17647059 </v>
   <v>       0.47222222       0.20000000       0.17647059 </v>
   <v>       0.02777778       0.24000000       0.17647059 </v>
   <v>       0.08333333       0.24000000       0.17647059 </v>
   <v>       0.13888889       0.24000000       0.17647059 </v>
   <v>       0.19444444       0.24000000       0.17647059 </v>
   <v>       0.25000000       0.24000000       0.17647059 </v>
   <v>       0.30555556       0.24000000       0.17647059 </v>
   <v>       0.36111111       0.24000000       0.17647059 </v>
   <v>       0.41666667       0.24000000       0.17647059 </v>
   <v>       0.47222222       0.24000000       0.17647059 </v>
   <v>       0.02777778       0.28000000       0.17647059 </v>
   <v>       0.08333333       0.28000000       0.17647059 </v>
   <v>       0.13888889       0.28000000       0.17647059 </v>
   <v>       0.19444444       0.28000000       0.17647059 </v>
   <v>       0.25000000       0.28000000       0.17647059 </v>
   <v>       0.30555556       0.28000000       0.17647059 </v>
   <v>       0.36111111       0.28000000       0.17647059 </v>
   <v>       0.41666667       0.28000000       0.17647059 </v>
   <v>       0.47222222       0.28000000       0.17647059 </v>
   <v>       0.02777778       0.32000000       0.17647059 </v>
   <v>       0.08333333       0.32000000       0.17647059 </v>
   <v>       0.13888889       0.32000000       0.17647059 </v>
   <v>       0.19444444       0.32000000       0.17647059 </v>
   <v>       0.25000000       0.32000000       0.17647059 </v>
   <v>       0.30555556       0.32000000       0.17647059 </v>
   <v>       0.36111111       0.32000000       0.17647059 </v>
   <v>       0.41666667       0.32000000       0.17647059 </v>
   <v>       0.47222222       0.32000000       0.17647059 </v>
   <v>       0.02777778       0.36000000       0.17647059 </v>
   <v>       0.08333333       0.36000000       0.17647059 </v>
   <v>       0.13888889       0.36000000       0.17647059 </v>
   <v>       0.19444444       0.36000000       0.17647059 </v>
   <v>       0.25000000       0.36000000       0.17647059 </v>
   <v>       0.30555556       0.36000000       0.17647059 </v>
   <v>       0.36111111       0.36000000       0.17647059 </v>
   <v>       0.41666667       0.36000000       0.17647059 </v>
   <v>       0.47222222       0.36000000       0.17647059 </v>
   <v>       0.02777778       0.40000000       0.17647059 </v>
   <v>       0.08333333       0.40000000       0.17647059 </v>
   <v>       0.13888889       0.40000000       0.17647059 </v>
   <v>       0.19444444       0.40000000       0.17647059 </v>
   <v>       0.25000000       0.40000000       0.17647059 </v>
   <v>       0.30555556       0.40000000       0.17647059 </v>
   <v>       0.36111111       0.40000000       0.17647059 </v>
   <v>       0.41666667       0.40000000       0.17647059 </v>
   <v>       0.47222222       0.40000000       0.17647059 </v>
   <v>       0.02777778       0.44000000       0.17647059 </v>
   <v>       0.08333333       0.44000000       0.17647059 </v>
   <v>       0.13888889       0.44000000       0.17647059 </v>
   <v>       0.19444444       0.44000000       0.17647059 </v>
   <v>       0.25000000       0.44000000       0.17647059 </v>
   <v>       0.30555556       0.44000000       0.17647059 </v>
   <v>       0.36111111       0.44000000       0.17647059 </v>
   <v>       0.41666667       0.44000000       0.17647059 </v>
   <v>       0.47222222       0.44000000       0.17647059 </v>
   <v>       0.02777778       0.48000000       0.17647059 </v>
   <v>       0.08333333       0.48000000       0.17647059 </v>
   <v>       0.13888889       0.48000000       0.17647059 </v>
   <v>       0.19444444       0.48000000       0.17647059 </v>
   <v>       0.25000000       0.48000000       0.17647059 </v>
   <v>       0.30555556       0.48000000       0.17647059 </v>
   <v>       0.36111111       0.48000000       0.17647059 </v>
   <v>       0.41666667       0.48000000       0.17647059 </v>
   <v>       0.47222222       0.48000000       0.17647059 </v>
   <v>       0.02777778       0.00000000       0.23529412 </v>
   <v>       0.08333333       0.00000000       0.23529412 </v>
   <v>       0.13888889       0.00000000       0.23529412 </v>
   <v>       0.19444444       0.00000000       0.23529412 </v>
   <v>       0.25000000       0.00000000       0.23529412 </v>
   <v>       0.30555556       0.00000000       0.23529412 </v>
   <v>       0.36111111       0.00000000       0.23529412 </v>
   <v>       0.41666667       0.00000000       0.23529412 </v>
   <v>       0.47222222       0.00000000       0.23529412 </v>
   <v>       0.02777778       0.04000000       0.23529412 </v>
   <v>       0.08333333       0.04000000       0.23529412 </v>
   <v>       0.13888889       0.04000000       0.23529412 </v>
   <v>       0.19444444       0.04000000       0.23529412 </v>
   <v>       0.25000000       0.04000000       0.23529412 </v>
   <v>       0.30555556       0.04000000       0.23529412 </v>
   <v>       0.36111111       0.04000000       0.23529412 </v>
   <v>       0.41666667       0.04000000       0.23529412 </v>
   <v>       0.47222222       0.04000000       0.23529412 </v>
   <v>       0.02777778       0.08000000       0.23529412 </v>
   <v>       0.08333333       0.08000000       0.23529412 </v>
   <v>       0.13888889       0.08000000       0.23529412 </v>
   <v>       0.19444444       0.08000000       0.23529412 </v>
   <v>       0.25000000       0.08000000       0.23529412 </v>
   <v>       0.30555556       0.08000000       0.23529412 </v>
   <v>       0.36111111       0.08000000       0.23529412 </v>
   <v>       0.41666667       0.08000000       0.23529412 </v>
   <v>       0.47222222       0.08000000       0.23529412 </v>
   <v>       0.02777778       0.12000000       0.23529412 </v>
   <v>       0.08333333       0.12000000       0.23529412 </v>
   <v>       0.13888889       0.12000000       0.23529412 </v>
   <v>       0.19444444       0.12000000       0.23529412 </v>
   <v>       0.25000000       0.12000000       0.23529412 </v>
   <v>       0.30555556       0.12000000       0.23529412 </v>
   <v>       0.36111111       0.12000000       0.23529412 </v>
   <v>       0.41666667       0.12000000       0.23529412 </v>
   <v>       0.47222222       0.12000000       0.23529412 </v>
   <v>       0.02777778       0.16000000       0.23529412 </v>
   <v>       0.08333333       0.16000000       0.23529412 </v>
   <v>       0.13888889       0.16000000       0.23529412 </v>
   <v>       0.19444444       0.16000000       0.23529412 </v>
   <v>       0.25000000       0.16000000       0.23529412 </v>
   <v>       0.30555556       0.16000000       0.23529412 </v>
   <v>       0.36111111       0.16000000       0.23529412 </v>
   <v>       0.41666667       0.16000000       0.23529412 </v>
   <v>       0.47222222       0.16000000       0.23529412 </v>
   <v>       0.02777778       0.20000000       0.23529412 </v>
   <v>       0.08333333       0.20000000       0.23529412 </v>
   <v>       0.13888889       0.20000000       0.23529412 </v>
   <v>       0.19444444       0.20000000       0.23529412 </v>
   <v>       0.25000000       0.20000000       0.23529412 </v>
   <v>       0.30555556       0.20000000       0.23529412 </v>
   <v>       0.36111111       0.20000000       0.23529412 </v>
   <v>       0.41666667       0.20000000       0.23529412 </v>
   <v>       0.47222222       0.20000000       0.23529412 </v>
   <v>       0.02777778       0.24000000       0.23529412 </v>
   <v>       0.08333333       0.24000000       0.23529412 </v>
   <v>       0.13888889       0.24000000       0.23529412 </v>
   <v>       0.19444444       0.24000000       0.23529412 </v>
   <v>       0.25000000       0.24000000       0.23529412 </v>
   <v>       0.30555556       0.24000000       0.23529412 </v>
   <v>       0.36111111       0.24000000       0.23529412 </v>
   <v>       0.41666667       0.24000000       0.23529412 </v>
   <v>       0.47222222       0.24000000       0.23529412 </v>
   <v>       0.02777778       0.28000000       0.23529412 </v>
   <v>       0.08333333       0.28000000       0.23529412 </v>
   <v>       0.13888889       0.28000000       0.23529412 </v>
   <v>       0.19444444       0.28000000       0.23529412 </v>
   <v>       0.25000000       0.28000000       0.23529412 </v>
   <v>       0.30555556       0.28000000       0.23529412 </v>
   <v>       0.36111111       0.28000000       0.23529412 </v>
   <v>       0.41666667       0.28000000       0.23529412 </v>
   <v>       0.47222222       0.28000000       0.23529412 </v>
   <v>       0.02777778       0.32000000       0.23529412 </v>
   <v>       0.08333333       0.32000000       0.23529412 </v>
   <v>       0.13888889       0.32000000       0.23529412 </v>
   <v>       0.19444444       0.32000000       0.23529412 </v>
   <v>       0.25000000       0.32000000       0.23529412 </v>
   <v>       0.30555556       0.32000000       0.23529412 </v>
   <v>       0.36111111       0.32000000       0.23529412 </v>
   <v>       0.41666667       0.32000000       0.23529412 </v>
   <v>       0.47222222       0.32000000       0.23529412 </v>
   <v>       0.02777778       0.36000000       0.23529412 </v>
   <v>       0.08333333       0.36000000       0.23529412 </v>
   <v>       0.13888889       0.36000000       0.23529412 </v>
   <v>       0.19444444       0.36000000       0.23529412 </v>
   <v>       0.25000000       0.36000000       0.23529412 </v>
   <v>       0.30555556       0.36000000       0.23529412 </v>
   <v>       0.36111111       0.36000000       0.23529412 </v>
   <v>       0.41666667       0.36000000       0.23529412 </v>
   <v>       0.47222222       0.36000000       0.23529412 </v>
   <v>       0.02777778       0.40000000       0.23529412 </v>
   <v>       0.08333333       0.40000000       0.23529412 </v>
   <v>       0.13888889       0.40000000       0.23529412 </v>
   <v>       0.19444444       0.40000000       0.23529412 </v>
   <v>       0.25000000       0.40000000       0.23529412 </v>
   <v>       0.30555556       0.40000000       0.23529412 </v>
   <v>       0.36111111       0.40000000       0.23529412 </v>
   <v>       0.41666667       0.40000000       0.23529412 </v>
   <v>       0.47222222       0.40000000       0.23529412 </v>
   <v>       0.02777778       0.44000000       0.23529412 </v>
   <v>       0.08333333       0.44000000       0.23529412 </v>
   <v>       0.13888889       0.44000000       0.23529412 </v>
   <v>       0.19444444       0.44000000       0.23529412 </v>
   <v>       0.25000000       0.44000000       0.23529412 </v>
   <v>       0.30555556       0.44000000       0.23529412 </v>
   <v>       0.36111111       0.44000000       0.23529412 </v>
   <v>       0.41666667       0.44000000       0.23529412 </v>
   <v>       0.47222222       0.44000000       0.23529412 </v>
   <v>       0.02777778       0.48000000       0.23529412 </v>
   <v>       0.08333333       0.48000000       0.23529412 </v>
   <v>       0.13888889       0.48000000       0.23529412 </v>
   <v>       0.19444444       0.48000000       0.23529412 </v>
   <v>       0.25000000       0.48000000       0.23529412 </v>
   <v>       0.30555556       0.48000000       0.23529412 </v>
   <v>       0.36111111       0.48000000       0.23529412 </v>
   <v>       0.41666667       0.48000000       0.23529412 </v>
   <v>       0.47222222       0.48000000       0.23529412 </v>
   <v>       0.02777778       0.00000000       0.29411765 </v>
   <v>       0.08333333       0.00000000       0.29411765 </v>
   <v>       0.13888889       0.00000000       0.29411765 </v>
   <v>       0.19444444       0.00000000       0.29411765 </v>
   <v>       0.25000000       0.00000000       0.29411765 </v>
   <v>       0.30555556       0.00000000       0.29411765 </v>
   <v>       0.36111111       0.00000000       0.29411765 </v>
   <v>       0.41666667       0.00000000       0.29411765 </v>
   <v>       0.47222222       0.00000000       0.29411765 </v>
   <v>       0.02777778       0.04000000       0.29411765 </v>
   <v>       0.08333333       0.04000000       0.29411765 </v>
   <v>       0.13888889       0.04000000       0.29411765 </v>
   <v>       0.19444444       0.04000000       0.29411765 </v>
   <v>       0.25000000       0.04000000       0.29411765 </v>
   <v>       0.30555556       0.04000000       0.29411765 </v>
   <v>       0.36111111       0.04000000       0.29411765 </v>
   <v>       0.41666667       0.04000000       0.29411765 </v>
   <v>       0.47222222       0.04000000       0.29411765 </v>
   <v>       0.02777778       0.08000000       0.29411765 </v>
   <v>       0.08333333       0.08000000       0.29411765 </v>
   <v>       0.13888889       0.08000000       0.29411765 </v>
   <v>       0.19444444       0.08000000       0.29411765 </v>
   <v>       0.25000000       0.08000000       0.29411765 </v>
   <v>       0.30555556       0.08000000       0.29411765 </v>
   <v>       0.36111111       0.08000000       0.29411765 </v>
   <v>       0.41666667       0.08000000       0.29411765 </v>
   <v>       0.47222222       0.08000000       0.29411765 </v>
   <v>       0.02777778       0.12000000       0.29411765 </v>
   <v>       0.08333333       0.12000000       0.29411765 </v>
   <v>       0.13888889       0.12000000       0.29411765 </v>
   <v>       0.19444444       0.12000000       0.29411765 </v>
   <v>       0.25000000       0.12000000       0.29411765 </v>
   <v>       0.30555556       0.12000000       0.29411765 </v>
   <v>       0.36111111       0.12000000       0.29411765 </v>
   <v>       0.41666667       0.12000000       0.29411765 </v>
   <v>       0.47222222       0.12000000       0.29411765 </v>
   <v>       0.02777778       0.16000000       0.29411765 </v>
   <v>       0.08333333       0.16000000       0.29411765 </v>
   <v>       0.13888889       0.16000000       0.29411765 </v>
   <v>       0.19444444       0.16000000       0.29411765 </v>
   <v>       0.25000000       0.16000000       0.29411765 </v>
   <v>       0.30555556       0.16000000       0.29411765 </v>
   <v>       0.36111111       0.16000000       0.29411765 </v>
   <v>       0.41666667       0.16000000       0.29411765 </v>
   <v>       0.47222222       0.16000000       0.29411765 </v>
   <v>       0.02777778       0.20000000       0.29411765 </v>
   <v>       0.08333333       0.20000000       0.29411765 </v>
   <v>       0.13888889       0.20000000       0.29411765 </v>
   <v>       0.19444444       0.20000000       0.29411765 </v>
   <v>       0.25000000       0.20000000       0.29411765 </v>
   <v>       0.30555556       0.20000000       0.29411765 </v>
   <v>       0.36111111       0.20000000       0.29411765 </v>
   <v>       0.41666667       0.20000000       0.29411765 </v>
   <v>       0.47222222       0.20000000       0.29411765 </v>
   <v>       0.02777778       0.24000000       0.29411765 </v>
   <v>       0.08333333       0.24000000       0.29411765 </v>
   <v>       0.13888889       0.24000000       0.29411765 </v>
   <v>       0.19444444       0.24000000       0.29411765 </v>
   <v>       0.25000000       0.24000000       0.29411765 </v>
   <v>       0.30555556       0.24000000       0.29411765 </v>
   <v>       0.36111111       0.24000000       0.29411765 </v>
   <v>       0.41666667       0.24000000       0.29411765 </v>
   <v>       0.47222222       0.24000000       0.29411765 </v>
   <v>       0.02777778       0.28000000       0.29411765 </v>
   <v>       0.08333333       0.28000000       0.29411765 </v>
   <v>       0.13888889       0.28000000       0.29411765 </v>
   <v>       0.19444444       0.28000000       0.29411765 </v>
   <v>       0.25000000       0.28000000       0.29411765 </v>
   <v>       0.30555556       0.28000000       0.29411765 </v>
   <v>       0.36111111       0.28000000       0.29411765 </v>
   <v>       0.41666667       0.28000000       0.29411765 </v>
   <v>       0.47222222       0.28000000       0.29411765 </v>
   <v>       0.02777778       0.32000000       0.29411765 </v>
   <v>       0.08333333       0.32000000       0.29411765 </v>
   <v>       0.13888889       0.32000000       0.29411765 </v>
   <v>       0.19444444       0.32000000       0.29411765 </v>
   <v>       0.25000000       0.32000000       0.29411765 </v>
   <v>       0.30555556       0.32000000       0.29411765 </v>
   <v>       0.36111111       0.32000000       0.29411765 </v>
   <v>       0.41666667       0.32000000       0.29411765 </v>
   <v>       0.47222222       0.32000000       0.29411765 </v>
   <v>       0.02777778       0.36000000       0.29411765 </v>
   <v>       0.08333333       0.36000000       0.29411765 </v>
   <v>       0.13888889       0.36000000       0.29411765 </v>
   <v>       0.19444444       0.36000000       0.29411765 </v>
   <v>       0.25000000       0.36000000       0.29411765 </v>
   <v>       0.30555556       0.36000000       0.29411765 </v>
   <v>       0.36111111       0.36000000       0.29411765 </v>
   <v>       0.41666667       0.36000000       0.29411765 </v>
   <v>       0.47222222       0.36000000       0.29411765 </v>
   <v>       0.02777778       0.40000000       0.29411765 </v>
   <v>       0.08333333       0.40000000       0.29411765 </v>
   <v>       0.13888889       0.40000000       0.29411765 </v>
   <v>       0.19444444       0.40000000       0.29411765 </v>
   <v>       0.25000000       0.40000000       0.29411765 </v>
   <v>       0.30555556       0.40000000       0.29411765 </v>
   <v>       0.36111111       0.40000000       0.29411765 </v>
   <v>       0.41666667       0.40000000       0.29411765 </v>
   <v>       0.47222222       0.40000000       0.29411765 </v>
   <v>       0.02777778       0.44000000       0.29411765 </v>
   <v>       0.08333333       0.44000000       0.29411765 </v>
   <v>       0.13888889       0.44000000       0.29411765 </v>
   <v>       0.19444444       0.44000000       0.29411765 </v>
   <v>       0.25000000       0.44000000       0.29411765 </v>
   <v>       0.30555556       0.44000000       0.29411765 </v>
   <v>       0.36111111       0.44000000       0.29411765 </v>
   <v>       0.41666667       0.44000000       0.29411765 </v>
   <v>       0.47222222       0.44000000       0.29411765 </v>
   <v>       0.02777778       0.48000000       0.29411765 </v>
   <v>       0.08333333       0.48000000       0.29411765 </v>
   <v>       0.13888889       0.48000000       0.29411765 </v>
   <v>       0.19444444       0.48000000       0.29411765 </v>
   <v>       0.25000000       0.48000000       0.29411765 </v>
   <v>       0.30555556       0.48000000       0.29411765 </v>
   <v>       0.36111111       0.48000000       0.29411765 </v>
   <v>       0.41666667       0.48000000       0.29411765 </v>
   <v>       0.47222222       0.48000000       0.29411765 </v>
   <v>       0.02777778       0.00000000       0.35294118 </v>
   <v>       0.08333333       0.00000000       0.35294118 </v>
   <v>       0.13888889       0.00000000       0.35294118 </v>
   <v>       0.19444444       0.00000000       0.35294118 </v>
   <v>       0.25000000       0.00000000       0.35294118 </v>
   <v>       0.30555556       0.00000000       0.35294118 </v>
   <v>       0.36111111       0.00000000       0.35294118 </v>
   <v>       0.41666667       0.00000000       0.35294118 </v>
   <v>       0.47222222       0.00000000       0.35294118 </v>
   <v>       0.02777778       0.04000000       0.35294118 </v>
   <v>       0.08333333       0.04000000       0.35294118 </v>
   <v>       0.13888889       0.04000000       0.35294118 </v>
   <v>       0.19444444       0.04000000       0.35294118 </v>
   <v>       0.25000000       0.04000000       0.35294118 </v>
   <v>       0.30555556       0.04000000       0.35294118 </v>
   <v>       0.36111111       0.04000000       0.35294118 </v>
   <v>       0.41666667       0.04000000       0.35294118 </v>
   <v>       0.47222222       0.04000000       0.35294118 </v>
   <v>       0.02777778       0.08000000       0.35294118 </v>
   <v>       0.08333333       0.08000000       0.35294118 </v>
   <v>       0.13888889       0.08000000       0.35294118 </v>
   <v>       0.19444444       0.08000000       0.35294118 </v>
   <v>       0.25000000       0.08000000       0.35294118 </v>
   <v>       0.30555556       0.08000000       0.35294118 </v>
   <v>       0.36111111       0.08000000       0.35294118 </v>
   <v>       0.41666667       0.08000000       0.35294118 </v>
   <v>       0.47222222       0.08000000       0.35294118 </v>
   <v>       0.02777778       0.12000000       0.35294118 </v>
   <v>       0.08333333       0.12000000       0.35294118 </v>
   <v>       0.13888889       0.12000000       0.35294118 </v>
   <v>       0.19444444       0.12000000       0.35294118 </v>
   <v>       0.25000000       0.12000000       0.35294118 </v>
   <v>       0.30555556       0.12000000       0.35294118 </v>
   <v>       0.36111111       0.12000000       0.35294118 </v>
   <v>       0.41666667       0.12000000       0.35294118 </v>
   <v>       0.47222222       0.12000000       0.35294118 </v>
   <v>       0.02777778       0.16000000       0.35294118 </v>
   <v>       0.08333333       0.16000000       0.35294118 </v>
   <v>       0.13888889       0.16000000       0.35294118 </v>
   <v>       0.19444444       0.16000000       0.35294118 </v>
   <v>       0.25000000       0.16000000       0.35294118 </v>
   <v>       0.30555556       0.16000000       0.35294118 </v>
   <v>       0.36111111       0.16000000       0.35294118 </v>
   <v>       0.41666667       0.16000000       0.35294118 </v>
   <v>       0.47222222       0.16000000       0.35294118 </v>
   <v>       0.02777778       0.20000000       0.35294118 </v>
   <v>       0.08333333       0.20000000       0.35294118 </v>
   <v>       0.13888889       0.20000000       0.35294118 </v>
   <v>       0.19444444       0.20000000       0.35294118 </v>
   <v>       0.25000000       0.20000000       0.35294118 </v>
   <v>       0.30555556       0.20000000       0.35294118 </v>
   <v>       0.36111111       0.20000000       0.35294118 </v>
   <v>       0.41666667       0.20000000       0.35294118 </v>
   <v>       0.47222222       0.20000000       0.35294118 </v>
   <v>       0.02777778       0.24000000       0.35294118 </v>
   <v>       0.08333333       0.24000000       0.35294118 </v>
   <v>       0.13888889       0.24000000       0.35294118 </v>
   <v>       0.19444444       0.24000000       0.35294118 </v>
   <v>       0.25000000       0.24000000       0.35294118 </v>
   <v>       0.30555556       0.24000000       0.35294118 </v>
   <v>       0.36111111       0.24000000       0.35294118 </v>
   <v>       0.41666667       0.24000000       0.35294118 </v>
   <v>       0.47222222       0.24000000       0.35294118 </v>
   <v>       0.02777778       0.28000000       0.35294118 </v>
   <v>       0.08333333       0.28000000       0.35294118 </v>
   <v>       0.13888889       0.28000000       0.35294118 </v>
   <v>       0.19444444       0.28000000       0.35294118 </v>
   <v>       0.25000000       0.28000000       0.35294118 </v>
   <v>       0.30555556       0.28000000       0.35294118 </v>
   <v>       0.36111111       0.28000000       0.35294118 </v>
   <v>       0.41666667       0.28000000       0.35294118 </v>
   <v>       0.47222222       0.28000000       0.35294118 </v>
   <v>       0.02777778       0.32000000       0.35294118 </v>
   <v>       0.08333333       0.32000000       0.35294118 </v>
   <v>       0.13888889       0.32000000       0.35294118 </v>
   <v>       0.19444444       0.32000000       0.35294118 </v>
   <v>       0.25000000       0.32000000       0.35294118 </v>
   <v>       0.30555556       0.32000000       0.35294118 </v>
   <v>       0.36111111       0.32000000       0.35294118 </v>
   <v>       0.41666667       0.32000000       0.35294118 </v>
   <v>       0.47222222       0.32000000       0.35294118 </v>
   <v>       0.02777778       0.36000000       0.35294118 </v>
   <v>       0.08333333       0.36000000       0.35294118 </v>
   <v>       0.13888889       0.36000000       0.35294118 </v>
   <v>       0.19444444       0.36000000       0.35294118 </v>
   <v>       0.25000000       0.36000000       0.35294118 </v>
   <v>       0.30555556       0.36000000       0.35294118 </v>
   <v>       0.36111111       0.36000000       0.35294118 </v>
   <v>       0.41666667       0.36000000       0.35294118 </v>
   <v>       0.47222222       0.36000000       0.35294118 </v>
   <v>       0.02777778       0.40000000       0.35294118 </v>
   <v>       0.08333333       0.40000000       0.35294118 </v>
   <v>       0.13888889       0.40000000       0.35294118 </v>
   <v>       0.19444444       0.40000000       0.35294118 </v>
   <v>       0.25000000       0.40000000       0.35294118 </v>
   <v>       0.30555556       0.40000000       0.35294118 </v>
   <v>       0.36111111       0.40000000       0.35294118 </v>
   <v>       0.41666667       0.40000000       0.35294118 </v>
   <v>       0.47222222       0.40000000       0.35294118 </v>
   <v>       0.02777778       0.44000000       0.35294118 </v>
   <v>       0.08333333       0.44000000       0.35294118 </v>
   <v>       0.13888889       0.44000000       0.35294118 </v>
   <v>       0.19444444       0.44000000       0.35294118 </v>
   <v>       0.25000000       0.44000000       0.35294118 </v>
   <v>       0.30555556       0.44000000       0.35294118 </v>
   <v>       0.36111111       0.44000000       0.35294118 </v>
   <v>       0.41666667       0.44000000       0.35294118 </v>
   <v>       0.47222222       0.44000000       0.35294118 </v>
   <v>       0.02777778       0.48000000       0.35294118 </v>
   <v>       0.08333333       0.48000000       0.35294118 </v>
   <v>       0.13888889       0.48000000       0.35294118 </v>
   <v>       0.19444444       0.48000000       0.35294118 </v>
   <v>       0.25000000       0.48000000       0.35294118 </v>
   <v>       0.30555556       0.48000000       0.35294118 </v>
   <v>       0.36111111       0.48000000       0.35294118 </v>
   <v>       0.41666667       0.48000000       0.35294118 </v>
   <v>       0.47222222       0.48000000       0.35294118 </v>
   <v>       0.02777778       0.00000000       0.41176471 </v>
   <v>       0.08333333       0.00000000       0.41176471 </v>
   <v>       0.13888889       0.00000000       0.41176471 </v>
   <v>       0.19444444       0.00000000       0.41176471 </v>
   <v>       0.25000000       0.00000000       0.41176471 </v>
   <v>       0.30555556       0.00000000       0.41176471 </v>
   <v>       0.36111111       0.00000000       0.41176471 </v>
   <v>       0.41666667       0.00000000       0.41176471 </v>
   <v>       0.47222222       0.00000000       0.41176471 </v>
   <v>       0.02777778       0.04000000       0.41176471 </v>
   <v>       0.08333333       0.04000000       0.41176471 </v>
   <v>       0.13888889       0.04000000       0.41176471 </v>
   <v>       0.19444444       0.04000000       0.41176471 </v>
   <v>       0.25000000       0.04000000       0.41176471 </v>
   <v>       0.30555556       0.04000000       0.41176471 </v>
   <v>       0.36111111       0.04000000       0.41176471 </v>
   <v>       0.41666667       0.04000000       0.41176471 </v>
   <v>       0.47222222       0.04000000       0.41176471 </v>
   <v>       0.02777778       0.08000000       0.41176471 </v>
   <v>       0.08333333       0.08000000       0.41176471 </v>
   <v>       0.13888889       0.08000000       0.41176471 </v>
   <v>       0.19444444       0.08000000       0.41176471 </v>
   <v>       0.25000000       0.08000000       0.41176471 </v>
   <v>       0.30555556       0.08000000       0.41176471 </v>
   <v>       0.36111111       0.08000000       0.41176471 </v>
   <v>       0.41666667       0.08000000       0.41176471 </v>
   <v>       0.47222222       0.08000000       0.41176471 </v>
   <v>       0.02777778       0.12000000       0.41176471 </v>
   <v>       0.08333333       0.12000000       0.41176471 </v>
   <v>       0.13888889       0.12000000       0.41176471 </v>
   <v>       0.19444444       0.12000000       0.41176471 </v>
   <v>       0.25000000       0.12000000       0.41176471 </v>
   <v>       0.30555556       0.12000000       0.41176471 </v>
   <v>       0.36111111       0.12000000       0.41176471 </v>
   <v>       0.41666667       0.12000000       0.41176471 </v>
   <v>       0.47222222       0.12000000       0.41176471 </v>
   <v>       0.02777778       0.16000000       0.41176471 </v>
   <v>       0.08333333       0.16000000       0.41176471 </v>
   <v>       0.13888889       0.16000000       0.41176471 </v>
   <v>       0.19444444       0.16000000       0.41176471 </v>
   <v>       0.25000000       0.16000000       0.41176471 </v>
   <v>       0.30555556       0.16000000       0.41176471 </v>
   <v>       0.36111111       0.16000000       0.41176471 </v>
   <v>       0.41666667       0.16000000       0.41176471 </v>
   <v>       0.47222222       0.16000000       0.41176471 </v>
   <v>       0.02777778       0.20000000       0.41176471 </v>
   <v>       0.08333333       0.20000000       0.41176471 </v>
   <v>       0.13888889       0.20000000       0.41176471 </v>
   <v>       0.19444444       0.20000000       0.41176471 </v>
   <v>       0.25000000       0.20000000       0.41176471 </v>
   <v>       0.30555556       0.20000000       0.41176471 </v>
   <v>       0.36111111       0.20000000       0.41176471 </v>
   <v>       0.41666667       0.20000000       0.41176471 </v>
   <v>       0.47222222       0.20000000       0.41176471 </v>
   <v>       0.02777778       0.24000000       0.41176471 </v>
   <v>       0.08333333       0.24000000       0.41176471 </v>
   <v>       0.13888889       0.24000000       0.41176471 </v>
   <v>       0.19444444       0.24000000       0.41176471 </v>
   <v>       0.25000000       0.24000000       0.41176471 </v>
   <v>       0.30555556       0.24000000       0.41176471 </v>
   <v>       0.36111111       0.24000000       0.41176471 </v>
   <v>       0.41666667       0.24000000       0.41176471 </v>
   <v>       0.47222222       0.24000000       0.41176471 </v>
   <v>       0.02777778       0.28000000       0.41176471 </v>
   <v>       0.08333333       0.28000000       0.41176471 </v>
   <v>       0.13888889       0.28000000       0.41176471 </v>
   <v>       0.19444444       0.28000000       0.41176471 </v>
   <v>       0.25000000       0.28000000       0.41176471 </v>
   <v>       0.30555556       0.28000000       0.41176471 </v>
   <v>       0.36111111       0.28000000       0.41176471 </v>
   <v>       0.41666667       0.28000000       0.41176471 </v>
   <v>       0.47222222       0.28000000       0.41176471 </v>
   <v>       0.02777778       0.32000000       0.41176471 </v>
   <v>       0.08333333       0.32000000       0.41176471 </v>
   <v>       0.13888889       0.32000000       0.41176471 </v>
   <v>       0.19444444       0.32000000       0.41176471 </v>
   <v>       0.25000000       0.32000000       0.41176471 </v>
   <v>       0.30555556       0.32000000       0.41176471 </v>
   <v>       0.36111111       0.32000000       0.41176471 </v>
   <v>       0.41666667       0.32000000       0.41176471 </v>
   <v>       0.47222222       0.32000000       0.41176471 </v>
   <v>       0.02777778       0.36000000       0.41176471 </v>
   <v>       0.08333333       0.36000000       0.41176471 </v>
   <v>       0.13888889       0.36000000       0.41176471 </v>
   <v>       0.19444444       0.36000000       0.41176471 </v>
   <v>       0.25000000       0.36000000       0.41176471 </v>
   <v>       0.30555556       0.36000000       0.41176471 </v>
   <v>       0.36111111       0.36000000       0.41176471 </v>
   <v>       0.41666667       0.36000000       0.41176471 </v>
   <v>       0.47222222       0.36000000       0.41176471 </v>
   <v>       0.02777778       0.40000000       0.41176471 </v>
   <v>       0.08333333       0.40000000       0.41176471 </v>
   <v>       0.13888889       0.40000000       0.41176471 </v>
   <v>       0.19444444       0.40000000       0.41176471 </v>
   <v>       0.25000000       0.40000000       0.41176471 </v>
   <v>       0.30555556       0.40000000       0.41176471 </v>
   <v>       0.36111111       0.40000000       0.41176471 </v>
   <v>       0.41666667       0.40000000       0.41176471 </v>
   <v>       0.47222222       0.40000000       0.41176471 </v>
   <v>       0.02777778       0.44000000       0.41176471 </v>
   <v>       0.08333333       0.44000000       0.41176471 </v>
   <v>       0.13888889       0.44000000       0.41176471 </v>
   <v>       0.19444444       0.44000000       0.41176471 </v>
   <v>       0.25000000       0.44000000       0.41176471 </v>
   <v>       0.30555556       0.44000000       0.41176471 </v>
   <v>       0.36111111       0.44000000       0.41176471 </v>
   <v>       0.41666667       0.44000000       0.41176471 </v>
   <v>       0.47222222       0.44000000       0.41176471 </v>
   <v>       0.02777778       0.48000000       0.41176471 </v>
   <v>       0.08333333       0.48000000       0.41176471 </v>
   <v>       0.13888889       0.48000000       0.41176471 </v>
   <v>       0.19444444       0.48000000       0.41176471 </v>
   <v>       0.25000000       0.48000000       0.41176471 </v>
   <v>       0.30555556       0.48000000       0.41176471 </v>
   <v>       0.36111111       0.48000000       0.41176471 </v>
   <v>       0.41666667       0.48000000       0.41176471 </v>
   <v>       0.47222222       0.48000000       0.41176471 </v>
   <v>       0.02777778       0.00000000       0.47058824 </v>
   <v>       0.08333333       0.00000000       0.47058824 </v>
   <v>       0.13888889       0.00000000       0.47058824 </v>
   <v>       0.19444444       0.00000000       0.47058824 </v>
   <v>       0.25000000       0.00000000       0.47058824 </v>
   <v>       0.30555556       0.00000000       0.47058824 </v>
   <v>       0.36111111       0.00000000       0.47058824 </v>
   <v>       0.41666667       0.00000000       0.47058824 </v>
   <v>       0.47222222       0.00000000       0.47058824 </v>
   <v>       0.02777778       0.04000000       0.47058824 </v>
   <v>       0.08333333       0.04000000       0.47058824 </v>
   <v>       0.13888889       0.04000000       0.47058824 </v>
   <v>       0.19444444       0.04000000       0.47058824 </v>
   <v>       0.25000000       0.04000000       0.47058824 </v>
   <v>       0.30555556       0.04000000       0.47058824 </v>
   <v>       0.36111111       0.04000000       0.47058824 </v>
   <v>       0.41666667       0.04000000       0.47058824 </v>
   <v>       0.47222222       0.04000000       0.47058824 </v>
   <v>       0.02777778       0.08000000       0.47058824 </v>
   <v>       0.08333333       0.08000000       0.47058824 </v>
   <v>       0.13888889       0.08000000       0.47058824 </v>
   <v>       0.19444444       0.08000000       0.47058824 </v>
   <v>       0.25000000       0.08000000       0.47058824 </v>
   <v>       0.30555556       0.08000000       0.47058824 </v>
   <v>       0.36111111       0.08000000       0.47058824 </v>
   <v>       0.41666667       0.08000000       0.47058824 </v>
   <v>       0.47222222       0.08000000       0.47058824 </v>
   <v>       0.02777778       0.12000000       0.47058824 </v>
   <v>       0.08333333       0.12000000       0.47058824 </v>
   <v>       0.13888889       0.12000000       0.47058824 </v>
   <v>       0.19444444       0.12000000       0.47058824 </v>
   <v>       0.25000000       0.12000000       0.47058824 </v>
   <v>       0.30555556       0.12000000       0.47058824 </v>
   <v>       0.36111111       0.12000000       0.47058824 </v>
   <v>       0.41666667       0.12000000       0.47058824 </v>
   <v>       0.47222222       0.12000000       0.47058824 </v>
   <v>       0.02777778       0.16000000       0.47058824 </v>
   <v>       0.08333333       0.16000000       0.47058824 </v>
   <v>       0.13888889       0.16000000       0.47058824 </v>
   <v>       0.19444444       0.16000000       0.47058824 </v>
   <v>       0.25000000       0.16000000       0.47058824 </v>
   <v>       0.30555556       0.16000000       0.47058824 </v>
   <v>       0.36111111       0.16000000       0.47058824 </v>
   <v>       0.41666667       0.16000000       0.47058824 </v>
   <v>       0.47222222       0.16000000       0.47058824 </v>
   <v>       0.02777778       0.20000000       0.47058824 </v>
   <v>       0.08333333       0.20000000       0.47058824 </v>
   <v>       0.13888889       0.20000000       0.47058824 </v>
   <v>       0.19444444       0.20000000       0.47058824 </v>
   <v>       0.25000000       0.20000000       0.47058824 </v>
   <v>       0.30555556       0.20000000       0.47058824 </v>
   <v>       0.36111111       0.20000000       0.47058824 </v>
   <v>       0.41666667       0.20000000       0.47058824 </v>
   <v>       0.47222222       0.20000000       0.47058824 </v>
   <v>       0.02777778       0.24000000       0.47058824 </v>
   <v>       0.08333333       0.24000000       0.47058824 </v>
   <v>       0.13888889       0.24000000       0.47058824 </v>
   <v>       0.19444444       0.24000000       0.47058824 </v>
   <v>       0.25000000       0.24000000       0.47058824 </v>
   <v>       0.30555556       0.24000000       0.47058824 </v>
   <v>       0.36111111       0.24000000       0.47058824 </v>
   <v>       0.41666667       0.24000000       0.47058824 </v>
   <v>       0.47222222       0.24000000       0.47058824 </v>
   <v>       0.02777778       0.28000000       0.47058824 </v>
   <v>       0.08333333       0.28000000       0.47058824 </v>
   <v>       0.13888889       0.28000000       0.47058824 </v>
   <v>       0.19444444       0.28000000       0.47058824 </v>
   <v>       0.25000000       0.28000000       0.47058824 </v>
   <v>       0.30555556       0.28000000       0.47058824 </v>
   <v>       0.36111111       0.28000000       0.47058824 </v>
   <v>       0.41666667       0.28000000       0.47058824 </v>
   <v>       0.47222222       0.28000000       0.47058824 </v>
   <v>       0.02777778       0.32000000       0.47058824 </v>
   <v>       0.08333333       0.32000000       0.47058824 </v>
   <v>       0.13888889       0.32000000       0.47058824 </v>
   <v>       0.19444444       0.32000000       0.47058824 </v>
   <v>       0.25000000       0.32000000       0.47058824 </v>
   <v>       0.30555556       0.32000000       0.47058824 </v>
   <v>       0.36111111       0.32000000       0.47058824 </v>
   <v>       0.41666667       0.32000000       0.47058824 </v>
   <v>       0.47222222       0.32000000       0.47058824 </v>
   <v>       0.02777778       0.36000000       0.47058824 </v>
   <v>       0.08333333       0.36000000       0.47058824 </v>
   <v>       0.13888889       0.36000000       0.47058824 </v>
   <v>       0.19444444       0.36000000       0.47058824 </v>
   <v>       0.25000000       0.36000000       0.47058824 </v>
   <v>       0.30555556       0.36000000       0.47058824 </v>
   <v>       0.36111111       0.36000000       0.47058824 </v>
   <v>       0.41666667       0.36000000       0.47058824 </v>
   <v>       0.47222222       0.36000000       0.47058824 </v>
   <v>       0.02777778       0.40000000       0.47058824 </v>
   <v>       0.08333333       0.40000000       0.47058824 </v>
   <v>       0.13888889       0.40000000       0.47058824 </v>
   <v>       0.19444444       0.40000000       0.47058824 </v>
   <v>       0.25000000       0.40000000       0.47058824 </v>
   <v>       0.30555556       0.40000000       0.47058824 </v>
   <v>       0.36111111       0.40000000       0.47058824 </v>
   <v>       0.41666667       0.40000000       0.47058824 </v>
   <v>       0.47222222       0.40000000       0.47058824 </v>
   <v>       0.02777778       0.44000000       0.47058824 </v>
   <v>       0.08333333       0.44000000       0.47058824 </v>
   <v>       0.13888889       0.44000000       0.47058824 </v>
   <v>       0.19444444       0.44000000       0.47058824 </v>
   <v>       0.25000000       0.44000000       0.47058824 </v>
   <v>       0.30555556       0.44000000       0.47058824 </v>
   <v>       0.36111111       0.44000000       0.47058824 </v>
   <v>       0.41666667       0.44000000       0.47058824 </v>
   <v>       0.47222222       0.44000000       0.47058824 </v>
   <v>       0.02777778       0.48000000       0.47058824 </v>
   <v>       0.08333333       0.48000000       0.47058824 </v>
   <v>       0.13888889       0.48000000       0.47058824 </v>
   <v>       0.19444444       0.48000000       0.47058824 </v>
   <v>       0.25000000       0.48000000       0.47058824 </v>
   <v>       0.30555556       0.48000000       0.47058824 </v>
   <v>       0.36111111       0.48000000       0.47058824 </v>
   <v>       0.41666667       0.48000000       0.47058824 </v>
   <v>       0.47222222       0.48000000       0.47058824 </v>
  </varray>
  <varray name="weights" >
   <v>       0.00026144 </v>
   <v>       0.00026144 </v>
   <v>       0.00026144 </v>
   <v>       0.00026144 </v>
   <v>       0.00026144 </v>
   <v>       0.00026144 </v>
   <v>       0.00026144 </v>
   <v>       0.00026144 </v>
   <v>       0.00026144 </v>
   <v>       0.00052288 </v>
   <v>       0.00052288 </v>
   <v>       0.00052288 </v>
   <v>       0.00052288 </v>
   <v>       0.00052288 </v>
   <v>       0.00052288 </v>
   <v>       0.00052288 </v>
   <v>       0.00052288 </v>
   <v>       0.00052288 </v>
   <v>       0.00052288 </v>
   <v>       0.00052288 </v>
   <v>       0.00052288 </v>
   <v>       0.00052288 </v>
   <v>       0.00052288 </v>
   <v>       0.00052288 </v>
   <v>       0.00052288 </v>
   <v>       0.00052288 </v>
   <v>       0.00052288 </v>
   <v>       0.00052288 </v>
   <v>       0.00052288 </v>
   <v>       0.00052288 </v>
   <v>       0.00052288 </v>
   <v>       0.00052288 </v>
   <v>       0.00052288 </v>
   <v>       0.00052288 </v>
   <v>       0.00052288 </v>
   <v>       0.00052288 </v>
   <v>       0.00052288 </v>
   <v>       0.00052288 </v>
   <v>       0.00052288 </v>
   <v>       0.00052288 </v>
   <v>       0.00052288 </v>
   <v>       0.00052288 </v>
   <v>       0.00052288 </v>
   <v>       0.00052288 </v>
   <v>       0.00052288 </v>
   <v>       0.00052288 </v>
   <v>       0.00052288 </v>
   <v>       0.00052288 </v>
   <v>       0.00052288 </v>
   <v>       0.00052288 </v>
   <v>       0.00052288 </v>
   <v>       0.00052288 </v>
   <v>       0.00052288 </v>
   <v>       0.00052288 </v>
   <v>       0.00052288 </v>
   <v>       0.00052288 </v>
   <v>       0.00052288 </v>
   <v>       0.00052288 </v>
   <v>       0.00052288 </v>
   <v>       0.00052288 </v>
   <v>       0.00052288 </v>
   <v>       0.00052288 </v>
   <v>       0.00052288 </v>
   <v>       0.00052288 </v>
   <v>       0.00052288 </v>
   <v>       0.00052288 </v>
   <v>       0.00052288 </v>
   <v>       0.00052288 </v>
   <v>       0.00052288 </v>
   <v>       0.00052288 </v>
   <v>       0.00052288 </v>
   <v>       0.00052288 </v>
   <v>       0.00052288 </v>
   <v>       0.00052288 </v>
   <v>       0.00052288 </v>
   <v>       0.00052288 </v>
   <v>       0.00052288 </v>
   <v>       0.00052288 </v>
   <v>       0.00052288 </v>
   <v>       0.00052288 </v>
   <v>       0.00052288 </v>
   <v>       0.00052288 </v>
   <v>       0.00052288 </v>
   <v>       0.00052288 </v>
   <v>       0.00052288 </v>
   <v>       0.00052288 </v>
   <v>       0.00052288 </v>
   <v>       0.00052288 </v>
   <v>       0.00052288 </v>
   <v>       0.00052288 </v>
   <v>       0.00052288 </v>
   <v>       0.00052288 </v>
   <v>       0.00052288 </v>
   <v>       0.00052288 </v>
   <v>       0.00052288 </v>
   <v>       0.00052288 </v>
   <v>       0.00052288 </v>
   <v>       0.00052288 </v>
   <v>       0.00052288 </v>
   <v>       0.00052288 </v>
   <v>       0.00052288 </v>
   <v>       0.00052288 </v>
   <v>       0.00052288 </v>
   <v>       0.00052288 </v>
   <v>       0.00052288 </v>
   <v>       0.00052288 </v>
   <v>       0.00052288 </v>
   <v>       0.00052288 </v>
   <v>       0.00052288 </v>
   <v>       0.00052288 </v>
   <v>       0.00052288 </v>
   <v>       0.00052288 </v>
   <v>       0.00052288 </v>
   <v>       0.00052288 </v>
   <v>       0.00052288 </v>
   <v>       0.00052288 </v>
   <v>       0.00052288 </v>
   <v>       0.00052288 </v>
   <v>       0.00052288 </v>
   <v>       0.00052288 </v>
   <v>       0.00052288 </v>
   <v>       0.00052288 </v>
   <v>       0.00052288 </v>
   <v>       0.00052288 </v>
   <v>       0.00052288 </v>
   <v>       0.00052288 </v>
   <v>       0.00104575 </v>
   <v>       0.00104575 </v>
   <v>       0.00104575 </v>
   <v>       0.00104575 </v>
   <v>       0.00104575 </v>
   <v>       0.00104575 </v>
   <v>       0.00104575 </v>
   <v>       0.00104575 </v>
   <v>       0.00104575 </v>
   <v>       0.00104575 </v>
   <v>       0.00104575 </v>
   <v>       0.00104575 </v>
   <v>       0.00104575 </v>
   <v>       0.00104575 </v>
   <v>       0.00104575 </v>
   <v>       0.00104575 </v>
   <v>       0.00104575 </v>
   <v>       0.00104575 </v>
   <v>       0.00104575 </v>
   <v>       0.00104575 </v>
   <v>       0.00104575 </v>
   <v>       0.00104575 </v>
   <v>       0.00104575 </v>
   <v>       0.00104575 </v>
   <v>       0.00104575 </v>
   <v>       0.00104575 </v>
   <v>       0.00104575 </v>
   <v>       0.00104575 </v>
   <v>       0.00104575 </v>
   <v>       0.00104575 </v>
   <v>       0.00104575 </v>
   <v>       0.00104575 </v>
   <v>       0.00104575 </v>
   <v>       0.00104575 </v>
   <v>       0.00104575 </v>
   <v>       0.00104575 </v>
   <v>       0.00104575 </v>
   <v>       0.00104575 </v>
   <v>       0.00104575 </v>
   <v>       0.00104575 </v>
   <v>       0.00104575 </v>
   <v>       0.00104575 </v>
   <v>       0.00104575 </v>
   <v>       0.00104575 </v>
   <v>       0.00104575 </v>
   <v>       0.00104575 </v>
   <v>       0.00104575 </v>
   <v>       0.00104575 </v>
   <v>       0.00104575 </v>
   <v>       0.00104575 </v>
   <v>       0.00104575 </v>
   <v>       0.00104575 </v>
   <v>       0.00104575 </v>
   <v>       0.00104575 </v>
   <v>       0.00104575 </v>
   <v>       0.00104575 </v>
   <v>       0.00104575 </v>
   <v>       0.00104575 </v>
   <v>       0.00104575 </v>
   <v>       0.00104575 </v>
   <v>       0.00104575 </v>
   <v>       0.00104575 </v>
   <v>       0.00104575 </v>
   <v>       0.00104575 </v>
   <v>       0.00104575 </v>
   <v>       0.00104575 </v>
   <v>       0.00104575 </v>
   <v>       0.00104575 </v>
   <v>       0.00104575 </v>
   <v>       0.00104575 </v>
   <v>       0.00104575 </v>
   <v>       0.00104575 </v>
   <v>       0.00104575 </v>
   <v>       0.00104575 </v>
   <v>       0.00104575 </v>
   <v>       0.00104575 </v>
   <v>       0.00104575 </v>
   <v>       0.00104575 </v>
   <v>       0.00104575 </v>
   <v>       0.00104575 </v>
   <v>       0.00104575 </v>
   <v>       0.00104575 </v>
   <v>       0.00104575 </v>
   <v>       0.00104575 </v>
   <v>       0.00104575 </v>
   <v>       0.00104575 </v>
   <v>       0.00104575 </v>
   <v>       0.00104575 </v>
   <v>       0.00104575 </v>
   <v>       0.00104575 </v>
   <v>       0.00104575 </v>
   <v>       0.00104575 </v>
   <v>       0.00104575 </v>
   <v>       0.00104575 </v>
   <v>       0.00104575 </v>
   <v>       0.00104575 </v>
   <v>       0.00104575 </v>
   <v>       0.00104575 </v>
   <v>       0.00104575 </v>
   <v>       0.00104575 </v>
   <v>       0.00104575 </v>
   <v>       0.00104575 </v>
   <v>       0.00104575 </v>
   <v>       0.00104575 </v>
   <v>       0.00104575 </v>
   <v>       0.00104575 </v>
   <v>       0.00104575 </v>
   <v>       0.00104575 </v>
   <v>       0.00052288 </v>
   <v>       0.00052288 </v>
   <v>       0.00052288 </v>
   <v>       0.00052288 </v>
   <v>       0.00052288 </v>
   <v>       0.00052288 </v>
   <v>       0.00052288 </v>
   <v>       0.00052288 </v>
   <v>       0.00052288 </v>
   <v>       0.00104575 </v>
   <v>       0.00104575 </v>
   <v>       0.00104575 </v>
   <v>       0.00104575 </v>
   <v>       0.00104575 </v>
   <v>       0.00104575 </v>
   <v>       0.00104575 </v>
   <v>       0.00104575 </v>
   <v>       0.00104575 </v>
   <v>       0.00104575 </v>
   <v>       0.00104575 </v>
   <v>       0.00104575 </v>
   <v>       0.00104575 </v>
   <v>       0.00104575 </v>
   <v>       0.00104575 </v>
   <v>       0.00104575 </v>
   <v>       0.00104575 </v>
   <v>       0.00104575 </v>
   <v>       0.00104575 </v>
   <v>       0.00104575 </v>
   <v>       0.00104575 </v>
   <v>       0.00104575 </v>
   <v>       0.00104575 </v>
   <v>       0.00104575 </v>
   <v>       0.00104575 </v>
   <v>       0.00104575 </v>
   <v>       0.00104575 </v>
   <v>       0.00104575 </v>
   <v>       0.00104575 </v>
   <v>       0.00104575 </v>
   <v>       0.00104575 </v>
   <v>       0.00104575 </v>
   <v>       0.00104575 </v>
   <v>       0.00104575 </v>
   <v>       0.00104575 </v>
   <v>       0.00104575 </v>
   <v>       0.00104575 </v>
   <v>       0.00104575 </v>
   <v>       0.00104575 </v>
   <v>       0.00104575 </v>
   <v>       0.00104575 </v>
   <v>       0.00104575 </v>
   <v>       0.00104575 </v>
   <v>       0.00104575 </v>
   <v>       0.00104575 </v>
   <v>       0.00104575 </v>
   <v>       0.00104575 </v>
   <v>       0.00104575 </v>
   <v>       0.00104575 </v>
   <v>       0.00104575 </v>
   <v>       0.00104575 </v>
   <v>       0.00104575 </v>
   <v>       0.00104575 </v>
   <v>       0.00104575 </v>
   <v>       0.00104575 </v>
   <v>       0.00104575 </v>
   <v>       0.00104575 </v>
   <v>       0.00104575 </v>
   <v>       0.00104575 </v>
   <v>       0.00104575 </v>
   <v>       0.00104575 </v>
   <v>       0.00104575 </v>
   <v>       0.00104575 </v>
   <v>       0.00104575 </v>
   <v>       0.00104575 </v>
   <v>       0.00104575 </v>
   <v>       0.00104575 </v>
   <v>       0.00104575 </v>
   <v>       0.00104575 </v>
   <v>       0.00104575 </v>
   <v>       0.00104575 </v>
   <v>       0.00104575 </v>
   <v>       0.00104575 </v>
   <v>       0.00104575 </v>
   <v>       0.00104575 </v>
   <v>       0.00104575 </v>
   <v>       0.00104575 </v>
   <v>       0.00104575 </v>
   <v>       0.00104575 </v>
   <v>       0.00104575 </v>
   <v>       0.00104575 </v>
   <v>       0.00104575 </v>
   <v>       0.00104575 </v>
   <v>       0.00104575 </v>
   <v>       0.00104575 </v>
   <v>       0.00104575 </v>
   <v>       0.00104575 </v>
   <v>       0.00104575 </v>
   <v>       0.00104575 </v>
   <v>       0.00104575 </v>
   <v>       0.00104575 </v>
   <v>       0.00104575 </v>
   <v>       0.00104575 </v>
[...]
       <r>   -2.2094    1.0000 </r>
       <r>   -2.1416    1.0000 </r>
       <r>   -2.1210    1.0000 </r>
       <r>   -1.6776    1.0000 </r>
       <r>   -0.4052    1.0000 </r>
       <r>   -0.0255    1.0000 </r>
       <r>    0.3549    1.0000 </r>
       <r>    0.4430    1.0000 </r>
       <r>    0.5346    1.0000 </r>
       <r>    1.0826    1.0000 </r>
       <r>    1.6413    1.0000 </r>
       <r>    1.7840    0.9980 </r>
       <r>    5.7549    0.0000 </r>
       <r>    6.0912    0.0000 </r>
       <r>    6.7284    0.0000 </r>
       <r>    7.3847    0.0000 </r>
       <r>    7.6000    0.0000 </r>
       <r>    7.7281    0.0000 </r>
       <r>    9.3015    0.0000 </r>
       <r>    9.5954    0.0000 </r>
       <r>    9.7381    0.0000 </r>
       <r>    9.9370    0.0000 </r>
       <r>   10.5075    0.0000 </r>
       <r>   10.9488    0.0000 </r>
       <r>   11.1366    0.0000 </r>
       <r>   11.4640    0.0000 </r>
       <r>   11.5305    0.0000 </r>
       <r>   11.6620    0.0000 </r>
       <r>   13.0142    0.0000 </r>
       <r>   13.2258    0.0000 </r>
       <r>   13.5730    0.0000 </r>
       <r>   14.0885    0.0000 </r>
       <r>   14.2111    0.0000 </r>
       <r>   14.3889    0.0000 </r>
       <r>   14.4432    0.0000 </r>
       <r>   14.8221    0.0000 </r>
       <r>   15.0306    0.0000 </r>
       <r>   15.1614    0.0000 </r>
      </set>
      <set comment="kpoint 1053">
       <r>  -11.9873    1.0000 </r>
       <r>  -11.9103    1.0000 </r>
       <r>   -8.5295    1.0000 </r>
       <r>   -8.4670    1.0000 </r>
       <r>   -5.9135    1.0000 </r>
       <r>   -5.8558    1.0000 </r>
       <r>   -4.7033    1.0000 </r>
       <r>   -4.5501    1.0000 </r>
       <r>   -4.4044    1.0000 </r>
       <r>   -4.1772    1.0000 </r>
       <r>   -2.2116    1.0000 </r>
       <r>   -2.1817    1.0000 </r>
       <r>   -1.9966    1.0000 </r>
       <r>   -1.8398    1.0000 </r>
       <r>   -0.1296    1.0000 </r>
       <r>    0.0086    1.0000 </r>
       <r>    0.4369    1.0000 </r>
       <r>    0.4684    1.0000 </r>
       <r>    0.5778    1.0000 </r>
       <r>    0.7495    1.0000 </r>
       <r>    1.6633    1.0000 </r>
       <r>    1.7134    1.0000 </r>
       <r>    5.9016    0.0000 </r>
       <r>    6.0052    0.0000 </r>
       <r>    6.9724    0.0000 </r>
       <r>    7.3192    0.0000 </r>
       <r>    7.4525    0.0000 </r>
       <r>    7.5182    0.0000 </r>
       <r>    9.4998    0.0000 </r>
       <r>    9.6422    0.0000 </r>
       <r>    9.8746    0.0000 </r>
       <r>    9.9692    0.0000 </r>
       <r>   10.4907    0.0000 </r>
       <r>   10.6864    0.0000 </r>
       <r>   11.2810    0.0000 </r>
       <r>   11.4548    0.0000 </r>
       <r>   11.4872    0.0000 </r>
       <r>   11.5188    0.0000 </r>
       <r>   13.1272    0.0000 </r>
       <r>   13.1811    0.0000 </r>
       <r>   13.8970    0.0000 </r>
       <r>   14.1702    0.0000 </r>
       <r>   14.2448    0.0000 </r>
       <r>   14.2889    0.0000 </r>
       <r>   14.6784    0.0000 </r>
       <r>   14.7662    0.0000 </r>
       <r>   14.8309    0.0000 </r>
       <r>   14.9612    0.0000 </r>
      </set>
     </set>
    </set>
   </array>
  </eigenvalues>
  <separator name="orbital magnetization" >
   <v name="MAGDIPOLOUT">      0.00000000      0.00000000      0.00000000</v>
  </separator>
  <dos>
   <i name="efermi">      1.88563830 </i>
   <total>
    <array>
     <dimension dim="1">gridpoints</dimension>
     <dimension dim="2">spin</dimension>
     <field>energy</field>
     <field>total</field>
     <field>integrated</field>
     <set>
      <set comment="spin 1">
       <r>   -14.1976     0.0000     0.0000 </r>
       <r>   -14.0902     0.0000     0.0000 </r>
       <r>   -13.9827     0.0000     0.0000 </r>
       <r>   -13.8752     0.0000     0.0000 </r>
       <r>   -13.7677     0.0000     0.0000 </r>
       <r>   -13.6602     0.0000     0.0000 </r>
       <r>   -13.5528     0.0000     0.0000 </r>
       <r>   -13.4453     0.0000     0.0000 </r>
       <r>   -13.3378     0.0000     0.0000 </r>
       <r>   -13.2303     0.0000     0.0000 </r>
       <r>   -13.1228     0.0000     0.0000 </r>
       <r>   -13.0154     0.0000     0.0000 </r>
       <r>   -12.9079     0.0000     0.0000 </r>
       <r>   -12.8004     0.0022     0.0002 </r>
       <r>   -12.6929     0.4255     0.0460 </r>
       <r>   -12.5854     2.2782     0.2908 </r>
       <r>   -12.4780     3.5237     0.6696 </r>
       <r>   -12.3705     4.3429     1.1363 </r>
       <r>   -12.2630     3.5598     1.5189 </r>
       <r>   -12.1555     2.8683     1.8272 </r>
       <r>   -12.0480     2.6335     2.1103 </r>
       <r>   -11.9406     2.5882     2.3884 </r>
       <r>   -11.8331     2.7453     2.6835 </r>
       <r>   -11.7256     3.3291     3.0413 </r>
       <r>   -11.6181     3.6201     3.4304 </r>
       <r>   -11.5106     3.1177     3.7655 </r>
       <r>   -11.4032     1.7180     3.9501 </r>
       <r>   -11.2957     0.4550     3.9991 </r>
       <r>   -11.1882     0.0088     4.0000 </r>
       <r>   -11.0807     0.0000     4.0000 </r>
       <r>   -10.9733     0.0000     4.0000 </r>
       <r>   -10.8658     0.0000     4.0000 </r>
       <r>   -10.7583     0.0000     4.0000 </r>
       <r>   -10.6508     0.0000     4.0000 </r>
       <r>   -10.5433     0.0000     4.0000 </r>
       <r>   -10.4359     0.0000     4.0000 </r>
       <r>   -10.3284     0.0000     4.0000 </r>
       <r>   -10.2209     0.0000     4.0000 </r>
       <r>   -10.1134     0.0000     4.0000 </r>
       <r>   -10.0059     0.0000     4.0000 </r>
       <r>    -9.8985     0.0000     4.0000 </r>
       <r>    -9.7910     0.0000     4.0000 </r>
       <r>    -9.6835     0.0000     4.0000 </r>
       <r>    -9.5760     0.0000     4.0000 </r>
       <r>    -9.4685     0.0000     4.0000 </r>
       <r>    -9.3611     0.0000     4.0000 </r>
       <r>    -9.2536     0.0000     4.0000 </r>
       <r>    -9.1461     0.0000     4.0000 </r>
       <r>    -9.0386     0.0000     4.0000 </r>
       <r>    -8.9311     0.0007     4.0001 </r>
       <r>    -8.8237     0.2998     4.0323 </r>
       <r>    -8.7162     2.1608     4.2645 </r>
       <r>    -8.6087     5.4092     4.8459 </r>
       <r>    -8.5012     7.0098     5.5993 </r>
       <r>    -8.3938     6.2219     6.2681 </r>
       <r>    -8.2863     5.2971     6.8374 </r>
       <r>    -8.1788     4.8683     7.3606 </r>
       <r>    -8.0713     3.7388     7.7625 </r>
       <r>    -7.9638     1.6237     7.9370 </r>
       <r>    -7.8564     0.5451     7.9956 </r>
       <r>    -7.7489     0.0412     8.0000 </r>
       <r>    -7.6414     0.0000     8.0000 </r>
       <r>    -7.5339     0.0000     8.0000 </r>
       <r>    -7.4264     0.0000     8.0000 </r>
       <r>    -7.3190     0.0000     8.0000 </r>
       <r>    -7.2115     0.0000     8.0000 </r>
       <r>    -7.1040     0.0000     8.0000 </r>
       <r>    -6.9965     0.0039     8.0004 </r>
       <r>    -6.8890     0.1066     8.0119 </r>
       <r>    -6.7816     0.2963     8.0437 </r>
       <r>    -6.6741     0.4574     8.0929 </r>
       <r>    -6.5666     0.7237     8.1707 </r>
       <r>    -6.4591     0.8910     8.2664 </r>
       <r>    -6.3516     1.5017     8.4278 </r>
       <r>    -6.2442     2.0682     8.6501 </r>
       <r>    -6.1367     3.1206     8.9855 </r>
       <r>    -6.0292     3.8317     9.3973 </r>
       <r>    -5.9217     4.1058     9.8386 </r>
       <r>    -5.8142     3.9177    10.2597 </r>
       <r>    -5.7068     4.1556    10.7064 </r>
       <r>    -5.5993     4.0249    11.1390 </r>
       <r>    -5.4918     4.1225    11.5820 </r>
       <r>    -5.3843     4.4129    12.0563 </r>
       <r>    -5.2769     4.8465    12.5772 </r>
       <r>    -5.1694     4.3457    13.0443 </r>
       <r>    -5.0619     3.8865    13.4620 </r>
       <r>    -4.9544     3.3446    13.8215 </r>
       <r>    -4.8469     2.4559    14.0854 </r>
       <r>    -4.7395     2.3998    14.3434 </r>
       <r>    -4.6320     3.0863    14.6751 </r>
       <r>    -4.5245     3.5705    15.0588 </r>
       <r>    -4.4170     3.4407    15.4286 </r>
       <r>    -4.3095     3.1607    15.7684 </r>
       <r>    -4.2021     2.8281    16.0723 </r>
       <r>    -4.0946     2.9625    16.3907 </r>
       <r>    -3.9871     2.9990    16.7130 </r>
       <r>    -3.8796     2.9511    17.0302 </r>
       <r>    -3.7721     2.9807    17.3506 </r>
       <r>    -3.6647     3.0295    17.6762 </r>
       <r>    -3.5572     2.6629    17.9624 </r>
       <r>    -3.4497     2.8331    18.2669 </r>
       <r>    -3.3422     2.8503    18.5733 </r>
       <r>    -3.2347     2.7269    18.8664 </r>
       <r>    -3.1273     2.6753    19.1539 </r>
       <r>    -3.0198     3.0264    19.4792 </r>
       <r>    -2.9123     3.0964    19.8120 </r>
       <r>    -2.8048     2.6571    20.0976 </r>
       <r>    -2.6973     2.5184    20.3682 </r>
       <r>    -2.5899     2.5972    20.6474 </r>
       <r>    -2.4824     2.9633    20.9659 </r>
       <r>    -2.3749     3.2633    21.3166 </r>
       <r>    -2.2674     3.6855    21.7127 </r>
       <r>    -2.1600     3.4341    22.0818 </r>
       <r>    -2.0525     3.3612    22.4431 </r>
       <r>    -1.9450     4.1494    22.8890 </r>
       <r>    -1.8375     4.9293    23.4188 </r>
       <r>    -1.7300     5.4609    24.0058 </r>
       <r>    -1.6226     5.9637    24.6467 </r>
       <r>    -1.5151     6.1455    25.3073 </r>
       <r>    -1.4076     5.8674    25.9379 </r>
       <r>    -1.3001     5.7742    26.5585 </r>
       <r>    -1.1926     5.2175    27.1193 </r>
       <r>    -1.0852     5.1230    27.6699 </r>
       <r>    -0.9777     3.8444    28.0831 </r>
       <r>    -0.8702     2.8333    28.3876 </r>
       <r>    -0.7627     2.1931    28.6233 </r>
       <r>    -0.6552     3.5868    29.0088 </r>
       <r>    -0.5478     5.1828    29.5659 </r>
       <r>    -0.4403     6.0036    30.2111 </r>
       <r>    -0.3328     6.2782    30.8859 </r>
       <r>    -0.2253     6.3499    31.5684 </r>
       <r>    -0.1178     6.8219    32.3016 </r>
       <r>    -0.0104     6.7196    33.0238 </r>
       <r>     0.0971     6.3678    33.7082 </r>
       <r>     0.2046     6.9968    34.4602 </r>
       <r>     0.3121     8.4588    35.3694 </r>
       <r>     0.4195     8.3770    36.2697 </r>
       <r>     0.5270     8.4352    37.1763 </r>
       <r>     0.6345     4.3924    37.6484 </r>
       <r>     0.7420     2.7558    37.9446 </r>
       <r>     0.8495     3.1388    38.2820 </r>
       <r>     0.9569     3.2481    38.6311 </r>
       <r>     1.0644     3.7879    39.0382 </r>
       <r>     1.1719     3.5134    39.4158 </r>
       <r>     1.2794     3.4950    39.7915 </r>
       <r>     1.3869     4.0709    40.2290 </r>
       <r>     1.4943     3.7174    40.6285 </r>
       <r>     1.6018     4.0803    41.0671 </r>
       <r>     1.7093     3.6617    41.4606 </r>
       <r>     1.8168     3.0135    41.7845 </r>
       <r>     1.9243     3.1223    42.1201 </r>
       <r>     2.0317     2.8019    42.4212 </r>
       <r>     2.1392     2.2620    42.6644 </r>
       <r>     2.2467     2.3530    42.9173 </r>
       <r>     2.3542     2.0838    43.1412 </r>
       <r>     2.4617     1.3984    43.2915 </r>
       <r>     2.5691     0.7397    43.3710 </r>
       <r>     2.6766     0.6679    43.4428 </r>
       <r>     2.7841     0.7704    43.5256 </r>
       <r>     2.8916     0.6098    43.5912 </r>
       <r>     2.9991     0.4364    43.6381 </r>
       <r>     3.1065     0.4037    43.6815 </r>
       <r>     3.2140     0.5604    43.7417 </r>
       <r>     3.3215     0.4975    43.7952 </r>
       <r>     3.4290     0.3044    43.8279 </r>
       <r>     3.5364     0.3111    43.8613 </r>
       <r>     3.6439     0.4012    43.9044 </r>
       <r>     3.7514     0.3302    43.9399 </r>
       <r>     3.8589     0.2141    43.9629 </r>
       <r>     3.9664     0.2585    43.9907 </r>
       <r>     4.0738     0.0856    43.9999 </r>
       <r>     4.1813     0.0015    44.0001 </r>
       <r>     4.2888     0.0751    44.0081 </r>
       <r>     4.3963     0.2612    44.0362 </r>
       <r>     4.5038     0.3778    44.0768 </r>
       <r>     4.6112     0.5578    44.1368 </r>
       <r>     4.7187     0.7410    44.2164 </r>
       <r>     4.8262     0.8319    44.3058 </r>
       <r>     4.9337     0.8879    44.4013 </r>
       <r>     5.0412     1.0073    44.5095 </r>
       <r>     5.1486     1.1595    44.6342 </r>
       <r>     5.2561     1.4103    44.7857 </r>
       <r>     5.3636     1.7535    44.9742 </r>
       <r>     5.4711     2.2444    45.2154 </r>
       <r>     5.5786     2.6351    45.4986 </r>
       <r>     5.6860     2.9499    45.8157 </r>
       <r>     5.7935     3.3806    46.1790 </r>
       <r>     5.9010     3.7508    46.5822 </r>
       <r>     6.0085     4.2319    47.0370 </r>
       <r>     6.1160     4.5451    47.5255 </r>
       <r>     6.2234     4.5490    48.0144 </r>
       <r>     6.3309     4.1427    48.4597 </r>
       <r>     6.4384     4.1252    48.9031 </r>
       <r>     6.5459     4.4792    49.3845 </r>
       <r>     6.6533     3.7663    49.7893 </r>
       <r>     6.7608     3.5824    50.1743 </r>
       <r>     6.8683     4.0498    50.6096 </r>
       <r>     6.9758     4.5589    51.0996 </r>
       <r>     7.0833     4.7178    51.6066 </r>
       <r>     7.1907     5.2563    52.1716 </r>
       <r>     7.2982     4.8529    52.6932 </r>
       <r>     7.4057     4.6136    53.1890 </r>
       <r>     7.5132     4.3915    53.6610 </r>
       <r>     7.6207     4.0743    54.0989 </r>
       <r>     7.7281     3.3306    54.4569 </r>
       <r>     7.8356     3.0939    54.7894 </r>
       <r>     7.9431     3.1805    55.1313 </r>
       <r>     8.0506     3.4210    55.4990 </r>
       <r>     8.1581     3.6750    55.8939 </r>
       <r>     8.2655     3.8830    56.3113 </r>
       <r>     8.3730     4.0435    56.7459 </r>
       <r>     8.4805     4.1930    57.1965 </r>
       <r>     8.5880     3.9416    57.6202 </r>
       <r>     8.6955     4.4130    58.0945 </r>
       <r>     8.8029     4.8623    58.6171 </r>
       <r>     8.9104     5.1945    59.1754 </r>
       <r>     9.0179     5.2275    59.7372 </r>
       <r>     9.1254     4.7482    60.2476 </r>
       <r>     9.2328     5.2623    60.8131 </r>
       <r>     9.3403     5.0380    61.3546 </r>
       <r>     9.4478     4.6038    61.8494 </r>
       <r>     9.5553     4.6486    62.3491 </r>
       <r>     9.6628     4.7615    62.8608 </r>
       <r>     9.7702     5.1882    63.4184 </r>
       <r>     9.8777     4.9956    63.9554 </r>
       <r>     9.9852     5.0130    64.4942 </r>
       <r>    10.0927     3.7433    64.8965 </r>
       <r>    10.2002     4.4652    65.3764 </r>
       <r>    10.3076     4.1563    65.8231 </r>
       <r>    10.4151     5.3628    66.3995 </r>
       <r>    10.5226     5.6358    67.0052 </r>
       <r>    10.6301     4.7307    67.5137 </r>
       <r>    10.7376     4.4205    67.9888 </r>
       <r>    10.8450     3.6633    68.3825 </r>
       <r>    10.9525     3.5916    68.7686 </r>
       <r>    11.0600     4.8536    69.2902 </r>
       <r>    11.1675     5.6891    69.9017 </r>
       <r>    11.2750     6.4819    70.5984 </r>
       <r>    11.3824     5.3750    71.1761 </r>
       <r>    11.4899     4.8262    71.6948 </r>
       <r>    11.5974     4.6986    72.1998 </r>
       <r>    11.7049     4.7116    72.7062 </r>
       <r>    11.8124     4.8822    73.2309 </r>
       <r>    11.9198     5.2111    73.7910 </r>
       <r>    12.0273     6.2217    74.4597 </r>
       <r>    12.1348     5.9733    75.1017 </r>
       <r>    12.2423     5.2839    75.6696 </r>
       <r>    12.3497     5.4133    76.2514 </r>
       <r>    12.4572     5.5271    76.8455 </r>
       <r>    12.5647     6.0621    77.4970 </r>
       <r>    12.6722     5.8598    78.1269 </r>
       <r>    12.7797     5.8115    78.7515 </r>
       <r>    12.8871     5.9162    79.3873 </r>
       <r>    12.9946     5.9863    80.0307 </r>
       <r>    13.1021     6.0243    80.6782 </r>
       <r>    13.2096     6.3142    81.3569 </r>
       <r>    13.3171     5.8164    81.9820 </r>
       <r>    13.4245     5.4755    82.5705 </r>
       <r>    13.5320     5.5184    83.1636 </r>
       <r>    13.6395     5.3430    83.7379 </r>
       <r>    13.7470     5.4191    84.3203 </r>
       <r>    13.8545     5.7524    84.9386 </r>
       <r>    13.9619     5.7462    85.5562 </r>
       <r>    14.0694     5.2740    86.1230 </r>
       <r>    14.1769     4.7870    86.6375 </r>
       <r>    14.2844     5.3445    87.2120 </r>
       <r>    14.3919     4.6542    87.7122 </r>
       <r>    14.4993     4.9723    88.2466 </r>
       <r>    14.6068     5.3573    88.8224 </r>
       <r>    14.7143     5.0891    89.3694 </r>
       <r>    14.8218     4.2043    89.8213 </r>
       <r>    14.9292     4.6070    90.3164 </r>
       <r>    15.0367     5.9159    90.9523 </r>
       <r>    15.1442     5.7958    91.5752 </r>
       <r>    15.2517     6.0924    92.2300 </r>
       <r>    15.3592     5.6302    92.8351 </r>
       <r>    15.4666     5.8932    93.4685 </r>
       <r>    15.5741     6.0981    94.1239 </r>
       <r>    15.6816     4.7706    94.6367 </r>
       <r>    15.7891     3.6234    95.0261 </r>
       <r>    15.8966     2.4626    95.2908 </r>
       <r>    16.0040     2.0836    95.5147 </r>
       <r>    16.1115     1.3493    95.6598 </r>
       <r>    16.2190     1.0711    95.7749 </r>
       <r>    16.3265     0.9359    95.8755 </r>
       <r>    16.4340     0.7729    95.9585 </r>
       <r>    16.5414     0.3377    95.9948 </r>
       <r>    16.6489     0.0473    95.9999 </r>
       <r>    16.7564     0.0006    96.0000 </r>
       <r>    16.8639     0.0000    96.0000 </r>
       <r>    16.9714     0.0000    96.0000 </r>
       <r>    17.0788     0.0000    96.0000 </r>
       <r>    17.1863     0.0000    96.0000 </r>
       <r>    17.2938     0.0000    96.0000 </r>
       <r>    17.4013     0.0000    96.0000 </r>
       <r>    17.5088     0.0000    96.0000 </r>
       <r>    17.6162     0.0000    96.0000 </r>
       <r>    17.7237     0.0000    96.0000 </r>
       <r>    17.8312     0.0000    96.0000 </r>
       <r>    17.9387     0.0000    96.0000 </r>
       <r>    18.0461     0.0000    96.0000 </r>
      </set>
     </set>
    </array>
   </total>
  </dos>
 </calculation>
 <structure name="finalpos" >
  <crystal>
   <varray name="basis" >
    <v>       5.69700000       0.00000000       0.00000000 </v>
    <v>       0.00000000       4.04790000       0.00000000 </v>
    <v>       0.00000000       0.00000000       6.20420000 </v>
   </varray>
   <i name="volume">    143.07435078 </i>
   <varray name="rec_basis" >
    <v>       0.17553098       0.00000000       0.00000000 </v>
    <v>       0.00000000       0.24704168       0.00000000 </v>
    <v>       0.00000000       0.00000000       0.16118114 </v>
   </varray>
  </crystal>
  <varray name="positions" >
   <v>       0.52123000       0.50000000       0.63796000 </v>
   <v>       0.47877000       0.50000000       0.36204000 </v>
   <v>       0.97877000       0.50000000       0.63796000 </v>
   <v>       0.02123000       0.50000000       0.36204000 </v>
   <v>       0.60090000       0.50000000       0.89991000 </v>
   <v>       0.39910000       0.50000000       0.10009000 </v>
   <v>       0.89910000       0.50000000       0.89991000 </v>
   <v>       0.10090000       0.50000000       0.10009000 </v>
   <v>       0.75000000       0.79171000       0.72973000 </v>
   <v>       0.25000000       0.20829000       0.27027000 </v>
   <v>       0.75000000       0.20829000       0.72973000 </v>
   <v>       0.25000000       0.79171000       0.27027000 </v>
   <v>       0.25000000       0.50000000       0.52367000 </v>
   <v>       0.75000000       0.50000000       0.47633000 </v>
  </varray>
 </structure>
</modeling>
