    1    1    1    1
  0.3375000E+04  0.1500000E-08  0.1250000E-08  0.1800000E-08  0.5000000E-15
  1.000000000000000E-004
  CAR 
 Kpoints                                 
      3    175      8
 
  0.5000000E-01  0.3571429E-01  0.0000000E+00  0.3174603E-02
      1         -9.409860   1.000000
      2         -3.572556   0.166727
      3         -3.572550   0.166680
      4         -3.572436   0.165879
      5         -0.261757   0.000000
      6          0.296542   0.000000
      7          0.309963   0.000000
      8          0.439888   0.000000
 
  0.1500000E+00  0.3571429E-01  0.0000000E+00  0.3174603E-02
      1         -9.409860   1.000000
      2         -3.572556   0.166724
      3         -3.572552   0.166696
      4         -3.572436   0.165875
      5         -0.251909   0.000000
      6          0.270054   0.000000
      7          0.321185   0.000000
      8          0.375819   0.000000
 
  0.2500000E+00  0.3571429E-01  0.0000000E+00  0.3174603E-02
      1         -9.409860   1.000000
      2         -3.572556   0.166726
      3         -3.572555   0.166720
      4         -3.572434   0.165866
      5         -0.233772   0.000000
      6          0.199690   0.000000
      7          0.342782   0.000000
      8          0.378565   0.000000
 
  0.3500000E+00  0.3571429E-01  0.0000000E+00  0.3174603E-02
      1         -9.409860   1.000000
      2         -3.572561   0.166758
      3         -3.572554   0.166712
      4         -3.572434   0.165862
      5         -0.211599   0.000000
      6          0.131851   0.000000
      7          0.371845   0.000000
      8          0.410132   0.000000
 
  0.4500000E+00  0.3571429E-01  0.0000000E+00  0.3174603E-02
      1         -9.409860   1.000000
      2         -3.572564   0.166781
      3         -3.572555   0.166715
      4         -3.572433   0.165858
      5         -0.194588   0.000000
      6          0.090725   0.000000
      7          0.398249   0.000000
      8          0.449037   0.000000
 
  0.5000000E-01  0.1071429E+00  0.0000000E+00  0.3174603E-02
      1         -9.409860   1.000000
      2         -3.572555   0.166714
      3         -3.572548   0.166667
      4         -3.572458   0.166031
      5         -0.252630   0.000000
      6          0.304638   0.000000
      7          0.318934   0.000000
      8          0.448754   0.000000
 
  0.1500000E+00  0.1071429E+00  0.0000000E+00  0.3174603E-02
      1         -9.409860   1.000000
      2         -3.572554   0.166710
      3         -3.572550   0.166685
      4         -3.572457   0.166028
      5         -0.242796   0.000000
      6          0.278540   0.000000
      7          0.330133   0.000000
      8          0.384766   0.000000
 
  0.2500000E+00  0.1071429E+00  0.0000000E+00  0.3174603E-02
      1         -9.409860   1.000000
      2         -3.572555   0.166718
      3         -3.572553   0.166707
      4         -3.572457   0.166027
      5         -0.224690   0.000000
      6          0.208737   0.000000
      7          0.351675   0.000000
      8          0.387150   0.000000
 
  0.3500000E+00  0.1071429E+00  0.0000000E+00  0.3174603E-02
      1         -9.409860   1.000000
      2         -3.572559   0.166743
      3         -3.572553   0.166704
      4         -3.572457   0.166023
      5         -0.202566   0.000000
      6          0.141135   0.000000
      7          0.380633   0.000000
      8          0.418585   0.000000
 
  0.4500000E+00  0.1071429E+00  0.0000000E+00  0.3174603E-02
      1         -9.409860   1.000000
      2         -3.572562   0.166766
      3         -3.572553   0.166703
      4         -3.572456   0.166019
      5         -0.185605   0.000000
      6          0.100125   0.000000
      7          0.406877   0.000000
      8          0.457373   0.000000
 
  0.5000000E-01  0.1785714E+00  0.0000000E+00  0.3174603E-02
      1         -9.409860   1.000000
      2         -3.572551   0.166691
      3         -3.572544   0.166642
      4         -3.572498   0.166315
      5         -0.234690   0.000000
      6          0.317397   0.000000
      7          0.336764   0.000000
      8          0.462335   0.000000
 
  0.1500000E+00  0.1785714E+00  0.0000000E+00  0.3174603E-02
      1         -9.409860   1.000000
      2         -3.572552   0.166693
      3         -3.572547   0.166661
      4         -3.572498   0.166314
      5         -0.224891   0.000000
      6          0.293677   0.000000
      7          0.347913   0.000000
      8          0.401055   0.000000
 
  0.2500000E+00  0.1785714E+00  0.0000000E+00  0.3174603E-02
      1         -9.409860   1.000000
      2         -3.572552   0.166695
      3         -3.572551   0.166688
      4         -3.572498   0.166312
      5         -0.206862   0.000000
      6          0.226378   0.000000
      7          0.369338   0.000000
      8          0.400967   0.000000
 
  0.3500000E+00  0.1785714E+00  0.0000000E+00  0.3174603E-02
      1         -9.409860   1.000000
      2         -3.572556   0.166725
      3         -3.572551   0.166689
      4         -3.572498   0.166312
      5         -0.184860   0.000000
      6          0.159556   0.000000
      7          0.398069   0.000000
      8          0.431209   0.000000
 
  0.4500000E+00  0.1785714E+00  0.0000000E+00  0.3174603E-02
      1         -9.409860   1.000000
      2         -3.572559   0.166747
      3         -3.572550   0.166685
      4         -3.572497   0.166308
      5         -0.168023   0.000000
      6          0.118863   0.000000
      7          0.423975   0.000000
      8          0.468067   0.000000
 
  0.5000000E-01  0.2500000E+00  0.0000000E+00  0.3174603E-02
      1         -9.409860   1.000000
      2         -3.572548   0.166667
      3         -3.572547   0.166663
      4         -3.572540   0.166613
      5         -0.208736   0.000000
      6          0.308417   0.000000
      7          0.363148   0.000000
      8          0.400996   0.000000
 
  0.1500000E+00  0.2500000E+00  0.0000000E+00  0.3174603E-02
      1         -9.409860   1.000000
      2         -3.572548   0.166667
      3         -3.572547   0.166661
      4         -3.572543   0.166634
      5         -0.199007   0.000000
      6          0.301418   0.000000
      7          0.374211   0.000000
      8          0.384637   0.000000
 
  0.2500000E+00  0.2500000E+00  0.0000000E+00  0.3174603E-02
      1         -9.409860   1.000000
      2         -3.572549   0.166672
      3         -3.572548   0.166667
      4         -3.572547   0.166662
      5         -0.181132   0.000000
      6          0.250426   0.000000
      7          0.374943   0.000000
      8          0.395434   0.000000
 
  0.3500000E+00  0.2500000E+00  0.0000000E+00  0.3174603E-02
      1         -9.409860   1.000000
      2         -3.572552   0.166698
      3         -3.572547   0.166661
      4         -3.572547   0.166660
      5         -0.159379   0.000000
      6          0.186628   0.000000
      7          0.397558   0.000000
      8          0.423779   0.000000
 
  0.4500000E+00  0.2500000E+00  0.0000000E+00  0.3174603E-02
      1         -9.409860   1.000000
      2         -3.572556   0.166724
      3         -3.572548   0.166666
      4         -3.572547   0.166664
      5         -0.142798   0.000000
      6          0.146769   0.000000
      7          0.422134   0.000000
      8          0.449115   0.000000
 
  0.5000000E-01  0.3214286E+00  0.0000000E+00  0.3174603E-02
      1         -9.409860   1.000000
      2         -3.572599   0.167029
      3         -3.572544   0.166638
      4         -3.572536   0.166585
      5         -0.176577   0.000000
      6          0.243475   0.000000
      7          0.397298   0.000000
      8          0.415917   0.000000
 
  0.1500000E+00  0.3214286E+00  0.0000000E+00  0.3174603E-02
      1         -9.409860   1.000000
      2         -3.572599   0.167027
      3         -3.572543   0.166635
      4         -3.572539   0.166607
      5         -0.166980   0.000000
      6          0.252333   0.000000
      7          0.384987   0.000000
      8          0.408214   0.000000
 
  0.2500000E+00  0.3214286E+00  0.0000000E+00  0.3174603E-02
      1         -9.409860   1.000000
      2         -3.572598   0.167023
      3         -3.572544   0.166639
      4         -3.572543   0.166635
      5         -0.149397   0.000000
      6          0.258908   0.000000
      7          0.321647   0.000000
      8          0.429098   0.000000
 
  0.3500000E+00  0.3214286E+00  0.0000000E+00  0.3174603E-02
      1         -9.409860   1.000000
      2         -3.572598   0.167022
      3         -3.572549   0.166675
      4         -3.572543   0.166635
      5         -0.128118   0.000000
      6          0.220238   0.000000
      7          0.319590   0.000000
      8          0.456802   0.000000
 
  0.4500000E+00  0.3214286E+00  0.0000000E+00  0.3174603E-02
      1         -9.409860   1.000000
      2         -3.572598   0.167019
      3         -3.572552   0.166694
      4         -3.572543   0.166633
      5         -0.112023   0.000000
      6          0.183370   0.000000
      7          0.340587   0.000000
      8          0.481224   0.000000
 
  0.5000000E-01  0.3928571E+00  0.0000000E+00  0.3174603E-02
      1         -9.409859   1.000000
      2         -3.572640   0.167316
      3         -3.572541   0.166617
      4         -3.572533   0.166563
      5         -0.142578   0.000000
      6          0.176331   0.000000
      7          0.436779   0.000000
      8          0.458423   0.000000
 
  0.1500000E+00  0.3928571E+00  0.0000000E+00  0.3174603E-02
      1         -9.409860   1.000000
      2         -3.572639   0.167312
      3         -3.572541   0.166616
      4         -3.572536   0.166585
      5         -0.133207   0.000000
      6          0.187377   0.000000
      7          0.422574   0.000000
      8          0.447433   0.000000
 
  0.2500000E+00  0.3928571E+00  0.0000000E+00  0.3174603E-02
      1         -9.409860   1.000000
      2         -3.572638   0.167308
      3         -3.572541   0.166616
      4         -3.572540   0.166614
      5         -0.116128   0.000000
      6          0.208168   0.000000
      7          0.345049   0.000000
      8          0.467713   0.000000
 
  0.3500000E+00  0.3928571E+00  0.0000000E+00  0.3174603E-02
      1         -9.409860   1.000000
      2         -3.572639   0.167312
      3         -3.572546   0.166656
      4         -3.572540   0.166615
      5         -0.095660   0.000000
      6          0.232287   0.000000
      7          0.281672   0.000000
      8          0.497407   0.000000
 
  0.4500000E+00  0.3928571E+00  0.0000000E+00  0.3174603E-02
      1         -9.409860   1.000000
      2         -3.572639   0.167311
      3         -3.572549   0.166676
      4         -3.572541   0.166615
      5         -0.080388   0.000000
      6          0.226629   0.000000
      7          0.273336   0.000000
      8          0.447830   0.000000
 
  0.5000000E-01  0.4642857E+00  0.0000000E+00  0.3174603E-02
      1         -9.409859   1.000000
      2         -3.572661   0.167468
      3         -3.572539   0.166602
      4         -3.572531   0.166551
      5         -0.117370   0.000000
      6          0.133475   0.000000
      7          0.471743   0.000000
      8          0.506733   0.000000
 
  0.1500000E+00  0.4642857E+00  0.0000000E+00  0.3174603E-02
      1         -9.409859   1.000000
      2         -3.572662   0.167472
      3         -3.572539   0.166605
      4         -3.572535   0.166573
      5         -0.108270   0.000000
      6          0.145154   0.000000
      7          0.462557   0.000000
      8          0.481954   0.000000
 
  0.2500000E+00  0.4642857E+00  0.0000000E+00  0.3174603E-02
      1         -9.409860   1.000000
      2         -3.572661   0.167470
      3         -3.572539   0.166605
      4         -3.572539   0.166601
      5         -0.091787   0.000000
      6          0.167815   0.000000
      7          0.381933   0.000000
      8          0.502429   0.000000
 
  0.3500000E+00  0.4642857E+00  0.0000000E+00  0.3174603E-02
      1         -9.409860   1.000000
      2         -3.572661   0.167469
      3         -3.572544   0.166643
      4         -3.572539   0.166602
      5         -0.072262   0.000000
      6          0.199020   0.000000
      7          0.313978   0.000000
      8          0.438831   0.000000
 
  0.4500000E+00  0.4642857E+00  0.0000000E+00  0.3174603E-02
      1         -9.409860   1.000000
      2         -3.572661   0.167466
      3         -3.572547   0.166664
      4         -3.572539   0.166601
      5         -0.057917   0.000000
      6          0.229495   0.000000
      7          0.273582   0.000000
      8          0.385558   0.000000
 
  0.5000000E-01  0.3571429E-01  0.1111111E+00  0.6349206E-02
      1         -9.409860   1.000000
      2         -3.572557   0.166730
      3         -3.572550   0.166680
      4         -3.572436   0.165879
      5         -0.258738   0.000000
      6          0.218980   0.000000
      7          0.388670   0.000000
      8          0.453267   0.000000
 
  0.1500000E+00  0.3571429E-01  0.1111111E+00  0.6349206E-02
      1         -9.409860   1.000000
      2         -3.572556   0.166725
      3         -3.572552   0.166697
      4         -3.572435   0.165873
      5         -0.248938   0.000000
      6          0.224238   0.000000
      7          0.319414   0.000000
      8          0.439964   0.000000
 
  0.2500000E+00  0.3571429E-01  0.1111111E+00  0.6349206E-02
      1         -9.409860   1.000000
      2         -3.572556   0.166727
      3         -3.572555   0.166720
      4         -3.572434   0.165866
      5         -0.230909   0.000000
      6          0.197753   0.000000
      7          0.279957   0.000000
      8          0.459867   0.000000
 
  0.3500000E+00  0.3571429E-01  0.1111111E+00  0.6349206E-02
      1         -9.409860   1.000000
      2         -3.572561   0.166758
      3         -3.572555   0.166716
      4         -3.572434   0.165863
      5         -0.208914   0.000000
      6          0.135846   0.000000
      7          0.302703   0.000000
      8          0.488539   0.000000
 
  0.4500000E+00  0.3571429E-01  0.1111111E+00  0.6349206E-02
      1         -9.409860   1.000000
      2         -3.572564   0.166779
      3         -3.572554   0.166713
      4         -3.572434   0.165861
      5         -0.192090   0.000000
      6          0.095594   0.000000
      7          0.333251   0.000000
      8          0.472745   0.000000
 
  0.5000000E-01  0.1071429E+00  0.1111111E+00  0.6349206E-02
      1         -9.409860   1.000000
      2         -3.572555   0.166714
      3         -3.572548   0.166665
      4         -3.572458   0.166030
      5         -0.249620   0.000000
      6          0.227985   0.000000
      7          0.396164   0.000000
      8          0.462000   0.000000
 
  0.1500000E+00  0.1071429E+00  0.1111111E+00  0.6349206E-02
      1         -9.409860   1.000000
      2         -3.572554   0.166713
      3         -3.572550   0.166684
      4         -3.572458   0.166029
      5         -0.239835   0.000000
      6          0.233200   0.000000
      7          0.328260   0.000000
      8          0.447914   0.000000
 
  0.2500000E+00  0.1071429E+00  0.1111111E+00  0.6349206E-02
      1         -9.409860   1.000000
      2         -3.572555   0.166718
      3         -3.572554   0.166707
      4         -3.572457   0.166029
      5         -0.221837   0.000000
      6          0.206810   0.000000
      7          0.289089   0.000000
      8          0.467613   0.000000
 
  0.3500000E+00  0.1071429E+00  0.1111111E+00  0.6349206E-02
      1         -9.409860   1.000000
      2         -3.572559   0.166745
      3         -3.572553   0.166705
      4         -3.572457   0.166022
      5         -0.199891   0.000000
      6          0.145127   0.000000
      7          0.311736   0.000000
      8          0.496334   0.000000
 
  0.4500000E+00  0.1071429E+00  0.1111111E+00  0.6349206E-02
      1         -9.409860   1.000000
      2         -3.572562   0.166767
      3         -3.572553   0.166704
      4         -3.572456   0.166020
      5         -0.183116   0.000000
      6          0.104986   0.000000
      7          0.342162   0.000000
      8          0.482026   0.000000
 
  0.5000000E-01  0.1785714E+00  0.1111111E+00  0.6349206E-02
      1         -9.409860   1.000000
      2         -3.572551   0.166691
      3         -3.572544   0.166642
      4         -3.572498   0.166312
      5         -0.231704   0.000000
      6          0.245337   0.000000
      7          0.402722   0.000000
      8          0.471299   0.000000
 
  0.1500000E+00  0.1785714E+00  0.1111111E+00  0.6349206E-02
      1         -9.409860   1.000000
      2         -3.572551   0.166692
      3         -3.572547   0.166662
      4         -3.572498   0.166313
      5         -0.221954   0.000000
      6          0.250396   0.000000
      7          0.345206   0.000000
      8          0.450018   0.000000
 
  0.2500000E+00  0.1785714E+00  0.1111111E+00  0.6349206E-02
      1         -9.409860   1.000000
      2         -3.572552   0.166697
      3         -3.572551   0.166688
      4         -3.572498   0.166311
      5         -0.204032   0.000000
      6          0.224461   0.000000
      7          0.307191   0.000000
      8          0.467529   0.000000
 
  0.3500000E+00  0.1785714E+00  0.1111111E+00  0.6349206E-02
      1         -9.409860   1.000000
      2         -3.572556   0.166724
      3         -3.572550   0.166684
      4         -3.572497   0.166309
      5         -0.182206   0.000000
      6          0.163536   0.000000
      7          0.329453   0.000000
      8          0.495876   0.000000
 
  0.4500000E+00  0.1785714E+00  0.1111111E+00  0.6349206E-02
      1         -9.409860   1.000000
      2         -3.572559   0.166748
      3         -3.572550   0.166685
      4         -3.572497   0.166309
      5         -0.165553   0.000000
      6          0.123709   0.000000
      7          0.359561   0.000000
      8          0.500209   0.000000
 
  0.5000000E-01  0.2500000E+00  0.1111111E+00  0.6349206E-02
      1         -9.409860   1.000000
      2         -3.572548   0.166670
      3         -3.572548   0.166667
      4         -3.572540   0.166613
      5         -0.205797   0.000000
      6          0.266500   0.000000
      7          0.351892   0.000000
      8          0.458759   0.000000
 
  0.1500000E+00  0.2500000E+00  0.1111111E+00  0.6349206E-02
      1         -9.409860   1.000000
      2         -3.572548   0.166668
      3         -3.572548   0.166665
      4         -3.572543   0.166635
      5         -0.196116   0.000000
      6          0.271171   0.000000
      7          0.355864   0.000000
      8          0.390300   0.000000
 
  0.2500000E+00  0.2500000E+00  0.1111111E+00  0.6349206E-02
      1         -9.409860   1.000000
      2         -3.572548   0.166670
      3         -3.572548   0.166665
      4         -3.572547   0.166661
      5         -0.178348   0.000000
      6          0.248548   0.000000
      7          0.333286   0.000000
      8          0.389370   0.000000
 
  0.3500000E+00  0.2500000E+00  0.1111111E+00  0.6349206E-02
      1         -9.409860   1.000000
      2         -3.572553   0.166700
      3         -3.572547   0.166664
      4         -3.572547   0.166659
      5         -0.156769   0.000000
      6          0.190581   0.000000
      7          0.353094   0.000000
      8          0.415565   0.000000
 
  0.4500000E+00  0.2500000E+00  0.1111111E+00  0.6349206E-02
      1         -9.409860   1.000000
      2         -3.572555   0.166721
      3         -3.572547   0.166661
      4         -3.572547   0.166658
      5         -0.140367   0.000000
      6          0.151588   0.000000
      7          0.381842   0.000000
      8          0.439352   0.000000
 
  0.5000000E-01  0.3214286E+00  0.1111111E+00  0.6349206E-02
      1         -9.409860   1.000000
      2         -3.572599   0.167027
      3         -3.572544   0.166638
      4         -3.572536   0.166585
      5         -0.173726   0.000000
      6          0.243670   0.000000
      7          0.327446   0.000000
      8          0.489868   0.000000
 
  0.1500000E+00  0.3214286E+00  0.1111111E+00  0.6349206E-02
      1         -9.409860   1.000000
      2         -3.572599   0.167025
      3         -3.572544   0.166637
      4         -3.572539   0.166607
      5         -0.164177   0.000000
      6          0.252429   0.000000
      7          0.336641   0.000000
      8          0.412584   0.000000
 
  0.2500000E+00  0.3214286E+00  0.1111111E+00  0.6349206E-02
      1         -9.409860   1.000000
      2         -3.572598   0.167023
      3         -3.572544   0.166641
      4         -3.572544   0.166636
      5         -0.146698   0.000000
      6          0.259403   0.000000
      7          0.324857   0.000000
      8          0.371742   0.000000
 
  0.3500000E+00  0.3214286E+00  0.1111111E+00  0.6349206E-02
      1         -9.409860   1.000000
      2         -3.572598   0.167023
      3         -3.572549   0.166675
      4         -3.572543   0.166634
      5         -0.125587   0.000000
      6          0.224112   0.000000
      7          0.322206   0.000000
      8          0.398121   0.000000
 
  0.4500000E+00  0.3214286E+00  0.1111111E+00  0.6349206E-02
      1         -9.409860   1.000000
      2         -3.572598   0.167020
      3         -3.572552   0.166694
      4         -3.572543   0.166634
      5         -0.109662   0.000000
      6          0.188139   0.000000
      7          0.342654   0.000000
      8          0.427362   0.000000
 
  0.5000000E-01  0.3928571E+00  0.1111111E+00  0.6349206E-02
      1         -9.409859   1.000000
      2         -3.572639   0.167315
      3         -3.572541   0.166618
      4         -3.572533   0.166563
      5         -0.139880   0.000000
      6          0.180214   0.000000
      7          0.363894   0.000000
      8          0.529873   0.000000
 
  0.1500000E+00  0.3928571E+00  0.1111111E+00  0.6349206E-02
      1         -9.409860   1.000000
      2         -3.572639   0.167312
      3         -3.572540   0.166615
      4         -3.572536   0.166585
      5         -0.130555   0.000000
      6          0.191234   0.000000
      7          0.371310   0.000000
      8          0.452052   0.000000
 
  0.2500000E+00  0.3928571E+00  0.1111111E+00  0.6349206E-02
      1         -9.409860   1.000000
      2         -3.572639   0.167310
      3         -3.572541   0.166619
      4         -3.572540   0.166612
      5         -0.113574   0.000000
      6          0.211968   0.000000
      7          0.345202   0.000000
      8          0.412416   0.000000
 
  0.3500000E+00  0.3928571E+00  0.1111111E+00  0.6349206E-02
      1         -9.409860   1.000000
      2         -3.572639   0.167309
      3         -3.572546   0.166654
      4         -3.572540   0.166615
      5         -0.093262   0.000000
      6          0.236102   0.000000
      7          0.285738   0.000000
      8          0.437076   0.000000
 
  0.4500000E+00  0.3928571E+00  0.1111111E+00  0.6349206E-02
      1         -9.409860   1.000000
      2         -3.572639   0.167310
      3         -3.572549   0.166673
      4         -3.572540   0.166612
      5         -0.078142   0.000000
      6          0.231279   0.000000
      7          0.276900   0.000000
      8          0.452352   0.000000
 
  0.5000000E-01  0.4642857E+00  0.1111111E+00  0.6349206E-02
      1         -9.409859   1.000000
      2         -3.572661   0.167469
      3         -3.572539   0.166602
      4         -3.572531   0.166551
      5         -0.114857   0.000000
      6          0.137911   0.000000
      7          0.404559   0.000000
      8          0.525310   0.000000
 
  0.1500000E+00  0.4642857E+00  0.1111111E+00  0.6349206E-02
      1         -9.409859   1.000000
      2         -3.572661   0.167469
      3         -3.572539   0.166604
      4         -3.572534   0.166572
      5         -0.105799   0.000000
      6          0.149557   0.000000
      7          0.411504   0.000000
      8          0.488217   0.000000
 
  0.2500000E+00  0.4642857E+00  0.1111111E+00  0.6349206E-02
      1         -9.409860   1.000000
      2         -3.572662   0.167471
      3         -3.572539   0.166607
      4         -3.572539   0.166604
      5         -0.089403   0.000000
      6          0.172139   0.000000
      7          0.381944   0.000000
      8          0.450947   0.000000
 
  0.3500000E+00  0.4642857E+00  0.1111111E+00  0.6349206E-02
      1         -9.409860   1.000000
      2         -3.572661   0.167467
      3         -3.572544   0.166642
      4         -3.572539   0.166602
      5         -0.070014   0.000000
      6          0.203181   0.000000
      7          0.317820   0.000000
      8          0.443077   0.000000
 
  0.4500000E+00  0.4642857E+00  0.1111111E+00  0.6349206E-02
      1         -9.409860   1.000000
      2         -3.572661   0.167467
      3         -3.572547   0.166662
      4         -3.572538   0.166599
      5         -0.055797   0.000000
      6          0.233357   0.000000
      7          0.277994   0.000000
      8          0.390715   0.000000
 
  0.5000000E-01  0.3571429E-01  0.2222222E+00  0.6349206E-02
      1         -9.409860   1.000000
      2         -3.572556   0.166726
      3         -3.572549   0.166677
      4         -3.572436   0.165875
      5         -0.250546   0.000000
      6          0.147857   0.000000
      7          0.433308   0.000000
      8          0.516461   0.000000
 
  0.1500000E+00  0.3571429E-01  0.2222222E+00  0.6349206E-02
      1         -9.409860   1.000000
      2         -3.572556   0.166726
      3         -3.572552   0.166698
      4         -3.572435   0.165873
      5         -0.240890   0.000000
      6          0.158376   0.000000
      7          0.330151   0.000000
      8          0.541332   0.000000
 
  0.2500000E+00  0.3571429E-01  0.2222222E+00  0.6349206E-02
      1         -9.409860   1.000000
      2         -3.572557   0.166729
      3         -3.572556   0.166724
      4         -3.572435   0.165870
      5         -0.223180   0.000000
      6          0.172625   0.000000
      7          0.246905   0.000000
      8          0.529717   0.000000
 
  0.3500000E+00  0.3571429E-01  0.2222222E+00  0.6349206E-02
      1         -9.409860   1.000000
      2         -3.572561   0.166759
      3         -3.572555   0.166721
      4         -3.572434   0.165866
      5         -0.201706   0.000000
      6          0.146259   0.000000
      7          0.234566   0.000000
      8          0.452953   0.000000
 
  0.4500000E+00  0.3571429E-01  0.2222222E+00  0.6349206E-02
      1         -9.409860   1.000000
      2         -3.572564   0.166781
      3         -3.572555   0.166717
      4         -3.572434   0.165866
      5         -0.185423   0.000000
      6          0.109765   0.000000
      7          0.263637   0.000000
      8          0.393551   0.000000
 
  0.5000000E-01  0.1071429E+00  0.2222222E+00  0.6349206E-02
      1         -9.409860   1.000000
      2         -3.572555   0.166714
      3         -3.572547   0.166662
      4         -3.572458   0.166031
      5         -0.241458   0.000000
      6          0.157138   0.000000
      7          0.440937   0.000000
      8          0.520275   0.000000
 
  0.1500000E+00  0.1071429E+00  0.2222222E+00  0.6349206E-02
      1         -9.409860   1.000000
      2         -3.572554   0.166713
      3         -3.572550   0.166684
      4         -3.572458   0.166031
      5         -0.231816   0.000000
      6          0.167645   0.000000
      7          0.338922   0.000000
      8          0.544323   0.000000
 
  0.2500000E+00  0.1071429E+00  0.2222222E+00  0.6349206E-02
      1         -9.409860   1.000000
      2         -3.572555   0.166718
      3         -3.572554   0.166713
      4         -3.572457   0.166028
      5         -0.214136   0.000000
      6          0.181858   0.000000
      7          0.256035   0.000000
      8          0.538093   0.000000
 
  0.3500000E+00  0.1071429E+00  0.2222222E+00  0.6349206E-02
      1         -9.409860   1.000000
      2         -3.572559   0.166746
      3         -3.572554   0.166711
      4         -3.572457   0.166023
      5         -0.192708   0.000000
      6          0.155533   0.000000
      7          0.243783   0.000000
      8          0.462270   0.000000
 
  0.4500000E+00  0.1071429E+00  0.2222222E+00  0.6349206E-02
      1         -9.409860   1.000000
      2         -3.572562   0.166767
      3         -3.572553   0.166706
      4         -3.572457   0.166024
      5         -0.176471   0.000000
      6          0.119133   0.000000
      7          0.272763   0.000000
      8          0.403029   0.000000
 
  0.5000000E-01  0.1785714E+00  0.2222222E+00  0.6349206E-02
      1         -9.409860   1.000000
      2         -3.572552   0.166695
      3         -3.572544   0.166642
      4         -3.572498   0.166314
      5         -0.223611   0.000000
      6          0.175461   0.000000
      7          0.440216   0.000000
      8          0.481828   0.000000
 
  0.1500000E+00  0.1785714E+00  0.2222222E+00  0.6349206E-02
      1         -9.409860   1.000000
      2         -3.572551   0.166692
      3         -3.572547   0.166661
      4         -3.572497   0.166310
      5         -0.214003   0.000000
      6          0.185931   0.000000
      7          0.355487   0.000000
      8          0.476220   0.000000
 
  0.2500000E+00  0.1785714E+00  0.2222222E+00  0.6349206E-02
      1         -9.409860   1.000000
      2         -3.572552   0.166695
      3         -3.572551   0.166691
      4         -3.572498   0.166312
      5         -0.196397   0.000000
      6          0.200035   0.000000
      7          0.274149   0.000000
      8          0.495517   0.000000
 