  14  14   0   0
  0.1021960E+02  0.5697000E-09  0.4047900E-09  0.6204200E-09  0.5000000E-15
  1.000000000000000E-004
  CAR 
 Kpoints                                 
     18.00043213    -14.19443199  301      1.89636942      1.00000000
    -14.194  0.0000E+00  0.0000E+00
    -14.087  0.0000E+00  0.0000E+00
    -13.980  0.0000E+00  0.0000E+00
    -13.872  0.0000E+00  0.0000E+00
    -13.765  0.0000E+00  0.0000E+00
    -13.658  0.0000E+00  0.0000E+00
    -13.551  0.0000E+00  0.0000E+00
    -13.443  0.0000E+00  0.0000E+00
    -13.336  0.0000E+00  0.0000E+00
    -13.229  0.0000E+00  0.0000E+00
    -13.121  0.0000E+00  0.0000E+00
    -13.014  0.1312E-16  0.1408E-17
    -12.907  0.1213E-07  0.1302E-08
    -12.799  0.2331E-02  0.2502E-03
    -12.692  0.4305E+00  0.4645E-01
    -12.585  0.2283E+01  0.2915E+00
    -12.477  0.3527E+01  0.6700E+00
    -12.370  0.4344E+01  0.1136E+01
    -12.263  0.3558E+01  0.1518E+01
    -12.155  0.2865E+01  0.1826E+01
    -12.048  0.2631E+01  0.2108E+01
    -11.941  0.2586E+01  0.2385E+01
    -11.833  0.2739E+01  0.2679E+01
    -11.726  0.3321E+01  0.3036E+01
    -11.619  0.3623E+01  0.3425E+01
    -11.512  0.3137E+01  0.3761E+01
    -11.404  0.1743E+01  0.3948E+01
    -11.297  0.4724E+00  0.3999E+01
    -11.190  0.9997E-02  0.4000E+01
    -11.082  0.4514E-06  0.4000E+01
    -10.975  0.5228E-14  0.4000E+01
    -10.868  0.0000E+00  0.4000E+01
    -10.760  0.0000E+00  0.4000E+01
    -10.653  0.0000E+00  0.4000E+01
    -10.546  0.0000E+00  0.4000E+01
    -10.438  0.0000E+00  0.4000E+01
    -10.331  0.0000E+00  0.4000E+01
    -10.224  0.0000E+00  0.4000E+01
    -10.116  0.0000E+00  0.4000E+01
    -10.009  0.0000E+00  0.4000E+01
     -9.902  0.0000E+00  0.4000E+01
     -9.794  0.0000E+00  0.4000E+01
     -9.687  0.0000E+00  0.4000E+01
     -9.580  0.0000E+00  0.4000E+01
     -9.473  0.0000E+00  0.4000E+01
     -9.365  0.0000E+00  0.4000E+01
     -9.258  0.0000E+00  0.4000E+01
     -9.151  0.0000E+00  0.4000E+01
     -9.043  0.6383E-09  0.4000E+01
     -8.936  0.5153E-03  0.4000E+01
     -8.829  0.2677E+00  0.4029E+01
     -8.721  0.2076E+01  0.4252E+01
     -8.614  0.5278E+01  0.4818E+01
     -8.507  0.7010E+01  0.5570E+01
     -8.399  0.6269E+01  0.6243E+01
     -8.292  0.5309E+01  0.6813E+01
     -8.185  0.4885E+01  0.7337E+01
     -8.077  0.3840E+01  0.7749E+01
     -7.970  0.1701E+01  0.7932E+01
     -7.863  0.5851E+00  0.7995E+01
     -7.755  0.5100E-01  0.8000E+01
     -7.648  0.4469E-04  0.8000E+01
     -7.541  0.1644E-10  0.8000E+01
     -7.434  0.0000E+00  0.8000E+01
     -7.326  0.0000E+00  0.8000E+01
     -7.219  0.3156E-15  0.8000E+01
     -7.112  0.6839E-07  0.8000E+01
     -7.004  0.2612E-02  0.8000E+01
     -6.897  0.9687E-01  0.8011E+01
     -6.790  0.2834E+00  0.8041E+01
     -6.682  0.4518E+00  0.8090E+01
     -6.575  0.6959E+00  0.8164E+01
     -6.468  0.8962E+00  0.8260E+01
     -6.360  0.1364E+01  0.8407E+01
     -6.253  0.2112E+01  0.8633E+01
     -6.146  0.2854E+01  0.8940E+01
     -6.038  0.3994E+01  0.9368E+01
     -5.931  0.3949E+01  0.9792E+01
     -5.824  0.3995E+01  0.1022E+02
     -5.716  0.4129E+01  0.1066E+02
     -5.609  0.3974E+01  0.1109E+02
     -5.502  0.4125E+01  0.1153E+02
     -5.395  0.4432E+01  0.1201E+02
     -5.287  0.4772E+01  0.1252E+02
     -5.180  0.4464E+01  0.1300E+02
     -5.073  0.3912E+01  0.1342E+02
     -4.965  0.3433E+01  0.1379E+02
     -4.858  0.2474E+01  0.1405E+02
     -4.751  0.2463E+01  0.1432E+02
     -4.643  0.2940E+01  0.1463E+02
     -4.536  0.3580E+01  0.1502E+02
     -4.429  0.3587E+01  0.1540E+02
     -4.321  0.2939E+01  0.1572E+02
     -4.214  0.3061E+01  0.1605E+02
     -4.107  0.2874E+01  0.1635E+02
     -3.999  0.3011E+01  0.1668E+02
     -3.892  0.2875E+01  0.1699E+02
     -3.785  0.3110E+01  0.1732E+02
     -3.677  0.2980E+01  0.1764E+02
     -3.570  0.2733E+01  0.1793E+02
     -3.463  0.2692E+01  0.1822E+02
     -3.355  0.3058E+01  0.1855E+02
     -3.248  0.2625E+01  0.1883E+02
     -3.141  0.2631E+01  0.1911E+02
     -3.034  0.3084E+01  0.1945E+02
     -2.926  0.3049E+01  0.1977E+02
     -2.819  0.2805E+01  0.2007E+02
     -2.712  0.2442E+01  0.2034E+02
     -2.604  0.2555E+01  0.2061E+02
     -2.497  0.2973E+01  0.2093E+02
     -2.390  0.3151E+01  0.2127E+02
     -2.282  0.3582E+01  0.2165E+02
     -2.175  0.3608E+01  0.2204E+02
     -2.068  0.3197E+01  0.2238E+02
     -1.960  0.3994E+01  0.2281E+02
     -1.853  0.4916E+01  0.2334E+02
     -1.746  0.5452E+01  0.2392E+02
     -1.638  0.5927E+01  0.2456E+02
     -1.531  0.5743E+01  0.2518E+02
     -1.424  0.6517E+01  0.2587E+02
     -1.316  0.5508E+01  0.2647E+02
     -1.209  0.4968E+01  0.2700E+02
     -1.102  0.5684E+01  0.2761E+02
     -0.995  0.3965E+01  0.2803E+02
     -0.887  0.2642E+01  0.2832E+02
     -0.780  0.2611E+01  0.2860E+02
     -0.673  0.3315E+01  0.2895E+02
     -0.565  0.4655E+01  0.2945E+02
     -0.458  0.6035E+01  0.3010E+02
     -0.351  0.6536E+01  0.3080E+02
     -0.243  0.5970E+01  0.3144E+02
     -0.136  0.6635E+01  0.3216E+02
     -0.029  0.7266E+01  0.3294E+02
      0.079  0.6139E+01  0.3359E+02
      0.186  0.6353E+01  0.3428E+02
      0.293  0.8890E+01  0.3523E+02
      0.401  0.8355E+01  0.3613E+02
      0.508  0.8624E+01  0.3705E+02
      0.615  0.4723E+01  0.3756E+02
      0.723  0.3166E+01  0.3790E+02
      0.830  0.3066E+01  0.3823E+02
      0.937  0.3195E+01  0.3857E+02
      1.044  0.3341E+01  0.3893E+02
      1.152  0.3627E+01  0.3932E+02
      1.259  0.4144E+01  0.3976E+02
      1.366  0.3346E+01  0.4012E+02
      1.474  0.3770E+01  0.4053E+02
      1.581  0.4009E+01  0.4096E+02
      1.688  0.4249E+01  0.4141E+02
      1.796  0.3064E+01  0.4174E+02
      1.903  0.2578E+01  0.4202E+02
      2.010  0.2911E+01  0.4233E+02
      2.118  0.2908E+01  0.4264E+02
      2.225  0.2366E+01  0.4290E+02
      2.332  0.1756E+01  0.4309E+02
      2.440  0.1405E+01  0.4324E+02
      2.547  0.1210E+01  0.4337E+02
      2.654  0.8466E+00  0.4346E+02
      2.762  0.5682E+00  0.4352E+02
      2.869  0.3897E+00  0.4356E+02
      2.976  0.5383E+00  0.4362E+02
      3.083  0.6467E+00  0.4369E+02
      3.191  0.5464E+00  0.4375E+02
      3.298  0.3037E+00  0.4378E+02
      3.405  0.3117E+00  0.4381E+02
      3.513  0.4311E+00  0.4386E+02
      3.620  0.4181E+00  0.4390E+02
      3.727  0.2928E+00  0.4393E+02
      3.835  0.1951E+00  0.4395E+02
      3.942  0.3007E+00  0.4399E+02
      4.049  0.1184E+00  0.4400E+02
      4.157  0.1808E-02  0.4400E+02
      4.264  0.4051E-01  0.4400E+02
      4.371  0.2210E+00  0.4403E+02
      4.479  0.3645E+00  0.4407E+02
      4.586  0.4967E+00  0.4412E+02
      4.693  0.7200E+00  0.4420E+02
      4.801  0.8127E+00  0.4428E+02
      4.908  0.8449E+00  0.4438E+02
      5.015  0.1030E+01  0.4449E+02
      5.122  0.1084E+01  0.4460E+02
      5.230  0.1304E+01  0.4474E+02
      5.337  0.1716E+01  0.4493E+02
      5.444  0.2116E+01  0.4515E+02
      5.552  0.2504E+01  0.4542E+02
      5.659  0.2865E+01  0.4573E+02
      5.766  0.3363E+01  0.4609E+02
      5.874  0.3626E+01  0.4648E+02
      5.981  0.4004E+01  0.4691E+02
      6.088  0.4649E+01  0.4741E+02
      6.196  0.4490E+01  0.4789E+02
      6.303  0.4274E+01  0.4835E+02
      6.410  0.4176E+01  0.4880E+02
      6.518  0.4323E+01  0.4926E+02
      6.625  0.3915E+01  0.4968E+02
      6.732  0.3735E+01  0.5008E+02
      6.840  0.3754E+01  0.5048E+02
      6.947  0.4326E+01  0.5095E+02
      7.054  0.4903E+01  0.5148E+02
      7.161  0.5019E+01  0.5201E+02
      7.269  0.5075E+01  0.5256E+02
      7.376  0.4616E+01  0.5305E+02
      7.483  0.4466E+01  0.5353E+02
      7.591  0.4183E+01  0.5398E+02
      7.698  0.3496E+01  0.5436E+02
      7.805  0.3211E+01  0.5470E+02
      7.913  0.3007E+01  0.5502E+02
      8.020  0.3400E+01  0.5539E+02
      8.127  0.3570E+01  0.5577E+02
      8.235  0.3881E+01  0.5619E+02
      8.342  0.4025E+01  0.5662E+02
      8.449  0.4085E+01  0.5706E+02
      8.557  0.4087E+01  0.5750E+02
      8.664  0.4178E+01  0.5795E+02
      8.771  0.4751E+01  0.5846E+02
      8.879  0.5360E+01  0.5903E+02
      8.986  0.4908E+01  0.5956E+02
      9.093  0.4868E+01  0.6008E+02
      9.201  0.5419E+01  0.6066E+02
      9.308  0.4913E+01  0.6119E+02
      9.415  0.4796E+01  0.6170E+02
      9.522  0.4474E+01  0.6218E+02
      9.630  0.4790E+01  0.6270E+02
      9.737  0.5106E+01  0.6325E+02
      9.844  0.5021E+01  0.6379E+02
      9.952  0.5065E+01  0.6433E+02
     10.059  0.4308E+01  0.6479E+02
     10.166  0.3948E+01  0.6521E+02
     10.274  0.4198E+01  0.6567E+02
     10.381  0.5043E+01  0.6621E+02
     10.488  0.5779E+01  0.6683E+02
     10.596  0.5070E+01  0.6737E+02
     10.703  0.4375E+01  0.6784E+02
     10.810  0.3865E+01  0.6825E+02
     10.918  0.3406E+01  0.6862E+02
     11.025  0.4706E+01  0.6913E+02
     11.132  0.5353E+01  0.6970E+02
     11.240  0.6286E+01  0.7037E+02
     11.347  0.5722E+01  0.7099E+02
     11.454  0.4953E+01  0.7152E+02
     11.561  0.4700E+01  0.7202E+02
     11.669  0.4813E+01  0.7254E+02
     11.776  0.4777E+01  0.7305E+02
     11.883  0.4922E+01  0.7358E+02
     11.991  0.5898E+01  0.7421E+02
     12.098  0.6201E+01  0.7488E+02
     12.205  0.5866E+01  0.7551E+02
     12.313  0.4673E+01  0.7601E+02
     12.420  0.5787E+01  0.7663E+02
     12.527  0.6100E+01  0.7729E+02
     12.635  0.5666E+01  0.7790E+02
     12.742  0.5869E+01  0.7852E+02
     12.849  0.5939E+01  0.7916E+02
     12.957  0.5841E+01  0.7979E+02
     13.064  0.6265E+01  0.8046E+02
     13.171  0.5869E+01  0.8109E+02
     13.279  0.6343E+01  0.8177E+02
     13.386  0.5525E+01  0.8237E+02
     13.493  0.5351E+01  0.8294E+02
     13.600  0.5507E+01  0.8353E+02
     13.708  0.5301E+01  0.8410E+02
     13.815  0.5802E+01  0.8472E+02
     13.922  0.5493E+01  0.8531E+02
     14.030  0.5705E+01  0.8592E+02
     14.137  0.4948E+01  0.8645E+02
     14.244  0.5003E+01  0.8699E+02
     14.352  0.5024E+01  0.8753E+02
     14.459  0.4772E+01  0.8804E+02
     14.566  0.5061E+01  0.8859E+02
     14.674  0.5414E+01  0.8917E+02
     14.781  0.4676E+01  0.8967E+02
     14.888  0.4255E+01  0.9013E+02
     14.996  0.5037E+01  0.9067E+02
     15.103  0.6358E+01  0.9135E+02
     15.210  0.5848E+01  0.9198E+02
     15.318  0.5759E+01  0.9259E+02
     15.425  0.5872E+01  0.9322E+02
     15.532  0.5985E+01  0.9387E+02
     15.639  0.5470E+01  0.9445E+02
     15.747  0.4011E+01  0.9488E+02
     15.854  0.2898E+01  0.9519E+02
     15.961  0.2298E+01  0.9544E+02
     16.069  0.1518E+01  0.9560E+02
     16.176  0.1137E+01  0.9573E+02
     16.283  0.1029E+01  0.9584E+02
     16.391  0.8507E+00  0.9593E+02
     16.498  0.5489E+00  0.9599E+02
     16.605  0.1210E+00  0.9600E+02
     16.713  0.1485E-02  0.9600E+02
     16.820  0.1539E-07  0.9600E+02
     16.927  0.2699E-16  0.9600E+02
     17.035  0.0000E+00  0.9600E+02
     17.142  0.0000E+00  0.9600E+02
     17.249  0.0000E+00  0.9600E+02
     17.357  0.0000E+00  0.9600E+02
     17.464  0.0000E+00  0.9600E+02
     17.571  0.0000E+00  0.9600E+02
     17.678  0.0000E+00  0.9600E+02
     17.786  0.0000E+00  0.9600E+02
     17.893  0.0000E+00  0.9600E+02
     18.000  0.0000E+00  0.9600E+02
