  14  14   0   0
  0.1021318E+02  0.5700971E-09  0.4044058E-09  0.6201871E-09  0.5000000E-15
  1.000000000000000E-004
  CAR 
 Dielectric                              
     46.57271351    -15.52144287 4000      1.91811818      1.00000000
    -15.521  0.0000E+00  0.0000E+00
    -15.506  0.0000E+00  0.0000E+00
    -15.490  0.0000E+00  0.0000E+00
    -15.475  0.0000E+00  0.0000E+00
    -15.459  0.0000E+00  0.0000E+00
    -15.444  0.0000E+00  0.0000E+00
    -15.428  0.0000E+00  0.0000E+00
    -15.413  0.0000E+00  0.0000E+00
    -15.397  0.0000E+00  0.0000E+00
    -15.382  0.0000E+00  0.0000E+00
    -15.366  0.0000E+00  0.0000E+00
    -15.351  0.0000E+00  0.0000E+00
    -15.335  0.0000E+00  0.0000E+00
    -15.320  0.0000E+00  0.0000E+00
    -15.304  0.0000E+00  0.0000E+00
    -15.289  0.0000E+00  0.0000E+00
    -15.273  0.0000E+00  0.0000E+00
    -15.257  0.0000E+00  0.0000E+00
    -15.242  0.0000E+00  0.0000E+00
    -15.226  0.0000E+00  0.0000E+00
    -15.211  0.0000E+00  0.0000E+00
    -15.195  0.0000E+00  0.0000E+00
    -15.180  0.0000E+00  0.0000E+00
    -15.164  0.0000E+00  0.0000E+00
    -15.149  0.0000E+00  0.0000E+00
    -15.133  0.0000E+00  0.0000E+00
    -15.118  0.0000E+00  0.0000E+00
    -15.102  0.0000E+00  0.0000E+00
    -15.087  0.0000E+00  0.0000E+00
    -15.071  0.0000E+00  0.0000E+00
    -15.056  0.0000E+00  0.0000E+00
    -15.040  0.0000E+00  0.0000E+00
    -15.025  0.0000E+00  0.0000E+00
    -15.009  0.0000E+00  0.0000E+00
    -14.994  0.0000E+00  0.0000E+00
    -14.978  0.0000E+00  0.0000E+00
    -14.962  0.0000E+00  0.0000E+00
    -14.947  0.0000E+00  0.0000E+00
    -14.931  0.0000E+00  0.0000E+00
    -14.916  0.0000E+00  0.0000E+00
    -14.900  0.0000E+00  0.0000E+00
    -14.885  0.0000E+00  0.0000E+00
    -14.869  0.0000E+00  0.0000E+00
    -14.854  0.0000E+00  0.0000E+00
    -14.838  0.0000E+00  0.0000E+00
    -14.823  0.0000E+00  0.0000E+00
    -14.807  0.0000E+00  0.0000E+00
    -14.792  0.0000E+00  0.0000E+00
    -14.776  0.0000E+00  0.0000E+00
    -14.761  0.0000E+00  0.0000E+00
    -14.745  0.0000E+00  0.0000E+00
    -14.730  0.0000E+00  0.0000E+00
    -14.714  0.0000E+00  0.0000E+00
    -14.698  0.0000E+00  0.0000E+00
    -14.683  0.0000E+00  0.0000E+00
    -14.667  0.0000E+00  0.0000E+00
    -14.652  0.0000E+00  0.0000E+00
    -14.636  0.0000E+00  0.0000E+00
    -14.621  0.0000E+00  0.0000E+00
    -14.605  0.0000E+00  0.0000E+00
    -14.590  0.0000E+00  0.0000E+00
    -14.574  0.0000E+00  0.0000E+00
    -14.559  0.0000E+00  0.0000E+00
    -14.543  0.0000E+00  0.0000E+00
    -14.528  0.0000E+00  0.0000E+00
    -14.512  0.0000E+00  0.0000E+00
    -14.497  0.0000E+00  0.0000E+00
    -14.481  0.0000E+00  0.0000E+00
    -14.466  0.0000E+00  0.0000E+00
    -14.450  0.0000E+00  0.0000E+00
    -14.435  0.0000E+00  0.0000E+00
    -14.419  0.0000E+00  0.0000E+00
    -14.403  0.0000E+00  0.0000E+00
    -14.388  0.0000E+00  0.0000E+00
    -14.372  0.0000E+00  0.0000E+00
    -14.357  0.0000E+00  0.0000E+00
    -14.341  0.0000E+00  0.0000E+00
    -14.326  0.0000E+00  0.0000E+00
    -14.310  0.0000E+00  0.0000E+00
    -14.295  0.0000E+00  0.0000E+00
    -14.279  0.0000E+00  0.0000E+00
    -14.264  0.0000E+00  0.0000E+00
    -14.248  0.0000E+00  0.0000E+00
    -14.233  0.0000E+00  0.0000E+00
    -14.217  0.0000E+00  0.0000E+00
    -14.202  0.0000E+00  0.0000E+00
    -14.186  0.0000E+00  0.0000E+00
    -14.171  0.0000E+00  0.0000E+00
    -14.155  0.0000E+00  0.0000E+00
    -14.140  0.0000E+00  0.0000E+00
    -14.124  0.0000E+00  0.0000E+00
    -14.108  0.0000E+00  0.0000E+00
    -14.093  0.0000E+00  0.0000E+00
    -14.077  0.0000E+00  0.0000E+00
    -14.062  0.0000E+00  0.0000E+00
    -14.046  0.0000E+00  0.0000E+00
    -14.031  0.0000E+00  0.0000E+00
    -14.015  0.0000E+00  0.0000E+00
    -14.000  0.0000E+00  0.0000E+00
    -13.984  0.0000E+00  0.0000E+00
    -13.969  0.0000E+00  0.0000E+00
    -13.953  0.0000E+00  0.0000E+00
    -13.938  0.0000E+00  0.0000E+00
    -13.922  0.0000E+00  0.0000E+00
    -13.907  0.0000E+00  0.0000E+00
    -13.891  0.0000E+00  0.0000E+00
    -13.876  0.0000E+00  0.0000E+00
    -13.860  0.0000E+00  0.0000E+00
    -13.844  0.0000E+00  0.0000E+00
    -13.829  0.0000E+00  0.0000E+00
    -13.813  0.0000E+00  0.0000E+00
    -13.798  0.0000E+00  0.0000E+00
    -13.782  0.0000E+00  0.0000E+00
    -13.767  0.0000E+00  0.0000E+00
    -13.751  0.0000E+00  0.0000E+00
    -13.736  0.0000E+00  0.0000E+00
    -13.720  0.0000E+00  0.0000E+00
    -13.705  0.0000E+00  0.0000E+00
    -13.689  0.0000E+00  0.0000E+00
    -13.674  0.0000E+00  0.0000E+00
    -13.658  0.0000E+00  0.0000E+00
    -13.643  0.0000E+00  0.0000E+00
    -13.627  0.0000E+00  0.0000E+00
    -13.612  0.0000E+00  0.0000E+00
    -13.596  0.0000E+00  0.0000E+00
    -13.581  0.0000E+00  0.0000E+00
    -13.565  0.0000E+00  0.0000E+00
    -13.549  0.0000E+00  0.0000E+00
    -13.534  0.0000E+00  0.0000E+00
    -13.518  0.0000E+00  0.0000E+00
    -13.503  0.0000E+00  0.0000E+00
    -13.487  0.0000E+00  0.0000E+00
    -13.472  0.0000E+00  0.0000E+00
    -13.456  0.0000E+00  0.0000E+00
    -13.441  0.0000E+00  0.0000E+00
    -13.425  0.0000E+00  0.0000E+00
    -13.410  0.0000E+00  0.0000E+00
    -13.394  0.0000E+00  0.0000E+00
    -13.379  0.0000E+00  0.0000E+00
    -13.363  0.0000E+00  0.0000E+00
    -13.348  0.0000E+00  0.0000E+00
    -13.332  0.0000E+00  0.0000E+00
    -13.317  0.0000E+00  0.0000E+00
    -13.301  0.0000E+00  0.0000E+00
    -13.285  0.0000E+00  0.0000E+00
    -13.270  0.0000E+00  0.0000E+00
    -13.254  0.0000E+00  0.0000E+00
    -13.239  0.0000E+00  0.0000E+00
    -13.223  0.0000E+00  0.0000E+00
    -13.208  0.0000E+00  0.0000E+00
    -13.192  0.0000E+00  0.0000E+00
    -13.177  0.0000E+00  0.0000E+00
    -13.161  0.0000E+00  0.0000E+00
    -13.146  0.0000E+00  0.0000E+00
    -13.130  0.0000E+00  0.0000E+00
    -13.115  0.0000E+00  0.0000E+00
    -13.099  0.0000E+00  0.0000E+00
    -13.084  0.0000E+00  0.0000E+00
    -13.068  0.0000E+00  0.0000E+00
    -13.053  0.0000E+00  0.0000E+00
    -13.037  0.0000E+00  0.0000E+00
    -13.022  0.0000E+00  0.0000E+00
    -13.006  0.0000E+00  0.0000E+00
    -12.990  0.0000E+00  0.0000E+00
    -12.975  0.0000E+00  0.0000E+00
    -12.959  0.0000E+00  0.0000E+00
    -12.944  0.0000E+00  0.0000E+00
    -12.928  0.0000E+00  0.0000E+00
    -12.913  0.0000E+00  0.0000E+00
    -12.897  0.0000E+00  0.0000E+00
    -12.882  0.0000E+00  0.0000E+00
    -12.866  0.0000E+00  0.0000E+00
    -12.851  0.0000E+00  0.0000E+00
    -12.835  0.0000E+00  0.0000E+00
    -12.820  0.0000E+00  0.0000E+00
    -12.804  0.0000E+00  0.0000E+00
    -12.789  0.0000E+00  0.0000E+00
    -12.773  0.0000E+00  0.0000E+00
    -12.758  0.1239E-17  0.1923E-19
    -12.742  0.1884E-10  0.2925E-12
    -12.727  0.2180E-05  0.3385E-07
    -12.711  0.3370E-02  0.5236E-04
    -12.695  0.1433E+00  0.2278E-02
    -12.680  0.6075E+00  0.1171E-01
    -12.664  0.9925E+00  0.2712E-01
    -12.649  0.1306E+01  0.4741E-01
    -12.633  0.1566E+01  0.7173E-01
    -12.618  0.1901E+01  0.1013E+00
    -12.602  0.2209E+01  0.1356E+00
    -12.587  0.2766E+01  0.1785E+00
    -12.571  0.2946E+01  0.2243E+00
    -12.556  0.3040E+01  0.2715E+00
    -12.540  0.3142E+01  0.3202E+00
    -12.525  0.3134E+01  0.3689E+00
    -12.509  0.3269E+01  0.4197E+00
    -12.494  0.3410E+01  0.4726E+00
    -12.478  0.3383E+01  0.5251E+00
    -12.463  0.3607E+01  0.5811E+00
    -12.447  0.3793E+01  0.6400E+00
    -12.431  0.4030E+01  0.7026E+00
    -12.416  0.4326E+01  0.7698E+00
    -12.400  0.4595E+01  0.8411E+00
    -12.385  0.4646E+01  0.9133E+00
    -12.369  0.4398E+01  0.9816E+00
    -12.354  0.4396E+01  0.1050E+01
    -12.338  0.4593E+01  0.1121E+01
    -12.323  0.4312E+01  0.1188E+01
    -12.307  0.3730E+01  0.1246E+01
    -12.292  0.3608E+01  0.1302E+01
    -12.276  0.3525E+01  0.1357E+01
    -12.261  0.3207E+01  0.1407E+01
    -12.245  0.3206E+01  0.1456E+01
    -12.230  0.2981E+01  0.1503E+01
    -12.214  0.2961E+01  0.1549E+01
    -12.199  0.3019E+01  0.1596E+01
    -12.183  0.2973E+01  0.1642E+01
    -12.168  0.2582E+01  0.1682E+01
    -12.152  0.2591E+01  0.1722E+01
    -12.136  0.3055E+01  0.1769E+01
    -12.121  0.2788E+01  0.1813E+01
    -12.105  0.2322E+01  0.1849E+01
    -12.090  0.2428E+01  0.1886E+01
    -12.074  0.3013E+01  0.1933E+01
    -12.059  0.2643E+01  0.1974E+01
    -12.043  0.2308E+01  0.2010E+01
    -12.028  0.2305E+01  0.2046E+01
    -12.012  0.2831E+01  0.2090E+01
    -11.997  0.2695E+01  0.2132E+01
    -11.981  0.2298E+01  0.2167E+01
    -11.966  0.2318E+01  0.2203E+01
    -11.950  0.2678E+01  0.2245E+01
    -11.935  0.2726E+01  0.2287E+01
    -11.919  0.2326E+01  0.2323E+01
    -11.904  0.2381E+01  0.2360E+01
    -11.888  0.2691E+01  0.2402E+01
    -11.872  0.2723E+01  0.2444E+01
    -11.857  0.2428E+01  0.2482E+01
    -11.841  0.2395E+01  0.2519E+01
    -11.826  0.2940E+01  0.2565E+01
    -11.810  0.2752E+01  0.2608E+01
    -11.795  0.2514E+01  0.2647E+01
    -11.779  0.2662E+01  0.2688E+01
    -11.764  0.3102E+01  0.2736E+01
    -11.748  0.3021E+01  0.2783E+01
    -11.733  0.2855E+01  0.2828E+01
    -11.717  0.3138E+01  0.2876E+01
    -11.702  0.3658E+01  0.2933E+01
    -11.686  0.3762E+01  0.2991E+01
    -11.671  0.3512E+01  0.3046E+01
    -11.655  0.3537E+01  0.3101E+01
    -11.640  0.3592E+01  0.3157E+01
    -11.624  0.3720E+01  0.3214E+01
    -11.609  0.3536E+01  0.3269E+01
    -11.593  0.3383E+01  0.3322E+01
    -11.577  0.3521E+01  0.3377E+01
    -11.562  0.3580E+01  0.3432E+01
    -11.546  0.3494E+01  0.3486E+01
    -11.531  0.3381E+01  0.3539E+01
    -11.515  0.3340E+01  0.3591E+01
    -11.500  0.3222E+01  0.3641E+01
    -11.484  0.2945E+01  0.3686E+01
    -11.469  0.2706E+01  0.3728E+01
    -11.453  0.2667E+01  0.3770E+01
    -11.438  0.2574E+01  0.3810E+01
    -11.422  0.2118E+01  0.3843E+01
    -11.407  0.1794E+01  0.3871E+01
    -11.391  0.1652E+01  0.3896E+01
    -11.376  0.1425E+01  0.3918E+01
    -11.360  0.1210E+01  0.3937E+01
    -11.345  0.1119E+01  0.3955E+01
    -11.329  0.9160E+00  0.3969E+01
    -11.314  0.7805E+00  0.3981E+01
    -11.298  0.6179E+00  0.3991E+01
    -11.282  0.4301E+00  0.3997E+01
    -11.267  0.1691E+00  0.4000E+01
    -11.251  0.1211E-01  0.4000E+01
    -11.236  0.3526E-04  0.4000E+01
    -11.220  0.1519E-08  0.4000E+01
    -11.205  0.6640E-15  0.4000E+01
    -11.189  0.0000E+00  0.4000E+01
    -11.174  0.0000E+00  0.4000E+01
    -11.158  0.0000E+00  0.4000E+01
    -11.143  0.0000E+00  0.4000E+01
    -11.127  0.0000E+00  0.4000E+01
    -11.112  0.0000E+00  0.4000E+01
    -11.096  0.0000E+00  0.4000E+01
    -11.081  0.0000E+00  0.4000E+01
    -11.065  0.0000E+00  0.4000E+01
    -11.050  0.0000E+00  0.4000E+01
    -11.034  0.0000E+00  0.4000E+01
    -11.018  0.0000E+00  0.4000E+01
    -11.003  0.0000E+00  0.4000E+01
    -10.987  0.0000E+00  0.4000E+01
    -10.972  0.0000E+00  0.4000E+01
    -10.956  0.0000E+00  0.4000E+01
    -10.941  0.0000E+00  0.4000E+01
    -10.925  0.0000E+00  0.4000E+01
    -10.910  0.0000E+00  0.4000E+01
    -10.894  0.0000E+00  0.4000E+01
    -10.879  0.0000E+00  0.4000E+01
    -10.863  0.0000E+00  0.4000E+01
    -10.848  0.0000E+00  0.4000E+01
    -10.832  0.0000E+00  0.4000E+01
    -10.817  0.0000E+00  0.4000E+01
    -10.801  0.0000E+00  0.4000E+01
    -10.786  0.0000E+00  0.4000E+01
    -10.770  0.0000E+00  0.4000E+01
    -10.755  0.0000E+00  0.4000E+01
    -10.739  0.0000E+00  0.4000E+01
    -10.723  0.0000E+00  0.4000E+01
    -10.708  0.0000E+00  0.4000E+01
    -10.692  0.0000E+00  0.4000E+01
    -10.677  0.0000E+00  0.4000E+01
    -10.661  0.0000E+00  0.4000E+01
    -10.646  0.0000E+00  0.4000E+01
    -10.630  0.0000E+00  0.4000E+01
    -10.615  0.0000E+00  0.4000E+01
    -10.599  0.0000E+00  0.4000E+01
    -10.584  0.0000E+00  0.4000E+01
    -10.568  0.0000E+00  0.4000E+01
    -10.553  0.0000E+00  0.4000E+01
    -10.537  0.0000E+00  0.4000E+01
    -10.522  0.0000E+00  0.4000E+01
    -10.506  0.0000E+00  0.4000E+01
    -10.491  0.0000E+00  0.4000E+01
    -10.475  0.0000E+00  0.4000E+01
    -10.460  0.0000E+00  0.4000E+01
    -10.444  0.0000E+00  0.4000E+01
    -10.428  0.0000E+00  0.4000E+01
    -10.413  0.0000E+00  0.4000E+01
    -10.397  0.0000E+00  0.4000E+01
    -10.382  0.0000E+00  0.4000E+01
    -10.366  0.0000E+00  0.4000E+01
    -10.351  0.0000E+00  0.4000E+01
    -10.335  0.0000E+00  0.4000E+01
    -10.320  0.0000E+00  0.4000E+01
    -10.304  0.0000E+00  0.4000E+01
    -10.289  0.0000E+00  0.4000E+01
    -10.273  0.0000E+00  0.4000E+01
    -10.258  0.0000E+00  0.4000E+01
    -10.242  0.0000E+00  0.4000E+01
    -10.227  0.0000E+00  0.4000E+01
    -10.211  0.0000E+00  0.4000E+01
    -10.196  0.0000E+00  0.4000E+01
    -10.180  0.0000E+00  0.4000E+01
    -10.164  0.0000E+00  0.4000E+01
    -10.149  0.0000E+00  0.4000E+01
    -10.133  0.0000E+00  0.4000E+01
    -10.118  0.0000E+00  0.4000E+01
    -10.102  0.0000E+00  0.4000E+01
    -10.087  0.0000E+00  0.4000E+01
    -10.071  0.0000E+00  0.4000E+01
    -10.056  0.0000E+00  0.4000E+01
    -10.040  0.0000E+00  0.4000E+01
    -10.025  0.0000E+00  0.4000E+01
    -10.009  0.0000E+00  0.4000E+01
     -9.994  0.0000E+00  0.4000E+01
     -9.978  0.0000E+00  0.4000E+01
     -9.963  0.0000E+00  0.4000E+01
     -9.947  0.0000E+00  0.4000E+01
     -9.932  0.0000E+00  0.4000E+01
     -9.916  0.0000E+00  0.4000E+01
     -9.901  0.0000E+00  0.4000E+01
     -9.885  0.0000E+00  0.4000E+01
     -9.869  0.0000E+00  0.4000E+01
     -9.854  0.0000E+00  0.4000E+01
     -9.838  0.0000E+00  0.4000E+01
     -9.823  0.0000E+00  0.4000E+01
     -9.807  0.0000E+00  0.4000E+01
     -9.792  0.0000E+00  0.4000E+01
     -9.776  0.0000E+00  0.4000E+01
     -9.761  0.0000E+00  0.4000E+01
     -9.745  0.0000E+00  0.4000E+01
     -9.730  0.0000E+00  0.4000E+01
     -9.714  0.0000E+00  0.4000E+01
     -9.699  0.0000E+00  0.4000E+01
     -9.683  0.0000E+00  0.4000E+01
     -9.668  0.0000E+00  0.4000E+01
     -9.652  0.0000E+00  0.4000E+01
     -9.637  0.0000E+00  0.4000E+01
     -9.621  0.0000E+00  0.4000E+01
     -9.605  0.0000E+00  0.4000E+01
     -9.590  0.0000E+00  0.4000E+01
     -9.574  0.0000E+00  0.4000E+01
     -9.559  0.0000E+00  0.4000E+01
     -9.543  0.0000E+00  0.4000E+01
     -9.528  0.0000E+00  0.4000E+01
     -9.512  0.0000E+00  0.4000E+01
     -9.497  0.0000E+00  0.4000E+01
     -9.481  0.0000E+00  0.4000E+01
     -9.466  0.0000E+00  0.4000E+01
     -9.450  0.0000E+00  0.4000E+01
     -9.435  0.0000E+00  0.4000E+01
     -9.419  0.0000E+00  0.4000E+01
     -9.404  0.0000E+00  0.4000E+01
     -9.388  0.0000E+00  0.4000E+01
     -9.373  0.0000E+00  0.4000E+01
     -9.357  0.0000E+00  0.4000E+01
     -9.342  0.0000E+00  0.4000E+01
     -9.326  0.0000E+00  0.4000E+01
     -9.310  0.0000E+00  0.4000E+01
     -9.295  0.0000E+00  0.4000E+01
     -9.279  0.0000E+00  0.4000E+01
     -9.264  0.0000E+00  0.4000E+01
     -9.248  0.0000E+00  0.4000E+01
     -9.233  0.0000E+00  0.4000E+01
     -9.217  0.0000E+00  0.4000E+01
     -9.202  0.0000E+00  0.4000E+01
     -9.186  0.0000E+00  0.4000E+01
     -9.171  0.0000E+00  0.4000E+01
     -9.155  0.0000E+00  0.4000E+01
     -9.140  0.0000E+00  0.4000E+01
     -9.124  0.0000E+00  0.4000E+01
     -9.109  0.0000E+00  0.4000E+01
     -9.093  0.0000E+00  0.4000E+01
     -9.078  0.0000E+00  0.4000E+01
     -9.062  0.0000E+00  0.4000E+01
     -9.047  0.0000E+00  0.4000E+01
     -9.031  0.0000E+00  0.4000E+01
     -9.015  0.0000E+00  0.4000E+01
     -9.000  0.0000E+00  0.4000E+01
     -8.984  0.0000E+00  0.4000E+01
     -8.969  0.0000E+00  0.4000E+01
     -8.953  0.0000E+00  0.4000E+01
     -8.938  0.0000E+00  0.4000E+01
     -8.922  0.0000E+00  0.4000E+01
     -8.907  0.0000E+00  0.4000E+01
     -8.891  0.0000E+00  0.4000E+01
     -8.876  0.6287E-12  0.4000E+01
     -8.860  0.2164E-06  0.4000E+01
     -8.845  0.9142E-03  0.4000E+01
     -8.829  0.8425E-01  0.4001E+01
     -8.814  0.5483E+00  0.4010E+01
     -8.798  0.1021E+01  0.4026E+01
     -8.783  0.1367E+01  0.4047E+01
     -8.767  0.1664E+01  0.4073E+01
     -8.751  0.1975E+01  0.4103E+01
     -8.736  0.2208E+01  0.4138E+01
     -8.720  0.2666E+01  0.4179E+01
     -8.705  0.2784E+01  0.4222E+01
     -8.689  0.3360E+01  0.4275E+01
     -8.674  0.3761E+01  0.4333E+01
     -8.658  0.4622E+01  0.4405E+01
     -8.643  0.6274E+01  0.4502E+01
     -8.627  0.6541E+01  0.4604E+01
     -8.612  0.6705E+01  0.4708E+01
     -8.596  0.6629E+01  0.4811E+01
     -8.581  0.6550E+01  0.4912E+01
     -8.565  0.6993E+01  0.5021E+01
     -8.550  0.6894E+01  0.5128E+01
     -8.534  0.6646E+01  0.5231E+01
     -8.519  0.6729E+01  0.5336E+01
     -8.503  0.6698E+01  0.5440E+01
     -8.488  0.6656E+01  0.5543E+01
     -8.472  0.6936E+01  0.5651E+01
     -8.456  0.6928E+01  0.5758E+01
     -8.441  0.7057E+01  0.5868E+01
     -8.425  0.5552E+01  0.5954E+01
     -8.410  0.4454E+01  0.6023E+01
     -8.394  0.3740E+01  0.6081E+01
     -8.379  0.3584E+01  0.6137E+01
     -8.363  0.3735E+01  0.6195E+01
     -8.348  0.4194E+01  0.6260E+01
     -8.332  0.4965E+01  0.6337E+01
     -8.317  0.5216E+01  0.6418E+01
     -8.301  0.5065E+01  0.6497E+01
     -8.286  0.5039E+01  0.6575E+01
     -8.270  0.4976E+01  0.6652E+01
     -8.255  0.5037E+01  0.6731E+01
     -8.239  0.4783E+01  0.6805E+01
     -8.224  0.4539E+01  0.6875E+01
     -8.208  0.4867E+01  0.6951E+01
     -8.193  0.4581E+01  0.7022E+01
     -8.177  0.4583E+01  0.7093E+01
     -8.161  0.4455E+01  0.7162E+01
     -8.146  0.4469E+01  0.7232E+01
     -8.130  0.4552E+01  0.7302E+01
     -8.115  0.4538E+01  0.7373E+01
     -8.099  0.4777E+01  0.7447E+01
     -8.084  0.4874E+01  0.7523E+01
     -8.068  0.3942E+01  0.7584E+01
     -8.053  0.3380E+01  0.7636E+01
     -8.037  0.3170E+01  0.7686E+01
     -8.022  0.2724E+01  0.7728E+01
     -8.006  0.2405E+01  0.7765E+01
     -7.991  0.2182E+01  0.7799E+01
     -7.975  0.2193E+01  0.7833E+01
     -7.960  0.1537E+01  0.7857E+01
     -7.944  0.1460E+01  0.7880E+01
     -7.929  0.1353E+01  0.7901E+01
     -7.913  0.1163E+01  0.7919E+01
     -7.897  0.1002E+01  0.7934E+01
     -7.882  0.8420E+00  0.7948E+01
     -7.866  0.8211E+00  0.7960E+01
     -7.851  0.6784E+00  0.7971E+01
     -7.835  0.5204E+00  0.7979E+01
     -7.820  0.5220E+00  0.7987E+01
     -7.804  0.3573E+00  0.7993E+01
     -7.789  0.2941E+00  0.7997E+01
     -7.773  0.1558E+00  0.8000E+01
     -7.758  0.3123E-01  0.8000E+01
     -7.742  0.4170E-03  0.8000E+01
     -7.727  0.8981E-07  0.8000E+01
     -7.711  0.2048E-12  0.8000E+01
     -7.696  0.0000E+00  0.8000E+01
     -7.680  0.0000E+00  0.8000E+01
     -7.665  0.0000E+00  0.8000E+01
     -7.649  0.0000E+00  0.8000E+01
     -7.634  0.0000E+00  0.8000E+01
     -7.618  0.0000E+00  0.8000E+01
     -7.602  0.0000E+00  0.8000E+01
     -7.587  0.0000E+00  0.8000E+01
     -7.571  0.0000E+00  0.8000E+01
     -7.556  0.0000E+00  0.8000E+01
     -7.540  0.0000E+00  0.8000E+01
     -7.525  0.0000E+00  0.8000E+01
     -7.509  0.0000E+00  0.8000E+01
     -7.494  0.0000E+00  0.8000E+01
     -7.478  0.0000E+00  0.8000E+01
     -7.463  0.0000E+00  0.8000E+01
     -7.447  0.0000E+00  0.8000E+01
     -7.432  0.0000E+00  0.8000E+01
     -7.416  0.0000E+00  0.8000E+01
     -7.401  0.0000E+00  0.8000E+01
     -7.385  0.0000E+00  0.8000E+01
     -7.370  0.0000E+00  0.8000E+01
     -7.354  0.0000E+00  0.8000E+01
     -7.338  0.0000E+00  0.8000E+01
     -7.323  0.0000E+00  0.8000E+01
     -7.307  0.0000E+00  0.8000E+01
     -7.292  0.0000E+00  0.8000E+01
     -7.276  0.0000E+00  0.8000E+01
     -7.261  0.0000E+00  0.8000E+01
     -7.245  0.0000E+00  0.8000E+01
     -7.230  0.0000E+00  0.8000E+01
     -7.214  0.0000E+00  0.8000E+01
     -7.199  0.0000E+00  0.8000E+01
     -7.183  0.0000E+00  0.8000E+01
     -7.168  0.0000E+00  0.8000E+01
     -7.152  0.0000E+00  0.8000E+01
     -7.137  0.0000E+00  0.8000E+01
     -7.121  0.0000E+00  0.8000E+01
     -7.106  0.0000E+00  0.8000E+01
     -7.090  0.0000E+00  0.8000E+01
     -7.075  0.0000E+00  0.8000E+01
     -7.059  0.0000E+00  0.8000E+01
     -7.043  0.0000E+00  0.8000E+01
     -7.028  0.0000E+00  0.8000E+01
     -7.012  0.9967E-13  0.8000E+01
     -6.997  0.5215E-07  0.8000E+01
     -6.981  0.2914E-03  0.8000E+01
     -6.966  0.2489E-01  0.8000E+01
     -6.950  0.8541E-01  0.8002E+01
     -6.935  0.8278E-01  0.8003E+01
     -6.919  0.1614E+00  0.8006E+01
     -6.904  0.1823E+00  0.8008E+01
     -6.888  0.1849E+00  0.8011E+01
     -6.873  0.2250E+00  0.8015E+01
     -6.857  0.2340E+00  0.8018E+01
     -6.842  0.2170E+00  0.8022E+01
     -6.826  0.3106E+00  0.8027E+01
     -6.811  0.3300E+00  0.8032E+01
     -6.795  0.3372E+00  0.8037E+01
     -6.780  0.3599E+00  0.8042E+01
     -6.764  0.4074E+00  0.8049E+01
     -6.748  0.4251E+00  0.8055E+01
     -6.733  0.3516E+00  0.8061E+01
     -6.717  0.3702E+00  0.8067E+01
     -6.702  0.5017E+00  0.8074E+01
     -6.686  0.6208E+00  0.8084E+01
     -6.671  0.6285E+00  0.8094E+01
     -6.655  0.6297E+00  0.8104E+01
     -6.640  0.6190E+00  0.8113E+01
     -6.624  0.7068E+00  0.8124E+01
     -6.609  0.6589E+00  0.8134E+01
     -6.593  0.6497E+00  0.8144E+01
     -6.578  0.6779E+00  0.8155E+01
     -6.562  0.8534E+00  0.8168E+01
     -6.547  0.9040E+00  0.8182E+01
     -6.531  0.8765E+00  0.8196E+01
     -6.516  0.8732E+00  0.8209E+01
     -6.500  0.8453E+00  0.8223E+01
     -6.484  0.8409E+00  0.8236E+01
     -6.469  0.8576E+00  0.8249E+01
     -6.453  0.9544E+00  0.8264E+01
     -6.438  0.1056E+01  0.8280E+01
     -6.422  0.1114E+01  0.8297E+01
     -6.407  0.1262E+01  0.8317E+01
     -6.391  0.1611E+01  0.8342E+01
     -6.376  0.1803E+01  0.8370E+01
     -6.360  0.1590E+01  0.8395E+01
     -6.345  0.1717E+01  0.8421E+01
     -6.329  0.1693E+01  0.8448E+01
     -6.314  0.1791E+01  0.8476E+01
     -6.298  0.1949E+01  0.8506E+01
     -6.283  0.2024E+01  0.8537E+01
     -6.267  0.2115E+01  0.8570E+01
     -6.252  0.2274E+01  0.8605E+01
     -6.236  0.2535E+01  0.8645E+01
     -6.221  0.2834E+01  0.8689E+01
     -6.205  0.2846E+01  0.8733E+01
     -6.189  0.2811E+01  0.8777E+01
     -6.174  0.3251E+01  0.8827E+01
     -6.158  0.3629E+01  0.8883E+01
     -6.143  0.3510E+01  0.8938E+01
     -6.127  0.3984E+01  0.9000E+01
     -6.112  0.3877E+01  0.9060E+01
     -6.096  0.3744E+01  0.9118E+01
     -6.081  0.3855E+01  0.9178E+01
     -6.065  0.3924E+01  0.9239E+01
     -6.050  0.3944E+01  0.9300E+01
     -6.034  0.3966E+01  0.9362E+01
     -6.019  0.4061E+01  0.9425E+01
     -6.003  0.4083E+01  0.9488E+01
     -5.988  0.4036E+01  0.9551E+01
     -5.972  0.4048E+01  0.9614E+01
     -5.957  0.4138E+01  0.9678E+01
     -5.941  0.4329E+01  0.9745E+01
     -5.925  0.4122E+01  0.9809E+01
     -5.910  0.4045E+01  0.9872E+01
     -5.894  0.3851E+01  0.9932E+01
     -5.879  0.3687E+01  0.9989E+01
     -5.863  0.3834E+01  0.1005E+02
     -5.848  0.3830E+01  0.1011E+02
     -5.832  0.3920E+01  0.1017E+02
     -5.817  0.4112E+01  0.1023E+02
     -5.801  0.4479E+01  0.1030E+02
     -5.786  0.4876E+01  0.1038E+02
     -5.770  0.4614E+01  0.1045E+02
     -5.755  0.3903E+01  0.1051E+02
     -5.739  0.3836E+01  0.1057E+02
     -5.724  0.4306E+01  0.1064E+02
     -5.708  0.3869E+01  0.1070E+02
     -5.693  0.4050E+01  0.1076E+02
     -5.677  0.3992E+01  0.1082E+02
     -5.662  0.3857E+01  0.1088E+02
     -5.646  0.3971E+01  0.1094E+02
     -5.630  0.4064E+01  0.1101E+02
     -5.615  0.3524E+01  0.1106E+02
     -5.599  0.4174E+01  0.1113E+02
     -5.584  0.4198E+01  0.1119E+02
     -5.568  0.4145E+01  0.1126E+02
     -5.553  0.3891E+01  0.1132E+02
     -5.537  0.4141E+01  0.1138E+02
     -5.522  0.4486E+01  0.1145E+02
     -5.506  0.4315E+01  0.1152E+02
     -5.491  0.4289E+01  0.1158E+02
     -5.475  0.4141E+01  0.1165E+02
     -5.460  0.4553E+01  0.1172E+02
     -5.444  0.4519E+01  0.1179E+02
     -5.429  0.4426E+01  0.1186E+02
     -5.413  0.4666E+01  0.1193E+02
     -5.398  0.4800E+01  0.1200E+02
     -5.382  0.4825E+01  0.1208E+02
     -5.367  0.4714E+01  0.1215E+02
     -5.351  0.4987E+01  0.1223E+02
     -5.335  0.5272E+01  0.1231E+02
     -5.320  0.4757E+01  0.1239E+02
     -5.304  0.4528E+01  0.1246E+02
     -5.289  0.4727E+01  0.1253E+02
     -5.273  0.4819E+01  0.1260E+02
     -5.258  0.4559E+01  0.1267E+02
     -5.242  0.4412E+01  0.1274E+02
     -5.227  0.4297E+01  0.1281E+02
     -5.211  0.4154E+01  0.1287E+02
     -5.196  0.4101E+01  0.1294E+02
     -5.180  0.4081E+01  0.1300E+02
     -5.165  0.3809E+01  0.1306E+02
     -5.149  0.4174E+01  0.1313E+02
     -5.134  0.4512E+01  0.1320E+02
     -5.118  0.3959E+01  0.1326E+02
     -5.103  0.3625E+01  0.1331E+02
     -5.087  0.3600E+01  0.1337E+02
     -5.071  0.3803E+01  0.1343E+02
     -5.056  0.3605E+01  0.1348E+02
     -5.040  0.3666E+01  0.1354E+02
     -5.025  0.3377E+01  0.1359E+02
     -5.009  0.3269E+01  0.1364E+02
     -4.994  0.2937E+01  0.1369E+02
     -4.978  0.2945E+01  0.1374E+02
     -4.963  0.2817E+01  0.1378E+02
     -4.947  0.2839E+01  0.1382E+02
     -4.932  0.2816E+01  0.1387E+02
     -4.916  0.2455E+01  0.1391E+02
     -4.901  0.2214E+01  0.1394E+02
     -4.885  0.2160E+01  0.1397E+02
     -4.870  0.2380E+01  0.1401E+02
     -4.854  0.2036E+01  0.1404E+02
     -4.839  0.1926E+01  0.1407E+02
     -4.823  0.2597E+01  0.1411E+02
     -4.808  0.2887E+01  0.1416E+02
     -4.792  0.2694E+01  0.1420E+02
     -4.776  0.2529E+01  0.1424E+02
     -4.761  0.2814E+01  0.1428E+02
     -4.745  0.3031E+01  0.1433E+02
     -4.730  0.3333E+01  0.1438E+02
     -4.714  0.2735E+01  0.1442E+02
     -4.699  0.2656E+01  0.1446E+02
     -4.683  0.3254E+01  0.1451E+02
     -4.668  0.3618E+01  0.1457E+02
     -4.652  0.3797E+01  0.1463E+02
     -4.637  0.3602E+01  0.1469E+02
     -4.621  0.3487E+01  0.1474E+02
     -4.606  0.3811E+01  0.1480E+02
     -4.590  0.3700E+01  0.1486E+02
     -4.575  0.3543E+01  0.1491E+02
     -4.559  0.3433E+01  0.1496E+02
     -4.544  0.3875E+01  0.1503E+02
     -4.528  0.3585E+01  0.1508E+02
     -4.513  0.3526E+01  0.1514E+02
     -4.497  0.3406E+01  0.1519E+02
     -4.481  0.3764E+01  0.1525E+02
     -4.466  0.3468E+01  0.1530E+02
     -4.450  0.2891E+01  0.1535E+02
     -4.435  0.3009E+01  0.1539E+02
     -4.419  0.2793E+01  0.1544E+02
     -4.404  0.3261E+01  0.1549E+02
     -4.388  0.3342E+01  0.1554E+02
     -4.373  0.3365E+01  0.1559E+02
     -4.357  0.3330E+01  0.1564E+02
     -4.342  0.2854E+01  0.1569E+02
     -4.326  0.2550E+01  0.1573E+02
     -4.311  0.2545E+01  0.1577E+02
     -4.295  0.2633E+01  0.1581E+02
     -4.280  0.3053E+01  0.1585E+02
     -4.264  0.3331E+01  0.1591E+02
     -4.249  0.3088E+01  0.1595E+02
     -4.233  0.2991E+01  0.1600E+02
     -4.217  0.2806E+01  0.1604E+02
     -4.202  0.2808E+01  0.1609E+02
     -4.186  0.2794E+01  0.1613E+02
     -4.171  0.2825E+01  0.1617E+02
     -4.155  0.2801E+01  0.1622E+02
     -4.140  0.2780E+01  0.1626E+02
     -4.124  0.2777E+01  0.1630E+02
     -4.109  0.3041E+01  0.1635E+02
     -4.093  0.3045E+01  0.1640E+02
     -4.078  0.3084E+01  0.1645E+02
     -4.062  0.2949E+01  0.1649E+02
     -4.047  0.2943E+01  0.1654E+02
     -4.031  0.3145E+01  0.1659E+02
     -4.016  0.2792E+01  0.1663E+02
     -4.000  0.2769E+01  0.1667E+02
     -3.985  0.2798E+01  0.1672E+02
     -3.969  0.3080E+01  0.1676E+02
     -3.954  0.3253E+01  0.1682E+02
     -3.938  0.3017E+01  0.1686E+02
     -3.922  0.2937E+01  0.1691E+02
     -3.907  0.2627E+01  0.1695E+02
     -3.891  0.3135E+01  0.1700E+02
     -3.876  0.3131E+01  0.1705E+02
     -3.860  0.2918E+01  0.1709E+02
     -3.845  0.3012E+01  0.1714E+02
     -3.829  0.3017E+01  0.1718E+02
     -3.814  0.3322E+01  0.1724E+02
     -3.798  0.3411E+01  0.1729E+02
     -3.783  0.2941E+01  0.1733E+02
     -3.767  0.2604E+01  0.1738E+02
     -3.752  0.2933E+01  0.1742E+02
     -3.736  0.2905E+01  0.1747E+02
     -3.721  0.3154E+01  0.1751E+02
     -3.705  0.2799E+01  0.1756E+02
     -3.690  0.2814E+01  0.1760E+02
     -3.674  0.3010E+01  0.1765E+02
     -3.658  0.2986E+01  0.1770E+02
     -3.643  0.2775E+01  0.1774E+02
     -3.627  0.2741E+01  0.1778E+02
     -3.612  0.2700E+01  0.1782E+02
     -3.596  0.2884E+01  0.1787E+02
     -3.581  0.3092E+01  0.1792E+02
     -3.565  0.2868E+01  0.1796E+02
     -3.550  0.2742E+01  0.1800E+02
     -3.534  0.2496E+01  0.1804E+02
     -3.519  0.2663E+01  0.1808E+02
     -3.503  0.2847E+01  0.1813E+02
     -3.488  0.2911E+01  0.1817E+02
     -3.472  0.2489E+01  0.1821E+02
     -3.457  0.2411E+01  0.1825E+02
     -3.441  0.2598E+01  0.1829E+02
     -3.426  0.2870E+01  0.1833E+02
     -3.410  0.2806E+01  0.1838E+02
     -3.395  0.2517E+01  0.1842E+02
     -3.379  0.2507E+01  0.1845E+02
     -3.363  0.2579E+01  0.1849E+02
     -3.348  0.2530E+01  0.1853E+02
     -3.332  0.2840E+01  0.1858E+02
     -3.317  0.3103E+01  0.1863E+02
     -3.301  0.2695E+01  0.1867E+02
     -3.286  0.2279E+01  0.1870E+02
     -3.270  0.2463E+01  0.1874E+02
     -3.255  0.2879E+01  0.1879E+02
     -3.239  0.2671E+01  0.1883E+02
     -3.224  0.2670E+01  0.1887E+02
     -3.208  0.2662E+01  0.1891E+02
     -3.193  0.2841E+01  0.1895E+02
     -3.177  0.2453E+01  0.1899E+02
     -3.162  0.2574E+01  0.1903E+02
     -3.146  0.2777E+01  0.1908E+02
     -3.131  0.3009E+01  0.1912E+02
     -3.115  0.3080E+01  0.1917E+02
     -3.100  0.3020E+01  0.1922E+02
     -3.084  0.2602E+01  0.1926E+02
     -3.068  0.2482E+01  0.1930E+02
     -3.053  0.2987E+01  0.1934E+02
     -3.037  0.3319E+01  0.1939E+02
     -3.022  0.3344E+01  0.1945E+02
     -3.006  0.3356E+01  0.1950E+02
     -2.991  0.3371E+01  0.1955E+02
     -2.975  0.2898E+01  0.1960E+02
     -2.960  0.2953E+01  0.1964E+02
     -2.944  0.3118E+01  0.1969E+02
     -2.929  0.3053E+01  0.1974E+02
     -2.913  0.2846E+01  0.1978E+02
     -2.898  0.2910E+01  0.1983E+02
     -2.882  0.2521E+01  0.1987E+02
     -2.867  0.2504E+01  0.1990E+02
     -2.851  0.2737E+01  0.1995E+02
     -2.836  0.2713E+01  0.1999E+02
     -2.820  0.2778E+01  0.2003E+02
     -2.804  0.2756E+01  0.2008E+02
     -2.789  0.2369E+01  0.2011E+02
     -2.773  0.2114E+01  0.2014E+02
     -2.758  0.1990E+01  0.2018E+02
     -2.742  0.2060E+01  0.2021E+02
     -2.727  0.2258E+01  0.2024E+02
     -2.711  0.2410E+01  0.2028E+02