Automatically generated mesh
    2964
Reciprocal lattice
    0.01923076923077    0.00000000000000    0.02083333333334             4
    0.05769230769231    0.00000000000000    0.02083333333334             4
    0.09615384615385    0.00000000000000    0.02083333333334             4
    0.13461538461539    0.00000000000000    0.02083333333334             4
    0.17307692307692    0.00000000000000    0.02083333333334             4
    0.21153846153846    0.00000000000000    0.02083333333334             4
    0.25000000000000    0.00000000000000    0.02083333333334             4
    0.28846153846154    0.00000000000000    0.02083333333334             4
    0.32692307692308    0.00000000000000    0.02083333333334             4
    0.36538461538461    0.00000000000000    0.02083333333334             4
    0.40384615384615    0.00000000000000    0.02083333333334             4
    0.44230769230769    0.00000000000000    0.02083333333334             4
    0.48076923076923    0.00000000000000    0.02083333333334             4
    0.01923076923077    0.02702702702702    0.02083333333334             8
    0.05769230769231    0.02702702702702    0.02083333333334             8
    0.09615384615385    0.02702702702702    0.02083333333334             8
    0.13461538461539    0.02702702702702    0.02083333333334             8
    0.17307692307692    0.02702702702702    0.02083333333334             8
    0.21153846153846    0.02702702702702    0.02083333333334             8
    0.25000000000000    0.02702702702702    0.02083333333334             8
    0.28846153846154    0.02702702702702    0.02083333333334             8
    0.32692307692308    0.02702702702702    0.02083333333334             8
    0.36538461538461    0.02702702702702    0.02083333333334             8
    0.40384615384615    0.02702702702702    0.02083333333334             8
    0.44230769230769    0.02702702702702    0.02083333333334             8
    0.48076923076923    0.02702702702702    0.02083333333334             8
    0.01923076923077    0.05405405405406    0.02083333333334             8
    0.05769230769231    0.05405405405406    0.02083333333334             8
    0.09615384615385    0.05405405405406    0.02083333333334             8
    0.13461538461539    0.05405405405406    0.02083333333334             8
    0.17307692307692    0.05405405405406    0.02083333333334             8
    0.21153846153846    0.05405405405406    0.02083333333334             8
    0.25000000000000    0.05405405405406    0.02083333333334             8
    0.28846153846154    0.05405405405406    0.02083333333334             8
    0.32692307692308    0.05405405405406    0.02083333333334             8
    0.36538461538461    0.05405405405406    0.02083333333334             8
    0.40384615384615    0.05405405405406    0.02083333333334             8
    0.44230769230769    0.05405405405406    0.02083333333334             8
    0.48076923076923    0.05405405405406    0.02083333333334             8
    0.01923076923077    0.08108108108108    0.02083333333334             8
    0.05769230769231    0.08108108108108    0.02083333333334             8
    0.09615384615385    0.08108108108108    0.02083333333334             8
    0.13461538461539    0.08108108108108    0.02083333333334             8
    0.17307692307692    0.08108108108108    0.02083333333334             8
    0.21153846153846    0.08108108108108    0.02083333333334             8
    0.25000000000000    0.08108108108108    0.02083333333334             8
    0.28846153846154    0.08108108108108    0.02083333333334             8
    0.32692307692308    0.08108108108108    0.02083333333334             8
    0.36538461538461    0.08108108108108    0.02083333333334             8
    0.40384615384615    0.08108108108108    0.02083333333334             8
    0.44230769230769    0.08108108108108    0.02083333333334             8
    0.48076923076923    0.08108108108108    0.02083333333334             8
    0.01923076923077    0.10810810810811    0.02083333333334             8
    0.05769230769231    0.10810810810811    0.02083333333334             8
    0.09615384615385    0.10810810810811    0.02083333333334             8
    0.13461538461539    0.10810810810811    0.02083333333334             8
    0.17307692307692    0.10810810810811    0.02083333333334             8
    0.21153846153846    0.10810810810811    0.02083333333334             8
    0.25000000000000    0.10810810810811    0.02083333333334             8
    0.28846153846154    0.10810810810811    0.02083333333334             8
    0.32692307692308    0.10810810810811    0.02083333333334             8
    0.36538461538461    0.10810810810811    0.02083333333334             8
    0.40384615384615    0.10810810810811    0.02083333333334             8
    0.44230769230769    0.10810810810811    0.02083333333334             8
    0.48076923076923    0.10810810810811    0.02083333333334             8
    0.01923076923077    0.13513513513514    0.02083333333334             8
    0.05769230769231    0.13513513513514    0.02083333333334             8
    0.09615384615385    0.13513513513514    0.02083333333334             8
    0.13461538461539    0.13513513513514    0.02083333333334             8
    0.17307692307692    0.13513513513514    0.02083333333334             8
    0.21153846153846    0.13513513513514    0.02083333333334             8
    0.25000000000000    0.13513513513514    0.02083333333334             8
    0.28846153846154    0.13513513513514    0.02083333333334             8
    0.32692307692308    0.13513513513514    0.02083333333334             8
    0.36538461538461    0.13513513513514    0.02083333333334             8
    0.40384615384615    0.13513513513514    0.02083333333334             8
    0.44230769230769    0.13513513513514    0.02083333333334             8
    0.48076923076923    0.13513513513514    0.02083333333334             8
    0.01923076923077    0.16216216216216    0.02083333333334             8
    0.05769230769231    0.16216216216216    0.02083333333334             8
    0.09615384615385    0.16216216216216    0.02083333333334             8
    0.13461538461539    0.16216216216216    0.02083333333334             8
    0.17307692307692    0.16216216216216    0.02083333333334             8
    0.21153846153846    0.16216216216216    0.02083333333334             8
    0.25000000000000    0.16216216216216    0.02083333333334             8
    0.28846153846154    0.16216216216216    0.02083333333334             8
    0.32692307692308    0.16216216216216    0.02083333333334             8
    0.36538461538461    0.16216216216216    0.02083333333334             8
    0.40384615384615    0.16216216216216    0.02083333333334             8
    0.44230769230769    0.16216216216216    0.02083333333334             8
    0.48076923076923    0.16216216216216    0.02083333333334             8
    0.01923076923077    0.18918918918919    0.02083333333334             8
    0.05769230769231    0.18918918918919    0.02083333333334             8
    0.09615384615385    0.18918918918919    0.02083333333334             8
    0.13461538461539    0.18918918918919    0.02083333333334             8
    0.17307692307692    0.18918918918919    0.02083333333334             8
    0.21153846153846    0.18918918918919    0.02083333333334             8
    0.25000000000000    0.18918918918919    0.02083333333334             8
    0.28846153846154    0.18918918918919    0.02083333333334             8
    0.32692307692308    0.18918918918919    0.02083333333334             8
    0.36538461538461    0.18918918918919    0.02083333333334             8
    0.40384615384615    0.18918918918919    0.02083333333334             8
    0.44230769230769    0.18918918918919    0.02083333333334             8
    0.48076923076923    0.18918918918919    0.02083333333334             8
    0.01923076923077    0.21621621621622    0.02083333333334             8
    0.05769230769231    0.21621621621622    0.02083333333334             8
    0.09615384615385    0.21621621621622    0.02083333333334             8
    0.13461538461539    0.21621621621622    0.02083333333334             8
    0.17307692307692    0.21621621621622    0.02083333333334             8
    0.21153846153846    0.21621621621622    0.02083333333334             8
    0.25000000000000    0.21621621621622    0.02083333333334             8
    0.28846153846154    0.21621621621622    0.02083333333334             8
    0.32692307692308    0.21621621621622    0.02083333333334             8
    0.36538461538461    0.21621621621622    0.02083333333334             8
    0.40384615384615    0.21621621621622    0.02083333333334             8
    0.44230769230769    0.21621621621622    0.02083333333334             8
    0.48076923076923    0.21621621621622    0.02083333333334             8
    0.01923076923077    0.24324324324324    0.02083333333334             8
    0.05769230769231    0.24324324324324    0.02083333333334             8
    0.09615384615385    0.24324324324324    0.02083333333334             8
    0.13461538461539    0.24324324324324    0.02083333333334             8
    0.17307692307692    0.24324324324324    0.02083333333334             8
    0.21153846153846    0.24324324324324    0.02083333333334             8
    0.25000000000000    0.24324324324324    0.02083333333334             8
    0.28846153846154    0.24324324324324    0.02083333333334             8
    0.32692307692308    0.24324324324324    0.02083333333334             8
    0.36538461538461    0.24324324324324    0.02083333333334             8
    0.40384615384615    0.24324324324324    0.02083333333334             8
    0.44230769230769    0.24324324324324    0.02083333333334             8
    0.48076923076923    0.24324324324324    0.02083333333334             8
    0.01923076923077    0.27027027027027    0.02083333333334             8
    0.05769230769231    0.27027027027027    0.02083333333334             8
    0.09615384615385    0.27027027027027    0.02083333333334             8
    0.13461538461539    0.27027027027027    0.02083333333334             8
    0.17307692307692    0.27027027027027    0.02083333333334             8
    0.21153846153846    0.27027027027027    0.02083333333334             8
    0.25000000000000    0.27027027027027    0.02083333333334             8
    0.28846153846154    0.27027027027027    0.02083333333334             8
    0.32692307692308    0.27027027027027    0.02083333333334             8
    0.36538461538461    0.27027027027027    0.02083333333334             8
    0.40384615384615    0.27027027027027    0.02083333333334             8
    0.44230769230769    0.27027027027027    0.02083333333334             8
    0.48076923076923    0.27027027027027    0.02083333333334             8
    0.01923076923077    0.29729729729730    0.02083333333334             8
    0.05769230769231    0.29729729729730    0.02083333333334             8
    0.09615384615385    0.29729729729730    0.02083333333334             8
    0.13461538461539    0.29729729729730    0.02083333333334             8
    0.17307692307692    0.29729729729730    0.02083333333334             8
    0.21153846153846    0.29729729729730    0.02083333333334             8
    0.25000000000000    0.29729729729730    0.02083333333334             8
    0.28846153846154    0.29729729729730    0.02083333333334             8
    0.32692307692308    0.29729729729730    0.02083333333334             8
    0.36538461538461    0.29729729729730    0.02083333333334             8
    0.40384615384615    0.29729729729730    0.02083333333334             8
    0.44230769230769    0.29729729729730    0.02083333333334             8
    0.48076923076923    0.29729729729730    0.02083333333334             8
    0.01923076923077    0.32432432432432    0.02083333333334             8
    0.05769230769231    0.32432432432432    0.02083333333334             8
    0.09615384615385    0.32432432432432    0.02083333333334             8
    0.13461538461539    0.32432432432432    0.02083333333334             8
    0.17307692307692    0.32432432432432    0.02083333333334             8
    0.21153846153846    0.32432432432432    0.02083333333334             8
    0.25000000000000    0.32432432432432    0.02083333333334             8
    0.28846153846154    0.32432432432432    0.02083333333334             8
    0.32692307692308    0.32432432432432    0.02083333333334             8
    0.36538461538461    0.32432432432432    0.02083333333334             8
    0.40384615384615    0.32432432432432    0.02083333333334             8
    0.44230769230769    0.32432432432432    0.02083333333334             8
    0.48076923076923    0.32432432432432    0.02083333333334             8
    0.01923076923077    0.35135135135135    0.02083333333334             8
    0.05769230769231    0.35135135135135    0.02083333333334             8
    0.09615384615385    0.35135135135135    0.02083333333334             8
    0.13461538461539    0.35135135135135    0.02083333333334             8
    0.17307692307692    0.35135135135135    0.02083333333334             8
    0.21153846153846    0.35135135135135    0.02083333333334             8
    0.25000000000000    0.35135135135135    0.02083333333334             8
    0.28846153846154    0.35135135135135    0.02083333333334             8
    0.32692307692308    0.35135135135135    0.02083333333334             8
    0.36538461538461    0.35135135135135    0.02083333333334             8
    0.40384615384615    0.35135135135135    0.02083333333334             8
    0.44230769230769    0.35135135135135    0.02083333333334             8
    0.48076923076923    0.35135135135135    0.02083333333334             8
    0.01923076923077    0.37837837837838    0.02083333333334             8
    0.05769230769231    0.37837837837838    0.02083333333334             8
    0.09615384615385    0.37837837837838    0.02083333333334             8
    0.13461538461539    0.37837837837838    0.02083333333334             8
    0.17307692307692    0.37837837837838    0.02083333333334             8
    0.21153846153846    0.37837837837838    0.02083333333334             8
    0.25000000000000    0.37837837837838    0.02083333333334             8
    0.28846153846154    0.37837837837838    0.02083333333334             8
    0.32692307692308    0.37837837837838    0.02083333333334             8
    0.36538461538461    0.37837837837838    0.02083333333334             8
    0.40384615384615    0.37837837837838    0.02083333333334             8
    0.44230769230769    0.37837837837838    0.02083333333334             8
    0.48076923076923    0.37837837837838    0.02083333333334             8
    0.01923076923077    0.40540540540540    0.02083333333334             8
    0.05769230769231    0.40540540540540    0.02083333333334             8
    0.09615384615385    0.40540540540540    0.02083333333334             8
    0.13461538461539    0.40540540540540    0.02083333333334             8
    0.17307692307692    0.40540540540540    0.02083333333334             8
    0.21153846153846    0.40540540540540    0.02083333333334             8
    0.25000000000000    0.40540540540540    0.02083333333334             8
    0.28846153846154    0.40540540540540    0.02083333333334             8
    0.32692307692308    0.40540540540540    0.02083333333334             8
    0.36538461538461    0.40540540540540    0.02083333333334             8
    0.40384615384615    0.40540540540540    0.02083333333334             8
    0.44230769230769    0.40540540540540    0.02083333333334             8
    0.48076923076923    0.40540540540540    0.02083333333334             8
    0.01923076923077    0.43243243243244    0.02083333333334             8
    0.05769230769231    0.43243243243244    0.02083333333334             8
    0.09615384615385    0.43243243243244    0.02083333333334             8
    0.13461538461539    0.43243243243244    0.02083333333334             8
    0.17307692307692    0.43243243243244    0.02083333333334             8
    0.21153846153846    0.43243243243244    0.02083333333334             8
    0.25000000000000    0.43243243243244    0.02083333333334             8
    0.28846153846154    0.43243243243244    0.02083333333334             8
    0.32692307692308    0.43243243243244    0.02083333333334             8
    0.36538461538461    0.43243243243244    0.02083333333334             8
    0.40384615384615    0.43243243243244    0.02083333333334             8
    0.44230769230769    0.43243243243244    0.02083333333334             8
    0.48076923076923    0.43243243243244    0.02083333333334             8
    0.01923076923077    0.45945945945946    0.02083333333334             8
    0.05769230769231    0.45945945945946    0.02083333333334             8
    0.09615384615385    0.45945945945946    0.02083333333334             8
    0.13461538461539    0.45945945945946    0.02083333333334             8
    0.17307692307692    0.45945945945946    0.02083333333334             8
    0.21153846153846    0.45945945945946    0.02083333333334             8
    0.25000000000000    0.45945945945946    0.02083333333334             8
    0.28846153846154    0.45945945945946    0.02083333333334             8
    0.32692307692308    0.45945945945946    0.02083333333334             8
    0.36538461538461    0.45945945945946    0.02083333333334             8
    0.40384615384615    0.45945945945946    0.02083333333334             8
    0.44230769230769    0.45945945945946    0.02083333333334             8
    0.48076923076923    0.45945945945946    0.02083333333334             8
    0.01923076923077    0.48648648648648    0.02083333333334             8
    0.05769230769231    0.48648648648648    0.02083333333334             8
    0.09615384615385    0.48648648648648    0.02083333333334             8
    0.13461538461539    0.48648648648648    0.02083333333334             8
    0.17307692307692    0.48648648648648    0.02083333333334             8
    0.21153846153846    0.48648648648648    0.02083333333334             8
    0.25000000000000    0.48648648648648    0.02083333333334             8
    0.28846153846154    0.48648648648648    0.02083333333334             8
    0.32692307692308    0.48648648648648    0.02083333333334             8
    0.36538461538461    0.48648648648648    0.02083333333334             8
    0.40384615384615    0.48648648648648    0.02083333333334             8
    0.44230769230769    0.48648648648648    0.02083333333334             8
    0.48076923076923    0.48648648648648    0.02083333333334             8
    0.01923076923077    0.00000000000000    0.06250000000000             4
    0.05769230769231    0.00000000000000    0.06250000000000             4
    0.09615384615385    0.00000000000000    0.06250000000000             4
    0.13461538461539    0.00000000000000    0.06250000000000             4
    0.17307692307692    0.00000000000000    0.06250000000000             4
    0.21153846153846    0.00000000000000    0.06250000000000             4
    0.25000000000000    0.00000000000000    0.06250000000000             4
    0.28846153846154    0.00000000000000    0.06250000000000             4
    0.32692307692308    0.00000000000000    0.06250000000000             4
    0.36538461538461    0.00000000000000    0.06250000000000             4
    0.40384615384615    0.00000000000000    0.06250000000000             4
    0.44230769230769    0.00000000000000    0.06250000000000             4
    0.48076923076923    0.00000000000000    0.06250000000000             4
    0.01923076923077    0.02702702702702    0.06250000000000             8
    0.05769230769231    0.02702702702702    0.06250000000000             8
    0.09615384615385    0.02702702702702    0.06250000000000             8
    0.13461538461539    0.02702702702702    0.06250000000000             8
    0.17307692307692    0.02702702702702    0.06250000000000             8
    0.21153846153846    0.02702702702702    0.06250000000000             8
    0.25000000000000    0.02702702702702    0.06250000000000             8
    0.28846153846154    0.02702702702702    0.06250000000000             8
    0.32692307692308    0.02702702702702    0.06250000000000             8
    0.36538461538461    0.02702702702702    0.06250000000000             8
    0.40384615384615    0.02702702702702    0.06250000000000             8
    0.44230769230769    0.02702702702702    0.06250000000000             8
    0.48076923076923    0.02702702702702    0.06250000000000             8
    0.01923076923077    0.05405405405406    0.06250000000000             8
    0.05769230769231    0.05405405405406    0.06250000000000             8
    0.09615384615385    0.05405405405406    0.06250000000000             8
    0.13461538461539    0.05405405405406    0.06250000000000             8
    0.17307692307692    0.05405405405406    0.06250000000000             8
    0.21153846153846    0.05405405405406    0.06250000000000             8
    0.25000000000000    0.05405405405406    0.06250000000000             8
    0.28846153846154    0.05405405405406    0.06250000000000             8
    0.32692307692308    0.05405405405406    0.06250000000000             8
    0.36538461538461    0.05405405405406    0.06250000000000             8
    0.40384615384615    0.05405405405406    0.06250000000000             8
    0.44230769230769    0.05405405405406    0.06250000000000             8
    0.48076923076923    0.05405405405406    0.06250000000000             8
    0.01923076923077    0.08108108108108    0.06250000000000             8
    0.05769230769231    0.08108108108108    0.06250000000000             8
    0.09615384615385    0.08108108108108    0.06250000000000             8
    0.13461538461539    0.08108108108108    0.06250000000000             8
    0.17307692307692    0.08108108108108    0.06250000000000             8
    0.21153846153846    0.08108108108108    0.06250000000000             8
    0.25000000000000    0.08108108108108    0.06250000000000             8
    0.28846153846154    0.08108108108108    0.06250000000000             8
    0.32692307692308    0.08108108108108    0.06250000000000             8
    0.36538461538461    0.08108108108108    0.06250000000000             8
    0.40384615384615    0.08108108108108    0.06250000000000             8
    0.44230769230769    0.08108108108108    0.06250000000000             8
    0.48076923076923    0.08108108108108    0.06250000000000             8
    0.01923076923077    0.10810810810811    0.06250000000000             8
    0.05769230769231    0.10810810810811    0.06250000000000             8
    0.09615384615385    0.10810810810811    0.06250000000000             8
    0.13461538461539    0.10810810810811    0.06250000000000             8
    0.17307692307692    0.10810810810811    0.06250000000000             8
    0.21153846153846    0.10810810810811    0.06250000000000             8
    0.25000000000000    0.10810810810811    0.06250000000000             8
    0.28846153846154    0.10810810810811    0.06250000000000             8
    0.32692307692308    0.10810810810811    0.06250000000000             8
    0.36538461538461    0.10810810810811    0.06250000000000             8
    0.40384615384615    0.10810810810811    0.06250000000000             8
    0.44230769230769    0.10810810810811    0.06250000000000             8
    0.48076923076923    0.10810810810811    0.06250000000000             8
    0.01923076923077    0.13513513513514    0.06250000000000             8
    0.05769230769231    0.13513513513514    0.06250000000000             8
    0.09615384615385    0.13513513513514    0.06250000000000             8
    0.13461538461539    0.13513513513514    0.06250000000000             8
    0.17307692307692    0.13513513513514    0.06250000000000             8
    0.21153846153846    0.13513513513514    0.06250000000000             8
    0.25000000000000    0.13513513513514    0.06250000000000             8
    0.28846153846154    0.13513513513514    0.06250000000000             8
    0.32692307692308    0.13513513513514    0.06250000000000             8
    0.36538461538461    0.13513513513514    0.06250000000000             8
    0.40384615384615    0.13513513513514    0.06250000000000             8
    0.44230769230769    0.13513513513514    0.06250000000000             8
    0.48076923076923    0.13513513513514    0.06250000000000             8
    0.01923076923077    0.16216216216216    0.06250000000000             8
    0.05769230769231    0.16216216216216    0.06250000000000             8
    0.09615384615385    0.16216216216216    0.06250000000000             8
    0.13461538461539    0.16216216216216    0.06250000000000             8
    0.17307692307692    0.16216216216216    0.06250000000000             8
    0.21153846153846    0.16216216216216    0.06250000000000             8
    0.25000000000000    0.16216216216216    0.06250000000000             8
    0.28846153846154    0.16216216216216    0.06250000000000             8
    0.32692307692308    0.16216216216216    0.06250000000000             8
    0.36538461538461    0.16216216216216    0.06250000000000             8
    0.40384615384615    0.16216216216216    0.06250000000000             8
    0.44230769230769    0.16216216216216    0.06250000000000             8
    0.48076923076923    0.16216216216216    0.06250000000000             8
    0.01923076923077    0.18918918918919    0.06250000000000             8
    0.05769230769231    0.18918918918919    0.06250000000000             8
    0.09615384615385    0.18918918918919    0.06250000000000             8
    0.13461538461539    0.18918918918919    0.06250000000000             8
    0.17307692307692    0.18918918918919    0.06250000000000             8
    0.21153846153846    0.18918918918919    0.06250000000000             8
    0.25000000000000    0.18918918918919    0.06250000000000             8
    0.28846153846154    0.18918918918919    0.06250000000000             8
    0.32692307692308    0.18918918918919    0.06250000000000             8
    0.36538461538461    0.18918918918919    0.06250000000000             8
    0.40384615384615    0.18918918918919    0.06250000000000             8
    0.44230769230769    0.18918918918919    0.06250000000000             8
    0.48076923076923    0.18918918918919    0.06250000000000             8
    0.01923076923077    0.21621621621622    0.06250000000000             8
    0.05769230769231    0.21621621621622    0.06250000000000             8
    0.09615384615385    0.21621621621622    0.06250000000000             8
    0.13461538461539    0.21621621621622    0.06250000000000             8
    0.17307692307692    0.21621621621622    0.06250000000000             8
    0.21153846153846    0.21621621621622    0.06250000000000             8
    0.25000000000000    0.21621621621622    0.06250000000000             8
    0.28846153846154    0.21621621621622    0.06250000000000             8
    0.32692307692308    0.21621621621622    0.06250000000000             8
    0.36538461538461    0.21621621621622    0.06250000000000             8
    0.40384615384615    0.21621621621622    0.06250000000000             8
    0.44230769230769    0.21621621621622    0.06250000000000             8
    0.48076923076923    0.21621621621622    0.06250000000000             8
    0.01923076923077    0.24324324324324    0.06250000000000             8
    0.05769230769231    0.24324324324324    0.06250000000000             8
    0.09615384615385    0.24324324324324    0.06250000000000             8
    0.13461538461539    0.24324324324324    0.06250000000000             8
    0.17307692307692    0.24324324324324    0.06250000000000             8
    0.21153846153846    0.24324324324324    0.06250000000000             8
    0.25000000000000    0.24324324324324    0.06250000000000             8
    0.28846153846154    0.24324324324324    0.06250000000000             8
    0.32692307692308    0.24324324324324    0.06250000000000             8
    0.36538461538461    0.24324324324324    0.06250000000000             8
    0.40384615384615    0.24324324324324    0.06250000000000             8
    0.44230769230769    0.24324324324324    0.06250000000000             8
    0.48076923076923    0.24324324324324    0.06250000000000             8
    0.01923076923077    0.27027027027027    0.06250000000000             8
    0.05769230769231    0.27027027027027    0.06250000000000             8
    0.09615384615385    0.27027027027027    0.06250000000000             8
    0.13461538461539    0.27027027027027    0.06250000000000             8
    0.17307692307692    0.27027027027027    0.06250000000000             8
    0.21153846153846    0.27027027027027    0.06250000000000             8
    0.25000000000000    0.27027027027027    0.06250000000000             8
    0.28846153846154    0.27027027027027    0.06250000000000             8
    0.32692307692308    0.27027027027027    0.06250000000000             8
    0.36538461538461    0.27027027027027    0.06250000000000             8
    0.40384615384615    0.27027027027027    0.06250000000000             8
    0.44230769230769    0.27027027027027    0.06250000000000             8
    0.48076923076923    0.27027027027027    0.06250000000000             8
    0.01923076923077    0.29729729729730    0.06250000000000             8
    0.05769230769231    0.29729729729730    0.06250000000000             8
    0.09615384615385    0.29729729729730    0.06250000000000             8
    0.13461538461539    0.29729729729730    0.06250000000000             8
    0.17307692307692    0.29729729729730    0.06250000000000             8
    0.21153846153846    0.29729729729730    0.06250000000000             8
    0.25000000000000    0.29729729729730    0.06250000000000             8
    0.28846153846154    0.29729729729730    0.06250000000000             8
    0.32692307692308    0.29729729729730    0.06250000000000             8