<?xml version="1.0" encoding="ISO-8859-1"?>
<modeling>
 <generator>
  <i name="program" type="string">vasp </i>
  <i name="version" type="string">6.4.3  </i>
  <i name="subversion" type="string">19Mar24 (build May 31 2024 16:31:43) complex                          parallel </i>
  <i name="platform" type="string">LinuxIFC </i>
  <i name="date" type="string">2024 10 30 </i>
  <i name="time" type="string">19:26:57 </i>
 </generator>
 <incar>
  <i type="string" name="SYSTEM">Kpoints</i>
  <i type="int" name="ISTART">     0</i>
  <i type="string" name="PREC">Accurate</i>
  <i type="string" name="ALGO">Normal</i>
  <i type="int" name="ISPIN">     1</i>
  <i type="int" name="ICHARG">     2</i>
  <i type="int" name="NELM">   100</i>
  <i type="int" name="IBRION">    -1</i>
  <i name="EDIFF">      0.00000100</i>
  <i name="EDIFFG">     -0.00100000</i>
  <i type="int" name="NSW">     0</i>
  <i type="int" name="ISIF">     2</i>
  <i name="ENCUT">    520.00000000</i>
  <i name="POTIM">      0.50000000</i>
  <i type="int" name="ISMEAR">     0</i>
  <i name="SIGMA">      0.05000000</i>
  <i type="logical" name="LWAVE"> F  </i>
  <i type="logical" name="LCHARG"> F  </i>
  <i type="string" name="GGA">PE</i>
 </incar>
 <primitive_cell>
  <structure name="primitive_cell" >
   <crystal>
    <varray name="basis" >
     <v>       5.69700000       0.00000000       0.00000000 </v>
     <v>       0.00000000       4.04790000       0.00000000 </v>
     <v>       0.00000000       0.00000000       6.20420000 </v>
    </varray>
    <i name="volume">    143.07435078 </i>
    <varray name="rec_basis" >
     <v>       0.17553098       0.00000000       0.00000000 </v>
     <v>       0.00000000       0.24704168       0.00000000 </v>
     <v>       0.00000000       0.00000000       0.16118114 </v>
    </varray>
   </crystal>
   <varray name="positions" >
    <v>       0.52123000       0.50000000       0.63796000 </v>
    <v>       0.47877000       0.50000000       0.36204000 </v>
    <v>       0.97877000       0.50000000       0.63796000 </v>
    <v>       0.02123000       0.50000000       0.36204000 </v>
    <v>       0.60090000       0.50000000       0.89991000 </v>
    <v>       0.39910000       0.50000000       0.10009000 </v>
    <v>       0.89910000       0.50000000       0.89991000 </v>
    <v>       0.10090000       0.50000000       0.10009000 </v>
    <v>       0.75000000       0.79171000       0.72973000 </v>
    <v>       0.25000000       0.20829000       0.27027000 </v>
    <v>       0.75000000       0.20829000       0.72973000 </v>
    <v>       0.25000000       0.79171000       0.27027000 </v>
    <v>       0.25000000       0.50000000       0.52367000 </v>
    <v>       0.75000000       0.50000000       0.47633000 </v>
   </varray>
  </structure>
  <varray name="primitive_index" >
   <v type="int" >        1 </v>
   <v type="int" >        2 </v>
   <v type="int" >        3 </v>
   <v type="int" >        4 </v>
   <v type="int" >        5 </v>
   <v type="int" >        6 </v>
   <v type="int" >        7 </v>
   <v type="int" >        8 </v>
   <v type="int" >        9 </v>
   <v type="int" >       10 </v>
   <v type="int" >       11 </v>
   <v type="int" >       12 </v>
   <v type="int" >       13 </v>
   <v type="int" >       14 </v>
  </varray>
 </primitive_cell>
 <kpoints>
  <generation param="Monkhorst-Pack">
   <v type="int" name="divisions">      10       14        9 </v>
   <v name="usershift">      0.00000000       0.00000000       0.00000000 </v>
   <v name="genvec1">      0.10000000       0.00000000       0.00000000 </v>
   <v name="genvec2">      0.00000000       0.07142857       0.00000000 </v>
   <v name="genvec3">      0.00000000       0.00000000       0.11111111 </v>
   <v name="shift">      0.50000000       0.50000000       0.00000000 </v>
  </generation>
  <varray name="kpointlist" >
   <v>       0.05000000       0.03571429       0.00000000 </v>
   <v>       0.15000000       0.03571429       0.00000000 </v>
   <v>       0.25000000       0.03571429       0.00000000 </v>
   <v>       0.35000000       0.03571429       0.00000000 </v>
   <v>       0.45000000       0.03571429       0.00000000 </v>
   <v>       0.05000000       0.10714286       0.00000000 </v>
   <v>       0.15000000       0.10714286       0.00000000 </v>
   <v>       0.25000000       0.10714286       0.00000000 </v>
   <v>       0.35000000       0.10714286       0.00000000 </v>
   <v>       0.45000000       0.10714286       0.00000000 </v>
   <v>       0.05000000       0.17857143       0.00000000 </v>
   <v>       0.15000000       0.17857143       0.00000000 </v>
   <v>       0.25000000       0.17857143       0.00000000 </v>
   <v>       0.35000000       0.17857143       0.00000000 </v>
   <v>       0.45000000       0.17857143       0.00000000 </v>
   <v>       0.05000000       0.25000000       0.00000000 </v>
   <v>       0.15000000       0.25000000       0.00000000 </v>
   <v>       0.25000000       0.25000000       0.00000000 </v>
   <v>       0.35000000       0.25000000       0.00000000 </v>
   <v>       0.45000000       0.25000000       0.00000000 </v>
   <v>       0.05000000       0.32142857       0.00000000 </v>
   <v>       0.15000000       0.32142857       0.00000000 </v>
   <v>       0.25000000       0.32142857       0.00000000 </v>
   <v>       0.35000000       0.32142857       0.00000000 </v>
   <v>       0.45000000       0.32142857       0.00000000 </v>
   <v>       0.05000000       0.39285714       0.00000000 </v>
   <v>       0.15000000       0.39285714       0.00000000 </v>
   <v>       0.25000000       0.39285714       0.00000000 </v>
   <v>       0.35000000       0.39285714       0.00000000 </v>
   <v>       0.45000000       0.39285714       0.00000000 </v>
   <v>       0.05000000       0.46428571       0.00000000 </v>
   <v>       0.15000000       0.46428571       0.00000000 </v>
   <v>       0.25000000       0.46428571       0.00000000 </v>
   <v>       0.35000000       0.46428571       0.00000000 </v>
   <v>       0.45000000       0.46428571       0.00000000 </v>
   <v>       0.05000000       0.03571429       0.11111111 </v>
   <v>       0.15000000       0.03571429       0.11111111 </v>
   <v>       0.25000000       0.03571429       0.11111111 </v>
   <v>       0.35000000       0.03571429       0.11111111 </v>
   <v>       0.45000000       0.03571429       0.11111111 </v>
   <v>       0.05000000       0.10714286       0.11111111 </v>
   <v>       0.15000000       0.10714286       0.11111111 </v>
   <v>       0.25000000       0.10714286       0.11111111 </v>
   <v>       0.35000000       0.10714286       0.11111111 </v>
   <v>       0.45000000       0.10714286       0.11111111 </v>
   <v>       0.05000000       0.17857143       0.11111111 </v>
   <v>       0.15000000       0.17857143       0.11111111 </v>
   <v>       0.25000000       0.17857143       0.11111111 </v>
   <v>       0.35000000       0.17857143       0.11111111 </v>
   <v>       0.45000000       0.17857143       0.11111111 </v>
   <v>       0.05000000       0.25000000       0.11111111 </v>
   <v>       0.15000000       0.25000000       0.11111111 </v>
   <v>       0.25000000       0.25000000       0.11111111 </v>
   <v>       0.35000000       0.25000000       0.11111111 </v>
   <v>       0.45000000       0.25000000       0.11111111 </v>
   <v>       0.05000000       0.32142857       0.11111111 </v>
   <v>       0.15000000       0.32142857       0.11111111 </v>
   <v>       0.25000000       0.32142857       0.11111111 </v>
   <v>       0.35000000       0.32142857       0.11111111 </v>
   <v>       0.45000000       0.32142857       0.11111111 </v>
   <v>       0.05000000       0.39285714       0.11111111 </v>
   <v>       0.15000000       0.39285714       0.11111111 </v>
   <v>       0.25000000       0.39285714       0.11111111 </v>
   <v>       0.35000000       0.39285714       0.11111111 </v>
   <v>       0.45000000       0.39285714       0.11111111 </v>
   <v>       0.05000000       0.46428571       0.11111111 </v>
   <v>       0.15000000       0.46428571       0.11111111 </v>
   <v>       0.25000000       0.46428571       0.11111111 </v>
   <v>       0.35000000       0.46428571       0.11111111 </v>
   <v>       0.45000000       0.46428571       0.11111111 </v>
   <v>       0.05000000       0.03571429       0.22222222 </v>
   <v>       0.15000000       0.03571429       0.22222222 </v>
   <v>       0.25000000       0.03571429       0.22222222 </v>
   <v>       0.35000000       0.03571429       0.22222222 </v>
   <v>       0.45000000       0.03571429       0.22222222 </v>
   <v>       0.05000000       0.10714286       0.22222222 </v>
   <v>       0.15000000       0.10714286       0.22222222 </v>
   <v>       0.25000000       0.10714286       0.22222222 </v>
   <v>       0.35000000       0.10714286       0.22222222 </v>
   <v>       0.45000000       0.10714286       0.22222222 </v>
   <v>       0.05000000       0.17857143       0.22222222 </v>
   <v>       0.15000000       0.17857143       0.22222222 </v>
   <v>       0.25000000       0.17857143       0.22222222 </v>
   <v>       0.35000000       0.17857143       0.22222222 </v>
   <v>       0.45000000       0.17857143       0.22222222 </v>
   <v>       0.05000000       0.25000000       0.22222222 </v>
   <v>       0.15000000       0.25000000       0.22222222 </v>
   <v>       0.25000000       0.25000000       0.22222222 </v>
   <v>       0.35000000       0.25000000       0.22222222 </v>
   <v>       0.45000000       0.25000000       0.22222222 </v>
   <v>       0.05000000       0.32142857       0.22222222 </v>
   <v>       0.15000000       0.32142857       0.22222222 </v>
   <v>       0.25000000       0.32142857       0.22222222 </v>
   <v>       0.35000000       0.32142857       0.22222222 </v>
   <v>       0.45000000       0.32142857       0.22222222 </v>
   <v>       0.05000000       0.39285714       0.22222222 </v>
   <v>       0.15000000       0.39285714       0.22222222 </v>
   <v>       0.25000000       0.39285714       0.22222222 </v>
   <v>       0.35000000       0.39285714       0.22222222 </v>
   <v>       0.45000000       0.39285714       0.22222222 </v>
   <v>       0.05000000       0.46428571       0.22222222 </v>
   <v>       0.15000000       0.46428571       0.22222222 </v>
   <v>       0.25000000       0.46428571       0.22222222 </v>
   <v>       0.35000000       0.46428571       0.22222222 </v>
   <v>       0.45000000       0.46428571       0.22222222 </v>
   <v>       0.05000000       0.03571429       0.33333333 </v>
   <v>       0.15000000       0.03571429       0.33333333 </v>
   <v>       0.25000000       0.03571429       0.33333333 </v>
   <v>       0.35000000       0.03571429       0.33333333 </v>
   <v>       0.45000000       0.03571429       0.33333333 </v>
   <v>       0.05000000       0.10714286       0.33333333 </v>
   <v>       0.15000000       0.10714286       0.33333333 </v>
   <v>       0.25000000       0.10714286       0.33333333 </v>
   <v>       0.35000000       0.10714286       0.33333333 </v>
   <v>       0.45000000       0.10714286       0.33333333 </v>
   <v>       0.05000000       0.17857143       0.33333333 </v>
   <v>       0.15000000       0.17857143       0.33333333 </v>
   <v>       0.25000000       0.17857143       0.33333333 </v>
   <v>       0.35000000       0.17857143       0.33333333 </v>
   <v>       0.45000000       0.17857143       0.33333333 </v>
   <v>       0.05000000       0.25000000       0.33333333 </v>
   <v>       0.15000000       0.25000000       0.33333333 </v>
   <v>       0.25000000       0.25000000       0.33333333 </v>
   <v>       0.35000000       0.25000000       0.33333333 </v>
   <v>       0.45000000       0.25000000       0.33333333 </v>
   <v>       0.05000000       0.32142857       0.33333333 </v>
   <v>       0.15000000       0.32142857       0.33333333 </v>
   <v>       0.25000000       0.32142857       0.33333333 </v>
   <v>       0.35000000       0.32142857       0.33333333 </v>
   <v>       0.45000000       0.32142857       0.33333333 </v>
   <v>       0.05000000       0.39285714       0.33333333 </v>
   <v>       0.15000000       0.39285714       0.33333333 </v>
   <v>       0.25000000       0.39285714       0.33333333 </v>
   <v>       0.35000000       0.39285714       0.33333333 </v>
   <v>       0.45000000       0.39285714       0.33333333 </v>
   <v>       0.05000000       0.46428571       0.33333333 </v>
   <v>       0.15000000       0.46428571       0.33333333 </v>
   <v>       0.25000000       0.46428571       0.33333333 </v>
   <v>       0.35000000       0.46428571       0.33333333 </v>
   <v>       0.45000000       0.46428571       0.33333333 </v>
   <v>       0.05000000       0.03571429       0.44444444 </v>
   <v>       0.15000000       0.03571429       0.44444444 </v>
   <v>       0.25000000       0.03571429       0.44444444 </v>
   <v>       0.35000000       0.03571429       0.44444444 </v>
   <v>       0.45000000       0.03571429       0.44444444 </v>
   <v>       0.05000000       0.10714286       0.44444444 </v>
   <v>       0.15000000       0.10714286       0.44444444 </v>
   <v>       0.25000000       0.10714286       0.44444444 </v>
   <v>       0.35000000       0.10714286       0.44444444 </v>
   <v>       0.45000000       0.10714286       0.44444444 </v>
   <v>       0.05000000       0.17857143       0.44444444 </v>
   <v>       0.15000000       0.17857143       0.44444444 </v>
   <v>       0.25000000       0.17857143       0.44444444 </v>
   <v>       0.35000000       0.17857143       0.44444444 </v>
   <v>       0.45000000       0.17857143       0.44444444 </v>
   <v>       0.05000000       0.25000000       0.44444444 </v>
   <v>       0.15000000       0.25000000       0.44444444 </v>
   <v>       0.25000000       0.25000000       0.44444444 </v>
   <v>       0.35000000       0.25000000       0.44444444 </v>
   <v>       0.45000000       0.25000000       0.44444444 </v>
   <v>       0.05000000       0.32142857       0.44444444 </v>
   <v>       0.15000000       0.32142857       0.44444444 </v>
   <v>       0.25000000       0.32142857       0.44444444 </v>
   <v>       0.35000000       0.32142857       0.44444444 </v>
   <v>       0.45000000       0.32142857       0.44444444 </v>
   <v>       0.05000000       0.39285714       0.44444444 </v>
   <v>       0.15000000       0.39285714       0.44444444 </v>
   <v>       0.25000000       0.39285714       0.44444444 </v>
   <v>       0.35000000       0.39285714       0.44444444 </v>
   <v>       0.45000000       0.39285714       0.44444444 </v>
   <v>       0.05000000       0.46428571       0.44444444 </v>
   <v>       0.15000000       0.46428571       0.44444444 </v>
   <v>       0.25000000       0.46428571       0.44444444 </v>
   <v>       0.35000000       0.46428571       0.44444444 </v>
   <v>       0.45000000       0.46428571       0.44444444 </v>
  </varray>
  <varray name="weights" >
   <v>       0.00317460 </v>
   <v>       0.00317460 </v>
   <v>       0.00317460 </v>
   <v>       0.00317460 </v>
   <v>       0.00317460 </v>
   <v>       0.00317460 </v>
   <v>       0.00317460 </v>
   <v>       0.00317460 </v>
   <v>       0.00317460 </v>
   <v>       0.00317460 </v>
   <v>       0.00317460 </v>
   <v>       0.00317460 </v>
   <v>       0.00317460 </v>
   <v>       0.00317460 </v>
   <v>       0.00317460 </v>
   <v>       0.00317460 </v>
   <v>       0.00317460 </v>
   <v>       0.00317460 </v>
   <v>       0.00317460 </v>
   <v>       0.00317460 </v>
   <v>       0.00317460 </v>
   <v>       0.00317460 </v>
   <v>       0.00317460 </v>
   <v>       0.00317460 </v>
   <v>       0.00317460 </v>
   <v>       0.00317460 </v>
   <v>       0.00317460 </v>
   <v>       0.00317460 </v>
   <v>       0.00317460 </v>
   <v>       0.00317460 </v>
   <v>       0.00317460 </v>
   <v>       0.00317460 </v>
   <v>       0.00317460 </v>
   <v>       0.00317460 </v>
   <v>       0.00317460 </v>
   <v>       0.00634921 </v>
   <v>       0.00634921 </v>
   <v>       0.00634921 </v>
   <v>       0.00634921 </v>
   <v>       0.00634921 </v>
   <v>       0.00634921 </v>
   <v>       0.00634921 </v>
   <v>       0.00634921 </v>
   <v>       0.00634921 </v>
   <v>       0.00634921 </v>
   <v>       0.00634921 </v>
   <v>       0.00634921 </v>
   <v>       0.00634921 </v>
   <v>       0.00634921 </v>
   <v>       0.00634921 </v>
   <v>       0.00634921 </v>
   <v>       0.00634921 </v>
   <v>       0.00634921 </v>
   <v>       0.00634921 </v>
   <v>       0.00634921 </v>
   <v>       0.00634921 </v>
   <v>       0.00634921 </v>
   <v>       0.00634921 </v>
   <v>       0.00634921 </v>
   <v>       0.00634921 </v>
   <v>       0.00634921 </v>
   <v>       0.00634921 </v>
   <v>       0.00634921 </v>
   <v>       0.00634921 </v>
   <v>       0.00634921 </v>
   <v>       0.00634921 </v>
   <v>       0.00634921 </v>
   <v>       0.00634921 </v>
   <v>       0.00634921 </v>
   <v>       0.00634921 </v>
   <v>       0.00634921 </v>
   <v>       0.00634921 </v>
   <v>       0.00634921 </v>
   <v>       0.00634921 </v>
   <v>       0.00634921 </v>
   <v>       0.00634921 </v>
   <v>       0.00634921 </v>
   <v>       0.00634921 </v>
   <v>       0.00634921 </v>
   <v>       0.00634921 </v>
   <v>       0.00634921 </v>
   <v>       0.00634921 </v>
   <v>       0.00634921 </v>
   <v>       0.00634921 </v>
   <v>       0.00634921 </v>
   <v>       0.00634921 </v>
   <v>       0.00634921 </v>
   <v>       0.00634921 </v>
   <v>       0.00634921 </v>
   <v>       0.00634921 </v>
   <v>       0.00634921 </v>
   <v>       0.00634921 </v>
   <v>       0.00634921 </v>
   <v>       0.00634921 </v>
   <v>       0.00634921 </v>
   <v>       0.00634921 </v>
   <v>       0.00634921 </v>
   <v>       0.00634921 </v>
   <v>       0.00634921 </v>
   <v>       0.00634921 </v>
   <v>       0.00634921 </v>
   <v>       0.00634921 </v>
   <v>       0.00634921 </v>
   <v>       0.00634921 </v>
   <v>       0.00634921 </v>
   <v>       0.00634921 </v>
   <v>       0.00634921 </v>
   <v>       0.00634921 </v>
   <v>       0.00634921 </v>
   <v>       0.00634921 </v>
   <v>       0.00634921 </v>
   <v>       0.00634921 </v>
   <v>       0.00634921 </v>
   <v>       0.00634921 </v>
   <v>       0.00634921 </v>
   <v>       0.00634921 </v>
   <v>       0.00634921 </v>
   <v>       0.00634921 </v>
   <v>       0.00634921 </v>
   <v>       0.00634921 </v>
   <v>       0.00634921 </v>
   <v>       0.00634921 </v>
   <v>       0.00634921 </v>
   <v>       0.00634921 </v>
   <v>       0.00634921 </v>
   <v>       0.00634921 </v>
   <v>       0.00634921 </v>
   <v>       0.00634921 </v>
   <v>       0.00634921 </v>
   <v>       0.00634921 </v>
   <v>       0.00634921 </v>
   <v>       0.00634921 </v>
   <v>       0.00634921 </v>
   <v>       0.00634921 </v>
   <v>       0.00634921 </v>
   <v>       0.00634921 </v>
   <v>       0.00634921 </v>
   <v>       0.00634921 </v>
   <v>       0.00634921 </v>
   <v>       0.00634921 </v>
   <v>       0.00634921 </v>
   <v>       0.00634921 </v>
   <v>       0.00634921 </v>
   <v>       0.00634921 </v>
   <v>       0.00634921 </v>
   <v>       0.00634921 </v>
   <v>       0.00634921 </v>
   <v>       0.00634921 </v>
   <v>       0.00634921 </v>
   <v>       0.00634921 </v>
   <v>       0.00634921 </v>
   <v>       0.00634921 </v>
   <v>       0.00634921 </v>
   <v>       0.00634921 </v>
   <v>       0.00634921 </v>
   <v>       0.00634921 </v>
   <v>       0.00634921 </v>
   <v>       0.00634921 </v>
   <v>       0.00634921 </v>
   <v>       0.00634921 </v>
   <v>       0.00634921 </v>
   <v>       0.00634921 </v>
   <v>       0.00634921 </v>
   <v>       0.00634921 </v>
   <v>       0.00634921 </v>
   <v>       0.00634921 </v>
   <v>       0.00634921 </v>
   <v>       0.00634921 </v>
   <v>       0.00634921 </v>
   <v>       0.00634921 </v>
   <v>       0.00634921 </v>
   <v>       0.00634921 </v>
   <v>       0.00634921 </v>
   <v>       0.00634921 </v>
   <v>       0.00634921 </v>
  </varray>
 </kpoints>
 <parameters>
  <separator name="general" >
   <i type="string" name="SYSTEM">Kpoints</i>
   <i type="logical" name="LCOMPAT"> F  </i>
  </separator>
  <separator name="electronic" >
   <i type="string" name="PREC">accura</i>
   <i name="ENMAX">    520.00000000</i>
   <i name="ENAUG">    535.51400000</i>
   <i name="EDIFF">      0.00000100</i>
   <i type="int" name="IALGO">    38</i>
   <i type="int" name="IWAVPR">    10</i>
   <i type="int" name="NBANDS">    48</i>
   <i type="int" name="NBANDSLOW">    -1</i>
   <i type="int" name="NBANDSHIGH">    -1</i>
   <i name="NELECT">     42.00000000</i>
   <i type="int" name="TURBO">     0</i>
   <i type="int" name="IRESTART">     0</i>
   <i type="int" name="NREBOOT">     0</i>
   <i type="int" name="NMIN">     0</i>
   <i name="EREF">      0.00000000</i>
   <separator name="electronic smearing" >
    <i type="int" name="ISMEAR">     0</i>
    <i name="SIGMA">      0.05000000</i>
    <i name="KSPACING">      0.50000000</i>
    <i type="logical" name="KGAMMA"> T  </i>
    <i type="logical" name="KBLOWUP"> T  </i>
   </separator>
   <separator name="electronic projectors" >
    <i type="logical" name="LREAL"> F  </i>
    <v name="ROPT">      0.00000000</v>
    <i type="int" name="LMAXPAW">  -100</i>
    <i type="int" name="LMAXMIX">     2</i>
    <i type="logical" name="NLSPLINE"> F  </i>
   </separator>
   <separator name="electronic startup" >
    <i type="int" name="ISTART">     0</i>
    <i type="int" name="ICHARG">     2</i>
    <i type="int" name="INIWAV">     1</i>
   </separator>
   <separator name="electronic spin" >
    <i type="int" name="ISPIN">     1</i>
    <i type="logical" name="LNONCOLLINEAR"> F  </i>
    <v name="MAGMOM">      1.00000000      1.00000000      1.00000000      1.00000000      1.00000000      1.00000000      1.00000000      1.00000000      1.00000000      1.00000000      1.00000000      1.00000000      1.00000000      1.00000000</v>
    <i name="NUPDOWN">     -1.00000000</i>
    <i type="logical" name="LSORBIT"> F  </i>
    <v name="SAXIS">      0.00000000      0.00000000      1.00000000</v>
    <i type="logical" name="LSPIRAL"> F  </i>
    <v name="QSPIRAL">      0.00000000      0.00000000      0.00000000</v>
    <i type="logical" name="LZEROZ"> F  </i>
   </separator>
   <separator name="electronic exchange-correlation" >
    <i type="logical" name="LASPH"> F  </i>
   </separator>
   <separator name="electronic convergence" >
    <i type="int" name="NELM">   100</i>
    <i type="int" name="NELMDL">    -5</i>
    <i type="int" name="NELMIN">     2</i>
    <i name="ENINI">    520.00000000</i>
    <separator name="electronic convergence detail" >
     <i type="logical" name="LDIAG"> T  </i>
     <i type="logical" name="LSUBROT"> F  </i>
     <i name="WEIMIN">      0.00000000</i>
     <i name="EBREAK">      0.00000001</i>
     <i name="DEPER">      0.30000000</i>
     <i type="int" name="NRMM">     4</i>
     <i name="TIME">      0.40000000</i>
    </separator>
   </separator>
   <separator name="electronic mixer" >
    <i name="AMIX">      0.40000000</i>
    <i name="BMIX">      1.00000000</i>
    <i name="AMIN">      0.10000000</i>
    <i name="AMIX_MAG">      1.60000000</i>
    <i name="BMIX_MAG">      1.00000000</i>
    <separator name="electronic mixer details" >
     <i type="int" name="IMIX">     4</i>
     <i type="logical" name="MIXFIRST"> F  </i>
     <i type="int" name="MAXMIX">   -45</i>
     <i name="WC">    100.00000000</i>
     <i type="int" name="INIMIX">     1</i>
     <i type="int" name="MIXPRE">     1</i>
     <i type="int" name="MREMOVE">     5</i>
    </separator>
   </separator>
   <separator name="electronic dipolcorrection" >
    <i type="logical" name="LDIPOL"> F  </i>
    <i type="logical" name="LMONO"> F  </i>
    <i type="int" name="IDIPOL">     0</i>
    <i name="EPSILON">      1.00000000</i>
    <v name="DIPOL">   -100.00000000   -100.00000000   -100.00000000</v>
    <i name="EFIELD">      0.00000000</i>
    <i type="logical" name="LVACPOTAV"> F  </i>
   </separator>
  </separator>
  <separator name="grids" >
   <i type="int" name="NGX">    42</i>
   <i type="int" name="NGY">    30</i>
   <i type="int" name="NGZ">    48</i>
   <i type="int" name="NGXF">    84</i>
   <i type="int" name="NGYF">    60</i>
   <i type="int" name="NGZF">    96</i>
   <i type="logical" name="ADDGRID"> F  </i>
  </separator>
  <separator name="ionic" >
   <i type="int" name="NSW">     0</i>
   <i type="int" name="IBRION">    -1</i>
   <i type="int" name="MDALGO">     0</i>
   <i type="int" name="ISIF">     2</i>
   <i name="PSTRESS">      0.00000000</i>
   <i name="EDIFFG">     -0.00100000</i>
   <i type="int" name="NFREE">     0</i>
   <i name="POTIM">      0.50000000</i>
   <i name="SMASS">     -3.00000000</i>
   <i name="SCALEE">      1.00000000</i>
  </separator>
  <separator name="ionic md" >
   <i name="TEBEG">      0.00010000</i>
   <i name="TEEND">      0.00010000</i>
   <i type="int" name="NBLOCK">     1</i>
   <i type="int" name="KBLOCK">     1</i>
   <i type="int" name="NPACO">   256</i>
   <i name="APACO">     10.00000000</i>
  </separator>
  <separator name="symmetry" >
   <i type="int" name="ISYM">     2</i>
   <i name="SYMPREC">      0.00001000</i>
  </separator>
  <separator name="dos" >
   <i type="int" name="LORBIT">     0</i>
   <v name="RWIGS">     -1.00000000</v>
   <i type="int" name="NEDOS">   301</i>
   <i name="EMIN">     10.00000000</i>
   <i name="EMAX">    -10.00000000</i>
   <i name="EFERMI">      0.00000000</i>
  </separator>
  <separator name="writing" >
   <i type="int" name="NWRITE">     2</i>
   <i type="logical" name="LWAVE"> F  </i>
   <i type="logical" name="LDOWNSAMPLE"> F  </i>
   <i type="logical" name="LCHARG"> F  </i>
   <i type="logical" name="LPARD"> F  </i>
   <i type="logical" name="LVTOT"> F  </i>
   <i type="logical" name="LVHAR"> F  </i>
   <i type="logical" name="LELF"> F  </i>
   <i type="logical" name="LOPTICS"> F  </i>
   <v name="STM">      0.00000000      0.00000000      0.00000000      0.00000000      0.00000000      0.00000000      0.00000000</v>
  </separator>
  <separator name="performance" >
   <i type="int" name="NPAR">    24</i>
   <i type="int" name="NSIM">     4</i>
   <i type="int" name="NBLK">    -1</i>
   <i type="logical" name="LPLANE"> T  </i>
   <i type="logical" name="LSCALAPACK"> T  </i>
   <i type="logical" name="LSCAAWARE"> F  </i>
   <i type="logical" name="LSCALU"> F  </i>
   <i type="logical" name="LASYNC"> F  </i>
   <i type="logical" name="LORBITALREAL"> F  </i>
  </separator>
  <separator name="miscellaneous" >
   <i type="int" name="IDIOT">     3</i>
   <i type="int" name="PHON_NSTRUCT">    -1</i>
   <i type="logical" name="LMUSIC"> F  </i>
   <v name="POMASS">     10.81100000</v>
   <v name="DARWINR">      0.00000000</v>
   <v name="DARWINV">      1.00000000</v>
   <i type="logical" name="LCORR"> T  </i>
  </separator>
  <i type="logical" name="GGA_COMPAT"> T  </i>
  <i type="logical" name="LBERRY"> F  </i>
  <i type="int" name="ICORELEVEL">     0</i>
  <i type="logical" name="LDAU"> F  </i>
  <i type="int" name="I_CONSTRAINED_M">     0</i>
  <separator name="electronic exchange-correlation" >
   <i type="string" name="GGA    ">PE</i>
   <i type="string" name="XC_C">1</i>
   <i type="int" name="VOSKOWN">     0</i>
   <i type="logical" name="LHFCALC"> F  </i>
   <i type="string" name="PRECFOCK"></i>
   <i type="logical" name="LSYMGRAD"> F  </i>
   <i type="logical" name="LHFONE"> F  </i>
   <i type="logical" name="LRHFCALC"> F  </i>
   <i type="logical" name="LTHOMAS"> F  </i>
   <i type="logical" name="LMODELHF"> F  </i>
   <i type="logical" name="LFOCKACE"> F  </i>
   <i name="ENCUT4O">     -1.00000000</i>
   <i type="int" name="EXXOEP">     0</i>
   <i type="int" name="FOURORBIT">     0</i>
   <i name="AEXX">      0.00000000</i>
   <i name="HFALPHA">      0.00000000</i>
   <i name="MCALPHA">      0.00000000</i>
   <i name="ALDAX">      1.00000000</i>
   <i name="AGGAX">      1.00000000</i>
   <i name="AMGGAX">      1.00000000</i>
   <i name="ALDAC">      1.00000000</i>
   <i name="AGGAC">      1.00000000</i>
   <i name="AMGGAC">      1.00000000</i>
   <i type="int" name="NKREDX">     1</i>
   <i type="int" name="NKREDY">     1</i>
   <i type="int" name="NKREDZ">     1</i>
   <i type="logical" name="SHIFTRED"> F  </i>
   <i type="logical" name="ODDONLY"> F  </i>
   <i type="logical" name="EVENONLY"> F  </i>
   <i type="int" name="LMAXFOCK">     0</i>
   <i type="int" name="NMAXFOCKAE">     0</i>
   <i type="logical" name="LFOCKAEDFT"> F  </i>
   <i name="HFSCREEN">      0.00000000</i>
   <i name="HFSCREENC">      0.00000000</i>
   <i type="int" name="NBANDSGWLOW">     0</i>
  </separator>
  <separator name="vdW DFT" >
   <i type="logical" name="LUSE_VDW"> F  </i>
   <i type="int" name="IVDW_NL">    -1</i>
   <i type="logical" name="LSPIN_VDW"> F  </i>
   <i name="ZAB_VDW">     -0.84910000</i>
   <i name="GAMMA_VDW">      1.39626340</i>
   <i name="ALPHA_VDW">      0.00000000</i>
   <i name="PARAM1">      0.12340000</i>
   <i name="PARAM2">      1.00000000</i>
   <i name="BPARAM">      6.30000000</i>
   <i name="CPARAM">      0.00930000</i>
  </separator>
  <separator name="model GW" >
   <i type="int" name="MODEL_GW">     0</i>
   <i name="MODEL_EPS0">      6.13175789</i>
   <i name="MODEL_ALPHA">      1.00000000</i>
  </separator>
  <separator name="linear response parameters" >
   <i type="logical" name="LEPSILON"> F  </i>
   <i type="logical" name="LRPA"> F  </i>
   <i type="logical" name="LNABLA"> F  </i>
   <i type="logical" name="LVEL"> F  </i>
   <i name="CSHIFT">      0.10000000</i>
   <i name="OMEGAMAX">     -1.00000000</i>
   <i name="DEG_THRESHOLD">      0.00200000</i>
   <i name="RTIME">     -0.10000000</i>
   <i name="WPLASMAI">      0.00000000</i>
   <v name="DFIELD">      0.00000000      0.00000000      0.00000000</v>
   <v name="WPLASMA">      0.00000000      0.00000000      0.00000000      0.00000000      0.00000000      0.00000000      0.00000000      0.00000000      0.00000000</v>
  </separator>
  <separator name="orbital magnetization" >
   <i type="logical" name="NUCIND"> F  </i>
   <v name="MAGPOS">      0.00000000      0.00000000      0.00000000</v>
   <i type="logical" name="LNICSALL"> T  </i>
   <i type="logical" name="ORBITALMAG"> F  </i>
   <i type="logical" name="LMAGBLOCH"> F  </i>
   <i type="logical" name="LCHIMAG"> F  </i>
   <i type="logical" name="LGAUGE"> T  </i>
   <i type="int" name="MAGATOM">     0</i>
   <v name="MAGDIPOL">      0.00000000      0.00000000      0.00000000</v>
   <v name="AVECCONST">      0.00000000      0.00000000      0.00000000</v>
  </separator>
  <separator name="response functions" >
   <i type="logical" name="LALL_IN_ONE"> F  </i>
   <i type="int" name="IALL_IN_ONE">    -1</i>
   <i type="int" name="NBANDS_WAVE">    -1</i>
   <i type="logical" name="LFINITE_TEMPERATURE"> F  </i>
   <i type="logical" name="LADDER"> F  </i>
   <i type="logical" name="LRPAFORCE"> F  </i>
   <i type="logical" name="LFXC"> F  </i>
   <i type="logical" name="LHARTREE"> T  </i>
   <i type="int" name="IBSE">     0</i>
   <v type="int" name="KPOINT">    -1     0     0     0</v>
   <i type="logical" name="LTCTC"> F  </i>
   <i type="logical" name="LTCTE"> F  </i>
   <i type="logical" name="LTETE"> F  </i>
   <i type="logical" name="LTRIPLET"> F  </i>
   <i type="logical" name="LFXCEPS"> F  </i>
   <i type="logical" name="LFXHEG"> F  </i>
   <i type="int" name="NATURALO">     2</i>
   <i type="logical" name="LHOLEGF"> F  </i>
   <i type="logical" name="L2ORDER"> F  </i>
   <i type="logical" name="LDMP1"> F  </i>
   <i type="logical" name="LMP2LT"> F  </i>
   <i type="logical" name="LSMP2LT"> F  </i>
   <i type="logical" name="LGWLF"> F  </i>
   <i name="ENCUTGW">     -1.60000002</i>
   <i name="ENCUTGWSOFT">     -1.60000002</i>
   <i name="ENCUTLF">     -1.00000000</i>
   <i type="logical" name="ESF_SPLINES"> F  </i>
   <i name="ESF_CONV">      0.01000000</i>
   <i type="int" name="ESF_NINTER">    15</i>
   <i type="int" name="LMAXMP2">    -1</i>
   <i name="SCISSOR">      0.00000000</i>
   <i type="int" name="NOMEGA">     0</i>
   <i type="int" name="NOMEGAR">     0</i>
   <i type="int" name="NBANDSGW">    -1</i>
   <i type="int" name="NBANDSO">    -1</i>
   <i type="int" name="NBANDSV">    -1</i>
   <i type="int" name="NELMGW">     1</i>
   <i type="int" name="NELMHF">     1</i>
   <i type="int" name="DIM">     3</i>
   <i type="int" name="IESPILON">     4</i>
   <i type="int" name="ANTIRES">     0</i>
   <i name="OMEGAMAX">    -30.00000000</i>
   <i name="OMEGAMIN">    -30.00000000</i>
   <i name="OMEGATL">   -200.00000000</i>
   <i type="int" name="OMEGAGRID">     0</i>
   <i name="CSHIFT">     -0.10000000</i>
   <i type="logical" name="LSELFENERGY"> F  </i>
   <i type="logical" name="LSPECTRAL"> F  </i>
   <i type="logical" name="LSPECTRALGW"> F  </i>
   <i type="logical" name="LSINGLES"> F  </i>
   <i type="logical" name="LFERMIGW"> F  </i>
   <i type="logical" name="ODDONLYGW"> F  </i>
   <i type="logical" name="EVENONLYGW"> F  </i>
   <i type="int" name="NKREDLFX">     1</i>
   <i type="int" name="NKREDLFY">     1</i>
   <i type="int" name="NKREDLFZ">     1</i>
   <i type="int" name="MAXMEM">  2800</i>
   <i type="int" name="TELESCOPE">     0</i>
   <i type="int" name="NTAUPAR">    -1</i>
   <i type="int" name="NOMEGAPAR">    -1</i>
   <i name="DAMP_NEWTON">      0.80000001</i>
   <i name="LAMBDA">      1.00000000</i>
  </separator>
  <separator name="External order field" >
   <i name="OFIELD_KAPPA">      0.00000000</i>
   <v name="OFIELD_K">      0.00000000      0.00000000      0.00000000</v>
   <i name="OFIELD_Q6_NEAR">      0.00000000</i>
   <i name="OFIELD_Q6_FAR">      0.00000000</i>
   <i name="OFIELD_A">      0.00000000</i>
  </separator>
  <separator name="optional k-points parameters" >
   <i type="int" name="KPOINTS_OPT_MODE">     1</i>
   <i type="logical" name="LKPOINTS_OPT"> F  </i>
  </separator>
 </parameters>
 <atominfo>
  <atoms>      14 </atoms>
  <types>       1 </types>
  <array name="atoms" >
   <dimension dim="1">ion</dimension>
   <field type="string">element</field>
   <field type="int">atomtype</field>
   <set>
    <rc><c>B </c><c>   1</c></rc>
    <rc><c>B </c><c>   1</c></rc>
    <rc><c>B </c><c>   1</c></rc>
    <rc><c>B </c><c>   1</c></rc>
    <rc><c>B </c><c>   1</c></rc>
    <rc><c>B </c><c>   1</c></rc>
    <rc><c>B </c><c>   1</c></rc>
    <rc><c>B </c><c>   1</c></rc>
    <rc><c>B </c><c>   1</c></rc>
    <rc><c>B </c><c>   1</c></rc>
    <rc><c>B </c><c>   1</c></rc>
    <rc><c>B </c><c>   1</c></rc>
    <rc><c>B </c><c>   1</c></rc>
    <rc><c>B </c><c>   1</c></rc>
   </set>
  </array>
  <array name="atomtypes" >
   <dimension dim="1">type</dimension>
   <field type="int">atomspertype</field>
   <field type="string">element</field>
   <field>mass</field>
   <field>valence</field>
   <field type="string">pseudopotential</field>
   <set>
    <rc><c>  14</c><c>B </c><c>     10.81100000</c><c>      3.00000000</c><c>  PAW_PBE B 06Sep2000                   </c></rc>
   </set>
  </array>
 </atominfo>
 <structure name="initialpos" >
  <crystal>
   <varray name="basis" >
    <v>       5.69700000       0.00000000       0.00000000 </v>
    <v>       0.00000000       4.04790000       0.00000000 </v>
    <v>       0.00000000       0.00000000       6.20420000 </v>
   </varray>
   <i name="volume">    143.07435078 </i>
   <varray name="rec_basis" >
    <v>       0.17553098       0.00000000       0.00000000 </v>
    <v>       0.00000000       0.24704168       0.00000000 </v>
    <v>       0.00000000       0.00000000       0.16118114 </v>
   </varray>
  </crystal>
  <varray name="positions" >
   <v>       0.52123000       0.50000000       0.63796000 </v>
   <v>       0.47877000       0.50000000       0.36204000 </v>
   <v>       0.97877000       0.50000000       0.63796000 </v>
   <v>       0.02123000       0.50000000       0.36204000 </v>
   <v>       0.60090000       0.50000000       0.89991000 </v>
   <v>       0.39910000       0.50000000       0.10009000 </v>
   <v>       0.89910000       0.50000000       0.89991000 </v>
   <v>       0.10090000       0.50000000       0.10009000 </v>
   <v>       0.75000000       0.79171000       0.72973000 </v>
   <v>       0.25000000       0.20829000       0.27027000 </v>
   <v>       0.75000000       0.20829000       0.72973000 </v>
   <v>       0.25000000       0.79171000       0.27027000 </v>
   <v>       0.25000000       0.50000000       0.52367000 </v>
   <v>       0.75000000       0.50000000       0.47633000 </v>
  </varray>
 </structure>
 <calculation>
  <scstep>
   <time name="dav">    4.63    4.69</time>
   <time name="total">    4.64    4.70</time>
   <energy>
    <i name="alphaZ">     94.24357992 </i>
    <i name="ewald">   -795.76658092 </i>
    <i name="hartreedc">   -271.33601302 </i>
    <i name="XCdc">     97.50108136 </i>
    <i name="pawpsdc">    608.99811708 </i>
    <i name="pawaedc">   -597.02363782 </i>
    <i name="eentropy">     -0.00209417 </i>
    <i name="bandstr">    -71.35730483 </i>
    <i name="atom">    996.36906735 </i>
    <i name="e_fr_energy">     61.62621495 </i>
    <i name="e_wo_entrp">     61.62830912 </i>
    <i name="e_0_energy">     61.62726204 </i>
   </energy>
  </scstep>
  <scstep>
   <time name="dav">    6.25    6.30</time>
   <time name="total">    6.25    6.30</time>
   <energy>
    <i name="e_fr_energy">    -92.56950754 </i>
    <i name="e_wo_entrp">    -92.56633409 </i>
    <i name="e_0_energy">    -92.56792082 </i>
   </energy>
  </scstep>
  <scstep>
   <time name="dav">    6.54    6.59</time>
   <time name="total">    6.54    6.59</time>
   <energy>
    <i name="e_fr_energy">    -97.59977528 </i>
    <i name="e_wo_entrp">    -97.59612090 </i>
    <i name="e_0_energy">    -97.59794809 </i>
   </energy>
  </scstep>
  <scstep>
   <time name="dav">    5.58    5.63</time>
   <time name="total">    5.58    5.63</time>
   <energy>
    <i name="e_fr_energy">    -97.62919357 </i>
    <i name="e_wo_entrp">    -97.62553820 </i>
    <i name="e_0_energy">    -97.62736589 </i>
   </energy>
  </scstep>
  <scstep>
   <time name="dav">    6.50    6.55</time>
   <time name="total">    6.60    6.66</time>
   <energy>
    <i name="e_fr_energy">    -97.62953159 </i>
    <i name="e_wo_entrp">    -97.62587623 </i>
    <i name="e_0_energy">    -97.62770391 </i>
   </energy>
  </scstep>
  <scstep>
   <time name="dav">    6.42    6.49</time>
   <time name="total">    6.52    6.60</time>
   <energy>
    <i name="e_fr_energy">    -92.21417506 </i>
    <i name="e_wo_entrp">    -92.21074414 </i>
    <i name="e_0_energy">    -92.21245960 </i>
   </energy>
  </scstep>
  <scstep>
   <time name="dav">    6.67    6.73</time>
   <time name="total">    6.77    6.83</time>
   <energy>
    <i name="e_fr_energy">    -90.56283985 </i>
    <i name="e_wo_entrp">    -90.55970569 </i>
    <i name="e_0_energy">    -90.56127277 </i>
   </energy>
  </scstep>
  <scstep>
   <time name="dav">    4.96    5.01</time>
   <time name="total">    5.06    5.10</time>
   <energy>
    <i name="e_fr_energy">    -90.57525686 </i>
    <i name="e_wo_entrp">    -90.57208021 </i>
    <i name="e_0_energy">    -90.57366854 </i>
   </energy>
  </scstep>
  <scstep>
   <time name="dav">    6.23    6.28</time>
   <time name="total">    6.33    6.38</time>
   <energy>
    <i name="e_fr_energy">    -90.58942829 </i>
    <i name="e_wo_entrp">    -90.58616493 </i>
    <i name="e_0_energy">    -90.58779661 </i>
   </energy>
  </scstep>
  <scstep>
   <time name="dav">    5.09    5.14</time>
   <time name="total">    5.19    5.24</time>
   <energy>
    <i name="e_fr_energy">    -90.59347049 </i>
    <i name="e_wo_entrp">    -90.59025336 </i>
    <i name="e_0_energy">    -90.59186193 </i>
   </energy>
  </scstep>
  <scstep>
   <time name="dav">    5.83    5.88</time>
   <time name="total">    5.93    5.98</time>
   <energy>
    <i name="e_fr_energy">    -90.59453764 </i>
    <i name="e_wo_entrp">    -90.59133128 </i>
    <i name="e_0_energy">    -90.59293446 </i>
   </energy>
  </scstep>
  <scstep>
   <time name="dav">    5.50    5.55</time>
   <time name="total">    5.60    5.65</time>
   <energy>
    <i name="e_fr_energy">    -90.59465244 </i>
    <i name="e_wo_entrp">    -90.59143988 </i>
    <i name="e_0_energy">    -90.59304616 </i>
   </energy>
  </scstep>
  <scstep>
   <time name="dav">    6.26    6.31</time>
   <time name="total">    6.36    6.41</time>
   <energy>
    <i name="e_fr_energy">    -90.59465716 </i>
    <i name="e_wo_entrp">    -90.59144432 </i>
    <i name="e_0_energy">    -90.59305074 </i>
   </energy>
  </scstep>
  <scstep>
   <time name="dav">    5.48    5.52</time>
   <time name="total">    5.49    5.53</time>
   <energy>
    <i name="alphaZ">     94.24357992 </i>
    <i name="ewald">   -795.76658092 </i>
    <i name="hartreedc">   -349.09919959 </i>
    <i name="XCdc">    101.59136576 </i>
    <i name="pawpsdc">   3732.03203036 </i>
    <i name="pawaedc">  -3721.22204381 </i>
    <i name="eentropy">     -0.00321295 </i>
    <i name="bandstr">   -148.73966394 </i>
    <i name="atom">    996.36906735 </i>
    <i name="e_fr_energy">    -90.59465781 </i>
    <i name="e_wo_entrp">    -90.59144486 </i>
    <i name="e_0_energy">    -90.59305134 </i>
   </energy>
  </scstep>
  <structure>
   <crystal>
    <varray name="basis" >
     <v>       5.69700000       0.00000000       0.00000000 </v>
     <v>       0.00000000       4.04790000       0.00000000 </v>
     <v>       0.00000000       0.00000000       6.20420000 </v>
    </varray>
    <i name="volume">    143.07435078 </i>
    <varray name="rec_basis" >
     <v>       0.17553098       0.00000000       0.00000000 </v>
     <v>       0.00000000       0.24704168       0.00000000 </v>
     <v>       0.00000000       0.00000000       0.16118114 </v>
    </varray>
   </crystal>
   <varray name="positions" >
    <v>       0.52123000       0.50000000       0.63796000 </v>
    <v>       0.47877000       0.50000000       0.36204000 </v>
    <v>       0.97877000       0.50000000       0.63796000 </v>
    <v>       0.02123000       0.50000000       0.36204000 </v>
    <v>       0.60090000       0.50000000       0.89991000 </v>
    <v>       0.39910000       0.50000000       0.10009000 </v>
    <v>       0.89910000       0.50000000       0.89991000 </v>
    <v>       0.10090000       0.50000000       0.10009000 </v>
    <v>       0.75000000       0.79171000       0.72973000 </v>
    <v>       0.25000000       0.20829000       0.27027000 </v>
    <v>       0.75000000       0.20829000       0.72973000 </v>
    <v>       0.25000000       0.79171000       0.27027000 </v>
    <v>       0.25000000       0.50000000       0.52367000 </v>
    <v>       0.75000000       0.50000000       0.47633000 </v>
   </varray>
  </structure>
  <varray name="forces" >
   <v>      -0.00518751       0.00000000       0.05228256 </v>
   <v>       0.00518751       0.00000000      -0.05228256 </v>
   <v>       0.00518751       0.00000000       0.05228256 </v>
   <v>      -0.00518751       0.00000000      -0.05228256 </v>
   <v>      -0.83246927       0.00000000       0.27765351 </v>
   <v>       0.83246927       0.00000000      -0.27765351 </v>
   <v>       0.83246927       0.00000000       0.27765351 </v>
   <v>      -0.83246927       0.00000000      -0.27765351 </v>
   <v>      -0.00000000       0.05891670      -0.07791914 </v>
   <v>       0.00000000      -0.05891670       0.07791914 </v>
   <v>       0.00000000      -0.05891670      -0.07791914 </v>
   <v>       0.00000000       0.05891670       0.07791914 </v>
   <v>      -0.00000000       0.00000000       0.07453366 </v>
   <v>      -0.00000000       0.00000000      -0.07453366 </v>
  </varray>
  <varray name="stress" >
   <v>      14.29735048       0.00000000       0.00000000 </v>
   <v>       0.00000000       0.81321700       0.00000000 </v>
   <v>       0.00000000       0.00000000      -6.83559512 </v>
  </varray>
  <energy>
   <i name="e_fr_energy">    -90.59465781 </i>
   <i name="e_wo_entrp">    -90.59144486 </i>
   <i name="e_0_energy">    -90.59305134 </i>
  </energy>
  <time name="totalsc">   86.80   87.59</time>
  <eigenvalues>
   <array>
    <dimension dim="1">band</dimension>
    <dimension dim="2">kpoint</dimension>
    <dimension dim="3">spin</dimension>
    <field>eigene</field>
    <field>occ</field>
    <set>
     <set comment="spin 1">
      <set comment="kpoint 1">
       <r>  -12.7249    1.0000 </r>
       <r>  -11.5829    1.0000 </r>
       <r>   -8.6578    1.0000 </r>
       <r>   -8.4211    1.0000 </r>
       <r>   -6.0634    1.0000 </r>
       <r>   -5.1297    1.0000 </r>
       <r>   -4.6654    1.0000 </r>
       <r>   -4.2745    1.0000 </r>
       <r>   -4.0325    1.0000 </r>
       <r>   -3.5434    1.0000 </r>
       <r>   -2.5931    1.0000 </r>
       <r>   -2.3241    1.0000 </r>
       <r>   -1.8330    1.0000 </r>
       <r>   -1.0953    1.0000 </r>
       <r>   -0.0690    1.0000 </r>
       <r>   -0.0389    1.0000 </r>
       <r>    0.1569    1.0000 </r>
       <r>    0.1785    1.0000 </r>
       <r>    0.5665    1.0000 </r>
       <r>    2.0196    0.0001 </r>
       <r>    2.0827    0.0000 </r>
       <r>    2.2179    0.0000 </r>
       <r>    5.4585    0.0000 </r>
       <r>    5.7498    0.0000 </r>
       <r>    5.8390    0.0000 </r>
       <r>    5.9599    0.0000 </r>
       <r>    6.8152    0.0000 </r>
       <r>    7.5492    0.0000 </r>
       <r>    7.8785    0.0000 </r>
       <r>    8.5360    0.0000 </r>
       <r>    8.8028    0.0000 </r>
       <r>    8.9501    0.0000 </r>
       <r>    9.0526    0.0000 </r>
       <r>   10.1236    0.0000 </r>
       <r>   11.1842    0.0000 </r>
       <r>   11.3352    0.0000 </r>
       <r>   11.6654    0.0000 </r>
       <r>   11.7823    0.0000 </r>
       <r>   11.9415    0.0000 </r>
       <r>   12.4038    0.0000 </r>
       <r>   12.8688    0.0000 </r>
       <r>   13.4530    0.0000 </r>
       <r>   13.4803    0.0000 </r>
       <r>   15.3818    0.0000 </r>
       <r>   15.5711    0.0000 </r>
       <r>   16.0617    0.0000 </r>
       <r>   16.3334    0.0000 </r>
       <r>   16.3567    0.0000 </r>
      </set>
      <set comment="kpoint 2">
       <r>  -12.6812    1.0000 </r>
       <r>  -11.6567    1.0000 </r>
       <r>   -8.6367    1.0000 </r>
       <r>   -8.4095    1.0000 </r>
       <r>   -5.9952    1.0000 </r>
       <r>   -5.4707    1.0000 </r>
       <r>   -4.7879    1.0000 </r>
       <r>   -4.0091    1.0000 </r>
       <r>   -3.7916    1.0000 </r>
       <r>   -3.2058    1.0000 </r>
       <r>   -2.6634    1.0000 </r>
       <r>   -2.3040    1.0000 </r>
       <r>   -1.9116    1.0000 </r>
       <r>   -1.4022    1.0000 </r>
       <r>   -0.0287    1.0000 </r>
       <r>   -0.0176    1.0000 </r>
       <r>    0.0946    1.0000 </r>
       <r>    0.1988    1.0000 </r>
       <r>    0.4714    1.0000 </r>
       <r>    1.9334    0.0843 </r>
       <r>    2.0048    0.0003 </r>
       <r>    2.0967    0.0000 </r>
       <r>    5.5473    0.0000 </r>
       <r>    5.7583    0.0000 </r>
       <r>    5.8667    0.0000 </r>
       <r>    6.3056    0.0000 </r>
       <r>    6.7297    0.0000 </r>
       <r>    7.1873    0.0000 </r>
       <r>    8.0885    0.0000 </r>
       <r>    8.6724    0.0000 </r>
       <r>    9.0597    0.0000 </r>
       <r>    9.1319    0.0000 </r>
       <r>    9.2046    0.0000 </r>
       <r>   10.2364    0.0000 </r>
       <r>   10.9428    0.0000 </r>
       <r>   11.1311    0.0000 </r>
       <r>   11.2573    0.0000 </r>
       <r>   11.6994    0.0000 </r>
       <r>   12.1588    0.0000 </r>
       <r>   12.4932    0.0000 </r>
       <r>   13.1218    0.0000 </r>
       <r>   13.1283    0.0000 </r>
       <r>   14.0118    0.0000 </r>
       <r>   14.8700    0.0000 </r>
       <r>   15.7507    0.0000 </r>
       <r>   15.8296    0.0000 </r>
       <r>   16.2269    0.0000 </r>
       <r>   16.5139    0.0000 </r>
      </set>
      <set comment="kpoint 3">
       <r>  -12.5955    1.0000 </r>
       <r>  -11.7897    1.0000 </r>
       <r>   -8.5931    1.0000 </r>
       <r>   -8.3948    1.0000 </r>
       <r>   -5.9736    1.0000 </r>
       <r>   -5.7974    1.0000 </r>
       <r>   -4.7420    1.0000 </r>
       <r>   -3.8817    1.0000 </r>
       <r>   -3.2805    1.0000 </r>
       <r>   -2.8322    1.0000 </r>
       <r>   -2.7134    1.0000 </r>
       <r>   -2.2636    1.0000 </r>
       <r>   -2.0223    1.0000 </r>
       <r>   -1.9065    1.0000 </r>
       <r>   -0.2186    1.0000 </r>
       <r>    0.0148    1.0000 </r>
       <r>    0.1444    1.0000 </r>
       <r>    0.1579    1.0000 </r>
       <r>    0.4412    1.0000 </r>
       <r>    1.7857    0.9974 </r>
       <r>    1.8670    0.6918 </r>
       <r>    1.8720    0.6410 </r>
       <r>    5.6682    0.0000 </r>
       <r>    5.7148    0.0000 </r>
       <r>    6.1757    0.0000 </r>
       <r>    6.6036    0.0000 </r>
       <r>    6.7641    0.0000 </r>
       <r>    6.9327    0.0000 </r>
       <r>    8.2394    0.0000 </r>
       <r>    8.8208    0.0000 </r>
       <r>    9.0010    0.0000 </r>
       <r>    9.5760    0.0000 </r>
       <r>    9.6486    0.0000 </r>
       <r>   10.2815    0.0000 </r>
       <r>   10.4865    0.0000 </r>
       <r>   10.6263    0.0000 </r>
       <r>   11.3777    0.0000 </r>
       <r>   11.8414    0.0000 </r>
       <r>   12.3937    0.0000 </r>
       <r>   12.5666    0.0000 </r>
       <r>   12.7937    0.0000 </r>
       <r>   12.9191    0.0000 </r>
       <r>   14.6373    0.0000 </r>
       <r>   14.9187    0.0000 </r>
       <r>   15.2264    0.0000 </r>
       <r>   15.9837    0.0000 </r>
       <r>   16.0026    0.0000 </r>
       <r>   16.2915    0.0000 </r>
      </set>
      <set comment="kpoint 4">
       <r>  -12.4720    1.0000 </r>
       <r>  -11.9590    1.0000 </r>
       <r>   -8.5313    1.0000 </r>
       <r>   -8.3916    1.0000 </r>
       <r>   -6.0544    1.0000 </r>
       <r>   -6.0305    1.0000 </r>
       <r>   -4.4145    1.0000 </r>
       <r>   -3.7127    1.0000 </r>
       <r>   -3.0263    1.0000 </r>
       <r>   -2.8960    1.0000 </r>
       <r>   -2.4434    1.0000 </r>
       <r>   -2.2520    1.0000 </r>
       <r>   -2.1451    1.0000 </r>
       <r>   -2.1234    1.0000 </r>
       <r>   -0.5177    1.0000 </r>
       <r>   -0.2444    1.0000 </r>
       <r>    0.1735    1.0000 </r>
       <r>    0.2490    1.0000 </r>
       <r>    0.6143    1.0000 </r>
       <r>    1.5313    1.0000 </r>
       <r>    1.6630    1.0000 </r>
       <r>    1.7237    1.0000 </r>
       <r>    5.6995    0.0000 </r>
       <r>    5.7535    0.0000 </r>
       <r>    6.5022    0.0000 </r>
       <r>    6.6738    0.0000 </r>
       <r>    6.6998    0.0000 </r>
       <r>    7.4140    0.0000 </r>
       <r>    8.3638    0.0000 </r>
       <r>    8.6897    0.0000 </r>
       <r>    8.8101    0.0000 </r>
       <r>    9.5359    0.0000 </r>
       <r>   10.0568    0.0000 </r>
       <r>   10.1192    0.0000 </r>
       <r>   10.3993    0.0000 </r>
       <r>   11.1496    0.0000 </r>
       <r>   11.4053    0.0000 </r>
       <r>   11.9468    0.0000 </r>
       <r>   12.2049    0.0000 </r>
       <r>   12.2764    0.0000 </r>
       <r>   12.5219    0.0000 </r>
       <r>   13.2581    0.0000 </r>
       <r>   14.7139    0.0000 </r>
       <r>   14.9776    0.0000 </r>
       <r>   15.2645    0.0000 </r>
       <r>   15.3755    0.0000 </r>
       <r>   15.5739    0.0000 </r>
       <r>   16.3780    0.0000 </r>
      </set>
      <set comment="kpoint 5">
       <r>  -12.3173    1.0000 </r>
       <r>  -12.1414    1.0000 </r>
       <r>   -8.4652    1.0000 </r>
       <r>   -8.4142    1.0000 </r>
       <r>   -6.1441    1.0000 </r>
       <r>   -6.1397    1.0000 </r>
       <r>   -3.8991    1.0000 </r>
       <r>   -3.5034    1.0000 </r>
       <r>   -3.2997    1.0000 </r>
       <r>   -3.2653    1.0000 </r>
       <r>   -2.3610    1.0000 </r>
       <r>   -2.2325    1.0000 </r>
       <r>   -1.9608    1.0000 </r>
       <r>   -1.9077    1.0000 </r>
       <r>   -0.7382    1.0000 </r>
       <r>   -0.6028    1.0000 </r>
       <r>    0.2568    1.0000 </r>
       <r>    0.2904    1.0000 </r>
       <r>    0.8751    1.0000 </r>
       <r>    1.1924    1.0000 </r>
       <r>    1.5824    1.0000 </r>
       <r>    1.6098    1.0000 </r>
       <r>    5.7275    0.0000 </r>
       <r>    5.7648    0.0000 </r>
       <r>    6.4807    0.0000 </r>
       <r>    6.5446    0.0000 </r>
       <r>    7.3690    0.0000 </r>
       <r>    8.0749    0.0000 </r>
       <r>    8.0965    0.0000 </r>
       <r>    8.4815    0.0000 </r>
       <r>    8.6202    0.0000 </r>
       <r>    8.7906    0.0000 </r>
       <r>   10.5022    0.0000 </r>
       <r>   10.5186    0.0000 </r>
       <r>   10.7619    0.0000 </r>
       <r>   11.2200    0.0000 </r>
       <r>   11.4045    0.0000 </r>
       <r>   11.6008    0.0000 </r>
       <r>   11.9342    0.0000 </r>
       <r>   12.4833    0.0000 </r>
       <r>   12.7174    0.0000 </r>
       <r>   13.2535    0.0000 </r>
       <r>   14.5914    0.0000 </r>
       <r>   14.7362    0.0000 </r>
       <r>   14.8702    0.0000 </r>
       <r>   14.9289    0.0000 </r>
       <r>   16.1030    0.0000 </r>
       <r>   16.4475    0.0000 </r>
      </set>
      <set comment="kpoint 6">
       <r>  -12.7009    1.0000 </r>
       <r>  -11.5614    1.0000 </r>
       <r>   -8.6390    1.0000 </r>
       <r>   -8.3979    1.0000 </r>
       <r>   -6.0367    1.0000 </r>
       <r>   -5.0959    1.0000 </r>
       <r>   -4.6433    1.0000 </r>
       <r>   -4.5727    1.0000 </r>
       <r>   -4.1766    1.0000 </r>
       <r>   -3.5205    1.0000 </r>
       <r>   -3.2864    1.0000 </r>
       <r>   -1.7932    1.0000 </r>
       <r>   -1.0907    1.0000 </r>
       <r>   -1.0341    1.0000 </r>
       <r>   -0.3029    1.0000 </r>
       <r>   -0.2749    1.0000 </r>
       <r>    0.1704    1.0000 </r>
       <r>    0.2487    1.0000 </r>
       <r>    0.6448    1.0000 </r>
       <r>    1.7518    0.9999 </r>
       <r>    1.8317    0.9331 </r>
       <r>    2.2701    0.0000 </r>
       <r>    5.5769    0.0000 </r>
       <r>    5.7085    0.0000 </r>
       <r>    5.7424    0.0000 </r>
       <r>    6.0078    0.0000 </r>
       <r>    7.1012    0.0000 </r>
       <r>    7.8347    0.0000 </r>
       <r>    8.0776    0.0000 </r>
       <r>    8.1887    0.0000 </r>
       <r>    8.8069    0.0000 </r>
       <r>    9.0998    0.0000 </r>
       <r>    9.1509    0.0000 </r>
       <r>   10.5759    0.0000 </r>
       <r>   11.2666    0.0000 </r>
       <r>   11.3994    0.0000 </r>
       <r>   11.5993    0.0000 </r>
       <r>   11.8851    0.0000 </r>
       <r>   12.0522    0.0000 </r>
       <r>   12.6840    0.0000 </r>
       <r>   12.8690    0.0000 </r>
       <r>   13.1896    0.0000 </r>
       <r>   13.1959    0.0000 </r>
       <r>   15.3315    0.0000 </r>
       <r>   15.3811    0.0000 </r>
       <r>   15.8586    0.0000 </r>
       <r>   15.8692    0.0000 </r>
       <r>   16.2209    0.0000 </r>
      </set>
      <set comment="kpoint 7">
       <r>  -12.6573    1.0000 </r>
       <r>  -11.6350    1.0000 </r>
       <r>   -8.6178    1.0000 </r>
       <r>   -8.3868    1.0000 </r>
       <r>   -5.9667    1.0000 </r>
       <r>   -5.4407    1.0000 </r>
       <r>   -4.7679    1.0000 </r>
       <r>   -4.4899    1.0000 </r>
       <r>   -3.7522    1.0000 </r>
       <r>   -3.3672    1.0000 </r>
       <r>   -3.1677    1.0000 </r>
       <r>   -1.7715    1.0000 </r>
       <r>   -1.3968    1.0000 </r>
       <r>   -1.1533    1.0000 </r>
       <r>   -0.2639    1.0000 </r>
       <r>   -0.1942    1.0000 </r>
       <r>    0.1380    1.0000 </r>
       <r>    0.2203    1.0000 </r>
       <r>    0.5421    1.0000 </r>
       <r>    1.6713    1.0000 </r>
       <r>    1.7553    0.9999 </r>
       <r>    2.1393    0.0000 </r>
       <r>    5.6528    0.0000 </r>
       <r>    5.8071    0.0000 </r>
       <r>    5.9359    0.0000 </r>
       <r>    6.1125    0.0000 </r>
       <r>    7.0177    0.0000 </r>
       <r>    7.5095    0.0000 </r>
       <r>    8.2235    0.0000 </r>
       <r>    8.3594    0.0000 </r>
       <r>    9.1308    0.0000 </r>
       <r>    9.1612    0.0000 </r>
       <r>    9.4166    0.0000 </r>
       <r>   10.5010    0.0000 </r>
       <r>   10.8740    0.0000 </r>
       <r>   11.0837    0.0000 </r>
       <r>   11.4540    0.0000 </r>
       <r>   11.8722    0.0000 </r>
       <r>   12.2719    0.0000 </r>
       <r>   12.7391    0.0000 </r>
       <r>   12.8674    0.0000 </r>
       <r>   13.1524    0.0000 </r>
       <r>   13.7290    0.0000 </r>
       <r>   14.9551    0.0000 </r>
       <r>   15.3988    0.0000 </r>
       <r>   15.7506    0.0000 </r>
       <r>   15.7962    0.0000 </r>
       <r>   16.4010    0.0000 </r>
      </set>
      <set comment="kpoint 8">
       <r>  -12.5718    1.0000 </r>
       <r>  -11.7677    1.0000 </r>
       <r>   -8.5740    1.0000 </r>
       <r>   -8.3728    1.0000 </r>
       <r>   -5.9423    1.0000 </r>
       <r>   -5.7670    1.0000 </r>
       <r>   -4.7253    1.0000 </r>
       <r>   -4.3813    1.0000 </r>
       <r>   -3.4893    1.0000 </r>
       <r>   -3.2263    1.0000 </r>
       <r>   -2.7012    1.0000 </r>
       <r>   -1.9019    1.0000 </r>
       <r>   -1.7272    1.0000 </r>
       <r>   -1.3165    1.0000 </r>
       <r>   -0.2209    1.0000 </r>
       <r>   -0.2167    1.0000 </r>
       <r>    0.0533    1.0000 </r>
       <r>    0.2074    1.0000 </r>
       <r>    0.4657    1.0000 </r>
       <r>    1.5363    1.0000 </r>
       <r>    1.6252    1.0000 </r>
       <r>    1.8910    0.4298 </r>
       <r>    5.8564    0.0000 </r>
       <r>    5.9348    0.0000 </r>
       <r>    6.0126    0.0000 </r>
       <r>    6.5613    0.0000 </r>
       <r>    6.8970    0.0000 </r>
       <r>    7.2816    0.0000 </r>
       <r>    8.4297    0.0000 </r>
       <r>    8.4925    0.0000 </r>
       <r>    9.1013    0.0000 </r>
       <r>    9.6138    0.0000 </r>
       <r>    9.8744    0.0000 </r>
       <r>   10.1254    0.0000 </r>
       <r>   10.3538    0.0000 </r>
       <r>   10.8237    0.0000 </r>
       <r>   11.5198    0.0000 </r>
       <r>   12.1067    0.0000 </r>
       <r>   12.3089    0.0000 </r>
       <r>   12.5557    0.0000 </r>
       <r>   12.9587    0.0000 </r>
       <r>   13.0237    0.0000 </r>
       <r>   14.3060    0.0000 </r>
       <r>   15.0867    0.0000 </r>
       <r>   15.1626    0.0000 </r>
       <r>   15.6459    0.0000 </r>
       <r>   15.7094    0.0000 </r>
       <r>   16.4211    0.0000 </r>
      </set>
      <set comment="kpoint 9">
       <r>  -12.4486    1.0000 </r>
       <r>  -11.9367    1.0000 </r>
       <r>   -8.5120    1.0000 </r>
       <r>   -8.3705    1.0000 </r>
       <r>   -6.0219    1.0000 </r>
       <r>   -5.9992    1.0000 </r>
       <r>   -4.4000    1.0000 </r>
       <r>   -4.2341    1.0000 </r>
       <r>   -3.6609    1.0000 </r>
       <r>   -2.8464    1.0000 </r>
       <r>   -2.3617    1.0000 </r>
       <r>   -2.2179    1.0000 </r>
       <r>   -1.6629    1.0000 </r>
       <r>   -1.4798    1.0000 </r>
       <r>   -0.4792    1.0000 </r>
       <r>   -0.3074    1.0000 </r>
       <r>    0.0854    1.0000 </r>
       <r>    0.1153    1.0000 </r>
       <r>    0.6250    1.0000 </r>
       <r>    1.3966    1.0000 </r>
       <r>    1.4797    1.0000 </r>
       <r>    1.5669    1.0000 </r>
       <r>    5.8744    0.0000 </r>
       <r>    6.0084    0.0000 </r>
       <r>    6.5179    0.0000 </r>
       <r>    6.8074    0.0000 </r>
       <r>    6.8803    0.0000 </r>
       <r>    7.3727    0.0000 </r>
       <r>    8.4184    0.0000 </r>
       <r>    8.6004    0.0000 </r>
       <r>    8.9400    0.0000 </r>
       <r>    9.3713    0.0000 </r>
       <r>   10.0728    0.0000 </r>
       <r>   10.0992    0.0000 </r>
       <r>   10.4420    0.0000 </r>
       <r>   11.2268    0.0000 </r>
       <r>   11.3645    0.0000 </r>
       <r>   11.8421    0.0000 </r>
       <r>   12.2937    0.0000 </r>
       <r>   12.5462    0.0000 </r>
       <r>   12.7220    0.0000 </r>
       <r>   13.4605    0.0000 </r>
       <r>   14.7663    0.0000 </r>
       <r>   14.7739    0.0000 </r>
       <r>   15.1548    0.0000 </r>
       <r>   15.3081    0.0000 </r>
       <r>   15.6527    0.0000 </r>
       <r>   16.3911    0.0000 </r>
      </set>
      <set comment="kpoint 10">
       <r>  -12.2942    1.0000 </r>
       <r>  -12.1187    1.0000 </r>
       <r>   -8.4455    1.0000 </r>
       <r>   -8.3939    1.0000 </r>
       <r>   -6.1120    1.0000 </r>
       <r>   -6.1071    1.0000 </r>
       <r>   -4.0550    1.0000 </r>
       <r>   -3.8918    1.0000 </r>
       <r>   -3.8508    1.0000 </r>
       <r>   -3.2868    1.0000 </r>
       <r>   -2.1076    1.0000 </r>
       <r>   -1.9137    1.0000 </r>
       <r>   -1.5947    1.0000 </r>
       <r>   -1.5919    1.0000 </r>
       <r>   -0.7000    1.0000 </r>
       <r>   -0.5990    1.0000 </r>
       <r>    0.1183    1.0000 </r>
       <r>    0.1495    1.0000 </r>
       <r>    0.8844    1.0000 </r>
       <r>    1.1988    1.0000 </r>
       <r>    1.3431    1.0000 </r>
       <r>    1.3673    1.0000 </r>
       <r>    5.9255    0.0000 </r>
       <r>    5.9912    0.0000 </r>
       <r>    6.7963    0.0000 </r>
       <r>    6.8468    0.0000 </r>
       <r>    7.1855    0.0000 </r>
       <r>    7.8981    0.0000 </r>
       <r>    7.9433    0.0000 </r>
       <r>    8.6259    0.0000 </r>
       <r>    8.6930    0.0000 </r>
       <r>    8.8058    0.0000 </r>
       <r>   10.3209    0.0000 </r>
       <r>   10.5692    0.0000 </r>
       <r>   10.8060    0.0000 </r>
       <r>   10.9104    0.0000 </r>
       <r>   11.5517    0.0000 </r>
       <r>   11.6600    0.0000 </r>
       <r>   12.0134    0.0000 </r>
       <r>   12.6525    0.0000 </r>
       <r>   13.0260    0.0000 </r>
       <r>   13.4849    0.0000 </r>
       <r>   14.5494    0.0000 </r>
       <r>   14.7341    0.0000 </r>
       <r>   14.8311    0.0000 </r>
       <r>   15.0485    0.0000 </r>
       <r>   16.1274    0.0000 </r>
       <r>   16.4218    0.0000 </r>
      </set>
      <set comment="kpoint 11">
       <r>  -12.6566    1.0000 </r>
       <r>  -11.5216    1.0000 </r>
       <r>   -8.6046    1.0000 </r>
       <r>   -8.3552    1.0000 </r>
       <r>   -5.9872    1.0000 </r>
       <r>   -5.1297    1.0000 </r>
       <r>   -5.0051    1.0000 </r>
       <r>   -4.6015    1.0000 </r>
       <r>   -4.1604    1.0000 </r>
       <r>   -3.9087    1.0000 </r>
       <r>   -3.4673    1.0000 </r>
       <r>   -1.2040    1.0000 </r>
       <r>   -1.0813    1.0000 </r>
       <r>   -0.6470    1.0000 </r>
       <r>   -0.5410    1.0000 </r>
       <r>   -0.1755    1.0000 </r>
       <r>    0.1916    1.0000 </r>
       <r>    0.3017    1.0000 </r>
       <r>    0.7233    1.0000 </r>
       <r>    1.3689    1.0000 </r>
       <r>    1.4326    1.0000 </r>
       <r>    2.3082    0.0000 </r>
       <r>    5.2876    0.0000 </r>
       <r>    5.4532    0.0000 </r>
       <r>    6.1235    0.0000 </r>
       <r>    6.1963    0.0000 </r>
       <r>    7.5367    0.0000 </r>
       <r>    7.6253    0.0000 </r>
       <r>    8.3173    0.0000 </r>
       <r>    8.7270    0.0000 </r>
       <r>    8.8828    0.0000 </r>
       <r>    9.2417    0.0000 </r>
       <r>    9.3714    0.0000 </r>
       <r>   10.8815    0.0000 </r>
       <r>   11.3182    0.0000 </r>
       <r>   11.5722    0.0000 </r>
       <r>   11.7006    0.0000 </r>
       <r>   12.0858    0.0000 </r>
       <r>   12.2683    0.0000 </r>
       <r>   12.7460    0.0000 </r>
       <r>   12.7595    0.0000 </r>
       <r>   13.0061    0.0000 </r>
       <r>   13.2241    0.0000 </r>
       <r>   14.6756    0.0000 </r>
       <r>   15.1607    0.0000 </r>
       <r>   15.3425    0.0000 </r>
       <r>   15.4302    0.0000 </r>
       <r>   15.9615    0.0000 </r>
      </set>
      <set comment="kpoint 12">
       <r>  -12.6131    1.0000 </r>
       <r>  -11.5950    1.0000 </r>
       <r>   -8.5831    1.0000 </r>
       <r>   -8.3448    1.0000 </r>
       <r>   -5.9137    1.0000 </r>
       <r>   -5.3925    1.0000 </r>
       <r>   -5.0310    1.0000 </r>
       <r>   -4.7302    1.0000 </r>
       <r>   -3.9748    1.0000 </r>
       <r>   -3.7101    1.0000 </r>
       <r>   -3.1283    1.0000 </r>
       <r>   -1.3885    1.0000 </r>
       <r>   -1.1776    1.0000 </r>
       <r>   -0.7542    1.0000 </r>
       <r>   -0.5030    1.0000 </r>
       <r>   -0.0945    1.0000 </r>
       <r>    0.1722    1.0000 </r>
       <r>    0.2454    1.0000 </r>
       <r>    0.6109    1.0000 </r>
       <r>    1.2898    1.0000 </r>
       <r>    1.3629    1.0000 </r>
       <r>    2.1724    0.0000 </r>
       <r>    5.3679    0.0000 </r>
       <r>    5.7993    0.0000 </r>
       <r>    6.1422    0.0000 </r>
       <r>    6.2380    0.0000 </r>
       <r>    7.4560    0.0000 </r>
       <r>    7.7818    0.0000 </r>
       <r>    8.0496    0.0000 </r>
       <r>    8.8179    0.0000 </r>
       <r>    9.2535    0.0000 </r>
       <r>    9.2866    0.0000 </r>
       <r>    9.6561    0.0000 </r>
       <r>   10.5170    0.0000 </r>
       <r>   10.7793    0.0000 </r>
       <r>   11.2759    0.0000 </r>
       <r>   11.7187    0.0000 </r>
       <r>   12.1980    0.0000 </r>
       <r>   12.4309    0.0000 </r>
       <r>   12.5005    0.0000 </r>
       <r>   13.1623    0.0000 </r>
       <r>   13.2726    0.0000 </r>
       <r>   13.4373    0.0000 </r>
       <r>   14.6858    0.0000 </r>
       <r>   14.8222    0.0000 </r>
       <r>   15.2833    0.0000 </r>
       <r>   15.4940    0.0000 </r>
       <r>   15.9875    0.0000 </r>
      </set>
      <set comment="kpoint 13">
       <r>  -12.5280    1.0000 </r>
       <r>  -11.7271    1.0000 </r>
       <r>   -8.5389    1.0000 </r>
       <r>   -8.3321    1.0000 </r>
       <r>   -5.8840    1.0000 </r>
       <r>   -5.7122    1.0000 </r>
       <r>   -4.9393    1.0000 </r>
       <r>   -4.6943    1.0000 </r>
       <r>   -4.0985    1.0000 </r>
       <r>   -3.1760    1.0000 </r>
       <r>   -2.6572    1.0000 </r>
       <r>   -1.8856    1.0000 </r>
       <r>   -1.1369    1.0000 </r>
       <r>   -0.8930    1.0000 </r>
       <r>   -0.4500    1.0000 </r>
       <r>   -0.0854    1.0000 </r>
       <r>    0.0142    1.0000 </r>
       <r>    0.2573    1.0000 </r>
       <r>    0.4957    1.0000 </r>
       <r>    1.1583    1.0000 </r>
       <r>    1.2445    1.0000 </r>
       <r>    1.9158    0.1897 </r>
       <r>    5.6891    0.0000 </r>
       <r>    6.0972    0.0000 </r>
       <r>    6.2756    0.0000 </r>
       <r>    6.3679    0.0000 </r>
       <r>    7.3536    0.0000 </r>
       <r>    7.8603    0.0000 </r>
       <r>    8.0158    0.0000 </r>
       <r>    8.9465    0.0000 </r>
       <r>    9.2471    0.0000 </r>
       <r>    9.7196    0.0000 </r>
       <r>    9.8520    0.0000 </r>
       <r>   10.1382    0.0000 </r>
       <r>   10.2542    0.0000 </r>
       <r>   11.0626    0.0000 </r>
       <r>   11.5867    0.0000 </r>
       <r>   12.1050    0.0000 </r>
       <r>   12.5092    0.0000 </r>
       <r>   12.8013    0.0000 </r>
       <r>   13.0447    0.0000 </r>
       <r>   13.4465    0.0000 </r>
       <r>   13.9597    0.0000 </r>
       <r>   14.5945    0.0000 </r>
       <r>   14.8719    0.0000 </r>
       <r>   15.3035    0.0000 </r>
       <r>   15.5132    0.0000 </r>
       <r>   16.1981    0.0000 </r>
      </set>
      <set comment="kpoint 14">
       <r>  -12.4053    1.0000 </r>
       <r>  -11.8955    1.0000 </r>
       <r>   -8.4764    1.0000 </r>
       <r>   -8.3315    1.0000 </r>
       <r>   -5.9612    1.0000 </r>
       <r>   -5.9415    1.0000 </r>
       <r>   -4.8034    1.0000 </r>
       <r>   -4.3733    1.0000 </r>
       <r>   -4.2632    1.0000 </r>
       <r>   -2.8078    1.0000 </r>
       <r>   -2.3207    1.0000 </r>
       <r>   -2.1767    1.0000 </r>
       <r>   -1.0804    1.0000 </r>
       <r>   -1.0298    1.0000 </r>
       <r>   -0.4553    1.0000 </r>
       <r>   -0.3714    1.0000 </r>
       <r>    0.0581    1.0000 </r>
       <r>    0.0620    1.0000 </r>
       <r>    0.6426    1.0000 </r>
       <r>    1.0287    1.0000 </r>
       <r>    1.1118    1.0000 </r>
       <r>    1.5808    1.0000 </r>
       <r>    6.1084    0.0000 </r>
       <r>    6.2244    0.0000 </r>
       <r>    6.3995    0.0000 </r>
       <r>    6.8028    0.0000 </r>
       <r>    7.2976    0.0000 </r>
       <r>    7.7815    0.0000 </r>
       <r>    8.0709    0.0000 </r>
       <r>    9.0461    0.0000 </r>
       <r>    9.1043    0.0000 </r>
       <r>    9.1767    0.0000 </r>
       <r>    9.8883    0.0000 </r>
       <r>   10.1871    0.0000 </r>
       <r>   10.7017    0.0000 </r>
       <r>   11.0781    0.0000 </r>
       <r>   11.3258    0.0000 </r>
       <r>   11.9511    0.0000 </r>
       <r>   12.3562    0.0000 </r>
       <r>   12.9859    0.0000 </r>
       <r>   13.0367    0.0000 </r>
       <r>   13.7907    0.0000 </r>
       <r>   14.3810    0.0000 </r>
       <r>   14.3968    0.0000 </r>
       <r>   15.0305    0.0000 </r>
       <r>   15.1242    0.0000 </r>
       <r>   15.6144    0.0000 </r>
       <r>   16.3754    0.0000 </r>
      </set>
      <set comment="kpoint 15">
       <r>  -12.2515    1.0000 </r>
       <r>  -12.0767    1.0000 </r>
       <r>   -8.4093    1.0000 </r>
       <r>   -8.3566    1.0000 </r>
       <r>   -6.0524    1.0000 </r>
       <r>   -6.0465    1.0000 </r>
       <r>   -4.6355    1.0000 </r>
       <r>   -4.4497    1.0000 </r>
       <r>   -3.8606    1.0000 </r>
       <r>   -3.2642    1.0000 </r>
       <r>   -2.0387    1.0000 </r>
       <r>   -1.8731    1.0000 </r>
       <r>   -1.1015    1.0000 </r>
       <r>   -1.0399    1.0000 </r>
       <r>   -0.6289    1.0000 </r>
       <r>   -0.6223    1.0000 </r>
       <r>    0.0084    1.0000 </r>
       <r>    0.0520    1.0000 </r>
       <r>    0.9001    1.0000 </r>
       <r>    0.9664    1.0000 </r>
       <r>    1.0072    1.0000 </r>
       <r>    1.2273    1.0000 </r>
       <r>    6.2000    0.0000 </r>
       <r>    6.3182    0.0000 </r>
       <r>    6.8773    0.0000 </r>
       <r>    7.2169    0.0000 </r>
       <r>    7.2755    0.0000 </r>
       <r>    7.6218    0.0000 </r>
       <r>    7.9287    0.0000 </r>
       <r>    8.4403    0.0000 </r>
       <r>    9.1020    0.0000 </r>
       <r>    9.1341    0.0000 </r>
       <r>   10.0120    0.0000 </r>
       <r>   10.4841    0.0000 </r>
       <r>   10.7083    0.0000 </r>
       <r>   10.9786    0.0000 </r>
       <r>   11.7319    0.0000 </r>
       <r>   11.7502    0.0000 </r>
       <r>   12.1344    0.0000 </r>
       <r>   12.9100    0.0000 </r>
       <r>   13.4160    0.0000 </r>
       <r>   13.7634    0.0000 </r>
       <r>   14.2284    0.0000 </r>
       <r>   14.3830    0.0000 </r>
       <r>   14.9936    0.0000 </r>
       <r>   15.1333    0.0000 </r>
       <r>   15.9910    0.0000 </r>
       <r>   16.2950    0.0000 </r>
      </set>
      <set comment="kpoint 16">
       <r>  -12.5991    1.0000 </r>
       <r>  -11.4702    1.0000 </r>
       <r>   -8.5607    1.0000 </r>
       <r>   -8.3000    1.0000 </r>
       <r>   -5.9229    1.0000 </r>
       <r>   -5.6107    1.0000 </r>
       <r>   -4.9348    1.0000 </r>
       <r>   -4.5452    1.0000 </r>
       <r>   -4.4289    1.0000 </r>
       <r>   -4.1211    1.0000 </r>
       <r>   -3.4052    1.0000 </r>
       <r>   -1.2195    1.0000 </r>
       <r>   -1.0671    1.0000 </r>
       <r>   -1.0016    1.0000 </r>
       <r>   -0.1938    1.0000 </r>
       <r>    0.2199    1.0000 </r>
       <r>    0.3451    1.0000 </r>
       <r>    0.5954    1.0000 </r>
       <r>    0.7871    1.0000 </r>
       <r>    0.9838    1.0000 </r>
       <r>    0.9979    1.0000 </r>
       <r>    2.3425    0.0000 </r>
       <r>    4.9439    0.0000 </r>
       <r>    5.1596    0.0000 </r>
       <r>    6.3567    0.0000 </r>
       <r>    6.5859    0.0000 </r>
       <r>    7.2667    0.0000 </r>
       <r>    7.9678    0.0000 </r>
       <r>    8.7011    0.0000 </r>
       <r>    9.0585    0.0000 </r>
       <r>    9.4646    0.0000 </r>
       <r>    9.5795    0.0000 </r>
       <r>    9.6527    0.0000 </r>
       <r>   10.7430    0.0000 </r>
       <r>   11.2689    0.0000 </r>
       <r>   11.9658    0.0000 </r>
       <r>   12.0171    0.0000 </r>
       <r>   12.2947    0.0000 </r>
       <r>   12.4233    0.0000 </r>
       <r>   12.4475    0.0000 </r>
       <r>   12.5647    0.0000 </r>
       <r>   12.9914    0.0000 </r>
       <r>   13.7932    0.0000 </r>
       <r>   13.8798    0.0000 </r>
       <r>   14.4172    0.0000 </r>
       <r>   15.1023    0.0000 </r>
       <r>   15.4027    0.0000 </r>
       <r>   15.8597    0.0000 </r>
      </set>
      <set comment="kpoint 17">
       <r>  -12.5558    1.0000 </r>
       <r>  -11.5432    1.0000 </r>
       <r>   -8.5387    1.0000 </r>
       <r>   -8.2905    1.0000 </r>
       <r>   -5.8449    1.0000 </r>
       <r>   -5.5760    1.0000 </r>
       <r>   -5.2720    1.0000 </r>
       <r>   -4.6802    1.0000 </r>
       <r>   -4.4944    1.0000 </r>
       <r>   -3.6562    1.0000 </r>
       <r>   -3.0666    1.0000 </r>
       <r>   -1.3824    1.0000 </r>
       <r>   -1.1621    1.0000 </r>
       <r>   -1.0164    1.0000 </r>
       <r>   -0.1952    1.0000 </r>
       <r>    0.2050    1.0000 </r>
       <r>    0.2771    1.0000 </r>
       <r>    0.5747    1.0000 </r>
       <r>    0.6657    1.0000 </r>
       <r>    0.9184    1.0000 </r>
       <r>    0.9564    1.0000 </r>
       <r>    2.2047    0.0000 </r>
       <r>    5.0399    0.0000 </r>
       <r>    5.4912    0.0000 </r>
       <r>    6.3028    0.0000 </r>
       <r>    6.7176    0.0000 </r>
       <r>    7.4024    0.0000 </r>
       <r>    7.9253    0.0000 </r>
       <r>    8.6341    0.0000 </r>
       <r>    9.1748    0.0000 </r>
       <r>    9.4284    0.0000 </r>
       <r>    9.7897    0.0000 </r>
       <r>    9.8969    0.0000 </r>
       <r>   10.3352    0.0000 </r>
       <r>   10.7066    0.0000 </r>
       <r>   11.7052    0.0000 </r>
       <r>   11.8851    0.0000 </r>
       <r>   12.2448    0.0000 </r>
       <r>   12.4783    0.0000 </r>
       <r>   12.6418    0.0000 </r>
       <r>   12.9606    0.0000 </r>
       <r>   13.3913    0.0000 </r>
       <r>   13.7910    0.0000 </r>
       <r>   13.9237    0.0000 </r>
       <r>   14.2540    0.0000 </r>
       <r>   15.0770    0.0000 </r>
       <r>   15.4318    0.0000 </r>
       <r>   15.7307    0.0000 </r>
      </set>
      <set comment="kpoint 18">
       <r>  -12.4712    1.0000 </r>
       <r>  -11.6747    1.0000 </r>
       <r>   -8.4940    1.0000 </r>
       <r>   -8.2797    1.0000 </r>
       <r>   -5.8076    1.0000 </r>
       <r>   -5.6601    1.0000 </r>
       <r>   -5.4204    1.0000 </r>
       <r>   -4.6544    1.0000 </r>
       <r>   -4.6169    1.0000 </r>
       <r>   -3.1167    1.0000 </r>
       <r>   -2.5968    1.0000 </r>
       <r>   -1.8666    1.0000 </r>
       <r>   -1.1014    1.0000 </r>
       <r>   -1.0352    1.0000 </r>
       <r>   -0.2135    1.0000 </r>
       <r>   -0.0494    1.0000 </r>
       <r>    0.3153    1.0000 </r>
       <r>    0.5068    1.0000 </r>
       <r>    0.5231    1.0000 </r>
       <r>    0.8299    1.0000 </r>
       <r>    0.8894    1.0000 </r>
       <r>    1.9444    0.0457 </r>
       <r>    5.3656    0.0000 </r>
       <r>    5.9661    0.0000 </r>
       <r>    6.2755    0.0000 </r>
       <r>    6.8306    0.0000 </r>
       <r>    7.5700    0.0000 </r>
       <r>    7.9454    0.0000 </r>
       <r>    8.5596    0.0000 </r>
       <r>    9.3638    0.0000 </r>
       <r>    9.3945    0.0000 </r>
       <r>    9.5918    0.0000 </r>
       <r>   10.0430    0.0000 </r>
       <r>   10.1119    0.0000 </r>
       <r>   10.5595    0.0000 </r>
       <r>   11.3867    0.0000 </r>
       <r>   11.3973    0.0000 </r>
       <r>   12.2381    0.0000 </r>
       <r>   12.7404    0.0000 </r>
       <r>   12.9559    0.0000 </r>
       <r>   13.1798    0.0000 </r>
       <r>   13.5216    0.0000 </r>
       <r>   13.7646    0.0000 </r>
       <r>   14.0160    0.0000 </r>
       <r>   14.3897    0.0000 </r>
       <r>   15.1684    0.0000 </r>
       <r>   15.3581    0.0000 </r>
       <r>   15.9917    0.0000 </r>
      </set>
      <set comment="kpoint 19">
       <r>  -12.3492    1.0000 </r>
       <r>  -11.8422    1.0000 </r>
       <r>   -8.4308    1.0000 </r>
       <r>   -8.2814    1.0000 </r>
       <r>   -5.8816    1.0000 </r>
       <r>   -5.8688    1.0000 </r>
       <r>   -5.3073    1.0000 </r>
       <r>   -4.7813    1.0000 </r>
       <r>   -4.3375    1.0000 </r>
       <r>   -2.7630    1.0000 </r>
       <r>   -2.2782    1.0000 </r>
       <r>   -2.1210    1.0000 </r>
       <r>   -1.0433    1.0000 </r>
       <r>   -1.0167    1.0000 </r>
       <r>   -0.3735    1.0000 </r>
       <r>   -0.3287    1.0000 </r>
       <r>    0.1521    1.0000 </r>
       <r>    0.3761    1.0000 </r>
       <r>    0.6626    1.0000 </r>
       <r>    0.7740    1.0000 </r>
       <r>    0.8231    1.0000 </r>
       <r>    1.6055    1.0000 </r>
       <r>    5.8931    0.0000 </r>
       <r>    6.3075    0.0000 </r>
       <r>    6.5451    0.0000 </r>
       <r>    6.7827    0.0000 </r>
       <r>    7.5696    0.0000 </r>
       <r>    8.0036    0.0000 </r>
       <r>    8.5135    0.0000 </r>
       <r>    8.9150    0.0000 </r>
       <r>    9.2712    0.0000 </r>
       <r>    9.5827    0.0000 </r>
       <r>    9.9044    0.0000 </r>
       <r>   10.3447    0.0000 </r>
       <r>   10.7940    0.0000 </r>
       <r>   11.0929    0.0000 </r>
       <r>   11.4428    0.0000 </r>
       <r>   12.1676    0.0000 </r>
       <r>   12.4218    0.0000 </r>
       <r>   13.1588    0.0000 </r>
       <r>   13.2796    0.0000 </r>
       <r>   13.6597    0.0000 </r>
       <r>   13.9004    0.0000 </r>
       <r>   14.1512    0.0000 </r>
       <r>   14.7575    0.0000 </r>
       <r>   14.9920    0.0000 </r>
       <r>   15.4338    0.0000 </r>
       <r>   16.3276    0.0000 </r>
      </set>
      <set comment="kpoint 20">
       <r>  -12.1962    1.0000 </r>
       <r>  -12.0224    1.0000 </r>
       <r>   -8.3628    1.0000 </r>
       <r>   -8.3086    1.0000 </r>
       <r>   -5.9749    1.0000 </r>
       <r>   -5.9670    1.0000 </r>
       <r>   -5.1459    1.0000 </r>
       <r>   -4.9643    1.0000 </r>
       <r>   -3.8284    1.0000 </r>
       <r>   -3.2340    1.0000 </r>
       <r>   -1.9818    1.0000 </r>
       <r>   -1.8271    1.0000 </r>
       <r>   -0.9801    1.0000 </r>
       <r>   -0.9207    1.0000 </r>
       <r>   -0.6712    1.0000 </r>
       <r>   -0.6281    1.0000 </r>
       <r>    0.1278    1.0000 </r>
       <r>    0.2283    1.0000 </r>
       <r>    0.7585    1.0000 </r>
       <r>    0.7744    1.0000 </r>
       <r>    0.9259    1.0000 </r>
       <r>    1.2490    1.0000 </r>
       <r>    6.4407    0.0000 </r>
       <r>    6.5542    0.0000 </r>
       <r>    6.6199    0.0000 </r>
       <r>    7.1353    0.0000 </r>
       <r>    7.2055    0.0000 </r>
       <r>    7.6924    0.0000 </r>
       <r>    8.5022    0.0000 </r>
       <r>    8.5665    0.0000 </r>
       <r>    9.4654    0.0000 </r>
       <r>    9.6385    0.0000 </r>
       <r>    9.8443    0.0000 </r>
       <r>   10.1411    0.0000 </r>
       <r>   10.8584    0.0000 </r>
       <r>   11.2329    0.0000 </r>
       <r>   11.8692    0.0000 </r>
       <r>   11.9442    0.0000 </r>
       <r>   12.2561    0.0000 </r>
       <r>   13.1467    0.0000 </r>
       <r>   13.4375    0.0000 </r>
       <r>   13.6231    0.0000 </r>
       <r>   13.8386    0.0000 </r>
       <r>   13.9472    0.0000 </r>
       <r>   15.0998    0.0000 </r>
       <r>   15.1172    0.0000 </r>
       <r>   15.6672    0.0000 </r>
       <r>   15.9693    0.0000 </r>
      </set>
      <set comment="kpoint 21">
       <r>  -12.5389    1.0000 </r>
[...]
       <r>   -2.3154    1.0000 </r>
       <r>   -2.1468    1.0000 </r>
       <r>   -1.9829    1.0000 </r>
       <r>   -1.4908    1.0000 </r>
       <r>   -0.7378    1.0000 </r>
       <r>   -0.2018    1.0000 </r>
       <r>    0.1659    1.0000 </r>
       <r>    0.3853    1.0000 </r>
       <r>    0.5131    1.0000 </r>
       <r>    1.5889    1.0000 </r>
       <r>    1.6161    1.0000 </r>
       <r>    1.8715    0.6454 </r>
       <r>    5.5118    0.0000 </r>
       <r>    6.1465    0.0000 </r>
       <r>    6.6671    0.0000 </r>
       <r>    7.2175    0.0000 </r>
       <r>    7.7814    0.0000 </r>
       <r>    8.2246    0.0000 </r>
       <r>    8.9910    0.0000 </r>
       <r>    9.1503    0.0000 </r>
       <r>    9.7197    0.0000 </r>
       <r>    9.9553    0.0000 </r>
       <r>   10.5862    0.0000 </r>
       <r>   11.0302    0.0000 </r>
       <r>   11.2054    0.0000 </r>
       <r>   11.4771    0.0000 </r>
       <r>   11.5659    0.0000 </r>
       <r>   11.9489    0.0000 </r>
       <r>   12.8364    0.0000 </r>
       <r>   13.1435    0.0000 </r>
       <r>   13.3668    0.0000 </r>
       <r>   13.7473    0.0000 </r>
       <r>   13.8713    0.0000 </r>
       <r>   14.1544    0.0000 </r>
       <r>   14.4756    0.0000 </r>
       <r>   14.9656    0.0000 </r>
       <r>   15.0927    0.0000 </r>
       <r>   15.3931    0.0000 </r>
      </set>
      <set comment="kpoint 175">
       <r>  -12.0208    1.0000 </r>
       <r>  -11.8817    1.0000 </r>
       <r>   -8.5470    1.0000 </r>
       <r>   -8.4347    1.0000 </r>
       <r>   -5.9265    1.0000 </r>
       <r>   -5.8203    1.0000 </r>
       <r>   -4.8918    1.0000 </r>
       <r>   -4.5682    1.0000 </r>
       <r>   -4.4135    1.0000 </r>
       <r>   -3.9753    1.0000 </r>
       <r>   -2.1990    1.0000 </r>
       <r>   -2.1374    1.0000 </r>
       <r>   -2.0577    1.0000 </r>
       <r>   -1.7733    1.0000 </r>
       <r>   -0.2195    1.0000 </r>
       <r>   -0.0059    1.0000 </r>
       <r>    0.3882    1.0000 </r>
       <r>    0.4762    1.0000 </r>
       <r>    0.5481    1.0000 </r>
       <r>    0.8744    1.0000 </r>
       <r>    1.6302    1.0000 </r>
       <r>    1.7298    1.0000 </r>
       <r>    5.8588    0.0000 </r>
       <r>    6.0444    0.0000 </r>
       <r>    6.8693    0.0000 </r>
       <r>    7.4062    0.0000 </r>
       <r>    7.4732    0.0000 </r>
       <r>    7.5760    0.0000 </r>
       <r>    9.3957    0.0000 </r>
       <r>    9.5797    0.0000 </r>
       <r>    9.7884    0.0000 </r>
       <r>    9.9660    0.0000 </r>
       <r>   10.4629    0.0000 </r>
       <r>   10.8127    0.0000 </r>
       <r>   11.2346    0.0000 </r>
       <r>   11.5078    0.0000 </r>
       <r>   11.5182    0.0000 </r>
       <r>   11.6114    0.0000 </r>
       <r>   13.0808    0.0000 </r>
       <r>   13.1869    0.0000 </r>
       <r>   13.7198    0.0000 </r>
       <r>   14.0528    0.0000 </r>
       <r>   14.1871    0.0000 </r>
       <r>   14.2896    0.0000 </r>
       <r>   14.5919    0.0000 </r>
       <r>   14.7357    0.0000 </r>
       <r>   14.8841    0.0000 </r>
       <r>   15.0456    0.0000 </r>
      </set>
     </set>
    </set>
   </array>
  </eigenvalues>
  <separator name="orbital magnetization" >
   <v name="MAGDIPOLOUT">      0.00000000      0.00000000      0.00000000</v>
  </separator>
  <dos>
   <i name="efermi">      1.88472837 </i>
   <total>
    <array>
     <dimension dim="1">gridpoints</dimension>
     <dimension dim="2">spin</dimension>
     <field>energy</field>
     <field>total</field>
     <field>integrated</field>
     <set>
      <set comment="spin 1">
       <r>   -14.1869     0.0000     0.0000 </r>
       <r>   -14.0797     0.0000     0.0000 </r>
       <r>   -13.9725     0.0000     0.0000 </r>
       <r>   -13.8652     0.0000     0.0000 </r>
       <r>   -13.7580     0.0000     0.0000 </r>
       <r>   -13.6508     0.0000     0.0000 </r>
       <r>   -13.5436     0.0000     0.0000 </r>
       <r>   -13.4364     0.0000     0.0000 </r>
       <r>   -13.3292     0.0000     0.0000 </r>
       <r>   -13.2220     0.0000     0.0000 </r>
       <r>   -13.1148     0.0000     0.0000 </r>
       <r>   -13.0076     0.0000     0.0000 </r>
       <r>   -12.9004     0.0000     0.0000 </r>
       <r>   -12.7932     0.0038     0.0004 </r>
       <r>   -12.6859     0.5085     0.0549 </r>
       <r>   -12.5787     2.3903     0.3112 </r>
       <r>   -12.4715     3.5638     0.6933 </r>
       <r>   -12.3643     4.3711     1.1619 </r>
       <r>   -12.2571     3.5388     1.5413 </r>
       <r>   -12.1499     2.7349     1.8345 </r>
       <r>   -12.0427     2.7509     2.1294 </r>
       <r>   -11.9355     2.5047     2.3979 </r>
       <r>   -11.8283     2.7710     2.6950 </r>
       <r>   -11.7211     3.4266     3.0624 </r>
       <r>   -11.6139     3.5352     3.4414 </r>
       <r>   -11.5066     3.1148     3.7753 </r>
       <r>   -11.3994     1.6676     3.9541 </r>
       <r>   -11.2922     0.4211     3.9992 </r>
       <r>   -11.1850     0.0072     4.0000 </r>
       <r>   -11.0778     0.0000     4.0000 </r>
       <r>   -10.9706     0.0000     4.0000 </r>
       <r>   -10.8634     0.0000     4.0000 </r>
       <r>   -10.7562     0.0000     4.0000 </r>
       <r>   -10.6490     0.0000     4.0000 </r>
       <r>   -10.5418     0.0000     4.0000 </r>
       <r>   -10.4346     0.0000     4.0000 </r>
       <r>   -10.3273     0.0000     4.0000 </r>
       <r>   -10.2201     0.0000     4.0000 </r>
       <r>   -10.1129     0.0000     4.0000 </r>
       <r>   -10.0057     0.0000     4.0000 </r>
       <r>    -9.8985     0.0000     4.0000 </r>
       <r>    -9.7913     0.0000     4.0000 </r>
       <r>    -9.6841     0.0000     4.0000 </r>
       <r>    -9.5769     0.0000     4.0000 </r>
       <r>    -9.4697     0.0000     4.0000 </r>
       <r>    -9.3625     0.0000     4.0000 </r>
       <r>    -9.2553     0.0000     4.0000 </r>
       <r>    -9.1480     0.0000     4.0000 </r>
       <r>    -9.0408     0.0000     4.0000 </r>
       <r>    -8.9336     0.0006     4.0001 </r>
       <r>    -8.8264     0.2759     4.0296 </r>
       <r>    -8.7192     2.0900     4.2537 </r>
       <r>    -8.6120     5.3309     4.8252 </r>
       <r>    -8.5048     6.9881     5.5744 </r>
       <r>    -8.3976     6.2970     6.2495 </r>
       <r>    -8.2904     5.3250     6.8204 </r>
       <r>    -8.1832     4.8354     7.3388 </r>
       <r>    -8.0760     3.8727     7.7540 </r>
       <r>    -7.9687     1.6657     7.9326 </r>
       <r>    -7.8615     0.5770     7.9944 </r>
       <r>    -7.7543     0.0518     8.0000 </r>
       <r>    -7.6471     0.0000     8.0000 </r>
       <r>    -7.5399     0.0000     8.0000 </r>
       <r>    -7.4327     0.0000     8.0000 </r>
       <r>    -7.3255     0.0000     8.0000 </r>
       <r>    -7.2183     0.0000     8.0000 </r>
       <r>    -7.1111     0.0000     8.0000 </r>
       <r>    -7.0039     0.0004     8.0000 </r>
       <r>    -6.8967     0.1129     8.0121 </r>
       <r>    -6.7894     0.2577     8.0398 </r>
       <r>    -6.6822     0.4261     8.0854 </r>
       <r>    -6.5750     0.7660     8.1676 </r>
       <r>    -6.4678     0.8509     8.2588 </r>
       <r>    -6.3606     1.4447     8.4137 </r>
       <r>    -6.2534     1.9630     8.6241 </r>
       <r>    -6.1462     3.0561     8.9518 </r>
       <r>    -6.0390     3.7835     9.3574 </r>
       <r>    -5.9318     4.1139     9.7985 </r>
       <r>    -5.8246     4.0456    10.2322 </r>
       <r>    -5.7174     3.8617    10.6462 </r>
       <r>    -5.6101     4.0726    11.0828 </r>
       <r>    -5.5029     4.2203    11.5353 </r>
       <r>    -5.3957     4.5447    12.0225 </r>
       <r>    -5.2885     4.5985    12.5155 </r>
       <r>    -5.1813     4.4908    12.9969 </r>
       <r>    -5.0741     3.8690    13.4117 </r>
       <r>    -4.9669     3.2273    13.7577 </r>
       <r>    -4.8597     2.9531    14.0743 </r>
       <r>    -4.7525     2.3361    14.3248 </r>
       <r>    -4.6453     2.8961    14.6353 </r>
       <r>    -4.5381     3.3688    14.9964 </r>
       <r>    -4.4308     3.4705    15.3685 </r>
       <r>    -4.3236     3.3325    15.7258 </r>
       <r>    -4.2164     2.9540    16.0425 </r>
       <r>    -4.1092     2.9072    16.3542 </r>
       <r>    -4.0020     2.9448    16.6699 </r>
       <r>    -3.8948     2.8602    16.9765 </r>
       <r>    -3.7876     3.1190    17.3109 </r>
       <r>    -3.6804     2.8755    17.6192 </r>
       <r>    -3.5732     2.7047    17.9091 </r>
       <r>    -3.4660     3.0649    18.2377 </r>
       <r>    -3.3588     2.6381    18.5205 </r>
       <r>    -3.2516     2.8606    18.8272 </r>
       <r>    -3.1443     2.7454    19.1216 </r>
       <r>    -3.0371     2.7386    19.4152 </r>
       <r>    -2.9299     3.0458    19.7417 </r>
       <r>    -2.8227     2.9744    20.0606 </r>
       <r>    -2.7155     2.4306    20.3212 </r>
       <r>    -2.6083     2.6564    20.6059 </r>
       <r>    -2.5011     3.0202    20.9297 </r>
       <r>    -2.3939     2.9857    21.2498 </r>
       <r>    -2.2867     3.1930    21.5921 </r>
       <r>    -2.1795     4.0091    22.0220 </r>
       <r>    -2.0723     3.6560    22.4139 </r>
       <r>    -1.9650     3.2727    22.7648 </r>
       <r>    -1.8578     5.1241    23.3141 </r>
       <r>    -1.7506     5.5774    23.9121 </r>
       <r>    -1.6434     5.6045    24.5129 </r>
       <r>    -1.5362     6.1819    25.1757 </r>
       <r>    -1.4290     6.1100    25.8307 </r>
       <r>    -1.3218     5.5694    26.4278 </r>
       <r>    -1.2146     4.6826    26.9298 </r>
       <r>    -1.1074     6.4965    27.6263 </r>
       <r>    -1.0002     3.9812    28.0531 </r>
       <r>    -0.8930     2.2702    28.2965 </r>
       <r>    -0.7857     2.6988    28.5859 </r>
       <r>    -0.6785     2.8796    28.8946 </r>
       <r>    -0.5713     4.5198    29.3791 </r>
       <r>    -0.4641     6.8620    30.1148 </r>
       <r>    -0.3569     5.6579    30.7214 </r>
       <r>    -0.2497     6.7042    31.4401 </r>
       <r>    -0.1425     6.3588    32.1219 </r>
       <r>    -0.0353     6.7453    32.8450 </r>
       <r>     0.0719     6.7577    33.5695 </r>
       <r>     0.1791     6.2963    34.2445 </r>
       <r>     0.2863     8.8027    35.1883 </r>
       <r>     0.3936     7.9845    36.0443 </r>
       <r>     0.5008     8.6961    36.9766 </r>
       <r>     0.6080     5.2480    37.5392 </r>
       <r>     0.7152     2.9366    37.8540 </r>
       <r>     0.8224     3.2911    38.2069 </r>
       <r>     0.9296     3.5877    38.5915 </r>
       <r>     1.0368     3.5609    38.9733 </r>
       <r>     1.1440     2.7905    39.2724 </r>
       <r>     1.2512     3.3901    39.6359 </r>
       <r>     1.3584     4.4968    40.1180 </r>
       <r>     1.4656     3.7795    40.5232 </r>
       <r>     1.5729     3.7213    40.9221 </r>
       <r>     1.6801     4.5763    41.4128 </r>
       <r>     1.7873     3.2332    41.7594 </r>
       <r>     1.8945     2.4792    42.0252 </r>
       <r>     2.0017     2.6598    42.3103 </r>
       <r>     2.1089     2.0921    42.5346 </r>
       <r>     2.2161     2.6514    42.8189 </r>
       <r>     2.3233     2.5711    43.0945 </r>
       <r>     2.4305     1.9372    43.3022 </r>
       <r>     2.5377     0.8523    43.3936 </r>
       <r>     2.6449     0.3779    43.4341 </r>
       <r>     2.7522     0.5726    43.4955 </r>
       <r>     2.8594     0.4195    43.5405 </r>
       <r>     2.9666     0.3056    43.5732 </r>
       <r>     3.0738     0.7576    43.6544 </r>
       <r>     3.1810     1.0140    43.7632 </r>
       <r>     3.2882     0.5384    43.8209 </r>
       <r>     3.3954     0.0131    43.8223 </r>
       <r>     3.5026     0.1309    43.8363 </r>
       <r>     3.6098     0.3954    43.8787 </r>
       <r>     3.7170     0.3304    43.9141 </r>
       <r>     3.8242     0.3719    43.9540 </r>
       <r>     3.9315     0.4023    43.9971 </r>
       <r>     4.0387     0.0267    44.0000 </r>
       <r>     4.1459     0.0000    44.0000 </r>
       <r>     4.2531     0.0313    44.0034 </r>
       <r>     4.3603     0.1762    44.0222 </r>
       <r>     4.4675     0.4024    44.0654 </r>
       <r>     4.5747     0.4708    44.1159 </r>
       <r>     4.6819     0.6337    44.1838 </r>
       <r>     4.7891     0.8888    44.2791 </r>
       <r>     4.8963     0.8412    44.3693 </r>
       <r>     5.0035     0.8569    44.4611 </r>
       <r>     5.1108     1.2765    44.5980 </r>
       <r>     5.2180     1.1524    44.7215 </r>
       <r>     5.3252     1.6322    44.8965 </r>
       <r>     5.4324     2.1900    45.1313 </r>
       <r>     5.5396     2.4872    45.3980 </r>
       <r>     5.6468     2.7878    45.6968 </r>
       <r>     5.7540     3.3660    46.0577 </r>
       <r>     5.8612     3.2204    46.4029 </r>
       <r>     5.9684     4.3116    46.8652 </r>
       <r>     6.0756     4.7583    47.3753 </r>
       <r>     6.1828     4.0438    47.8089 </r>
       <r>     6.2901     4.6232    48.3045 </r>
       <r>     6.3973     4.1532    48.7498 </r>
       <r>     6.5045     4.0167    49.1804 </r>
       <r>     6.6117     4.4812    49.6608 </r>
       <r>     6.7189     3.2271    50.0068 </r>
       <r>     6.8261     3.9978    50.4354 </r>
       <r>     6.9333     4.6122    50.9299 </r>
       <r>     7.0405     4.5532    51.4180 </r>
       <r>     7.1477     4.3399    51.8833 </r>
       <r>     7.2549     5.5992    52.4836 </r>
       <r>     7.3621     4.9228    53.0113 </r>
       <r>     7.4694     4.4530    53.4887 </r>
       <r>     7.5766     4.1912    53.9381 </r>
       <r>     7.6838     3.5664    54.3204 </r>
       <r>     7.7910     3.1247    54.6554 </r>
       <r>     7.8982     3.0099    54.9781 </r>
       <r>     8.0054     2.9778    55.2974 </r>
       <r>     8.1126     4.1675    55.7442 </r>
       <r>     8.2198     3.8881    56.1610 </r>
       <r>     8.3270     3.6883    56.5564 </r>
       <r>     8.4342     3.9908    56.9843 </r>
       <r>     8.5414     4.2156    57.4362 </r>
       <r>     8.6486     4.4563    57.9140 </r>
       <r>     8.7559     4.2216    58.3666 </r>
       <r>     8.8631     5.2654    58.9311 </r>
       <r>     8.9703     4.9431    59.4610 </r>
       <r>     9.0775     5.2924    60.0284 </r>
       <r>     9.1847     5.2369    60.5899 </r>
       <r>     9.2919     4.9704    61.1227 </r>
       <r>     9.3991     4.6901    61.6256 </r>
       <r>     9.5063     4.3687    62.0939 </r>
       <r>     9.6135     5.1044    62.6412 </r>
       <r>     9.7207     5.0276    63.1802 </r>
       <r>     9.8279     5.2995    63.7483 </r>
       <r>     9.9352     4.4799    64.2286 </r>
       <r>    10.0424     3.6363    64.6184 </r>
       <r>    10.1496     5.1751    65.1733 </r>
       <r>    10.2568     4.7174    65.6790 </r>
       <r>    10.3640     4.1165    66.1203 </r>
       <r>    10.4712     5.4150    66.7009 </r>
       <r>    10.5784     5.8111    67.3239 </r>
       <r>    10.6856     4.0663    67.7598 </r>
       <r>    10.7928     3.8851    68.1763 </r>
       <r>    10.9000     3.2347    68.5231 </r>
       <r>    11.0072     4.6698    69.0238 </r>
       <r>    11.1145     5.4845    69.6118 </r>
       <r>    11.2217     6.1897    70.2754 </r>
       <r>    11.3289     5.9935    70.9179 </r>
       <r>    11.4361     5.2857    71.4846 </r>
       <r>    11.5433     4.3005    71.9456 </r>
       <r>    11.6505     4.4733    72.4252 </r>
       <r>    11.7577     4.9329    72.9541 </r>
       <r>    11.8649     4.8065    73.4694 </r>
       <r>    11.9721     6.0350    74.1164 </r>
       <r>    12.0793     5.9595    74.7553 </r>
       <r>    12.1865     5.9893    75.3974 </r>
       <r>    12.2938     5.6161    75.9995 </r>
       <r>    12.4010     5.0068    76.5362 </r>
       <r>    12.5082     5.6866    77.1459 </r>
       <r>    12.6154     5.9891    77.7880 </r>
       <r>    12.7226     6.0223    78.4336 </r>
       <r>    12.8298     5.8868    79.0647 </r>
       <r>    12.9370     5.8627    79.6933 </r>
       <r>    13.0442     5.5964    80.2933 </r>
       <r>    13.1514     6.3485    80.9739 </r>
       <r>    13.2586     6.2622    81.6452 </r>
       <r>    13.3658     5.3889    82.2230 </r>
       <r>    13.4731     6.1331    82.8805 </r>
       <r>    13.5803     5.3416    83.4532 </r>
       <r>    13.6875     4.8103    83.9689 </r>
       <r>    13.7947     6.1322    84.6263 </r>
       <r>    13.9019     5.5229    85.2184 </r>
       <r>    14.0091     5.3442    85.7913 </r>
       <r>    14.1163     5.4753    86.3784 </r>
       <r>    14.2235     4.6839    86.8805 </r>
       <r>    14.3307     4.9070    87.4066 </r>
       <r>    14.4379     5.0192    87.9447 </r>
       <r>    14.5451     4.9617    88.4766 </r>
       <r>    14.6524     5.2725    89.0419 </r>
       <r>    14.7596     5.1659    89.5957 </r>
       <r>    14.8668     4.0916    90.0344 </r>
       <r>    14.9740     5.0822    90.5792 </r>
       <r>    15.0812     6.1883    91.2427 </r>
       <r>    15.1884     5.6380    91.8471 </r>
       <r>    15.2956     5.6765    92.4557 </r>
       <r>    15.4028     6.0277    93.1019 </r>
       <r>    15.5100     5.7328    93.7165 </r>
       <r>    15.6172     5.9511    94.3545 </r>
       <r>    15.7244     4.5911    94.8467 </r>
       <r>    15.8317     2.4686    95.1114 </r>
       <r>    15.9389     2.7056    95.4015 </r>
       <r>    16.0461     1.8591    95.6008 </r>
       <r>    16.1533     1.1444    95.7235 </r>
       <r>    16.2605     0.8916    95.8190 </r>
       <r>    16.3677     0.6966    95.8937 </r>
       <r>    16.4749     0.8143    95.9810 </r>
       <r>    16.5821     0.1752    95.9998 </r>
       <r>    16.6893     0.0017    96.0000 </r>
       <r>    16.7965     0.0000    96.0000 </r>
       <r>    16.9037     0.0000    96.0000 </r>
       <r>    17.0110     0.0000    96.0000 </r>
       <r>    17.1182     0.0000    96.0000 </r>
       <r>    17.2254     0.0000    96.0000 </r>
       <r>    17.3326     0.0000    96.0000 </r>
       <r>    17.4398     0.0000    96.0000 </r>
       <r>    17.5470     0.0000    96.0000 </r>
       <r>    17.6542     0.0000    96.0000 </r>
       <r>    17.7614     0.0000    96.0000 </r>
       <r>    17.8686     0.0000    96.0000 </r>
       <r>    17.9758     0.0000    96.0000 </r>
      </set>
     </set>
    </array>
   </total>
  </dos>
 </calculation>
 <structure name="finalpos" >
  <crystal>
   <varray name="basis" >
    <v>       5.69700000       0.00000000       0.00000000 </v>
    <v>       0.00000000       4.04790000       0.00000000 </v>
    <v>       0.00000000       0.00000000       6.20420000 </v>
   </varray>
   <i name="volume">    143.07435078 </i>
   <varray name="rec_basis" >
    <v>       0.17553098       0.00000000       0.00000000 </v>
    <v>       0.00000000       0.24704168       0.00000000 </v>
    <v>       0.00000000       0.00000000       0.16118114 </v>
   </varray>
  </crystal>
  <varray name="positions" >
   <v>       0.52123000       0.50000000       0.63796000 </v>
   <v>       0.47877000       0.50000000       0.36204000 </v>
   <v>       0.97877000       0.50000000       0.63796000 </v>
   <v>       0.02123000       0.50000000       0.36204000 </v>
   <v>       0.60090000       0.50000000       0.89991000 </v>
   <v>       0.39910000       0.50000000       0.10009000 </v>
   <v>       0.89910000       0.50000000       0.89991000 </v>
   <v>       0.10090000       0.50000000       0.10009000 </v>
   <v>       0.75000000       0.79171000       0.72973000 </v>
   <v>       0.25000000       0.20829000       0.27027000 </v>
   <v>       0.75000000       0.20829000       0.72973000 </v>
   <v>       0.25000000       0.79171000       0.27027000 </v>
   <v>       0.25000000       0.50000000       0.52367000 </v>
   <v>       0.75000000       0.50000000       0.47633000 </v>
  </varray>
 </structure>
</modeling>
