   1   1   0   0
  0.3364885E+04  0.1498500E-08  0.1248750E-08  0.1798200E-08  0.5000000E-15
  1.000000000000000E-004
  CAR 
 Convergence                             
      2.49790474     -9.97684895  301     -3.60710741      1.00000000
     -9.977  0.0000E+00  0.0000E+00
     -9.935  0.0000E+00  0.0000E+00
     -9.894  0.0000E+00  0.0000E+00
     -9.852  0.0000E+00  0.0000E+00
     -9.811  0.0000E+00  0.0000E+00
     -9.769  0.0000E+00  0.0000E+00
     -9.727  0.0000E+00  0.0000E+00
     -9.686  0.1415E-12  0.5884E-14
     -9.644  0.8120E-09  0.3377E-10
     -9.603  0.1190E-05  0.4953E-07
     -9.561  0.4547E-03  0.1896E-04
     -9.519  0.4597E-01  0.1930E-02
     -9.478  0.1259E+01  0.5428E-01
     -9.436  0.9617E+01  0.4542E+00
     -9.395  0.2109E+02  0.1331E+01
     -9.353  0.1347E+02  0.1891E+01
     -9.312  0.2485E+01  0.1995E+01
     -9.270  0.1289E+00  0.2000E+01
     -9.228  0.1825E-02  0.2000E+01
     -9.187  0.6880E-05  0.2000E+01
     -9.145  0.6782E-08  0.2000E+01
     -9.104  0.1730E-11  0.2000E+01
     -9.062  0.0000E+00  0.2000E+01
     -9.020  0.0000E+00  0.2000E+01
     -8.979  0.0000E+00  0.2000E+01
     -8.937  0.0000E+00  0.2000E+01
     -8.896  0.0000E+00  0.2000E+01
     -8.854  0.0000E+00  0.2000E+01
     -8.813  0.0000E+00  0.2000E+01
     -8.771  0.0000E+00  0.2000E+01
     -8.729  0.0000E+00  0.2000E+01
     -8.688  0.0000E+00  0.2000E+01
     -8.646  0.0000E+00  0.2000E+01
     -8.605  0.0000E+00  0.2000E+01
     -8.563  0.0000E+00  0.2000E+01
     -8.521  0.0000E+00  0.2000E+01
     -8.480  0.0000E+00  0.2000E+01
     -8.438  0.0000E+00  0.2000E+01
     -8.397  0.0000E+00  0.2000E+01
     -8.355  0.0000E+00  0.2000E+01
     -8.314  0.0000E+00  0.2000E+01
     -8.272  0.0000E+00  0.2000E+01
     -8.230  0.0000E+00  0.2000E+01
     -8.189  0.0000E+00  0.2000E+01
     -8.147  0.0000E+00  0.2000E+01
     -8.106  0.0000E+00  0.2000E+01
     -8.064  0.0000E+00  0.2000E+01
     -8.022  0.0000E+00  0.2000E+01
     -7.981  0.0000E+00  0.2000E+01
     -7.939  0.0000E+00  0.2000E+01
     -7.898  0.0000E+00  0.2000E+01
     -7.856  0.0000E+00  0.2000E+01
     -7.815  0.0000E+00  0.2000E+01
     -7.773  0.0000E+00  0.2000E+01
     -7.731  0.0000E+00  0.2000E+01
     -7.690  0.0000E+00  0.2000E+01
     -7.648  0.0000E+00  0.2000E+01
     -7.607  0.0000E+00  0.2000E+01
     -7.565  0.0000E+00  0.2000E+01
     -7.523  0.0000E+00  0.2000E+01
     -7.482  0.0000E+00  0.2000E+01
     -7.440  0.0000E+00  0.2000E+01
     -7.399  0.0000E+00  0.2000E+01
     -7.357  0.0000E+00  0.2000E+01
     -7.316  0.0000E+00  0.2000E+01
     -7.274  0.0000E+00  0.2000E+01
     -7.232  0.0000E+00  0.2000E+01
     -7.191  0.0000E+00  0.2000E+01
     -7.149  0.0000E+00  0.2000E+01
     -7.108  0.0000E+00  0.2000E+01
     -7.066  0.0000E+00  0.2000E+01
     -7.024  0.0000E+00  0.2000E+01
     -6.983  0.0000E+00  0.2000E+01
     -6.941  0.0000E+00  0.2000E+01
     -6.900  0.0000E+00  0.2000E+01
     -6.858  0.0000E+00  0.2000E+01
     -6.817  0.0000E+00  0.2000E+01
     -6.775  0.0000E+00  0.2000E+01
     -6.733  0.0000E+00  0.2000E+01
     -6.692  0.0000E+00  0.2000E+01
     -6.650  0.0000E+00  0.2000E+01
     -6.609  0.0000E+00  0.2000E+01
     -6.567  0.0000E+00  0.2000E+01
     -6.526  0.0000E+00  0.2000E+01
     -6.484  0.0000E+00  0.2000E+01
     -6.442  0.0000E+00  0.2000E+01
     -6.401  0.0000E+00  0.2000E+01
     -6.359  0.0000E+00  0.2000E+01
     -6.318  0.0000E+00  0.2000E+01
     -6.276  0.0000E+00  0.2000E+01
     -6.234  0.0000E+00  0.2000E+01
     -6.193  0.0000E+00  0.2000E+01
     -6.151  0.0000E+00  0.2000E+01
     -6.110  0.0000E+00  0.2000E+01
     -6.068  0.0000E+00  0.2000E+01
     -6.027  0.0000E+00  0.2000E+01
     -5.985  0.0000E+00  0.2000E+01
     -5.943  0.0000E+00  0.2000E+01
     -5.902  0.0000E+00  0.2000E+01
     -5.860  0.0000E+00  0.2000E+01
     -5.819  0.0000E+00  0.2000E+01
     -5.777  0.0000E+00  0.2000E+01
     -5.735  0.0000E+00  0.2000E+01
     -5.694  0.0000E+00  0.2000E+01
     -5.652  0.0000E+00  0.2000E+01
     -5.611  0.0000E+00  0.2000E+01
     -5.569  0.0000E+00  0.2000E+01
     -5.528  0.0000E+00  0.2000E+01
     -5.486  0.0000E+00  0.2000E+01
     -5.444  0.0000E+00  0.2000E+01
     -5.403  0.0000E+00  0.2000E+01
     -5.361  0.0000E+00  0.2000E+01
     -5.320  0.0000E+00  0.2000E+01
     -5.278  0.0000E+00  0.2000E+01
     -5.236  0.0000E+00  0.2000E+01
     -5.195  0.0000E+00  0.2000E+01
     -5.153  0.0000E+00  0.2000E+01
     -5.112  0.0000E+00  0.2000E+01
     -5.070  0.0000E+00  0.2000E+01
     -5.029  0.0000E+00  0.2000E+01
     -4.987  0.0000E+00  0.2000E+01
     -4.945  0.0000E+00  0.2000E+01
     -4.904  0.0000E+00  0.2000E+01
     -4.862  0.0000E+00  0.2000E+01
     -4.821  0.0000E+00  0.2000E+01
     -4.779  0.0000E+00  0.2000E+01
     -4.737  0.0000E+00  0.2000E+01
     -4.696  0.0000E+00  0.2000E+01
     -4.654  0.0000E+00  0.2000E+01
     -4.613  0.0000E+00  0.2000E+01
     -4.571  0.0000E+00  0.2000E+01
     -4.530  0.0000E+00  0.2000E+01
     -4.488  0.0000E+00  0.2000E+01
     -4.446  0.0000E+00  0.2000E+01
     -4.405  0.0000E+00  0.2000E+01
     -4.363  0.0000E+00  0.2000E+01
     -4.322  0.0000E+00  0.2000E+01
     -4.280  0.0000E+00  0.2000E+01
     -4.238  0.0000E+00  0.2000E+01
     -4.197  0.0000E+00  0.2000E+01
     -4.155  0.0000E+00  0.2000E+01
     -4.114  0.0000E+00  0.2000E+01
     -4.072  0.0000E+00  0.2000E+01
     -4.031  0.0000E+00  0.2000E+01
     -3.989  0.0000E+00  0.2000E+01
     -3.947  0.0000E+00  0.2000E+01
     -3.906  0.0000E+00  0.2000E+01
     -3.864  0.1602E-13  0.2000E+01
     -3.823  0.1171E-09  0.2000E+01
     -3.781  0.2829E-06  0.2000E+01
     -3.739  0.1773E-03  0.2000E+01
     -3.698  0.2923E-01  0.2001E+01
     -3.656  0.1293E+01  0.2055E+01
     -3.615  0.1577E+02  0.2711E+01
     -3.573  0.5467E+02  0.4984E+01
     -3.532  0.5506E+02  0.7273E+01
     -3.490  0.1611E+02  0.7943E+01
     -3.448  0.1340E+01  0.7999E+01
     -3.407  0.3075E-01  0.8000E+01
     -3.365  0.1894E-03  0.8000E+01
     -3.324  0.3069E-06  0.8000E+01
     -3.282  0.1290E-09  0.8000E+01
     -3.240  0.1602E-13  0.8000E+01
     -3.199  0.0000E+00  0.8000E+01
     -3.157  0.0000E+00  0.8000E+01
     -3.116  0.0000E+00  0.8000E+01
     -3.074  0.0000E+00  0.8000E+01
     -3.033  0.0000E+00  0.8000E+01
     -2.991  0.0000E+00  0.8000E+01
     -2.949  0.0000E+00  0.8000E+01
     -2.908  0.0000E+00  0.8000E+01
     -2.866  0.0000E+00  0.8000E+01
     -2.825  0.0000E+00  0.8000E+01
     -2.783  0.0000E+00  0.8000E+01
     -2.741  0.0000E+00  0.8000E+01
     -2.700  0.0000E+00  0.8000E+01
     -2.658  0.0000E+00  0.8000E+01
     -2.617  0.0000E+00  0.8000E+01
     -2.575  0.0000E+00  0.8000E+01
     -2.534  0.0000E+00  0.8000E+01
     -2.492  0.0000E+00  0.8000E+01
     -2.450  0.0000E+00  0.8000E+01
     -2.409  0.0000E+00  0.8000E+01
     -2.367  0.0000E+00  0.8000E+01
     -2.326  0.0000E+00  0.8000E+01
     -2.284  0.0000E+00  0.8000E+01
     -2.243  0.0000E+00  0.8000E+01
     -2.201  0.0000E+00  0.8000E+01
     -2.159  0.0000E+00  0.8000E+01
     -2.118  0.0000E+00  0.8000E+01
     -2.076  0.0000E+00  0.8000E+01
     -2.035  0.0000E+00  0.8000E+01
     -1.993  0.0000E+00  0.8000E+01
     -1.951  0.0000E+00  0.8000E+01
     -1.910  0.0000E+00  0.8000E+01
     -1.868  0.0000E+00  0.8000E+01
     -1.827  0.0000E+00  0.8000E+01
     -1.785  0.0000E+00  0.8000E+01
     -1.744  0.0000E+00  0.8000E+01
     -1.702  0.0000E+00  0.8000E+01
     -1.660  0.0000E+00  0.8000E+01
     -1.619  0.0000E+00  0.8000E+01
     -1.577  0.0000E+00  0.8000E+01
     -1.536  0.0000E+00  0.8000E+01
     -1.494  0.0000E+00  0.8000E+01
     -1.452  0.0000E+00  0.8000E+01
     -1.411  0.0000E+00  0.8000E+01
     -1.369  0.0000E+00  0.8000E+01
     -1.328  0.0000E+00  0.8000E+01
     -1.286  0.0000E+00  0.8000E+01
     -1.245  0.0000E+00  0.8000E+01
     -1.203  0.0000E+00  0.8000E+01
     -1.161  0.0000E+00  0.8000E+01
     -1.120  0.0000E+00  0.8000E+01
     -1.078  0.0000E+00  0.8000E+01
     -1.037  0.0000E+00  0.8000E+01
     -0.995  0.0000E+00  0.8000E+01
     -0.953  0.0000E+00  0.8000E+01
     -0.912  0.0000E+00  0.8000E+01
     -0.870  0.0000E+00  0.8000E+01
     -0.829  0.0000E+00  0.8000E+01
     -0.787  0.0000E+00  0.8000E+01
     -0.746  0.0000E+00  0.8000E+01
     -0.704  0.0000E+00  0.8000E+01
     -0.662  0.0000E+00  0.8000E+01
     -0.621  0.0000E+00  0.8000E+01
     -0.579  0.0000E+00  0.8000E+01
     -0.538  0.1339E-14  0.8000E+01
     -0.496  0.8965E-11  0.8000E+01
     -0.454  0.1578E-07  0.8000E+01
     -0.413  0.7664E-05  0.8000E+01
     -0.371  0.1067E-02  0.8000E+01
     -0.330  0.4520E-01  0.8002E+01
     -0.288  0.6353E+00  0.8028E+01
     -0.247  0.3364E+01  0.8168E+01
     -0.205  0.8034E+01  0.8502E+01
     -0.163  0.1076E+02  0.8950E+01
     -0.122  0.1028E+02  0.9377E+01
     -0.080  0.8286E+01  0.9722E+01
     -0.039  0.4874E+01  0.9925E+01
      0.003  0.1621E+01  0.9992E+01
      0.045  0.6872E+00  0.1002E+02
      0.086  0.2291E+01  0.1012E+02
      0.128  0.6061E+01  0.1037E+02
      0.169  0.1066E+02  0.1081E+02
      0.211  0.1414E+02  0.1140E+02
      0.252  0.1563E+02  0.1205E+02
      0.294  0.1576E+02  0.1270E+02
      0.336  0.1591E+02  0.1337E+02
      0.377  0.1619E+02  0.1404E+02
      0.419  0.1652E+02  0.1473E+02
      0.460  0.1762E+02  0.1546E+02
      0.502  0.1847E+02  0.1623E+02
      0.544  0.1845E+02  0.1699E+02
      0.585  0.1900E+02  0.1778E+02
      0.627  0.1990E+02  0.1861E+02
      0.668  0.2035E+02  0.1946E+02
      0.710  0.2103E+02  0.2033E+02
      0.751  0.2243E+02  0.2126E+02
      0.793  0.2233E+02  0.2219E+02
      0.835  0.2186E+02  0.2310E+02
      0.876  0.2338E+02  0.2407E+02
      0.918  0.2450E+02  0.2509E+02
      0.959  0.2417E+02  0.2610E+02
      1.001  0.2487E+02  0.2713E+02
      1.043  0.2588E+02  0.2821E+02
      1.084  0.2596E+02  0.2929E+02
      1.126  0.2604E+02  0.3037E+02
      1.167  0.2682E+02  0.3148E+02
      1.209  0.2768E+02  0.3264E+02
      1.250  0.2725E+02  0.3377E+02
      1.292  0.2746E+02  0.3491E+02
      1.334  0.2852E+02  0.3610E+02
      1.375  0.2854E+02  0.3728E+02
      1.417  0.2827E+02  0.3846E+02
      1.458  0.2932E+02  0.3968E+02
      1.500  0.3085E+02  0.4096E+02
      1.542  0.2995E+02  0.4221E+02
      1.583  0.2953E+02  0.4343E+02
      1.625  0.3003E+02  0.4468E+02
      1.666  0.2760E+02  0.4583E+02
      1.708  0.2110E+02  0.4671E+02
      1.749  0.1397E+02  0.4729E+02
      1.791  0.8269E+01  0.4763E+02
      1.833  0.4769E+01  0.4783E+02
      1.874  0.2557E+01  0.4794E+02
      1.916  0.1083E+01  0.4798E+02
      1.957  0.3438E+00  0.4800E+02
      1.999  0.7260E-01  0.4800E+02
      2.040  0.7014E-02  0.4800E+02
      2.082  0.2235E-03  0.4800E+02
      2.124  0.2033E-05  0.4800E+02
      2.165  0.4997E-08  0.4800E+02
      2.207  0.3237E-11  0.4800E+02
      2.248  0.5425E-15  0.4800E+02
      2.290  0.0000E+00  0.4800E+02
      2.332  0.0000E+00  0.4800E+02
      2.373  0.0000E+00  0.4800E+02
      2.415  0.0000E+00  0.4800E+02
      2.456  0.0000E+00  0.4800E+02
      2.498  0.0000E+00  0.4800E+02
