<?xml version="1.0" encoding="ISO-8859-1"?>
<modeling>
 <generator>
  <i name="program" type="string">vasp </i>
  <i name="version" type="string">6.4.3  </i>
  <i name="subversion" type="string">19Mar24 (build May 31 2024 16:31:43) complex                          parallel </i>
  <i name="platform" type="string">LinuxIFC </i>
  <i name="date" type="string">2024 11 05 </i>
  <i name="time" type="string">22:41:13 </i>
 </generator>
 <incar>
  <i type="string" name="SYSTEM">Convergence</i>
  <i type="int" name="ISTART">     0</i>
  <i type="string" name="PREC">Accurate</i>
  <i type="string" name="ALGO">Normal</i>
  <i type="int" name="ISPIN">     1</i>
  <i type="int" name="ICHARG">     2</i>
  <i type="int" name="NELM">   100</i>
  <i type="int" name="IBRION">    -1</i>
  <i name="EDIFF">      0.00000100</i>
  <i name="EDIFFG">     -0.00100000</i>
  <i type="int" name="NSW">     0</i>
  <i type="int" name="ISIF">     2</i>
  <i name="ENCUT">    600.00000000</i>
  <i name="POTIM">      0.50000000</i>
  <i type="int" name="ISMEAR">     0</i>
  <i name="SIGMA">      0.05000000</i>
  <i type="logical" name="LWAVE"> F  </i>
  <i type="logical" name="LCHARG"> F  </i>
  <i type="string" name="GGA">PE</i>
 </incar>
 <primitive_cell>
  <structure name="primitive_cell" >
   <crystal>
    <varray name="basis" >
     <v>      14.98500000       0.00000000       0.00000000 </v>
     <v>       0.00000000      12.48750000       0.00000000 </v>
     <v>       0.00000000       0.00000000      17.98200000 </v>
    </varray>
    <i name="volume">   3364.88512163 </i>
    <varray name="rec_basis" >
     <v>       0.06673340       0.00000000       0.00000000 </v>
     <v>       0.00000000       0.08008008       0.00000000 </v>
     <v>       0.00000000       0.00000000       0.05561117 </v>
    </varray>
   </crystal>
   <varray name="positions" >
    <v>       0.52123000       0.54500000       0.63796000 </v>
   </varray>
  </structure>
  <varray name="primitive_index" >
   <v type="int" >        1 </v>
  </varray>
 </primitive_cell>
 <kpoints>
  <generation param="Monkhorst-Pack">
   <v type="int" name="divisions">      10       14        9 </v>
   <v name="usershift">      0.00000000       0.00000000       0.00000000 </v>
   <v name="genvec1">      0.10000000       0.00000000       0.00000000 </v>
   <v name="genvec2">      0.00000000       0.07142857       0.00000000 </v>
   <v name="genvec3">      0.00000000       0.00000000       0.11111111 </v>
   <v name="shift">      0.50000000       0.50000000       0.00000000 </v>
  </generation>
  <varray name="kpointlist" >
   <v>       0.05000000       0.03571429       0.00000000 </v>
   <v>       0.15000000       0.03571429       0.00000000 </v>
   <v>       0.25000000       0.03571429       0.00000000 </v>
   <v>       0.35000000       0.03571429       0.00000000 </v>
   <v>       0.45000000       0.03571429       0.00000000 </v>
   <v>       0.05000000       0.10714286       0.00000000 </v>
   <v>       0.15000000       0.10714286       0.00000000 </v>
   <v>       0.25000000       0.10714286       0.00000000 </v>
   <v>       0.35000000       0.10714286       0.00000000 </v>
   <v>       0.45000000       0.10714286       0.00000000 </v>
   <v>       0.05000000       0.17857143       0.00000000 </v>
   <v>       0.15000000       0.17857143       0.00000000 </v>
   <v>       0.25000000       0.17857143       0.00000000 </v>
   <v>       0.35000000       0.17857143       0.00000000 </v>
   <v>       0.45000000       0.17857143       0.00000000 </v>
   <v>       0.05000000       0.25000000       0.00000000 </v>
   <v>       0.15000000       0.25000000       0.00000000 </v>
   <v>       0.25000000       0.25000000       0.00000000 </v>
   <v>       0.35000000       0.25000000       0.00000000 </v>
   <v>       0.45000000       0.25000000       0.00000000 </v>
   <v>       0.05000000       0.32142857       0.00000000 </v>
   <v>       0.15000000       0.32142857       0.00000000 </v>
   <v>       0.25000000       0.32142857       0.00000000 </v>
   <v>       0.35000000       0.32142857       0.00000000 </v>
   <v>       0.45000000       0.32142857       0.00000000 </v>
   <v>       0.05000000       0.39285714       0.00000000 </v>
   <v>       0.15000000       0.39285714       0.00000000 </v>
   <v>       0.25000000       0.39285714       0.00000000 </v>
   <v>       0.35000000       0.39285714       0.00000000 </v>
   <v>       0.45000000       0.39285714       0.00000000 </v>
   <v>       0.05000000       0.46428571       0.00000000 </v>
   <v>       0.15000000       0.46428571       0.00000000 </v>
   <v>       0.25000000       0.46428571       0.00000000 </v>
   <v>       0.35000000       0.46428571       0.00000000 </v>
   <v>       0.45000000       0.46428571       0.00000000 </v>
   <v>       0.05000000       0.03571429       0.11111111 </v>
   <v>       0.15000000       0.03571429       0.11111111 </v>
   <v>       0.25000000       0.03571429       0.11111111 </v>
   <v>       0.35000000       0.03571429       0.11111111 </v>
   <v>       0.45000000       0.03571429       0.11111111 </v>
   <v>       0.05000000       0.10714286       0.11111111 </v>
   <v>       0.15000000       0.10714286       0.11111111 </v>
   <v>       0.25000000       0.10714286       0.11111111 </v>
   <v>       0.35000000       0.10714286       0.11111111 </v>
   <v>       0.45000000       0.10714286       0.11111111 </v>
   <v>       0.05000000       0.17857143       0.11111111 </v>
   <v>       0.15000000       0.17857143       0.11111111 </v>
   <v>       0.25000000       0.17857143       0.11111111 </v>
   <v>       0.35000000       0.17857143       0.11111111 </v>
   <v>       0.45000000       0.17857143       0.11111111 </v>
   <v>       0.05000000       0.25000000       0.11111111 </v>
   <v>       0.15000000       0.25000000       0.11111111 </v>
   <v>       0.25000000       0.25000000       0.11111111 </v>
   <v>       0.35000000       0.25000000       0.11111111 </v>
   <v>       0.45000000       0.25000000       0.11111111 </v>
   <v>       0.05000000       0.32142857       0.11111111 </v>
   <v>       0.15000000       0.32142857       0.11111111 </v>
   <v>       0.25000000       0.32142857       0.11111111 </v>
   <v>       0.35000000       0.32142857       0.11111111 </v>
   <v>       0.45000000       0.32142857       0.11111111 </v>
   <v>       0.05000000       0.39285714       0.11111111 </v>
   <v>       0.15000000       0.39285714       0.11111111 </v>
   <v>       0.25000000       0.39285714       0.11111111 </v>
   <v>       0.35000000       0.39285714       0.11111111 </v>
   <v>       0.45000000       0.39285714       0.11111111 </v>
   <v>       0.05000000       0.46428571       0.11111111 </v>
   <v>       0.15000000       0.46428571       0.11111111 </v>
   <v>       0.25000000       0.46428571       0.11111111 </v>
   <v>       0.35000000       0.46428571       0.11111111 </v>
   <v>       0.45000000       0.46428571       0.11111111 </v>
   <v>       0.05000000       0.03571429       0.22222222 </v>
   <v>       0.15000000       0.03571429       0.22222222 </v>
   <v>       0.25000000       0.03571429       0.22222222 </v>
   <v>       0.35000000       0.03571429       0.22222222 </v>
   <v>       0.45000000       0.03571429       0.22222222 </v>
   <v>       0.05000000       0.10714286       0.22222222 </v>
   <v>       0.15000000       0.10714286       0.22222222 </v>
   <v>       0.25000000       0.10714286       0.22222222 </v>
   <v>       0.35000000       0.10714286       0.22222222 </v>
   <v>       0.45000000       0.10714286       0.22222222 </v>
   <v>       0.05000000       0.17857143       0.22222222 </v>
   <v>       0.15000000       0.17857143       0.22222222 </v>
   <v>       0.25000000       0.17857143       0.22222222 </v>
   <v>       0.35000000       0.17857143       0.22222222 </v>
   <v>       0.45000000       0.17857143       0.22222222 </v>
   <v>       0.05000000       0.25000000       0.22222222 </v>
   <v>       0.15000000       0.25000000       0.22222222 </v>
   <v>       0.25000000       0.25000000       0.22222222 </v>
   <v>       0.35000000       0.25000000       0.22222222 </v>
   <v>       0.45000000       0.25000000       0.22222222 </v>
   <v>       0.05000000       0.32142857       0.22222222 </v>
   <v>       0.15000000       0.32142857       0.22222222 </v>
   <v>       0.25000000       0.32142857       0.22222222 </v>
   <v>       0.35000000       0.32142857       0.22222222 </v>
   <v>       0.45000000       0.32142857       0.22222222 </v>
   <v>       0.05000000       0.39285714       0.22222222 </v>
   <v>       0.15000000       0.39285714       0.22222222 </v>
   <v>       0.25000000       0.39285714       0.22222222 </v>
   <v>       0.35000000       0.39285714       0.22222222 </v>
   <v>       0.45000000       0.39285714       0.22222222 </v>
   <v>       0.05000000       0.46428571       0.22222222 </v>
   <v>       0.15000000       0.46428571       0.22222222 </v>
   <v>       0.25000000       0.46428571       0.22222222 </v>
   <v>       0.35000000       0.46428571       0.22222222 </v>
   <v>       0.45000000       0.46428571       0.22222222 </v>
   <v>       0.05000000       0.03571429       0.33333333 </v>
   <v>       0.15000000       0.03571429       0.33333333 </v>
   <v>       0.25000000       0.03571429       0.33333333 </v>
   <v>       0.35000000       0.03571429       0.33333333 </v>
   <v>       0.45000000       0.03571429       0.33333333 </v>
   <v>       0.05000000       0.10714286       0.33333333 </v>
   <v>       0.15000000       0.10714286       0.33333333 </v>
   <v>       0.25000000       0.10714286       0.33333333 </v>
   <v>       0.35000000       0.10714286       0.33333333 </v>
   <v>       0.45000000       0.10714286       0.33333333 </v>
   <v>       0.05000000       0.17857143       0.33333333 </v>
   <v>       0.15000000       0.17857143       0.33333333 </v>
   <v>       0.25000000       0.17857143       0.33333333 </v>
   <v>       0.35000000       0.17857143       0.33333333 </v>
   <v>       0.45000000       0.17857143       0.33333333 </v>
   <v>       0.05000000       0.25000000       0.33333333 </v>
   <v>       0.15000000       0.25000000       0.33333333 </v>
   <v>       0.25000000       0.25000000       0.33333333 </v>
   <v>       0.35000000       0.25000000       0.33333333 </v>
   <v>       0.45000000       0.25000000       0.33333333 </v>
   <v>       0.05000000       0.32142857       0.33333333 </v>
   <v>       0.15000000       0.32142857       0.33333333 </v>
   <v>       0.25000000       0.32142857       0.33333333 </v>
   <v>       0.35000000       0.32142857       0.33333333 </v>
   <v>       0.45000000       0.32142857       0.33333333 </v>
   <v>       0.05000000       0.39285714       0.33333333 </v>
   <v>       0.15000000       0.39285714       0.33333333 </v>
   <v>       0.25000000       0.39285714       0.33333333 </v>
   <v>       0.35000000       0.39285714       0.33333333 </v>
   <v>       0.45000000       0.39285714       0.33333333 </v>
   <v>       0.05000000       0.46428571       0.33333333 </v>
   <v>       0.15000000       0.46428571       0.33333333 </v>
   <v>       0.25000000       0.46428571       0.33333333 </v>
   <v>       0.35000000       0.46428571       0.33333333 </v>
   <v>       0.45000000       0.46428571       0.33333333 </v>
   <v>       0.05000000       0.03571429       0.44444444 </v>
   <v>       0.15000000       0.03571429       0.44444444 </v>
   <v>       0.25000000       0.03571429       0.44444444 </v>
   <v>       0.35000000       0.03571429       0.44444444 </v>
   <v>       0.45000000       0.03571429       0.44444444 </v>
   <v>       0.05000000       0.10714286       0.44444444 </v>
   <v>       0.15000000       0.10714286       0.44444444 </v>
   <v>       0.25000000       0.10714286       0.44444444 </v>
   <v>       0.35000000       0.10714286       0.44444444 </v>
   <v>       0.45000000       0.10714286       0.44444444 </v>
   <v>       0.05000000       0.17857143       0.44444444 </v>
   <v>       0.15000000       0.17857143       0.44444444 </v>
   <v>       0.25000000       0.17857143       0.44444444 </v>
   <v>       0.35000000       0.17857143       0.44444444 </v>
   <v>       0.45000000       0.17857143       0.44444444 </v>
   <v>       0.05000000       0.25000000       0.44444444 </v>
   <v>       0.15000000       0.25000000       0.44444444 </v>
   <v>       0.25000000       0.25000000       0.44444444 </v>
   <v>       0.35000000       0.25000000       0.44444444 </v>
   <v>       0.45000000       0.25000000       0.44444444 </v>
   <v>       0.05000000       0.32142857       0.44444444 </v>
   <v>       0.15000000       0.32142857       0.44444444 </v>
   <v>       0.25000000       0.32142857       0.44444444 </v>
   <v>       0.35000000       0.32142857       0.44444444 </v>
   <v>       0.45000000       0.32142857       0.44444444 </v>
   <v>       0.05000000       0.39285714       0.44444444 </v>
   <v>       0.15000000       0.39285714       0.44444444 </v>
   <v>       0.25000000       0.39285714       0.44444444 </v>
   <v>       0.35000000       0.39285714       0.44444444 </v>
   <v>       0.45000000       0.39285714       0.44444444 </v>
   <v>       0.05000000       0.46428571       0.44444444 </v>
   <v>       0.15000000       0.46428571       0.44444444 </v>
   <v>       0.25000000       0.46428571       0.44444444 </v>
   <v>       0.35000000       0.46428571       0.44444444 </v>
   <v>       0.45000000       0.46428571       0.44444444 </v>
  </varray>
  <varray name="weights" >
   <v>       0.00317460 </v>
   <v>       0.00317460 </v>
   <v>       0.00317460 </v>
   <v>       0.00317460 </v>
   <v>       0.00317460 </v>
   <v>       0.00317460 </v>
   <v>       0.00317460 </v>
   <v>       0.00317460 </v>
   <v>       0.00317460 </v>
   <v>       0.00317460 </v>
   <v>       0.00317460 </v>
   <v>       0.00317460 </v>
   <v>       0.00317460 </v>
   <v>       0.00317460 </v>
   <v>       0.00317460 </v>
   <v>       0.00317460 </v>
   <v>       0.00317460 </v>
   <v>       0.00317460 </v>
   <v>       0.00317460 </v>
   <v>       0.00317460 </v>
   <v>       0.00317460 </v>
   <v>       0.00317460 </v>
   <v>       0.00317460 </v>
   <v>       0.00317460 </v>
   <v>       0.00317460 </v>
   <v>       0.00317460 </v>
   <v>       0.00317460 </v>
   <v>       0.00317460 </v>
   <v>       0.00317460 </v>
   <v>       0.00317460 </v>
   <v>       0.00317460 </v>
   <v>       0.00317460 </v>
   <v>       0.00317460 </v>
   <v>       0.00317460 </v>
   <v>       0.00317460 </v>
   <v>       0.00634921 </v>
   <v>       0.00634921 </v>
   <v>       0.00634921 </v>
   <v>       0.00634921 </v>
   <v>       0.00634921 </v>
   <v>       0.00634921 </v>
   <v>       0.00634921 </v>
   <v>       0.00634921 </v>
   <v>       0.00634921 </v>
   <v>       0.00634921 </v>
   <v>       0.00634921 </v>
   <v>       0.00634921 </v>
   <v>       0.00634921 </v>
   <v>       0.00634921 </v>
   <v>       0.00634921 </v>
   <v>       0.00634921 </v>
   <v>       0.00634921 </v>
   <v>       0.00634921 </v>
   <v>       0.00634921 </v>
   <v>       0.00634921 </v>
   <v>       0.00634921 </v>
   <v>       0.00634921 </v>
   <v>       0.00634921 </v>
   <v>       0.00634921 </v>
   <v>       0.00634921 </v>
   <v>       0.00634921 </v>
   <v>       0.00634921 </v>
   <v>       0.00634921 </v>
   <v>       0.00634921 </v>
   <v>       0.00634921 </v>
   <v>       0.00634921 </v>
   <v>       0.00634921 </v>
   <v>       0.00634921 </v>
   <v>       0.00634921 </v>
   <v>       0.00634921 </v>
   <v>       0.00634921 </v>
   <v>       0.00634921 </v>
   <v>       0.00634921 </v>
   <v>       0.00634921 </v>
   <v>       0.00634921 </v>
   <v>       0.00634921 </v>
   <v>       0.00634921 </v>
   <v>       0.00634921 </v>
   <v>       0.00634921 </v>
   <v>       0.00634921 </v>
   <v>       0.00634921 </v>
   <v>       0.00634921 </v>
   <v>       0.00634921 </v>
   <v>       0.00634921 </v>
   <v>       0.00634921 </v>
   <v>       0.00634921 </v>
   <v>       0.00634921 </v>
   <v>       0.00634921 </v>
   <v>       0.00634921 </v>
   <v>       0.00634921 </v>
   <v>       0.00634921 </v>
   <v>       0.00634921 </v>
   <v>       0.00634921 </v>
   <v>       0.00634921 </v>
   <v>       0.00634921 </v>
   <v>       0.00634921 </v>
   <v>       0.00634921 </v>
   <v>       0.00634921 </v>
   <v>       0.00634921 </v>
   <v>       0.00634921 </v>
   <v>       0.00634921 </v>
   <v>       0.00634921 </v>
   <v>       0.00634921 </v>
   <v>       0.00634921 </v>
   <v>       0.00634921 </v>
   <v>       0.00634921 </v>
   <v>       0.00634921 </v>
   <v>       0.00634921 </v>
   <v>       0.00634921 </v>
   <v>       0.00634921 </v>
   <v>       0.00634921 </v>
   <v>       0.00634921 </v>
   <v>       0.00634921 </v>
   <v>       0.00634921 </v>
   <v>       0.00634921 </v>
   <v>       0.00634921 </v>
   <v>       0.00634921 </v>
   <v>       0.00634921 </v>
   <v>       0.00634921 </v>
   <v>       0.00634921 </v>
   <v>       0.00634921 </v>
   <v>       0.00634921 </v>
   <v>       0.00634921 </v>
   <v>       0.00634921 </v>
   <v>       0.00634921 </v>
   <v>       0.00634921 </v>
   <v>       0.00634921 </v>
   <v>       0.00634921 </v>
   <v>       0.00634921 </v>
   <v>       0.00634921 </v>
   <v>       0.00634921 </v>
   <v>       0.00634921 </v>
   <v>       0.00634921 </v>
   <v>       0.00634921 </v>
   <v>       0.00634921 </v>
   <v>       0.00634921 </v>
   <v>       0.00634921 </v>
   <v>       0.00634921 </v>
   <v>       0.00634921 </v>
   <v>       0.00634921 </v>
   <v>       0.00634921 </v>
   <v>       0.00634921 </v>
   <v>       0.00634921 </v>
   <v>       0.00634921 </v>
   <v>       0.00634921 </v>
   <v>       0.00634921 </v>
   <v>       0.00634921 </v>
   <v>       0.00634921 </v>
   <v>       0.00634921 </v>
   <v>       0.00634921 </v>
   <v>       0.00634921 </v>
   <v>       0.00634921 </v>
   <v>       0.00634921 </v>
   <v>       0.00634921 </v>
   <v>       0.00634921 </v>
   <v>       0.00634921 </v>
   <v>       0.00634921 </v>
   <v>       0.00634921 </v>
   <v>       0.00634921 </v>
   <v>       0.00634921 </v>
   <v>       0.00634921 </v>
   <v>       0.00634921 </v>
   <v>       0.00634921 </v>
   <v>       0.00634921 </v>
   <v>       0.00634921 </v>
   <v>       0.00634921 </v>
   <v>       0.00634921 </v>
   <v>       0.00634921 </v>
   <v>       0.00634921 </v>
   <v>       0.00634921 </v>
   <v>       0.00634921 </v>
   <v>       0.00634921 </v>
   <v>       0.00634921 </v>
   <v>       0.00634921 </v>
   <v>       0.00634921 </v>
  </varray>
 </kpoints>
 <parameters>
  <separator name="general" >
   <i type="string" name="SYSTEM">Convergence</i>
   <i type="logical" name="LCOMPAT"> F  </i>
  </separator>
  <separator name="electronic" >
   <i type="string" name="PREC">accura</i>
   <i name="ENMAX">    600.00000000</i>
   <i name="ENAUG">    535.51400000</i>
   <i name="EDIFF">      0.00000100</i>
   <i type="int" name="IALGO">    38</i>
   <i type="int" name="IWAVPR">    10</i>
   <i type="int" name="NBANDS">    24</i>
   <i type="int" name="NBANDSLOW">    -1</i>
   <i type="int" name="NBANDSHIGH">    -1</i>
   <i name="NELECT">      3.00000000</i>
   <i type="int" name="TURBO">     0</i>
   <i type="int" name="IRESTART">     0</i>
   <i type="int" name="NREBOOT">     0</i>
   <i type="int" name="NMIN">     0</i>
   <i name="EREF">      0.00000000</i>
   <separator name="electronic smearing" >
    <i type="int" name="ISMEAR">     0</i>
    <i name="SIGMA">      0.05000000</i>
    <i name="KSPACING">      0.50000000</i>
    <i type="logical" name="KGAMMA"> T  </i>
    <i type="logical" name="KBLOWUP"> T  </i>
   </separator>
   <separator name="electronic projectors" >
    <i type="logical" name="LREAL"> F  </i>
    <v name="ROPT">      0.00000000</v>
    <i type="int" name="LMAXPAW">  -100</i>
    <i type="int" name="LMAXMIX">     2</i>
    <i type="logical" name="NLSPLINE"> F  </i>
   </separator>
   <separator name="electronic startup" >
    <i type="int" name="ISTART">     0</i>
    <i type="int" name="ICHARG">     2</i>
    <i type="int" name="INIWAV">     1</i>
   </separator>
   <separator name="electronic spin" >
    <i type="int" name="ISPIN">     1</i>
    <i type="logical" name="LNONCOLLINEAR"> F  </i>
    <v name="MAGMOM">      1.00000000</v>
    <i name="NUPDOWN">     -1.00000000</i>
    <i type="logical" name="LSORBIT"> F  </i>
    <v name="SAXIS">      0.00000000      0.00000000      1.00000000</v>
    <i type="logical" name="LSPIRAL"> F  </i>
    <v name="QSPIRAL">      0.00000000      0.00000000      0.00000000</v>
    <i type="logical" name="LZEROZ"> F  </i>
   </separator>
   <separator name="electronic exchange-correlation" >
    <i type="logical" name="LASPH"> F  </i>
   </separator>
   <separator name="electronic convergence" >
    <i type="int" name="NELM">   100</i>
    <i type="int" name="NELMDL">    -5</i>
    <i type="int" name="NELMIN">     2</i>
    <i name="ENINI">    600.00000000</i>
    <separator name="electronic convergence detail" >
     <i type="logical" name="LDIAG"> T  </i>
     <i type="logical" name="LSUBROT"> F  </i>
     <i name="WEIMIN">      0.00000000</i>
     <i name="EBREAK">      0.00000001</i>
     <i name="DEPER">      0.30000000</i>
     <i type="int" name="NRMM">     4</i>
     <i name="TIME">      0.40000000</i>
    </separator>
   </separator>
   <separator name="electronic mixer" >
    <i name="AMIX">      0.40000000</i>
    <i name="BMIX">      1.00000000</i>
    <i name="AMIN">      0.10000000</i>
    <i name="AMIX_MAG">      1.60000000</i>
    <i name="BMIX_MAG">      1.00000000</i>
    <separator name="electronic mixer details" >
     <i type="int" name="IMIX">     4</i>
     <i type="logical" name="MIXFIRST"> F  </i>
     <i type="int" name="MAXMIX">   -45</i>
     <i name="WC">    100.00000000</i>
     <i type="int" name="INIMIX">     1</i>
     <i type="int" name="MIXPRE">     1</i>
     <i type="int" name="MREMOVE">     5</i>
    </separator>
   </separator>
   <separator name="electronic dipolcorrection" >
    <i type="logical" name="LDIPOL"> F  </i>
    <i type="logical" name="LMONO"> F  </i>
    <i type="int" name="IDIPOL">     0</i>
    <i name="EPSILON">      1.00000000</i>
    <v name="DIPOL">   -100.00000000   -100.00000000   -100.00000000</v>
    <i name="EFIELD">      0.00000000</i>
    <i type="logical" name="LVACPOTAV"> F  </i>
   </separator>
  </separator>
  <separator name="grids" >
   <i type="int" name="NGX">   120</i>
   <i type="int" name="NGY">   100</i>
   <i type="int" name="NGZ">   144</i>
   <i type="int" name="NGXF">   240</i>
   <i type="int" name="NGYF">   200</i>
   <i type="int" name="NGZF">   288</i>
   <i type="logical" name="ADDGRID"> F  </i>
  </separator>
  <separator name="ionic" >
   <i type="int" name="NSW">     0</i>
   <i type="int" name="IBRION">    -1</i>
   <i type="int" name="MDALGO">     0</i>
   <i type="int" name="ISIF">     2</i>
   <i name="PSTRESS">      0.00000000</i>
   <i name="EDIFFG">     -0.00100000</i>
   <i type="int" name="NFREE">     0</i>
   <i name="POTIM">      0.50000000</i>
   <i name="SMASS">     -3.00000000</i>
   <i name="SCALEE">      1.00000000</i>
  </separator>
  <separator name="ionic md" >
   <i name="TEBEG">      0.00010000</i>
   <i name="TEEND">      0.00010000</i>
   <i type="int" name="NBLOCK">     1</i>
   <i type="int" name="KBLOCK">     1</i>
   <i type="int" name="NPACO">   256</i>
   <i name="APACO">     10.00000000</i>
  </separator>
  <separator name="symmetry" >
   <i type="int" name="ISYM">     2</i>
   <i name="SYMPREC">      0.00001000</i>
  </separator>
  <separator name="dos" >
   <i type="int" name="LORBIT">     0</i>
   <v name="RWIGS">     -1.00000000</v>
   <i type="int" name="NEDOS">   301</i>
   <i name="EMIN">     10.00000000</i>
   <i name="EMAX">    -10.00000000</i>
   <i name="EFERMI">      0.00000000</i>
  </separator>
  <separator name="writing" >
   <i type="int" name="NWRITE">     2</i>
   <i type="logical" name="LWAVE"> F  </i>
   <i type="logical" name="LDOWNSAMPLE"> F  </i>
   <i type="logical" name="LCHARG"> F  </i>
   <i type="logical" name="LPARD"> F  </i>
   <i type="logical" name="LVTOT"> F  </i>
   <i type="logical" name="LVHAR"> F  </i>
   <i type="logical" name="LELF"> F  </i>
   <i type="logical" name="LOPTICS"> F  </i>
   <v name="STM">      0.00000000      0.00000000      0.00000000      0.00000000      0.00000000      0.00000000      0.00000000</v>
  </separator>
  <separator name="performance" >
   <i type="int" name="NPAR">    24</i>
   <i type="int" name="NSIM">     4</i>
   <i type="int" name="NBLK">    -1</i>
   <i type="logical" name="LPLANE"> T  </i>
   <i type="logical" name="LSCALAPACK"> T  </i>
   <i type="logical" name="LSCAAWARE"> F  </i>
   <i type="logical" name="LSCALU"> F  </i>
   <i type="logical" name="LASYNC"> F  </i>
   <i type="logical" name="LORBITALREAL"> F  </i>
  </separator>
  <separator name="miscellaneous" >
   <i type="int" name="IDIOT">     3</i>
   <i type="int" name="PHON_NSTRUCT">    -1</i>
   <i type="logical" name="LMUSIC"> F  </i>
   <v name="POMASS">     10.81100000</v>
   <v name="DARWINR">      0.00000000</v>
   <v name="DARWINV">      1.00000000</v>
   <i type="logical" name="LCORR"> T  </i>
  </separator>
  <i type="logical" name="GGA_COMPAT"> T  </i>
  <i type="logical" name="LBERRY"> F  </i>
  <i type="int" name="ICORELEVEL">     0</i>
  <i type="logical" name="LDAU"> F  </i>
  <i type="int" name="I_CONSTRAINED_M">     0</i>
  <separator name="electronic exchange-correlation" >
   <i type="string" name="GGA    ">PE</i>
   <i type="string" name="XC_C">1</i>
   <i type="int" name="VOSKOWN">     0</i>
   <i type="logical" name="LHFCALC"> F  </i>
   <i type="string" name="PRECFOCK"></i>
   <i type="logical" name="LSYMGRAD"> F  </i>
   <i type="logical" name="LHFONE"> F  </i>
   <i type="logical" name="LRHFCALC"> F  </i>
   <i type="logical" name="LTHOMAS"> F  </i>
   <i type="logical" name="LMODELHF"> F  </i>
   <i type="logical" name="LFOCKACE"> F  </i>
   <i name="ENCUT4O">     -1.00000000</i>
   <i type="int" name="EXXOEP">     0</i>
   <i type="int" name="FOURORBIT">     0</i>
   <i name="AEXX">      0.00000000</i>
   <i name="HFALPHA">      0.00000000</i>
   <i name="MCALPHA">      0.00000000</i>
   <i name="ALDAX">      1.00000000</i>
   <i name="AGGAX">      1.00000000</i>
   <i name="AMGGAX">      1.00000000</i>
   <i name="ALDAC">      1.00000000</i>
   <i name="AGGAC">      1.00000000</i>
   <i name="AMGGAC">      1.00000000</i>
   <i type="int" name="NKREDX">     1</i>
   <i type="int" name="NKREDY">     1</i>
   <i type="int" name="NKREDZ">     1</i>
   <i type="logical" name="SHIFTRED"> F  </i>
   <i type="logical" name="ODDONLY"> F  </i>
   <i type="logical" name="EVENONLY"> F  </i>
   <i type="int" name="LMAXFOCK">     0</i>
   <i type="int" name="NMAXFOCKAE">     0</i>
   <i type="logical" name="LFOCKAEDFT"> F  </i>
   <i name="HFSCREEN">      0.00000000</i>
   <i name="HFSCREENC">      0.00000000</i>
   <i type="int" name="NBANDSGWLOW">     0</i>
  </separator>
  <separator name="vdW DFT" >
   <i type="logical" name="LUSE_VDW"> F  </i>
   <i type="int" name="IVDW_NL">    -1</i>
   <i type="logical" name="LSPIN_VDW"> F  </i>
   <i name="ZAB_VDW">     -0.84910000</i>
   <i name="GAMMA_VDW">      1.39626340</i>
   <i name="ALPHA_VDW">      0.00000000</i>
   <i name="PARAM1">      0.12340000</i>
   <i name="PARAM2">      1.00000000</i>
   <i name="BPARAM">      6.30000000</i>
   <i name="CPARAM">      0.00930000</i>
  </separator>
  <separator name="model GW" >
   <i type="int" name="MODEL_GW">     0</i>
   <i name="MODEL_EPS0">   2018.93107298</i>
   <i name="MODEL_ALPHA">      1.00000000</i>
  </separator>
  <separator name="linear response parameters" >
   <i type="logical" name="LEPSILON"> F  </i>
   <i type="logical" name="LRPA"> F  </i>
   <i type="logical" name="LNABLA"> F  </i>
   <i type="logical" name="LVEL"> F  </i>
   <i name="CSHIFT">      0.10000000</i>
   <i name="OMEGAMAX">     -1.00000000</i>
   <i name="DEG_THRESHOLD">      0.00200000</i>
   <i name="RTIME">     -0.10000000</i>
   <i name="WPLASMAI">      0.00000000</i>
   <v name="DFIELD">      0.00000000      0.00000000      0.00000000</v>
   <v name="WPLASMA">      0.00000000      0.00000000      0.00000000      0.00000000      0.00000000      0.00000000      0.00000000      0.00000000      0.00000000</v>
  </separator>
  <separator name="orbital magnetization" >
   <i type="logical" name="NUCIND"> F  </i>
   <v name="MAGPOS">      0.00000000      0.00000000      0.00000000</v>
   <i type="logical" name="LNICSALL"> T  </i>
   <i type="logical" name="ORBITALMAG"> F  </i>
   <i type="logical" name="LMAGBLOCH"> F  </i>
   <i type="logical" name="LCHIMAG"> F  </i>
   <i type="logical" name="LGAUGE"> T  </i>
   <i type="int" name="MAGATOM">     0</i>
   <v name="MAGDIPOL">      0.00000000      0.00000000      0.00000000</v>
   <v name="AVECCONST">      0.00000000      0.00000000      0.00000000</v>
  </separator>
  <separator name="response functions" >
   <i type="logical" name="LALL_IN_ONE"> F  </i>
   <i type="int" name="IALL_IN_ONE">    -1</i>
   <i type="int" name="NBANDS_WAVE">    -1</i>
   <i type="logical" name="LFINITE_TEMPERATURE"> F  </i>
   <i type="logical" name="LADDER"> F  </i>
   <i type="logical" name="LRPAFORCE"> F  </i>
   <i type="logical" name="LFXC"> F  </i>
   <i type="logical" name="LHARTREE"> T  </i>
   <i type="int" name="IBSE">     0</i>
   <v type="int" name="KPOINT">    -1     0     0     0</v>
   <i type="logical" name="LTCTC"> F  </i>
   <i type="logical" name="LTCTE"> F  </i>
   <i type="logical" name="LTETE"> F  </i>
   <i type="logical" name="LTRIPLET"> F  </i>
   <i type="logical" name="LFXCEPS"> F  </i>
   <i type="logical" name="LFXHEG"> F  </i>
   <i type="int" name="NATURALO">     2</i>
   <i type="logical" name="LHOLEGF"> F  </i>
   <i type="logical" name="L2ORDER"> F  </i>
   <i type="logical" name="LDMP1"> F  </i>
   <i type="logical" name="LMP2LT"> F  </i>
   <i type="logical" name="LSMP2LT"> F  </i>
   <i type="logical" name="LGWLF"> F  </i>
   <i name="ENCUTGW">     -1.60000002</i>
   <i name="ENCUTGWSOFT">     -1.60000002</i>
   <i name="ENCUTLF">     -1.00000000</i>
   <i type="logical" name="ESF_SPLINES"> F  </i>
   <i name="ESF_CONV">      0.01000000</i>
   <i type="int" name="ESF_NINTER">    15</i>
   <i type="int" name="LMAXMP2">    -1</i>
   <i name="SCISSOR">      0.00000000</i>
   <i type="int" name="NOMEGA">     0</i>
   <i type="int" name="NOMEGAR">     0</i>
   <i type="int" name="NBANDSGW">    -1</i>
   <i type="int" name="NBANDSO">    -1</i>
   <i type="int" name="NBANDSV">    -1</i>
   <i type="int" name="NELMGW">     1</i>
   <i type="int" name="NELMHF">     1</i>
   <i type="int" name="DIM">     3</i>
   <i type="int" name="IESPILON">     4</i>
   <i type="int" name="ANTIRES">     0</i>
   <i name="OMEGAMAX">    -30.00000000</i>
   <i name="OMEGAMIN">    -30.00000000</i>
   <i name="OMEGATL">   -200.00000000</i>
   <i type="int" name="OMEGAGRID">     0</i>
   <i name="CSHIFT">     -0.10000000</i>
   <i type="logical" name="LSELFENERGY"> F  </i>
   <i type="logical" name="LSPECTRAL"> F  </i>
   <i type="logical" name="LSPECTRALGW"> F  </i>
   <i type="logical" name="LSINGLES"> F  </i>
   <i type="logical" name="LFERMIGW"> F  </i>
   <i type="logical" name="ODDONLYGW"> F  </i>
   <i type="logical" name="EVENONLYGW"> F  </i>
   <i type="int" name="NKREDLFX">     1</i>
   <i type="int" name="NKREDLFY">     1</i>
   <i type="int" name="NKREDLFZ">     1</i>
   <i type="int" name="MAXMEM">  2800</i>
   <i type="int" name="TELESCOPE">     0</i>
   <i type="int" name="NTAUPAR">    -1</i>
   <i type="int" name="NOMEGAPAR">    -1</i>
   <i name="DAMP_NEWTON">      0.80000001</i>
   <i name="LAMBDA">      1.00000000</i>
  </separator>
  <separator name="External order field" >
   <i name="OFIELD_KAPPA">      0.00000000</i>
   <v name="OFIELD_K">      0.00000000      0.00000000      0.00000000</v>
   <i name="OFIELD_Q6_NEAR">      0.00000000</i>
   <i name="OFIELD_Q6_FAR">      0.00000000</i>
   <i name="OFIELD_A">      0.00000000</i>
  </separator>
  <separator name="optional k-points parameters" >
   <i type="int" name="KPOINTS_OPT_MODE">     1</i>
   <i type="logical" name="LKPOINTS_OPT"> F  </i>
  </separator>
 </parameters>
 <atominfo>
  <atoms>       1 </atoms>
  <types>       1 </types>
  <array name="atoms" >
   <dimension dim="1">ion</dimension>
   <field type="string">element</field>
   <field type="int">atomtype</field>
   <set>
    <rc><c>B </c><c>   1</c></rc>
   </set>
  </array>
  <array name="atomtypes" >
   <dimension dim="1">type</dimension>
   <field type="int">atomspertype</field>
   <field type="string">element</field>
   <field>mass</field>
   <field>valence</field>
   <field type="string">pseudopotential</field>
   <set>
    <rc><c>   1</c><c>B </c><c>     10.81100000</c><c>      3.00000000</c><c>  PAW_PBE B 06Sep2000                   </c></rc>
   </set>
  </array>
 </atominfo>
 <structure name="initialpos" >
  <crystal>
   <varray name="basis" >
    <v>      14.98500000       0.00000000       0.00000000 </v>
    <v>       0.00000000      12.48750000       0.00000000 </v>
    <v>       0.00000000       0.00000000      17.98200000 </v>
   </varray>
   <i name="volume">   3364.88512163 </i>
   <varray name="rec_basis" >
    <v>       0.06673340       0.00000000       0.00000000 </v>
    <v>       0.00000000       0.08008008       0.00000000 </v>
    <v>       0.00000000       0.00000000       0.05561117 </v>
   </varray>
  </crystal>
  <varray name="positions" >
   <v>       0.52123000       0.54500000       0.63796000 </v>
  </varray>
 </structure>
 <calculation>
  <scstep>
   <time name="dav">   58.94   59.86</time>
   <time name="total">   59.42   60.35</time>
   <energy>
    <i name="alphaZ">      0.02044501 </i>
    <i name="ewald">    -11.84085750 </i>
    <i name="hartreedc">    -42.57248814 </i>
    <i name="XCdc">      4.75549676 </i>
    <i name="pawpsdc">     43.49986551 </i>
    <i name="pawaedc">    -42.64454556 </i>
    <i name="eentropy">     -0.01009913 </i>
    <i name="bandstr">    -14.39514566 </i>
    <i name="atom">     71.16960075 </i>
    <i name="e_fr_energy">      7.98227204 </i>
    <i name="e_wo_entrp">      7.99237117 </i>
    <i name="e_0_energy">      7.98732160 </i>
   </energy>
  </scstep>
  <scstep>
   <time name="dav">   95.72   96.76</time>
   <time name="total">   95.72   96.77</time>
   <energy>
    <i name="e_fr_energy">      0.10550376 </i>
    <i name="e_wo_entrp">      0.13523426 </i>
    <i name="e_0_energy">      0.12036901 </i>
   </energy>
  </scstep>
  <scstep>
   <time name="dav">   59.95   60.76</time>
   <time name="total">   59.95   60.76</time>
   <energy>
    <i name="e_fr_energy">     -0.05492882 </i>
    <i name="e_wo_entrp">     -0.00205121 </i>
    <i name="e_0_energy">     -0.02849002 </i>
   </energy>
  </scstep>
  <scstep>
   <time name="dav">   64.36   65.23</time>
   <time name="total">   64.36   65.23</time>
   <energy>
    <i name="e_fr_energy">     -0.05821528 </i>
    <i name="e_wo_entrp">     -0.00521397 </i>
    <i name="e_0_energy">     -0.03171462 </i>
   </energy>
  </scstep>
  <scstep>
   <time name="dav">   78.97   79.89</time>
   <time name="total">   83.12   84.10</time>
   <energy>
    <i name="e_fr_energy">     -0.05825220 </i>
    <i name="e_wo_entrp">     -0.00525086 </i>
    <i name="e_0_energy">     -0.03175153 </i>
   </energy>
  </scstep>
  <scstep>
   <time name="dav">   71.85   72.89</time>
   <time name="total">   72.33   73.37</time>
   <energy>
    <i name="alphaZ">      0.02044501 </i>
    <i name="ewald">    -11.84085750 </i>
    <i name="hartreedc">    -42.57267864 </i>
    <i name="XCdc">      4.75548406 </i>
    <i name="pawpsdc">     43.56786773 </i>
    <i name="pawaedc">    -42.71258023 </i>
    <i name="eentropy">     -0.05300134 </i>
    <i name="bandstr">    -22.39253232 </i>
    <i name="atom">     71.16960075 </i>
    <i name="e_fr_energy">     -0.05825248 </i>
    <i name="e_wo_entrp">     -0.00525114 </i>
    <i name="e_0_energy">     -0.03175181 </i>
   </energy>
  </scstep>
  <structure>
   <crystal>
    <varray name="basis" >
     <v>      14.98500000       0.00000000       0.00000000 </v>
     <v>       0.00000000      12.48750000       0.00000000 </v>
     <v>       0.00000000       0.00000000      17.98200000 </v>
    </varray>
    <i name="volume">   3364.88512163 </i>
    <varray name="rec_basis" >
     <v>       0.06673340       0.00000000       0.00000000 </v>
     <v>       0.00000000       0.08008008       0.00000000 </v>
     <v>       0.00000000       0.00000000       0.05561117 </v>
    </varray>
   </crystal>
   <varray name="positions" >
    <v>       0.52123000       0.54500000       0.63796000 </v>
   </varray>
  </structure>
  <varray name="forces" >
   <v>      -0.00000000       0.00000000      -0.00000000 </v>
  </varray>
  <varray name="stress" >
   <v>      -0.00046955      -0.00000000       0.00000000 </v>
   <v>       0.00000000      -0.00047667       0.00000000 </v>
   <v>       0.00000000       0.00000000      -0.00045346 </v>
  </varray>
  <energy>
   <i name="e_fr_energy">     -0.05825248 </i>
   <i name="e_wo_entrp">     -0.00525114 </i>
   <i name="e_0_energy">     -0.03175181 </i>
  </energy>
  <time name="totalsc">  493.09  499.03</time>
  <eigenvalues>
   <array>
    <dimension dim="1">band</dimension>
    <dimension dim="2">kpoint</dimension>
    <dimension dim="3">spin</dimension>
    <field>eigene</field>
    <field>occ</field>
    <set>
     <set comment="spin 1">
      <set comment="kpoint 1">
       <r>   -9.4098    1.0000 </r>
       <r>   -3.5729    0.1667 </r>
       <r>   -3.5729    0.1667 </r>
       <r>   -3.5728    0.1659 </r>
       <r>   -0.2622    0.0000 </r>
       <r>    0.2953    0.0000 </r>
       <r>    0.3101    0.0000 </r>
       <r>    0.4399    0.0000 </r>
       <r>    0.5745    0.0000 </r>
       <r>    0.6879    0.0000 </r>
       <r>    0.8302    0.0000 </r>
       <r>    0.9121    0.0000 </r>
       <r>    0.9460    0.0000 </r>
       <r>    1.0376    0.0000 </r>
       <r>    1.0810    0.0000 </r>
       <r>    1.1757    0.0000 </r>
       <r>    1.2112    0.0000 </r>
       <r>    1.2915    0.0000 </r>
       <r>    1.3370    0.0000 </r>
       <r>    1.3551    0.0000 </r>
       <r>    1.4305    0.0000 </r>
       <r>    1.5012    0.0000 </r>
       <r>    1.5789    0.0000 </r>
       <r>    1.7113    0.0000 </r>
      </set>
      <set comment="kpoint 2">
       <r>   -9.4098    1.0000 </r>
       <r>   -3.5729    0.1667 </r>
       <r>   -3.5729    0.1667 </r>
       <r>   -3.5728    0.1659 </r>
       <r>   -0.2523    0.0000 </r>
       <r>    0.2697    0.0000 </r>
       <r>    0.3213    0.0000 </r>
       <r>    0.3742    0.0000 </r>
       <r>    0.6907    0.0000 </r>
       <r>    0.7092    0.0000 </r>
       <r>    0.8021    0.0000 </r>
       <r>    0.8320    0.0000 </r>
       <r>    0.8430    0.0000 </r>
       <r>    1.1538    0.0000 </r>
       <r>    1.1671    0.0000 </r>
       <r>    1.1996    0.0000 </r>
       <r>    1.2221    0.0000 </r>
       <r>    1.2593    0.0000 </r>
       <r>    1.3344    0.0000 </r>
       <r>    1.3537    0.0000 </r>
       <r>    1.3905    0.0000 </r>
       <r>    1.5793    0.0000 </r>
       <r>    1.6406    0.0000 </r>
       <r>    1.6909    0.0000 </r>
      </set>
      <set comment="kpoint 3">
       <r>   -9.4098    1.0000 </r>
       <r>   -3.5729    0.1667 </r>
       <r>   -3.5729    0.1667 </r>
       <r>   -3.5728    0.1659 </r>
       <r>   -0.2340    0.0000 </r>
       <r>    0.1995    0.0000 </r>
       <r>    0.3430    0.0000 </r>
       <r>    0.3764    0.0000 </r>
       <r>    0.7050    0.0000 </r>
       <r>    0.7128    0.0000 </r>
       <r>    0.7173    0.0000 </r>
       <r>    0.8562    0.0000 </r>
       <r>    0.8736    0.0000 </r>
       <r>    1.0915    0.0000 </r>
       <r>    1.1955    0.0000 </r>
       <r>    1.2362    0.0000 </r>
       <r>    1.2756    0.0000 </r>
       <r>    1.2977    0.0000 </r>
       <r>    1.3904    0.0000 </r>
       <r>    1.4011    0.0000 </r>
       <r>    1.4088    0.0000 </r>
       <r>    1.5993    0.0000 </r>
       <r>    1.5997    0.0000 </r>
       <r>    1.6523    0.0000 </r>
      </set>
      <set comment="kpoint 4">
       <r>   -9.4098    1.0000 </r>
       <r>   -3.5729    0.1668 </r>
       <r>   -3.5729    0.1667 </r>
       <r>   -3.5728    0.1659 </r>
       <r>   -0.2117    0.0000 </r>
       <r>    0.1315    0.0000 </r>
       <r>    0.3722    0.0000 </r>
       <r>    0.4077    0.0000 </r>
       <r>    0.6252    0.0000 </r>
       <r>    0.6281    0.0000 </r>
       <r>    0.7408    0.0000 </r>
       <r>    0.8889    0.0000 </r>
       <r>    1.0029    0.0000 </r>
       <r>    1.0422    0.0000 </r>
       <r>    1.1689    0.0000 </r>
       <r>    1.2215    0.0000 </r>
       <r>    1.3098    0.0000 </r>
       <r>    1.3652    0.0000 </r>
       <r>    1.4391    0.0000 </r>
       <r>    1.4876    0.0000 </r>
       <r>    1.5084    0.0000 </r>
       <r>    1.5482    0.0000 </r>
       <r>    1.5622    0.0000 </r>
       <r>    1.6079    0.0000 </r>
      </set>
      <set comment="kpoint 5">
       <r>   -9.4098    1.0000 </r>
       <r>   -3.5729    0.1668 </r>
       <r>   -3.5729    0.1667 </r>
       <r>   -3.5728    0.1659 </r>
       <r>   -0.1946    0.0000 </r>
       <r>    0.0901    0.0000 </r>
       <r>    0.3988    0.0000 </r>
       <r>    0.4461    0.0000 </r>
       <r>    0.5622    0.0000 </r>
       <r>    0.5733    0.0000 </r>
       <r>    0.7613    0.0000 </r>
       <r>    0.9139    0.0000 </r>
       <r>    0.9723    0.0000 </r>
       <r>    1.1031    0.0000 </r>
       <r>    1.2140    0.0000 </r>
       <r>    1.2413    0.0000 </r>
       <r>    1.3445    0.0000 </r>
       <r>    1.4064    0.0000 </r>
       <r>    1.4064    0.0000 </r>
       <r>    1.4510    0.0000 </r>
       <r>    1.4559    0.0000 </r>
       <r>    1.5187    0.0000 </r>
       <r>    1.5836    0.0000 </r>
       <r>    1.5863    0.0000 </r>
      </set>
      <set comment="kpoint 6">
       <r>   -9.4098    1.0000 </r>
       <r>   -3.5729    0.1667 </r>
       <r>   -3.5729    0.1666 </r>
       <r>   -3.5728    0.1660 </r>
       <r>   -0.2530    0.0000 </r>
       <r>    0.3034    0.0000 </r>
       <r>    0.3191    0.0000 </r>
       <r>    0.4488    0.0000 </r>
       <r>    0.5630    0.0000 </r>
       <r>    0.5930    0.0000 </r>
       <r>    0.9197    0.0000 </r>
       <r>    0.9481    0.0000 </r>
       <r>    0.9658    0.0000 </r>
       <r>    1.0267    0.0000 </r>
       <r>    1.0868    0.0000 </r>
       <r>    1.0891    0.0000 </r>
       <r>    1.0981    0.0000 </r>
       <r>    1.1910    0.0000 </r>
       <r>    1.3365    0.0000 </r>
       <r>    1.4584    0.0000 </r>
       <r>    1.4961    0.0000 </r>
       <r>    1.5872    0.0000 </r>
       <r>    1.6408    0.0000 </r>
       <r>    1.6824    0.0000 </r>
      </set>
      <set comment="kpoint 7">
       <r>   -9.4098    1.0000 </r>
       <r>   -3.5729    0.1667 </r>
       <r>   -3.5729    0.1667 </r>
       <r>   -3.5728    0.1660 </r>
       <r>   -0.2431    0.0000 </r>
       <r>    0.2782    0.0000 </r>
       <r>    0.3303    0.0000 </r>
       <r>    0.3832    0.0000 </r>
       <r>    0.5799    0.0000 </r>
       <r>    0.7133    0.0000 </r>
       <r>    0.8108    0.0000 </r>
       <r>    0.8420    0.0000 </r>
       <r>    0.9694    0.0000 </r>
       <r>    1.0609    0.0000 </r>
       <r>    1.0634    0.0000 </r>
       <r>    1.1379    0.0000 </r>
       <r>    1.1950    0.0000 </r>
       <r>    1.2367    0.0000 </r>
       <r>    1.4228    0.0000 </r>
       <r>    1.4685    0.0000 </r>
       <r>    1.4732    0.0000 </r>
       <r>    1.5615    0.0000 </r>
       <r>    1.5775    0.0000 </r>
       <r>    1.6081    0.0000 </r>
      </set>
      <set comment="kpoint 8">
       <r>   -9.4098    1.0000 </r>
       <r>   -3.5729    0.1667 </r>
       <r>   -3.5729    0.1667 </r>
       <r>   -3.5728    0.1660 </r>
       <r>   -0.2249    0.0000 </r>
       <r>    0.2086    0.0000 </r>
       <r>    0.3519    0.0000 </r>
       <r>    0.3850    0.0000 </r>
       <r>    0.6005    0.0000 </r>
       <r>    0.7142    0.0000 </r>
       <r>    0.7226    0.0000 </r>
       <r>    0.8757    0.0000 </r>
       <r>    0.9666    0.0000 </r>
       <r>    1.0047    0.0000 </r>
       <r>    1.0866    0.0000 </r>
       <r>    1.1545    0.0000 </r>
       <r>    1.3272    0.0000 </r>
       <r>    1.3526    0.0000 </r>
       <r>    1.3992    0.0000 </r>
       <r>    1.4712    0.0000 </r>
       <r>    1.5007    0.0000 </r>
       <r>    1.5122    0.0000 </r>
       <r>    1.5349    0.0000 </r>
       <r>    1.6349    0.0000 </r>
      </set>
      <set comment="kpoint 9">
       <r>   -9.4098    1.0000 </r>
       <r>   -3.5729    0.1668 </r>
       <r>   -3.5729    0.1667 </r>
       <r>   -3.5728    0.1660 </r>
       <r>   -0.2027    0.0000 </r>
       <r>    0.1408    0.0000 </r>
       <r>    0.3810    0.0000 </r>
       <r>    0.4162    0.0000 </r>
       <r>    0.6265    0.0000 </r>
       <r>    0.6346    0.0000 </r>
       <r>    0.6372    0.0000 </r>
       <r>    0.8954    0.0000 </r>
       <r>    1.0203    0.0000 </r>
       <r>    1.0413    0.0000 </r>
       <r>    1.1141    0.0000 </r>
       <r>    1.1901    0.0000 </r>
       <r>    1.2940    0.0000 </r>
       <r>    1.3710    0.0000 </r>
       <r>    1.4019    0.0000 </r>
       <r>    1.4878    0.0000 </r>
       <r>    1.5484    0.0000 </r>
       <r>    1.5541    0.0000 </r>
       <r>    1.5739    0.0000 </r>
       <r>    1.6437    0.0000 </r>
      </set>
      <set comment="kpoint 10">
       <r>   -9.4098    1.0000 </r>
       <r>   -3.5729    0.1668 </r>
       <r>   -3.5729    0.1667 </r>
       <r>   -3.5728    0.1660 </r>
       <r>   -0.1856    0.0000 </r>
       <r>    0.0995    0.0000 </r>
       <r>    0.4074    0.0000 </r>
       <r>    0.4545    0.0000 </r>
       <r>    0.5709    0.0000 </r>
       <r>    0.5829    0.0000 </r>
       <r>    0.6495    0.0000 </r>
       <r>    0.8515    0.0000 </r>
       <r>    1.0403    0.0000 </r>
       <r>    1.1374    0.0000 </r>
       <r>    1.1929    0.0000 </r>
       <r>    1.2330    0.0000 </r>
       <r>    1.2612    0.0000 </r>
       <r>    1.3338    0.0000 </r>
       <r>    1.3384    0.0000 </r>
       <r>    1.4225    0.0000 </r>
       <r>    1.5280    0.0000 </r>
       <r>    1.6456    0.0000 </r>
       <r>    1.6509    0.0000 </r>
       <r>    1.7096    0.0000 </r>
      </set>
      <set comment="kpoint 11">
       <r>   -9.4098    1.0000 </r>
       <r>   -3.5729    0.1667 </r>
       <r>   -3.5729    0.1666 </r>
       <r>   -3.5729    0.1663 </r>
       <r>   -0.2350    0.0000 </r>
       <r>    0.3164    0.0000 </r>
       <r>    0.3369    0.0000 </r>
       <r>    0.4619    0.0000 </r>
       <r>    0.4685    0.0000 </r>
       <r>    0.6056    0.0000 </r>
       <r>    0.9196    0.0000 </r>
       <r>    0.9567    0.0000 </r>
       <r>    0.9622    0.0000 </r>
       <r>    0.9764    0.0000 </r>
       <r>    1.0743    0.0000 </r>
       <r>    1.0814    0.0000 </r>
       <r>    1.1052    0.0000 </r>
       <r>    1.1372    0.0000 </r>
       <r>    1.2317    0.0000 </r>
       <r>    1.5490    0.0000 </r>
       <r>    1.5781    0.0000 </r>
       <r>    1.6117    0.0000 </r>
       <r>    1.6469    0.0000 </r>
       <r>    1.6635    0.0000 </r>
      </set>
      <set comment="kpoint 12">
       <r>   -9.4098    1.0000 </r>
       <r>   -3.5729    0.1667 </r>
       <r>   -3.5729    0.1667 </r>
       <r>   -3.5729    0.1663 </r>
       <r>   -0.2252    0.0000 </r>
       <r>    0.2934    0.0000 </r>
       <r>    0.3481    0.0000 </r>
       <r>    0.3998    0.0000 </r>
       <r>    0.4745    0.0000 </r>
       <r>    0.7304    0.0000 </r>
       <r>    0.8273    0.0000 </r>
       <r>    0.8586    0.0000 </r>
       <r>    0.9413    0.0000 </r>
       <r>    0.9596    0.0000 </r>
       <r>    1.0199    0.0000 </r>
       <r>    1.1295    0.0000 </r>
       <r>    1.2103    0.0000 </r>
       <r>    1.2556    0.0000 </r>
       <r>    1.3449    0.0000 </r>
       <r>    1.4543    0.0000 </r>
       <r>    1.4828    0.0000 </r>
       <r>    1.6132    0.0000 </r>
       <r>    1.6168    0.0000 </r>
       <r>    1.6776    0.0000 </r>
      </set>
      <set comment="kpoint 13">
       <r>   -9.4098    1.0000 </r>
       <r>   -3.5729    0.1667 </r>
       <r>   -3.5729    0.1667 </r>
       <r>   -3.5729    0.1663 </r>
       <r>   -0.2070    0.0000 </r>
       <r>    0.2263    0.0000 </r>
       <r>    0.3696    0.0000 </r>
       <r>    0.3992    0.0000 </r>
       <r>    0.4952    0.0000 </r>
       <r>    0.7322    0.0000 </r>
       <r>    0.7372    0.0000 </r>
       <r>    0.8588    0.0000 </r>
       <r>    0.9037    0.0000 </r>
       <r>    0.9796    0.0000 </r>
       <r>    1.0284    0.0000 </r>
       <r>    1.1503    0.0000 </r>
       <r>    1.3208    0.0000 </r>
       <r>    1.3485    0.0000 </r>
       <r>    1.3949    0.0000 </r>
       <r>    1.4105    0.0000 </r>
       <r>    1.5037    0.0000 </r>
       <r>    1.5579    0.0000 </r>
       <r>    1.6332    0.0000 </r>
       <r>    1.6938    0.0000 </r>
      </set>
      <set comment="kpoint 14">
       <r>   -9.4098    1.0000 </r>
       <r>   -3.5729    0.1667 </r>
       <r>   -3.5729    0.1667 </r>
       <r>   -3.5729    0.1663 </r>
       <r>   -0.1849    0.0000 </r>
       <r>    0.1592    0.0000 </r>
       <r>    0.3985    0.0000 </r>
       <r>    0.4293    0.0000 </r>
       <r>    0.5226    0.0000 </r>
       <r>    0.6526    0.0000 </r>
       <r>    0.6533    0.0000 </r>
       <r>    0.7885    0.0000 </r>
       <r>    1.0074    0.0000 </r>
       <r>    1.0524    0.0000 </r>
       <r>    1.0661    0.0000 </r>
       <r>    1.1756    0.0000 </r>
       <r>    1.2692    0.0000 </r>
       <r>    1.2757    0.0000 </r>
       <r>    1.4507    0.0000 </r>
       <r>    1.5187    0.0000 </r>
       <r>    1.5827    0.0000 </r>
       <r>    1.6065    0.0000 </r>
       <r>    1.6617    0.0000 </r>
       <r>    1.6850    0.0000 </r>
      </set>
      <set comment="kpoint 15">
       <r>   -9.4098    1.0000 </r>
       <r>   -3.5729    0.1668 </r>
       <r>   -3.5729    0.1667 </r>
       <r>   -3.5729    0.1663 </r>
       <r>   -0.1679    0.0000 </r>
       <r>    0.1183    0.0000 </r>
       <r>    0.4246    0.0000 </r>
       <r>    0.4658    0.0000 </r>
       <r>    0.5473    0.0000 </r>
       <r>    0.5875    0.0000 </r>
       <r>    0.6020    0.0000 </r>
       <r>    0.7410    0.0000 </r>
       <r>    1.0319    0.0000 </r>
       <r>    1.0960    0.0000 </r>
       <r>    1.1913    0.0000 </r>
       <r>    1.1973    0.0000 </r>
       <r>    1.2213    0.0000 </r>
       <r>    1.2520    0.0000 </r>
       <r>    1.3899    0.0000 </r>
       <r>    1.4620    0.0000 </r>
       <r>    1.6382    0.0000 </r>
       <r>    1.6958    0.0000 </r>
       <r>    1.7436    0.0000 </r>
       <r>    1.7686    0.0000 </r>
      </set>
      <set comment="kpoint 16">
       <r>   -9.4098    1.0000 </r>
       <r>   -3.5729    0.1667 </r>
       <r>   -3.5729    0.1667 </r>
       <r>   -3.5729    0.1666 </r>
       <r>   -0.2090    0.0000 </r>
       <r>    0.3083    0.0000 </r>
       <r>    0.3634    0.0000 </r>
       <r>    0.4000    0.0000 </r>
       <r>    0.4928    0.0000 </r>
       <r>    0.6328    0.0000 </r>
       <r>    0.8397    0.0000 </r>
       <r>    0.8599    0.0000 </r>
       <r>    0.9602    0.0000 </r>
       <r>    0.9718    0.0000 </r>
       <r>    1.0224    0.0000 </r>
       <r>    1.1046    0.0000 </r>
       <r>    1.1104    0.0000 </r>
       <r>    1.1530    0.0000 </r>
       <r>    1.2781    0.0000 </r>
       <r>    1.4640    0.0000 </r>
       <r>    1.4864    0.0000 </r>
       <r>    1.5867    0.0000 </r>
       <r>    1.6248    0.0000 </r>
       <r>    1.6976    0.0000 </r>
      </set>
      <set comment="kpoint 17">
       <r>   -9.4098    1.0000 </r>
       <r>   -3.5729    0.1667 </r>
       <r>   -3.5729    0.1667 </r>
       <r>   -3.5729    0.1666 </r>
       <r>   -0.1992    0.0000 </r>
       <r>    0.3014    0.0000 </r>
       <r>    0.3745    0.0000 </r>
       <r>    0.3849    0.0000 </r>
       <r>    0.4360    0.0000 </r>
       <r>    0.7532    0.0000 </r>
       <r>    0.8318    0.0000 </r>
       <r>    0.8345    0.0000 </r>
       <r>    0.8803    0.0000 </r>
       <r>    0.8945    0.0000 </r>
       <r>    0.9226    0.0000 </r>
       <r>    1.2241    0.0000 </r>
       <r>    1.2323    0.0000 </r>
       <r>    1.2814    0.0000 </r>
       <r>    1.2997    0.0000 </r>
       <r>    1.3583    0.0000 </r>
       <r>    1.3899    0.0000 </r>
       <r>    1.6965    0.0000 </r>
       <r>    1.7021    0.0000 </r>
       <r>    1.7498    0.0000 </r>
      </set>
      <set comment="kpoint 18">
       <r>   -9.4098    1.0000 </r>
       <r>   -3.5729    0.1667 </r>
       <r>   -3.5729    0.1667 </r>
       <r>   -3.5729    0.1666 </r>
       <r>   -0.1812    0.0000 </r>
       <r>    0.2504    0.0000 </r>
       <r>    0.3751    0.0000 </r>
       <r>    0.3958    0.0000 </r>
       <r>    0.4503    0.0000 </r>
       <r>    0.7291    0.0000 </r>
       <r>    0.7580    0.0000 </r>
       <r>    0.7973    0.0000 </r>
       <r>    0.8820    0.0000 </r>
       <r>    0.9242    0.0000 </r>
       <r>    0.9284    0.0000 </r>
       <r>    1.2429    0.0000 </r>
       <r>    1.2484    0.0000 </r>
       <r>    1.2935    0.0000 </r>
       <r>    1.3970    0.0000 </r>
       <r>    1.4216    0.0000 </r>
       <r>    1.4474    0.0000 </r>
       <r>    1.6782    0.0000 </r>
       <r>    1.7438    0.0000 </r>
       <r>    1.7444    0.0000 </r>
      </set>
      <set comment="kpoint 19">
       <r>   -9.4098    1.0000 </r>
       <r>   -3.5729    0.1667 </r>
       <r>   -3.5729    0.1667 </r>
       <r>   -3.5729    0.1666 </r>
       <r>   -0.1593    0.0000 </r>
       <r>    0.1864    0.0000 </r>
       <r>    0.3978    0.0000 </r>
       <r>    0.4243    0.0000 </r>
       <r>    0.4829    0.0000 </r>
       <r>    0.6516    0.0000 </r>
       <r>    0.6808    0.0000 </r>
       <r>    0.7151    0.0000 </r>
       <r>    0.9090    0.0000 </r>
       <r>    0.9593    0.0000 </r>
       <r>    1.0824    0.0000 </r>
       <r>    1.1673    0.0000 </r>
       <r>    1.1719    0.0000 </r>
       <r>    1.3226    0.0000 </r>
       <r>    1.5430    0.0000 </r>
       <r>    1.5464    0.0000 </r>
       <r>    1.5860    0.0000 </r>
       <r>    1.6522    0.0000 </r>
       <r>    1.6716    0.0000 </r>
       <r>    1.7712    0.0000 </r>
      </set>
      <set comment="kpoint 20">
       <r>   -9.4098    1.0000 </r>
       <r>   -3.5729    0.1667 </r>
       <r>   -3.5729    0.1667 </r>
       <r>   -3.5729    0.1667 </r>
       <r>   -0.1426    0.0000 </r>
       <r>    0.1463    0.0000 </r>
       <r>    0.4225    0.0000 </r>
       <r>    0.4498    0.0000 </r>
       <r>    0.5197    0.0000 </r>
       <r>    0.5943    0.0000 </r>
       <r>    0.6305    0.0000 </r>
       <r>    0.6585    0.0000 </r>
       <r>    0.9344    0.0000 </r>
       <r>    0.9998    0.0000 </r>
       <r>    1.0985    0.0000 </r>
       <r>    1.1166    0.0000 </r>
       <r>    1.2585    0.0000 </r>
       <r>    1.3443    0.0000 </r>
       <r>    1.4481    0.0000 </r>
       <r>    1.5826    0.0000 </r>
       <r>    1.6901    0.0000 </r>
       <r>    1.7252    0.0000 </r>
       <r>    1.7759    0.0000 </r>
       <r>    1.8055    0.0000 </r>
      </set>
      <set comment="kpoint 21">
       <r>   -9.4098    1.0000 </r>
       <r>   -3.5730    0.1670 </r>
       <r>   -3.5729    0.1666 </r>
       <r>   -3.5729    0.1666 </r>
       <r>   -0.1767    0.0000 </r>
       <r>    0.2436    0.0000 </r>
       <r>    0.3976    0.0000 </r>
       <r>    0.4145    0.0000 </r>
       <r>    0.5264    0.0000 </r>
       <r>    0.6687    0.0000 </r>
       <r>    0.7524    0.0000 </r>
       <r>    0.7638    0.0000 </r>
       <r>    0.8835    0.0000 </r>
       <r>    1.0042    0.0000 </r>
       <r>    1.0251    0.0000 </r>
       <r>    1.0519    0.0000 </r>
       <r>    1.1380    0.0000 </r>
       <r>    1.1831    0.0000 </r>
       <r>    1.3747    0.0000 </r>
       <r>    1.3779    0.0000 </r>
       <r>    1.4394    0.0000 </r>
       <r>    1.5001    0.0000 </r>
       <r>    1.5434    0.0000 </r>
       <r>    1.7345    0.0000 </r>
      </set>
      <set comment="kpoint 22">
       <r>   -9.4098    1.0000 </r>
       <r>   -3.5730    0.1670 </r>
       <r>   -3.5729    0.1666 </r>
       <r>   -3.5729    0.1666 </r>
       <r>   -0.1671    0.0000 </r>
       <r>    0.2525    0.0000 </r>
       <r>    0.3850    0.0000 </r>
       <r>    0.4086    0.0000 </r>
       <r>    0.4696    0.0000 </r>
       <r>    0.7293    0.0000 </r>
       <r>    0.7627    0.0000 </r>
       <r>    0.7971    0.0000 </r>
       <r>    0.8253    0.0000 </r>
       <r>    0.8978    0.0000 </r>
       <r>    0.9364    0.0000 </r>
       <r>    1.1501    0.0000 </r>
       <r>    1.2341    0.0000 </r>
       <r>    1.2768    0.0000 </r>
       <r>    1.2987    0.0000 </r>
       <r>    1.3241    0.0000 </r>
       <r>    1.4535    0.0000 </r>
       <r>    1.6368    0.0000 </r>
       <r>    1.6711    0.0000 </r>
       <r>    1.7419    0.0000 </r>
      </set>
      <set comment="kpoint 23">
       <r>   -9.4098    1.0000 </r>
       <r>   -3.5730    0.1670 </r>
       <r>   -3.5729    0.1666 </r>
       <r>   -3.5729    0.1666 </r>
       <r>   -0.1494    0.0000 </r>
       <r>    0.2590    0.0000 </r>
       <r>    0.3218    0.0000 </r>
       <r>    0.4296    0.0000 </r>
       <r>    0.4804    0.0000 </r>
       <r>    0.6528    0.0000 </r>
       <r>    0.7722    0.0000 </r>
       <r>    0.8144    0.0000 </r>
       <r>    0.8183    0.0000 </r>
       <r>    0.8309    0.0000 </r>
       <r>    0.9611    0.0000 </r>
       <r>    1.1540    0.0000 </r>
       <r>    1.1596    0.0000 </r>
       <r>    1.3121    0.0000 </r>
       <r>    1.4268    0.0000 </r>
       <r>    1.4527    0.0000 </r>
       <r>    1.5002    0.0000 </r>
       <r>    1.7359    0.0000 </r>
       <r>    1.7750    0.0000 </r>
       <r>    1.8220    0.0000 </r>
      </set>
      <set comment="kpoint 24">
       <r>   -9.4098    1.0000 </r>
       <r>   -3.5730    0.1670 </r>
       <r>   -3.5729    0.1667 </r>
       <r>   -3.5729    0.1666 </r>
       <r>   -0.1279    0.0000 </r>
       <r>    0.2201    0.0000 </r>
       <r>    0.3199    0.0000 </r>
       <r>    0.4574    0.0000 </r>
       <r>    0.5132    0.0000 </r>
       <r>    0.5780    0.0000 </r>
       <r>    0.7161    0.0000 </r>
       <r>    0.7338    0.0000 </r>
       <r>    0.8220    0.0000 </r>
       <r>    0.8639    0.0000 </r>
       <r>    1.0657    0.0000 </r>
       <r>    1.0741    0.0000 </r>
       <r>    1.1298    0.0000 </r>
       <r>    1.4413    0.0000 </r>
       <r>    1.5094    0.0000 </r>
       <r>    1.5793    0.0000 </r>
       <r>    1.6400    0.0000 </r>
       <r>    1.6729    0.0000 </r>
       <r>    1.8048    0.0000 </r>
       <r>    1.8364    0.0000 </r>
      </set>
      <set comment="kpoint 25">
       <r>   -9.4098    1.0000 </r>
       <r>   -3.5730    0.1670 </r>
       <r>   -3.5729    0.1667 </r>
       <r>   -3.5729    0.1666 </r>
       <r>   -0.1117    0.0000 </r>
       <r>    0.1830    0.0000 </r>
       <r>    0.3410    0.0000 </r>
       <r>    0.4820    0.0000 </r>
       <r>    0.5264    0.0000 </r>
       <r>    0.5539    0.0000 </r>
       <r>    0.6679    0.0000 </r>
       <r>    0.6687    0.0000 </r>
       <r>    0.8475    0.0000 </r>
       <r>    0.9048    0.0000 </r>
       <r>    1.0047    0.0000 </r>
       <r>    1.0216    0.0000 </r>
       <r>    1.2941    0.0000 </r>
       <r>    1.4574    0.0000 </r>
       <r>    1.5147    0.0000 </r>
       <r>    1.6466    0.0000 </r>
       <r>    1.7245    0.0000 </r>
       <r>    1.7413    0.0000 </r>
       <r>    1.8177    0.0000 </r>
       <r>    1.8375    0.0000 </r>
      </set>
      <set comment="kpoint 26">
       <r>   -9.4098    1.0000 </r>
       <r>   -3.5730    0.1673 </r>
       <r>   -3.5729    0.1666 </r>
       <r>   -3.5729    0.1666 </r>
       <r>   -0.1425    0.0000 </r>
       <r>    0.1762    0.0000 </r>
       <r>    0.4373    0.0000 </r>
       <r>    0.4570    0.0000 </r>
       <r>    0.5648    0.0000 </r>
       <r>    0.6764    0.0000 </r>
       <r>    0.6773    0.0000 </r>
       <r>    0.7115    0.0000 </r>
       <r>    0.8104    0.0000 </r>
       <r>    0.9475    0.0000 </r>
       <r>    1.0422    0.0000 </r>
       <r>    1.0958    0.0000 </r>
       <r>    1.1773    0.0000 </r>
       <r>    1.2298    0.0000 </r>
       <r>    1.2983    0.0000 </r>
       <r>    1.3027    0.0000 </r>
       <r>    1.4241    0.0000 </r>
       <r>    1.4332    0.0000 </r>
       <r>    1.6106    0.0000 </r>
       <r>    1.7798    0.0000 </r>
      </set>
      <set comment="kpoint 27">
       <r>   -9.4098    1.0000 </r>
       <r>   -3.5730    0.1673 </r>
       <r>   -3.5729    0.1666 </r>
       <r>   -3.5729    0.1666 </r>
       <r>   -0.1331    0.0000 </r>
       <r>    0.1873    0.0000 </r>
       <r>    0.4226    0.0000 </r>
       <r>    0.4479    0.0000 </r>
       <r>    0.5127    0.0000 </r>
       <r>    0.6522    0.0000 </r>
       <r>    0.6880    0.0000 </r>
       <r>    0.7390    0.0000 </r>
       <r>    0.8377    0.0000 </r>
       <r>    0.9369    0.0000 </r>
       <r>    0.9835    0.0000 </r>
       <r>    1.0753    0.0000 </r>
       <r>    1.1723    0.0000 </r>
       <r>    1.1931    0.0000 </r>
       <r>    1.3204    0.0000 </r>
       <r>    1.3714    0.0000 </r>
       <r>    1.5571    0.0000 </r>
       <r>    1.5633    0.0000 </r>
       <r>    1.6349    0.0000 </r>
       <r>    1.7852    0.0000 </r>
      </set>
      <set comment="kpoint 28">
       <r>   -9.4098    1.0000 </r>
       <r>   -3.5730    0.1673 </r>
       <r>   -3.5729    0.1666 </r>
       <r>   -3.5729    0.1666 </r>
       <r>   -0.1159    0.0000 </r>
       <r>    0.2082    0.0000 </r>
       <r>    0.3452    0.0000 </r>
       <r>    0.4683    0.0000 </r>
       <r>    0.5243    0.0000 </r>
       <r>    0.5759    0.0000 </r>
       <r>    0.7099    0.0000 </r>
       <r>    0.7456    0.0000 </r>
       <r>    0.8429    0.0000 </r>
       <r>    0.8613    0.0000 </r>
       <r>    1.0003    0.0000 </r>
       <r>    1.0750    0.0000 </r>
       <r>    1.0801    0.0000 </r>
       <r>    1.2393    0.0000 </r>
       <r>    1.4633    0.0000 </r>
       <r>    1.5207    0.0000 </r>
       <r>    1.6189    0.0000 </r>
       <r>    1.7123    0.0000 </r>
       <r>    1.7398    0.0000 </r>
       <r>    1.7850    0.0000 </r>
      </set>
      <set comment="kpoint 29">
       <r>   -9.4098    1.0000 </r>
       <r>   -3.5730    0.1673 </r>
       <r>   -3.5729    0.1667 </r>
       <r>   -3.5729    0.1666 </r>
       <r>   -0.0953    0.0000 </r>
       <r>    0.2323    0.0000 </r>
       <r>    0.2816    0.0000 </r>
       <r>    0.4951    0.0000 </r>
       <r>    0.4980    0.0000 </r>
       <r>    0.5601    0.0000 </r>
       <r>    0.7353    0.0000 </r>
       <r>    0.7716    0.0000 </r>
       <r>    0.7764    0.0000 </r>
       <r>    0.7797    0.0000 </r>
       <r>    0.9866    0.0000 </r>
       <r>    0.9927    0.0000 </r>
       <r>    1.1645    0.0000 </r>
       <r>    1.3974    0.0000 </r>
       <r>    1.6152    0.0000 </r>
       <r>    1.6167    0.0000 </r>
       <r>    1.6863    0.0000 </r>
       <r>    1.7132    0.0000 </r>
       <r>    1.8526    0.0000 </r>
       <r>    1.8869    0.0000 </r>
      </set>
      <set comment="kpoint 30">
       <r>   -9.4098    1.0000 </r>
       <r>   -3.5730    0.1673 </r>
       <r>   -3.5729    0.1667 </r>
       <r>   -3.5729    0.1666 </r>
       <r>   -0.0799    0.0000 </r>
       <r>    0.2264    0.0000 </r>
       <r>    0.2736    0.0000 </r>
       <r>    0.4480    0.0000 </r>
       <r>    0.5181    0.0000 </r>
       <r>    0.5990    0.0000 </r>
       <r>    0.7118    0.0000 </r>
       <r>    0.7126    0.0000 </r>
       <r>    0.7751    0.0000 </r>
       <r>    0.8195    0.0000 </r>
       <r>    0.9203    0.0000 </r>
       <r>    0.9379    0.0000 </r>
       <r>    1.3321    0.0000 </r>
       <r>    1.5037    0.0000 </r>
       <r>    1.5837    0.0000 </r>
       <r>    1.6419    0.0000 </r>
       <r>    1.7546    0.0000 </r>
       <r>    1.7570    0.0000 </r>
       <r>    1.8791    0.0000 </r>
       <r>    1.8839    0.0000 </r>
      </set>
      <set comment="kpoint 31">
       <r>   -9.4098    1.0000 </r>
       <r>   -3.5730    0.1675 </r>
       <r>   -3.5729    0.1666 </r>
       <r>   -3.5729    0.1666 </r>
       <r>   -0.1172    0.0000 </r>
       <r>    0.1332    0.0000 </r>
       <r>    0.4724    0.0000 </r>
       <r>    0.5051    0.0000 </r>
       <r>    0.5973    0.0000 </r>
       <r>    0.6094    0.0000 </r>
       <r>    0.6229    0.0000 </r>
       <r>    0.7478    0.0000 </r>
       <r>    0.7621    0.0000 </r>
       <r>    0.8895    0.0000 </r>
       <r>    1.0746    0.0000 </r>
       <r>    1.1479    0.0000 </r>
       <r>    1.2140    0.0000 </r>
       <r>    1.2306    0.0000 </r>
       <r>    1.2441    0.0000 </r>
       <r>    1.2851    0.0000 </r>
       <r>    1.3641    0.0000 </r>
       <r>    1.3716    0.0000 </r>
       <r>    1.7157    0.0000 </r>
       <r>    1.8574    0.0000 </r>
      </set>
      <set comment="kpoint 32">
       <r>   -9.4098    1.0000 </r>
       <r>   -3.5730    0.1675 </r>
       <r>   -3.5729    0.1666 </r>
       <r>   -3.5729    0.1666 </r>
       <r>   -0.1080    0.0000 </r>
       <r>    0.1449    0.0000 </r>
       <r>    0.4627    0.0000 </r>
       <r>    0.4826    0.0000 </r>
       <r>    0.5561    0.0000 </r>
       <r>    0.5909    0.0000 </r>
       <r>    0.6351    0.0000 </r>
       <r>    0.6784    0.0000 </r>
       <r>    0.8717    0.0000 </r>
       <r>    0.9732    0.0000 </r>
       <r>    1.0218    0.0000 </r>
       <r>    1.0384    0.0000 </r>
       <r>    1.1190    0.0000 </r>
       <r>    1.1196    0.0000 </r>
       <r>    1.3513    0.0000 </r>
       <r>    1.4244    0.0000 </r>
       <r>    1.5042    0.0000 </r>
       <r>    1.5121    0.0000 </r>
       <r>    1.7236    0.0000 </r>
       <r>    1.8577    0.0000 </r>
      </set>
      <set comment="kpoint 33">
       <r>   -9.4098    1.0000 </r>
       <r>   -3.5730    0.1675 </r>
       <r>   -3.5729    0.1666 </r>
       <r>   -3.5729    0.1666 </r>
       <r>   -0.0915    0.0000 </r>
       <r>    0.1676    0.0000 </r>
       <r>    0.3822    0.0000 </r>
       <r>    0.5020    0.0000 </r>
       <r>    0.5157    0.0000 </r>
       <r>    0.5744    0.0000 </r>
       <r>    0.6589    0.0000 </r>
       <r>    0.6781    0.0000 </r>
       <r>    0.8807    0.0000 </r>
       <r>    0.9075    0.0000 </r>
       <r>    1.0012    0.0000 </r>
       <r>    1.0173    0.0000 </r>
       <r>    1.0523    0.0000 </r>
       <r>    1.1831    0.0000 </r>
       <r>    1.4944    0.0000 </r>
       <r>    1.5741    0.0000 </r>
       <r>    1.6531    0.0000 </r>
       <r>    1.6646    0.0000 </r>
       <r>    1.7415    0.0000 </r>
       <r>    1.8320    0.0000 </r>
      </set>
      <set comment="kpoint 34">
       <r>   -9.4098    1.0000 </r>
       <r>   -3.5730    0.1675 </r>
       <r>   -3.5729    0.1666 </r>
       <r>   -3.5729    0.1666 </r>
       <r>   -0.0718    0.0000 </r>
       <r>    0.1989    0.0000 </r>
       <r>    0.3140    0.0000 </r>
       <r>    0.4391    0.0000 </r>
       <r>    0.5271    0.0000 </r>
       <r>    0.6085    0.0000 </r>
       <r>    0.6920    0.0000 </r>
       <r>    0.7099    0.0000 </r>
       <r>    0.8062    0.0000 </r>
       <r>    0.8272    0.0000 </r>
       <r>    0.9180    0.0000 </r>
       <r>    0.9320    0.0000 </r>
       <r>    1.1990    0.0000 </r>
       <r>    1.3472    0.0000 </r>
       <r>    1.6440    0.0000 </r>
       <r>    1.6996    0.0000 </r>
       <r>    1.7130    0.0000 </r>
       <r>    1.7756    0.0000 </r>
       <r>    1.8199    0.0000 </r>
       <r>    1.8304    0.0000 </r>
      </set>
      <set comment="kpoint 35">
       <r>   -9.4098    1.0000 </r>
       <r>   -3.5730    0.1675 </r>
       <r>   -3.5729    0.1667 </r>
       <r>   -3.5729    0.1666 </r>
       <r>   -0.0573    0.0000 </r>
       <r>    0.2295    0.0000 </r>
       <r>    0.2734    0.0000 </r>
       <r>    0.3856    0.0000 </r>
       <r>    0.5480    0.0000 </r>
       <r>    0.6482    0.0000 </r>
       <r>    0.7252    0.0000 </r>
       <r>    0.7504    0.0000 </r>
       <r>    0.7597    0.0000 </r>
       <r>    0.7619    0.0000 </r>
       <r>    0.8505    0.0000 </r>
       <r>    0.8733    0.0000 </r>
       <r>    1.3636    0.0000 </r>
       <r>    1.5163    0.0000 </r>
       <r>    1.5561    0.0000 </r>
       <r>    1.7202    0.0000 </r>
       <r>    1.7343    0.0000 </r>
       <r>    1.7804    0.0000 </r>
       <r>    1.9238    0.0000 </r>
       <r>    1.9309    0.0000 </r>
      </set>
      <set comment="kpoint 36">
       <r>   -9.4098    1.0000 </r>
       <r>   -3.5729    0.1667 </r>
       <r>   -3.5729    0.1667 </r>
       <r>   -3.5728    0.1659 </r>
       <r>   -0.2591    0.0000 </r>
       <r>    0.2178    0.0000 </r>
       <r>    0.3889    0.0000 </r>
       <r>    0.4532    0.0000 </r>
       <r>    0.5814    0.0000 </r>
       <r>    0.6914    0.0000 </r>
       <r>    0.8327    0.0000 </r>
       <r>    0.8389    0.0000 </r>
       <r>    0.9668    0.0000 </r>
       <r>    1.0313    0.0000 </r>
       <r>    1.1062    0.0000 </r>
       <r>    1.1656    0.0000 </r>
       <r>    1.2559    0.0000 </r>
       <r>    1.2723    0.0000 </r>
       <r>    1.3144    0.0000 </r>
       <r>    1.4168    0.0000 </r>
       <r>    1.4413    0.0000 </r>
       <r>    1.5000    0.0000 </r>
       <r>    1.5221    0.0000 </r>
       <r>    1.6295    0.0000 </r>
      </set>
      <set comment="kpoint 37">
       <r>   -9.4098    1.0000 </r>
       <r>   -3.5729    0.1667 </r>
       <r>   -3.5729    0.1667 </r>
       <r>   -3.5728    0.1659 </r>
       <r>   -0.2493    0.0000 </r>
       <r>    0.2233    0.0000 </r>
       <r>    0.3194    0.0000 </r>
       <r>    0.4392    0.0000 </r>
       <r>    0.6934    0.0000 </r>
       <r>    0.7071    0.0000 </r>
       <r>    0.7342    0.0000 </r>
       <r>    0.8453    0.0000 </r>
       <r>    0.9210    0.0000 </r>
       <r>    1.0948    0.0000 </r>
       <r>    1.1226    0.0000 </r>
       <r>    1.1943    0.0000 </r>
       <r>    1.2502    0.0000 </r>
       <r>    1.3011    0.0000 </r>
       <r>    1.3381    0.0000 </r>
       <r>    1.3501    0.0000 </r>
       <r>    1.4645    0.0000 </r>
       <r>    1.5028    0.0000 </r>
       <r>    1.5898    0.0000 </r>
       <r>    1.6351    0.0000 </r>
      </set>
      <set comment="kpoint 38">
       <r>   -9.4098    1.0000 </r>
       <r>   -3.5729    0.1667 </r>
       <r>   -3.5729    0.1667 </r>
       <r>   -3.5728    0.1659 </r>
       <r>   -0.2311    0.0000 </r>
       <r>    0.1975    0.0000 </r>
       <r>    0.2790    0.0000 </r>
       <r>    0.4591    0.0000 </r>
       <r>    0.6209    0.0000 </r>
       <r>    0.7192    0.0000 </r>
       <r>    0.8048    0.0000 </r>
       <r>    0.8638    0.0000 </r>
       <r>    0.8803    0.0000 </r>
       <r>    1.0919    0.0000 </r>
       <r>    1.1467    0.0000 </r>
       <r>    1.2356    0.0000 </r>
       <r>    1.2465    0.0000 </r>
       <r>    1.3055    0.0000 </r>
       <r>    1.3491    0.0000 </r>
       <r>    1.4579    0.0000 </r>
       <r>    1.4951    0.0000 </r>
       <r>    1.5181    0.0000 </r>
       <r>    1.5278    0.0000 </r>
       <r>    1.6441    0.0000 </r>
      </set>
      <set comment="kpoint 39">
       <r>   -9.4098    1.0000 </r>
       <r>   -3.5729    0.1668 </r>
       <r>   -3.5729    0.1667 </r>
       <r>   -3.5728    0.1659 </r>
       <r>   -0.2090    0.0000 </r>
       <r>    0.1355    0.0000 </r>
       <r>    0.3016    0.0000 </r>
       <r>    0.4881    0.0000 </r>
       <r>    0.5396    0.0000 </r>
       <r>    0.7294    0.0000 </r>
       <r>    0.7441    0.0000 </r>
       <r>    0.8926    0.0000 </r>
       <r>    1.0070    0.0000 </r>
       <r>    1.0463    0.0000 </r>
       <r>    1.1700    0.0000 </r>
       <r>    1.1764    0.0000 </r>
       <r>    1.3043    0.0000 </r>
       <r>    1.3675    0.0000 </r>
       <r>    1.4080    0.0000 </r>
       <r>    1.4671    0.0000 </r>
       <r>    1.5018    0.0000 </r>
       <r>    1.5393    0.0000 </r>
       <r>    1.5730    0.0000 </r>
       <r>    1.6102    0.0000 </r>
      </set>
      <set comment="kpoint 40">
       <r>   -9.4098    1.0000 </r>
       <r>   -3.5729    0.1668 </r>
       <r>   -3.5729    0.1667 </r>
       <r>   -3.5728    0.1659 </r>
       <r>   -0.1920    0.0000 </r>
       <r>    0.0950    0.0000 </r>
       <r>    0.3321    0.0000 </r>
       <r>    0.4727    0.0000 </r>
       <r>    0.5287    0.0000 </r>
       <r>    0.6721    0.0000 </r>
       <r>    0.7641    0.0000 </r>
       <r>    0.9173    0.0000 </r>
       <r>    0.9771    0.0000 </r>
       <r>    1.1076    0.0000 </r>
       <r>    1.1958    0.0000 </r>
       <r>    1.2210    0.0000 </r>
       <r>    1.3297    0.0000 </r>
       <r>    1.3699    0.0000 </r>
       <r>    1.4061    0.0000 </r>
       <r>    1.4296    0.0000 </r>
       <r>    1.4829    0.0000 </r>
       <r>    1.5433    0.0000 </r>
       <r>    1.5687    0.0000 </r>
       <r>    1.6144    0.0000 </r>
      </set>
      <set comment="kpoint 41">
       <r>   -9.4098    1.0000 </r>
       <r>   -3.5729    0.1667 </r>
       <r>   -3.5729    0.1666 </r>
       <r>   -3.5728    0.1660 </r>
       <r>   -0.2500    0.0000 </r>
       <r>    0.2269    0.0000 </r>
       <r>    0.3964    0.0000 </r>
       <r>    0.4620    0.0000 </r>
       <r>    0.5690    0.0000 </r>
       <r>    0.5980    0.0000 </r>
       <r>    0.8459    0.0000 </r>
       <r>    0.9516    0.0000 </r>
       <r>    0.9754    0.0000 </r>
       <r>    1.0019    0.0000 </r>
       <r>    1.0435    0.0000 </r>
       <r>    1.1649    0.0000 </r>
       <r>    1.1701    0.0000 </r>
       <r>    1.2108    0.0000 </r>
       <r>    1.3365    0.0000 </r>
       <r>    1.3982    0.0000 </r>
       <r>    1.4950    0.0000 </r>
       <r>    1.5725    0.0000 </r>
       <r>    1.5913    0.0000 </r>
       <r>    1.6314    0.0000 </r>
      </set>
      <set comment="kpoint 42">
       <r>   -9.4098    1.0000 </r>
       <r>   -3.5729    0.1667 </r>
       <r>   -3.5729    0.1667 </r>
       <r>   -3.5728    0.1660 </r>
       <r>   -0.2401    0.0000 </r>
       <r>    0.2323    0.0000 </r>
       <r>    0.3283    0.0000 </r>
       <r>    0.4472    0.0000 </r>
       <r>    0.5842    0.0000 </r>
       <r>    0.7103    0.0000 </r>
       <r>    0.7435    0.0000 </r>
       <r>    0.9277    0.0000 </r>
       <r>    0.9662    0.0000 </r>
       <r>    1.0067    0.0000 </r>
       <r>    1.0752    0.0000 </r>
       <r>    1.1273    0.0000 </r>
       <r>    1.2009    0.0000 </r>
       <r>    1.3111    0.0000 </r>
       <r>    1.4052    0.0000 </r>
       <r>    1.4147    0.0000 </r>
       <r>    1.4986    0.0000 </r>
       <r>    1.5163    0.0000 </r>
       <r>    1.5364    0.0000 </r>
       <r>    1.6099    0.0000 </r>
      </set>
      <set comment="kpoint 43">
       <r>   -9.4098    1.0000 </r>
       <r>   -3.5729    0.1667 </r>
       <r>   -3.5729    0.1667 </r>
       <r>   -3.5728    0.1660 </r>
       <r>   -0.2220    0.0000 </r>
       <r>    0.2066    0.0000 </r>
       <r>    0.2881    0.0000 </r>
       <r>    0.4669    0.0000 </r>
       <r>    0.6043    0.0000 </r>
       <r>    0.6304    0.0000 </r>
       <r>    0.8128    0.0000 </r>
       <r>    0.8861    0.0000 </r>
       <r>    0.9661    0.0000 </r>
       <r>    1.0085    0.0000 </r>
       <r>    1.0343    0.0000 </r>
       <r>    1.2197    0.0000 </r>
       <r>    1.2665    0.0000 </r>
       <r>    1.3497    0.0000 </r>
       <r>    1.4147    0.0000 </r>
       <r>    1.4191    0.0000 </r>
       <r>    1.4841    0.0000 </r>
       <r>    1.5373    0.0000 </r>
       <r>    1.5821    0.0000 </r>
       <r>    1.6033    0.0000 </r>
      </set>
      <set comment="kpoint 44">
       <r>   -9.4098    1.0000 </r>
       <r>   -3.5729    0.1668 </r>
       <r>   -3.5729    0.1667 </r>
       <r>   -3.5728    0.1660 </r>
       <r>   -0.1999    0.0000 </r>
       <r>    0.1448    0.0000 </r>
       <r>    0.3106    0.0000 </r>
       <r>    0.4959    0.0000 </r>
       <r>    0.5486    0.0000 </r>
       <r>    0.6310    0.0000 </r>
       <r>    0.7377    0.0000 </r>
       <r>    0.9002    0.0000 </r>
       <r>    1.0209    0.0000 </r>
       <r>    1.0447    0.0000 </r>
       <r>    1.0637    0.0000 </r>
       <r>    1.2444    0.0000 </r>
       <r>    1.2864    0.0000 </r>
       <r>    1.3223    0.0000 </r>
       <r>    1.4187    0.0000 </r>
       <r>    1.4768    0.0000 </r>
       <r>    1.4943    0.0000 </r>
       <r>    1.5572    0.0000 </r>
       <r>    1.6057    0.0000 </r>
       <r>    1.6551    0.0000 </r>
      </set>
      <set comment="kpoint 45">
       <r>   -9.4098    1.0000 </r>
       <r>   -3.5729    0.1668 </r>
       <r>   -3.5729    0.1667 </r>
       <r>   -3.5728    0.1660 </r>
       <r>   -0.1830    0.0000 </r>
       <r>    0.1044    0.0000 </r>
       <r>    0.3411    0.0000 </r>
       <r>    0.4820    0.0000 </r>
       <r>    0.5362    0.0000 </r>
       <r>    0.6532    0.0000 </r>
       <r>    0.6806    0.0000 </r>
       <r>    0.8569    0.0000 </r>
       <r>    1.0407    0.0000 </r>
       <r>    1.0911    0.0000 </r>
       <r>    1.2020    0.0000 </r>
       <r>    1.2251    0.0000 </r>
       <r>    1.2646    0.0000 </r>
       <r>    1.3135    0.0000 </r>
       <r>    1.4174    0.0000 </r>
       <r>    1.4330    0.0000 </r>
       <r>    1.4889    0.0000 </r>
       <r>    1.5855    0.0000 </r>
       <r>    1.6039    0.0000 </r>
       <r>    1.6625    0.0000 </r>
      </set>
      <set comment="kpoint 46">
       <r>   -9.4098    1.0000 </r>
       <r>   -3.5729    0.1667 </r>
       <r>   -3.5729    0.1666 </r>
       <r>   -3.5729    0.1663 </r>
       <r>   -0.2320    0.0000 </r>
       <r>    0.2443    0.0000 </r>
       <r>    0.4032    0.0000 </r>
       <r>    0.4719    0.0000 </r>
       <r>    0.4833    0.0000 </r>
       <r>    0.6119    0.0000 </r>
       <r>    0.8514    0.0000 </r>
       <r>    0.8825    0.0000 </r>
       <r>    0.9961    0.0000 </r>
       <r>    1.0269    0.0000 </r>
       <r>    1.0666    0.0000 </r>
       <r>    1.0970    0.0000 </r>
       <r>    1.1295    0.0000 </r>
       <r>    1.2031    0.0000 </r>
       <r>    1.2375    0.0000 </r>
       <r>    1.4794    0.0000 </r>
       <r>    1.5086    0.0000 </r>
       <r>    1.5542    0.0000 </r>
       <r>    1.6251    0.0000 </r>
       <r>    1.6676    0.0000 </r>
      </set>
      <set comment="kpoint 47">
       <r>   -9.4098    1.0000 </r>
       <r>   -3.5729    0.1667 </r>
       <r>   -3.5729    0.1667 </r>
       <r>   -3.5729    0.1663 </r>
       <r>   -0.2222    0.0000 </r>
       <r>    0.2495    0.0000 </r>
       <r>    0.3453    0.0000 </r>
       <r>    0.4502    0.0000 </r>
[...]
       <r>    1.0350    0.0000 </r>
       <r>    1.0727    0.0000 </r>
       <r>    1.1387    0.0000 </r>
       <r>    1.1611    0.0000 </r>
       <r>    1.2843    0.0000 </r>
       <r>    1.5694    0.0000 </r>
       <r>    1.6862    0.0000 </r>
       <r>    1.7195    0.0000 </r>
       <r>    1.7667    0.0000 </r>
      </set>
      <set comment="kpoint 172">
       <r>   -9.4098    1.0000 </r>
       <r>   -3.5730    0.1675 </r>
       <r>   -3.5729    0.1666 </r>
       <r>   -3.5729    0.1666 </r>
       <r>   -0.0845    0.0000 </r>
       <r>    0.1974    0.0000 </r>
       <r>    0.2656    0.0000 </r>
       <r>    0.3643    0.0000 </r>
       <r>    0.5253    0.0000 </r>
       <r>    0.6870    0.0000 </r>
       <r>    0.7330    0.0000 </r>
       <r>    0.8321    0.0000 </r>
       <r>    0.9174    0.0000 </r>
       <r>    0.9877    0.0000 </r>
       <r>    1.0572    0.0000 </r>
       <r>    1.1108    0.0000 </r>
       <r>    1.1332    0.0000 </r>
       <r>    1.1914    0.0000 </r>
       <r>    1.2343    0.0000 </r>
       <r>    1.3072    0.0000 </r>
       <r>    1.4756    0.0000 </r>
       <r>    1.6052    0.0000 </r>
       <r>    1.6324    0.0000 </r>
       <r>    1.7520    0.0000 </r>
      </set>
      <set comment="kpoint 173">
       <r>   -9.4098    1.0000 </r>
       <r>   -3.5730    0.1675 </r>
       <r>   -3.5729    0.1666 </r>
       <r>   -3.5729    0.1666 </r>
       <r>   -0.0689    0.0000 </r>
       <r>    0.2186    0.0000 </r>
       <r>    0.2896    0.0000 </r>
       <r>    0.3899    0.0000 </r>
       <r>    0.4355    0.0000 </r>
       <r>    0.5902    0.0000 </r>
       <r>    0.6342    0.0000 </r>
       <r>    0.7286    0.0000 </r>
       <r>    1.0142    0.0000 </r>
       <r>    1.0614    0.0000 </r>
       <r>    1.1382    0.0000 </r>
       <r>    1.1597    0.0000 </r>
       <r>    1.2243    0.0000 </r>
       <r>    1.2984    0.0000 </r>
       <r>    1.3123    0.0000 </r>
       <r>    1.3882    0.0000 </r>
       <r>    1.4196    0.0000 </r>
       <r>    1.5072    0.0000 </r>
       <r>    1.5463    0.0000 </r>
       <r>    1.6575    0.0000 </r>
      </set>
      <set comment="kpoint 174">
       <r>   -9.4098    1.0000 </r>
       <r>   -3.5730    0.1675 </r>
       <r>   -3.5729    0.1666 </r>
       <r>   -3.5729    0.1666 </r>
       <r>   -0.0507    0.0000 </r>
       <r>    0.2469    0.0000 </r>
       <r>    0.3231    0.0000 </r>
       <r>    0.3668    0.0000 </r>
       <r>    0.4271    0.0000 </r>
       <r>    0.5118    0.0000 </r>
       <r>    0.5496    0.0000 </r>
       <r>    0.6385    0.0000 </r>
       <r>    1.0454    0.0000 </r>
       <r>    1.1752    0.0000 </r>
       <r>    1.1837    0.0000 </r>
       <r>    1.2197    0.0000 </r>
       <r>    1.2996    0.0000 </r>
       <r>    1.3203    0.0000 </r>
       <r>    1.3990    0.0000 </r>
       <r>    1.4254    0.0000 </r>
       <r>    1.4545    0.0000 </r>
       <r>    1.5078    0.0000 </r>
       <r>    1.5709    0.0000 </r>
       <r>    1.5878    0.0000 </r>
      </set>
      <set comment="kpoint 175">
       <r>   -9.4098    1.0000 </r>
       <r>   -3.5730    0.1675 </r>
       <r>   -3.5729    0.1667 </r>
       <r>   -3.5729    0.1666 </r>
       <r>   -0.0376    0.0000 </r>
       <r>    0.2723    0.0000 </r>
       <r>    0.3260    0.0000 </r>
       <r>    0.3596    0.0000 </r>
       <r>    0.4558    0.0000 </r>
       <r>    0.4757    0.0000 </r>
       <r>    0.4907    0.0000 </r>
       <r>    0.5676    0.0000 </r>
       <r>    1.0730    0.0000 </r>
       <r>    1.2089    0.0000 </r>
       <r>    1.2167    0.0000 </r>
       <r>    1.2325    0.0000 </r>
       <r>    1.3434    0.0000 </r>
       <r>    1.3653    0.0000 </r>
       <r>    1.3778    0.0000 </r>
       <r>    1.4444    0.0000 </r>
       <r>    1.4978    0.0000 </r>
       <r>    1.5807    0.0000 </r>
       <r>    1.6093    0.0000 </r>
       <r>    1.6698    0.0000 </r>
      </set>
     </set>
    </set>
   </array>
  </eigenvalues>
  <separator name="orbital magnetization" >
   <v name="MAGDIPOLOUT">      0.00000000      0.00000000      0.00000000</v>
  </separator>
  <dos>
   <i name="efermi">     -3.60710741 </i>
   <total>
    <array>
     <dimension dim="1">gridpoints</dimension>
     <dimension dim="2">spin</dimension>
     <field>energy</field>
     <field>total</field>
     <field>integrated</field>
     <set>
      <set comment="spin 1">
       <r>    -9.9768     0.0000     0.0000 </r>
       <r>    -9.9353     0.0000     0.0000 </r>
       <r>    -9.8937     0.0000     0.0000 </r>
       <r>    -9.8521     0.0000     0.0000 </r>
       <r>    -9.8105     0.0000     0.0000 </r>
       <r>    -9.7689     0.0000     0.0000 </r>
       <r>    -9.7274     0.0000     0.0000 </r>
       <r>    -9.6858     0.0000     0.0000 </r>
       <r>    -9.6442     0.0000     0.0000 </r>
       <r>    -9.6026     0.0000     0.0000 </r>
       <r>    -9.5610     0.0005     0.0000 </r>
       <r>    -9.5194     0.0460     0.0019 </r>
       <r>    -9.4779     1.2589     0.0543 </r>
       <r>    -9.4363     9.6171     0.4542 </r>
       <r>    -9.3947    21.0888     1.3311 </r>
       <r>    -9.3531    13.4704     1.8912 </r>
       <r>    -9.3115     2.4847     1.9946 </r>
       <r>    -9.2699     0.1289     1.9999 </r>
       <r>    -9.2284     0.0018     2.0000 </r>
       <r>    -9.1868     0.0000     2.0000 </r>
       <r>    -9.1452     0.0000     2.0000 </r>
       <r>    -9.1036     0.0000     2.0000 </r>
       <r>    -9.0620     0.0000     2.0000 </r>
       <r>    -9.0205     0.0000     2.0000 </r>
       <r>    -8.9789     0.0000     2.0000 </r>
       <r>    -8.9373     0.0000     2.0000 </r>
       <r>    -8.8957     0.0000     2.0000 </r>
       <r>    -8.8541     0.0000     2.0000 </r>
       <r>    -8.8125     0.0000     2.0000 </r>
       <r>    -8.7710     0.0000     2.0000 </r>
       <r>    -8.7294     0.0000     2.0000 </r>
       <r>    -8.6878     0.0000     2.0000 </r>
       <r>    -8.6462     0.0000     2.0000 </r>
       <r>    -8.6046     0.0000     2.0000 </r>
       <r>    -8.5630     0.0000     2.0000 </r>
       <r>    -8.5215     0.0000     2.0000 </r>
       <r>    -8.4799     0.0000     2.0000 </r>
       <r>    -8.4383     0.0000     2.0000 </r>
       <r>    -8.3967     0.0000     2.0000 </r>
       <r>    -8.3551     0.0000     2.0000 </r>
       <r>    -8.3135     0.0000     2.0000 </r>
       <r>    -8.2720     0.0000     2.0000 </r>
       <r>    -8.2304     0.0000     2.0000 </r>
       <r>    -8.1888     0.0000     2.0000 </r>
       <r>    -8.1472     0.0000     2.0000 </r>
       <r>    -8.1056     0.0000     2.0000 </r>
       <r>    -8.0641     0.0000     2.0000 </r>
       <r>    -8.0225     0.0000     2.0000 </r>
       <r>    -7.9809     0.0000     2.0000 </r>
       <r>    -7.9393     0.0000     2.0000 </r>
       <r>    -7.8977     0.0000     2.0000 </r>
       <r>    -7.8561     0.0000     2.0000 </r>
       <r>    -7.8146     0.0000     2.0000 </r>
       <r>    -7.7730     0.0000     2.0000 </r>
       <r>    -7.7314     0.0000     2.0000 </r>
       <r>    -7.6898     0.0000     2.0000 </r>
       <r>    -7.6482     0.0000     2.0000 </r>
       <r>    -7.6066     0.0000     2.0000 </r>
       <r>    -7.5651     0.0000     2.0000 </r>
       <r>    -7.5235     0.0000     2.0000 </r>
       <r>    -7.4819     0.0000     2.0000 </r>
       <r>    -7.4403     0.0000     2.0000 </r>
       <r>    -7.3987     0.0000     2.0000 </r>
       <r>    -7.3572     0.0000     2.0000 </r>
       <r>    -7.3156     0.0000     2.0000 </r>
       <r>    -7.2740     0.0000     2.0000 </r>
       <r>    -7.2324     0.0000     2.0000 </r>
       <r>    -7.1908     0.0000     2.0000 </r>
       <r>    -7.1492     0.0000     2.0000 </r>
       <r>    -7.1077     0.0000     2.0000 </r>
       <r>    -7.0661     0.0000     2.0000 </r>
       <r>    -7.0245     0.0000     2.0000 </r>
       <r>    -6.9829     0.0000     2.0000 </r>
       <r>    -6.9413     0.0000     2.0000 </r>
       <r>    -6.8997     0.0000     2.0000 </r>
       <r>    -6.8582     0.0000     2.0000 </r>
       <r>    -6.8166     0.0000     2.0000 </r>
       <r>    -6.7750     0.0000     2.0000 </r>
       <r>    -6.7334     0.0000     2.0000 </r>
       <r>    -6.6918     0.0000     2.0000 </r>
       <r>    -6.6502     0.0000     2.0000 </r>
       <r>    -6.6087     0.0000     2.0000 </r>
       <r>    -6.5671     0.0000     2.0000 </r>
       <r>    -6.5255     0.0000     2.0000 </r>
       <r>    -6.4839     0.0000     2.0000 </r>
       <r>    -6.4423     0.0000     2.0000 </r>
       <r>    -6.4008     0.0000     2.0000 </r>
       <r>    -6.3592     0.0000     2.0000 </r>
       <r>    -6.3176     0.0000     2.0000 </r>
       <r>    -6.2760     0.0000     2.0000 </r>
       <r>    -6.2344     0.0000     2.0000 </r>
       <r>    -6.1928     0.0000     2.0000 </r>
       <r>    -6.1513     0.0000     2.0000 </r>
       <r>    -6.1097     0.0000     2.0000 </r>
       <r>    -6.0681     0.0000     2.0000 </r>
       <r>    -6.0265     0.0000     2.0000 </r>
       <r>    -5.9849     0.0000     2.0000 </r>
       <r>    -5.9433     0.0000     2.0000 </r>
       <r>    -5.9018     0.0000     2.0000 </r>
       <r>    -5.8602     0.0000     2.0000 </r>
       <r>    -5.8186     0.0000     2.0000 </r>
       <r>    -5.7770     0.0000     2.0000 </r>
       <r>    -5.7354     0.0000     2.0000 </r>
       <r>    -5.6939     0.0000     2.0000 </r>
       <r>    -5.6523     0.0000     2.0000 </r>
       <r>    -5.6107     0.0000     2.0000 </r>
       <r>    -5.5691     0.0000     2.0000 </r>
       <r>    -5.5275     0.0000     2.0000 </r>
       <r>    -5.4859     0.0000     2.0000 </r>
       <r>    -5.4444     0.0000     2.0000 </r>
       <r>    -5.4028     0.0000     2.0000 </r>
       <r>    -5.3612     0.0000     2.0000 </r>
       <r>    -5.3196     0.0000     2.0000 </r>
       <r>    -5.2780     0.0000     2.0000 </r>
       <r>    -5.2364     0.0000     2.0000 </r>
       <r>    -5.1949     0.0000     2.0000 </r>
       <r>    -5.1533     0.0000     2.0000 </r>
       <r>    -5.1117     0.0000     2.0000 </r>
       <r>    -5.0701     0.0000     2.0000 </r>
       <r>    -5.0285     0.0000     2.0000 </r>
       <r>    -4.9869     0.0000     2.0000 </r>
       <r>    -4.9454     0.0000     2.0000 </r>
       <r>    -4.9038     0.0000     2.0000 </r>
       <r>    -4.8622     0.0000     2.0000 </r>
       <r>    -4.8206     0.0000     2.0000 </r>
       <r>    -4.7790     0.0000     2.0000 </r>
       <r>    -4.7375     0.0000     2.0000 </r>
       <r>    -4.6959     0.0000     2.0000 </r>
       <r>    -4.6543     0.0000     2.0000 </r>
       <r>    -4.6127     0.0000     2.0000 </r>
       <r>    -4.5711     0.0000     2.0000 </r>
       <r>    -4.5295     0.0000     2.0000 </r>
       <r>    -4.4880     0.0000     2.0000 </r>
       <r>    -4.4464     0.0000     2.0000 </r>
       <r>    -4.4048     0.0000     2.0000 </r>
       <r>    -4.3632     0.0000     2.0000 </r>
       <r>    -4.3216     0.0000     2.0000 </r>
       <r>    -4.2800     0.0000     2.0000 </r>
       <r>    -4.2385     0.0000     2.0000 </r>
       <r>    -4.1969     0.0000     2.0000 </r>
       <r>    -4.1553     0.0000     2.0000 </r>
       <r>    -4.1137     0.0000     2.0000 </r>
       <r>    -4.0721     0.0000     2.0000 </r>
       <r>    -4.0305     0.0000     2.0000 </r>
       <r>    -3.9890     0.0000     2.0000 </r>
       <r>    -3.9474     0.0000     2.0000 </r>
       <r>    -3.9058     0.0000     2.0000 </r>
       <r>    -3.8642     0.0000     2.0000 </r>
       <r>    -3.8226     0.0000     2.0000 </r>
       <r>    -3.7811     0.0000     2.0000 </r>
       <r>    -3.7395     0.0002     2.0000 </r>
       <r>    -3.6979     0.0292     2.0012 </r>
       <r>    -3.6563     1.2926     2.0550 </r>
       <r>    -3.6147    15.7665     2.7106 </r>
       <r>    -3.5731    54.6693     4.9839 </r>
       <r>    -3.5316    55.0566     7.2733 </r>
       <r>    -3.4900    16.1062     7.9430 </r>
       <r>    -3.4484     1.3399     7.9987 </r>
       <r>    -3.4068     0.0308     8.0000 </r>
       <r>    -3.3652     0.0002     8.0000 </r>
       <r>    -3.3236     0.0000     8.0000 </r>
       <r>    -3.2821     0.0000     8.0000 </r>
       <r>    -3.2405     0.0000     8.0000 </r>
       <r>    -3.1989     0.0000     8.0000 </r>
       <r>    -3.1573     0.0000     8.0000 </r>
       <r>    -3.1157     0.0000     8.0000 </r>
       <r>    -3.0742     0.0000     8.0000 </r>
       <r>    -3.0326     0.0000     8.0000 </r>
       <r>    -2.9910     0.0000     8.0000 </r>
       <r>    -2.9494     0.0000     8.0000 </r>
       <r>    -2.9078     0.0000     8.0000 </r>
       <r>    -2.8662     0.0000     8.0000 </r>
       <r>    -2.8247     0.0000     8.0000 </r>
       <r>    -2.7831     0.0000     8.0000 </r>
       <r>    -2.7415     0.0000     8.0000 </r>
       <r>    -2.6999     0.0000     8.0000 </r>
       <r>    -2.6583     0.0000     8.0000 </r>
       <r>    -2.6167     0.0000     8.0000 </r>
       <r>    -2.5752     0.0000     8.0000 </r>
       <r>    -2.5336     0.0000     8.0000 </r>
       <r>    -2.4920     0.0000     8.0000 </r>
       <r>    -2.4504     0.0000     8.0000 </r>
       <r>    -2.4088     0.0000     8.0000 </r>
       <r>    -2.3672     0.0000     8.0000 </r>
       <r>    -2.3257     0.0000     8.0000 </r>
       <r>    -2.2841     0.0000     8.0000 </r>
       <r>    -2.2425     0.0000     8.0000 </r>
       <r>    -2.2009     0.0000     8.0000 </r>
       <r>    -2.1593     0.0000     8.0000 </r>
       <r>    -2.1178     0.0000     8.0000 </r>
       <r>    -2.0762     0.0000     8.0000 </r>
       <r>    -2.0346     0.0000     8.0000 </r>
       <r>    -1.9930     0.0000     8.0000 </r>
       <r>    -1.9514     0.0000     8.0000 </r>
       <r>    -1.9098     0.0000     8.0000 </r>
       <r>    -1.8683     0.0000     8.0000 </r>
       <r>    -1.8267     0.0000     8.0000 </r>
       <r>    -1.7851     0.0000     8.0000 </r>
       <r>    -1.7435     0.0000     8.0000 </r>
       <r>    -1.7019     0.0000     8.0000 </r>
       <r>    -1.6603     0.0000     8.0000 </r>
       <r>    -1.6188     0.0000     8.0000 </r>
       <r>    -1.5772     0.0000     8.0000 </r>
       <r>    -1.5356     0.0000     8.0000 </r>
       <r>    -1.4940     0.0000     8.0000 </r>
       <r>    -1.4524     0.0000     8.0000 </r>
       <r>    -1.4109     0.0000     8.0000 </r>
       <r>    -1.3693     0.0000     8.0000 </r>
       <r>    -1.3277     0.0000     8.0000 </r>
       <r>    -1.2861     0.0000     8.0000 </r>
       <r>    -1.2445     0.0000     8.0000 </r>
       <r>    -1.2029     0.0000     8.0000 </r>
       <r>    -1.1614     0.0000     8.0000 </r>
       <r>    -1.1198     0.0000     8.0000 </r>
       <r>    -1.0782     0.0000     8.0000 </r>
       <r>    -1.0366     0.0000     8.0000 </r>
       <r>    -0.9950     0.0000     8.0000 </r>
       <r>    -0.9534     0.0000     8.0000 </r>
       <r>    -0.9119     0.0000     8.0000 </r>
       <r>    -0.8703     0.0000     8.0000 </r>
       <r>    -0.8287     0.0000     8.0000 </r>
       <r>    -0.7871     0.0000     8.0000 </r>
       <r>    -0.7455     0.0000     8.0000 </r>
       <r>    -0.7039     0.0000     8.0000 </r>
       <r>    -0.6624     0.0000     8.0000 </r>
       <r>    -0.6208     0.0000     8.0000 </r>
       <r>    -0.5792     0.0000     8.0000 </r>
       <r>    -0.5376     0.0000     8.0000 </r>
       <r>    -0.4960     0.0000     8.0000 </r>
       <r>    -0.4545     0.0000     8.0000 </r>
       <r>    -0.4129     0.0000     8.0000 </r>
       <r>    -0.3713     0.0011     8.0000 </r>
       <r>    -0.3297     0.0452     8.0019 </r>
       <r>    -0.2881     0.6353     8.0283 </r>
       <r>    -0.2465     3.3644     8.1682 </r>
       <r>    -0.2050     8.0336     8.5023 </r>
       <r>    -0.1634    10.7602     8.9497 </r>
       <r>    -0.1218    10.2828     9.3773 </r>
       <r>    -0.0802     8.2858     9.7219 </r>
       <r>    -0.0386     4.8740     9.9245 </r>
       <r>     0.0030     1.6206     9.9919 </r>
       <r>     0.0445     0.6872    10.0205 </r>
       <r>     0.0861     2.2913    10.1158 </r>
       <r>     0.1277     6.0614    10.3678 </r>
       <r>     0.1693    10.6567    10.8110 </r>
       <r>     0.2109    14.1439    11.3991 </r>
       <r>     0.2524    15.6305    12.0491 </r>
       <r>     0.2940    15.7556    12.7042 </r>
       <r>     0.3356    15.9087    13.3657 </r>
       <r>     0.3772    16.1894    14.0389 </r>
       <r>     0.4188    16.5180    14.7258 </r>
       <r>     0.4604    17.6217    15.4586 </r>
       <r>     0.5019    18.4660    16.2264 </r>
       <r>     0.5435    18.4490    16.9936 </r>
       <r>     0.5851    18.9974    17.7835 </r>
       <r>     0.6267    19.8973    18.6109 </r>
       <r>     0.6683    20.3467    19.4570 </r>
       <r>     0.7099    21.0254    20.3313 </r>
       <r>     0.7514    22.4292    21.2639 </r>
       <r>     0.7930    22.3285    22.1924 </r>
       <r>     0.8346    21.8593    23.1014 </r>
       <r>     0.8762    23.3784    24.0735 </r>
       <r>     0.9178    24.5007    25.0923 </r>
       <r>     0.9594    24.1741    26.0975 </r>
       <r>     1.0009    24.8679    27.1316 </r>
       <r>     1.0425    25.8769    28.2076 </r>
       <r>     1.0841    25.9575    29.2870 </r>
       <r>     1.1257    26.0353    30.3696 </r>
       <r>     1.1673    26.8175    31.4847 </r>
       <r>     1.2088    27.6785    32.6357 </r>
       <r>     1.2504    27.2534    33.7689 </r>
       <r>     1.2920    27.4611    34.9108 </r>
       <r>     1.3336    28.5211    36.0968 </r>
       <r>     1.3752    28.5423    37.2837 </r>
       <r>     1.4168    28.2659    38.4591 </r>
       <r>     1.4583    29.3219    39.6783 </r>
       <r>     1.4999    30.8486    40.9611 </r>
       <r>     1.5415    29.9478    42.2064 </r>
       <r>     1.5831    29.5281    43.4343 </r>
       <r>     1.6247    30.0311    44.6830 </r>
       <r>     1.6663    27.6000    45.8307 </r>
       <r>     1.7078    21.1018    46.7082 </r>
       <r>     1.7494    13.9662    47.2889 </r>
       <r>     1.7910     8.2688    47.6327 </r>
       <r>     1.8326     4.7689    47.8311 </r>
       <r>     1.8742     2.5568    47.9374 </r>
       <r>     1.9157     1.0825    47.9824 </r>
       <r>     1.9573     0.3438    47.9967 </r>
       <r>     1.9989     0.0726    47.9997 </r>
       <r>     2.0405     0.0070    48.0000 </r>
       <r>     2.0821     0.0002    48.0000 </r>
       <r>     2.1237     0.0000    48.0000 </r>
       <r>     2.1652     0.0000    48.0000 </r>
       <r>     2.2068     0.0000    48.0000 </r>
       <r>     2.2484     0.0000    48.0000 </r>
       <r>     2.2900     0.0000    48.0000 </r>
       <r>     2.3316     0.0000    48.0000 </r>
       <r>     2.3732     0.0000    48.0000 </r>
       <r>     2.4147     0.0000    48.0000 </r>
       <r>     2.4563     0.0000    48.0000 </r>
       <r>     2.4979     0.0000    48.0000 </r>
      </set>
     </set>
    </array>
   </total>
  </dos>
 </calculation>
 <structure name="finalpos" >
  <crystal>
   <varray name="basis" >
    <v>      14.98500000       0.00000000       0.00000000 </v>
    <v>       0.00000000      12.48750000       0.00000000 </v>
    <v>       0.00000000       0.00000000      17.98200000 </v>
   </varray>
   <i name="volume">   3364.88512163 </i>
   <varray name="rec_basis" >
    <v>       0.06673340       0.00000000       0.00000000 </v>
    <v>       0.00000000       0.08008008       0.00000000 </v>
    <v>       0.00000000       0.00000000       0.05561117 </v>
   </varray>
  </crystal>
  <varray name="positions" >
   <v>       0.52123000       0.54500000       0.63796000 </v>
  </varray>
 </structure>
</modeling>
