   1   1   0   0
  0.3370952E+04  0.1499400E-08  0.1249500E-08  0.1799280E-08  0.5000000E-15
  1.000000000000000E-004
  CAR 
 Convergence                             
      2.49543488     -9.97677960  301     -3.60715497      1.00000000
     -9.977  0.0000E+00  0.0000E+00
     -9.935  0.0000E+00  0.0000E+00
     -9.894  0.0000E+00  0.0000E+00
     -9.852  0.0000E+00  0.0000E+00
     -9.810  0.0000E+00  0.0000E+00
     -9.769  0.0000E+00  0.0000E+00
     -9.727  0.0000E+00  0.0000E+00
     -9.686  0.1442E-12  0.5995E-14
     -9.644  0.8196E-09  0.3408E-10
     -9.603  0.1198E-05  0.4984E-07
     -9.561  0.4565E-03  0.1903E-04
     -9.519  0.4608E-01  0.1935E-02
     -9.478  0.1260E+01  0.5433E-01
     -9.436  0.9620E+01  0.4543E+00
     -9.395  0.2109E+02  0.1331E+01
     -9.353  0.1347E+02  0.1891E+01
     -9.312  0.2487E+01  0.1995E+01
     -9.270  0.1292E+00  0.2000E+01
     -9.228  0.1832E-02  0.2000E+01
     -9.187  0.6920E-05  0.2000E+01
     -9.145  0.6840E-08  0.2000E+01
     -9.104  0.1752E-11  0.2000E+01
     -9.062  0.0000E+00  0.2000E+01
     -9.021  0.0000E+00  0.2000E+01
     -8.979  0.0000E+00  0.2000E+01
     -8.937  0.0000E+00  0.2000E+01
     -8.896  0.0000E+00  0.2000E+01
     -8.854  0.0000E+00  0.2000E+01
     -8.813  0.0000E+00  0.2000E+01
     -8.771  0.0000E+00  0.2000E+01
     -8.730  0.0000E+00  0.2000E+01
     -8.688  0.0000E+00  0.2000E+01
     -8.646  0.0000E+00  0.2000E+01
     -8.605  0.0000E+00  0.2000E+01
     -8.563  0.0000E+00  0.2000E+01
     -8.522  0.0000E+00  0.2000E+01
     -8.480  0.0000E+00  0.2000E+01
     -8.439  0.0000E+00  0.2000E+01
     -8.397  0.0000E+00  0.2000E+01
     -8.355  0.0000E+00  0.2000E+01
     -8.314  0.0000E+00  0.2000E+01
     -8.272  0.0000E+00  0.2000E+01
     -8.231  0.0000E+00  0.2000E+01
     -8.189  0.0000E+00  0.2000E+01
     -8.148  0.0000E+00  0.2000E+01
     -8.106  0.0000E+00  0.2000E+01
     -8.064  0.0000E+00  0.2000E+01
     -8.023  0.0000E+00  0.2000E+01
     -7.981  0.0000E+00  0.2000E+01
     -7.940  0.0000E+00  0.2000E+01
     -7.898  0.0000E+00  0.2000E+01
     -7.857  0.0000E+00  0.2000E+01
     -7.815  0.0000E+00  0.2000E+01
     -7.773  0.0000E+00  0.2000E+01
     -7.732  0.0000E+00  0.2000E+01
     -7.690  0.0000E+00  0.2000E+01
     -7.649  0.0000E+00  0.2000E+01
     -7.607  0.0000E+00  0.2000E+01
     -7.565  0.0000E+00  0.2000E+01
     -7.524  0.0000E+00  0.2000E+01
     -7.482  0.0000E+00  0.2000E+01
     -7.441  0.0000E+00  0.2000E+01
     -7.399  0.0000E+00  0.2000E+01
     -7.358  0.0000E+00  0.2000E+01
     -7.316  0.0000E+00  0.2000E+01
     -7.274  0.0000E+00  0.2000E+01
     -7.233  0.0000E+00  0.2000E+01
     -7.191  0.0000E+00  0.2000E+01
     -7.150  0.0000E+00  0.2000E+01
     -7.108  0.0000E+00  0.2000E+01
     -7.067  0.0000E+00  0.2000E+01
     -7.025  0.0000E+00  0.2000E+01
     -6.983  0.0000E+00  0.2000E+01
     -6.942  0.0000E+00  0.2000E+01
     -6.900  0.0000E+00  0.2000E+01
     -6.859  0.0000E+00  0.2000E+01
     -6.817  0.0000E+00  0.2000E+01
     -6.776  0.0000E+00  0.2000E+01
     -6.734  0.0000E+00  0.2000E+01
     -6.692  0.0000E+00  0.2000E+01
     -6.651  0.0000E+00  0.2000E+01
     -6.609  0.0000E+00  0.2000E+01
     -6.568  0.0000E+00  0.2000E+01
     -6.526  0.0000E+00  0.2000E+01
     -6.485  0.0000E+00  0.2000E+01
     -6.443  0.0000E+00  0.2000E+01
     -6.401  0.0000E+00  0.2000E+01
     -6.360  0.0000E+00  0.2000E+01
     -6.318  0.0000E+00  0.2000E+01
     -6.277  0.0000E+00  0.2000E+01
     -6.235  0.0000E+00  0.2000E+01
     -6.194  0.0000E+00  0.2000E+01
     -6.152  0.0000E+00  0.2000E+01
     -6.110  0.0000E+00  0.2000E+01
     -6.069  0.0000E+00  0.2000E+01
     -6.027  0.0000E+00  0.2000E+01
     -5.986  0.0000E+00  0.2000E+01
     -5.944  0.0000E+00  0.2000E+01
     -5.903  0.0000E+00  0.2000E+01
     -5.861  0.0000E+00  0.2000E+01
     -5.819  0.0000E+00  0.2000E+01
     -5.778  0.0000E+00  0.2000E+01
     -5.736  0.0000E+00  0.2000E+01
     -5.695  0.0000E+00  0.2000E+01
     -5.653  0.0000E+00  0.2000E+01
     -5.612  0.0000E+00  0.2000E+01
     -5.570  0.0000E+00  0.2000E+01
     -5.528  0.0000E+00  0.2000E+01
     -5.487  0.0000E+00  0.2000E+01
     -5.445  0.0000E+00  0.2000E+01
     -5.404  0.0000E+00  0.2000E+01
     -5.362  0.0000E+00  0.2000E+01
     -5.320  0.0000E+00  0.2000E+01
     -5.279  0.0000E+00  0.2000E+01
     -5.237  0.0000E+00  0.2000E+01
     -5.196  0.0000E+00  0.2000E+01
     -5.154  0.0000E+00  0.2000E+01
     -5.113  0.0000E+00  0.2000E+01
     -5.071  0.0000E+00  0.2000E+01
     -5.029  0.0000E+00  0.2000E+01
     -4.988  0.0000E+00  0.2000E+01
     -4.946  0.0000E+00  0.2000E+01
     -4.905  0.0000E+00  0.2000E+01
     -4.863  0.0000E+00  0.2000E+01
     -4.822  0.0000E+00  0.2000E+01
     -4.780  0.0000E+00  0.2000E+01
     -4.738  0.0000E+00  0.2000E+01
     -4.697  0.0000E+00  0.2000E+01
     -4.655  0.0000E+00  0.2000E+01
     -4.614  0.0000E+00  0.2000E+01
     -4.572  0.0000E+00  0.2000E+01
     -4.531  0.0000E+00  0.2000E+01
     -4.489  0.0000E+00  0.2000E+01
     -4.447  0.0000E+00  0.2000E+01
     -4.406  0.0000E+00  0.2000E+01
     -4.364  0.0000E+00  0.2000E+01
     -4.323  0.0000E+00  0.2000E+01
     -4.281  0.0000E+00  0.2000E+01
     -4.240  0.0000E+00  0.2000E+01
     -4.198  0.0000E+00  0.2000E+01
     -4.156  0.0000E+00  0.2000E+01
     -4.115  0.0000E+00  0.2000E+01
     -4.073  0.0000E+00  0.2000E+01
     -4.032  0.0000E+00  0.2000E+01
     -3.990  0.0000E+00  0.2000E+01
     -3.949  0.0000E+00  0.2000E+01
     -3.907  0.0000E+00  0.2000E+01
     -3.865  0.8011E-14  0.2000E+01
     -3.824  0.9290E-10  0.2000E+01
     -3.782  0.2326E-06  0.2000E+01
     -3.741  0.1511E-03  0.2000E+01
     -3.699  0.2581E-01  0.2001E+01
     -3.658  0.1183E+01  0.2050E+01
     -3.616  0.1495E+02  0.2672E+01
     -3.574  0.5368E+02  0.4904E+01
     -3.533  0.5600E+02  0.7232E+01
     -3.491  0.1698E+02  0.7938E+01
     -3.450  0.1466E+01  0.7999E+01
     -3.408  0.3497E-01  0.8000E+01
     -3.367  0.2242E-03  0.8000E+01
     -3.325  0.3784E-06  0.8000E+01
     -3.283  0.1659E-09  0.8000E+01
     -3.242  0.1602E-13  0.8000E+01
     -3.200  0.0000E+00  0.8000E+01
     -3.159  0.0000E+00  0.8000E+01
     -3.117  0.0000E+00  0.8000E+01
     -3.075  0.0000E+00  0.8000E+01
     -3.034  0.0000E+00  0.8000E+01
     -2.992  0.0000E+00  0.8000E+01
     -2.951  0.0000E+00  0.8000E+01
     -2.909  0.0000E+00  0.8000E+01
     -2.868  0.0000E+00  0.8000E+01
     -2.826  0.0000E+00  0.8000E+01
     -2.784  0.0000E+00  0.8000E+01
     -2.743  0.0000E+00  0.8000E+01
     -2.701  0.0000E+00  0.8000E+01
     -2.660  0.0000E+00  0.8000E+01
     -2.618  0.0000E+00  0.8000E+01
     -2.577  0.0000E+00  0.8000E+01
     -2.535  0.0000E+00  0.8000E+01
     -2.493  0.0000E+00  0.8000E+01
     -2.452  0.0000E+00  0.8000E+01
     -2.410  0.0000E+00  0.8000E+01
     -2.369  0.0000E+00  0.8000E+01
     -2.327  0.0000E+00  0.8000E+01
     -2.286  0.0000E+00  0.8000E+01
     -2.244  0.0000E+00  0.8000E+01
     -2.202  0.0000E+00  0.8000E+01
     -2.161  0.0000E+00  0.8000E+01
     -2.119  0.0000E+00  0.8000E+01
     -2.078  0.0000E+00  0.8000E+01
     -2.036  0.0000E+00  0.8000E+01
     -1.995  0.0000E+00  0.8000E+01
     -1.953  0.0000E+00  0.8000E+01
     -1.911  0.0000E+00  0.8000E+01
     -1.870  0.0000E+00  0.8000E+01
     -1.828  0.0000E+00  0.8000E+01
     -1.787  0.0000E+00  0.8000E+01
     -1.745  0.0000E+00  0.8000E+01
     -1.704  0.0000E+00  0.8000E+01
     -1.662  0.0000E+00  0.8000E+01
     -1.620  0.0000E+00  0.8000E+01
     -1.579  0.0000E+00  0.8000E+01
     -1.537  0.0000E+00  0.8000E+01
     -1.496  0.0000E+00  0.8000E+01
     -1.454  0.0000E+00  0.8000E+01
     -1.413  0.0000E+00  0.8000E+01
     -1.371  0.0000E+00  0.8000E+01
     -1.329  0.0000E+00  0.8000E+01
     -1.288  0.0000E+00  0.8000E+01
     -1.246  0.0000E+00  0.8000E+01
     -1.205  0.0000E+00  0.8000E+01
     -1.163  0.0000E+00  0.8000E+01
     -1.122  0.0000E+00  0.8000E+01
     -1.080  0.0000E+00  0.8000E+01
     -1.038  0.0000E+00  0.8000E+01
     -0.997  0.0000E+00  0.8000E+01
     -0.955  0.0000E+00  0.8000E+01
     -0.914  0.0000E+00  0.8000E+01
     -0.872  0.0000E+00  0.8000E+01
     -0.830  0.0000E+00  0.8000E+01
     -0.789  0.0000E+00  0.8000E+01
     -0.747  0.0000E+00  0.8000E+01
     -0.706  0.0000E+00  0.8000E+01
     -0.664  0.0000E+00  0.8000E+01
     -0.623  0.0000E+00  0.8000E+01
     -0.581  0.0000E+00  0.8000E+01
     -0.539  0.8393E-15  0.8000E+01
     -0.498  0.6070E-11  0.8000E+01
     -0.456  0.1136E-07  0.8000E+01
     -0.415  0.5862E-05  0.8000E+01
     -0.373  0.8657E-03  0.8000E+01
     -0.332  0.3877E-01  0.8002E+01
     -0.290  0.5734E+00  0.8025E+01
     -0.248  0.3173E+01  0.8157E+01
     -0.207  0.7836E+01  0.8483E+01
     -0.165  0.1073E+02  0.8929E+01
     -0.124  0.1036E+02  0.9360E+01
     -0.082  0.8414E+01  0.9710E+01
     -0.041  0.5037E+01  0.9919E+01
      0.001  0.1714E+01  0.9991E+01
      0.043  0.6697E+00  0.1002E+02
      0.084  0.2169E+01  0.1011E+02
      0.126  0.5867E+01  0.1035E+02
      0.167  0.1048E+02  0.1079E+02
      0.209  0.1405E+02  0.1137E+02
      0.250  0.1563E+02  0.1202E+02
      0.292  0.1577E+02  0.1268E+02
      0.334  0.1592E+02  0.1334E+02
      0.375  0.1620E+02  0.1401E+02
      0.417  0.1651E+02  0.1470E+02
      0.458  0.1759E+02  0.1543E+02
      0.500  0.1848E+02  0.1620E+02
      0.541  0.1847E+02  0.1697E+02
      0.583  0.1899E+02  0.1776E+02
      0.625  0.1990E+02  0.1858E+02
      0.666  0.2036E+02  0.1943E+02
      0.708  0.2102E+02  0.2030E+02
      0.749  0.2242E+02  0.2124E+02
      0.791  0.2238E+02  0.2217E+02
      0.832  0.2187E+02  0.2308E+02
      0.874  0.2335E+02  0.2405E+02
      0.916  0.2452E+02  0.2507E+02
      0.957  0.2421E+02  0.2607E+02
      0.999  0.2486E+02  0.2711E+02
      1.040  0.2590E+02  0.2818E+02
      1.082  0.2599E+02  0.2926E+02
      1.123  0.2606E+02  0.3035E+02
      1.165  0.2683E+02  0.3146E+02
      1.207  0.2770E+02  0.3261E+02
      1.248  0.2730E+02  0.3375E+02
      1.290  0.2748E+02  0.3489E+02
      1.331  0.2855E+02  0.3608E+02
      1.373  0.2859E+02  0.3727E+02
      1.415  0.2830E+02  0.3844E+02
      1.456  0.2933E+02  0.3966E+02
      1.498  0.3088E+02  0.4095E+02
      1.539  0.3000E+02  0.4219E+02
      1.581  0.2956E+02  0.4342E+02
      1.622  0.3007E+02  0.4467E+02
      1.664  0.2767E+02  0.4582E+02
      1.706  0.2118E+02  0.4670E+02
      1.747  0.1403E+02  0.4729E+02
      1.789  0.8311E+01  0.4763E+02
      1.830  0.4790E+01  0.4783E+02
      1.872  0.2568E+01  0.4794E+02
      1.913  0.1088E+01  0.4798E+02
      1.955  0.3452E+00  0.4800E+02
      1.997  0.7283E-01  0.4800E+02
      2.038  0.7040E-02  0.4800E+02
      2.080  0.2247E-03  0.4800E+02
      2.121  0.2048E-05  0.4800E+02
      2.163  0.5045E-08  0.4800E+02
      2.204  0.3278E-11  0.4800E+02
      2.246  0.5595E-15  0.4800E+02
      2.288  0.0000E+00  0.4800E+02
      2.329  0.0000E+00  0.4800E+02
      2.371  0.0000E+00  0.4800E+02
      2.412  0.0000E+00  0.4800E+02
      2.454  0.0000E+00  0.4800E+02
      2.495  0.0000E+00  0.4800E+02
