  14  14   0   0
  0.1021318E+02  0.5700971E-09  0.4044058E-09  0.6201871E-09  0.5000000E-15
  1.000000000000000E-004
  CAR 
 SC                                      
     18.02157567    -14.16217858  301      1.91648727      1.00000000
    -14.162  0.0000E+00  0.0000E+00
    -14.055  0.0000E+00  0.0000E+00
    -13.948  0.0000E+00  0.0000E+00
    -13.840  0.0000E+00  0.0000E+00
    -13.733  0.0000E+00  0.0000E+00
    -13.626  0.0000E+00  0.0000E+00
    -13.519  0.0000E+00  0.0000E+00
    -13.411  0.0000E+00  0.0000E+00
    -13.304  0.0000E+00  0.0000E+00
    -13.197  0.4829E-13  0.5181E-14
    -13.089  0.1151E-08  0.1235E-09
    -12.982  0.3194E-05  0.3427E-06
    -12.875  0.1130E-02  0.1216E-03
    -12.768  0.6045E-01  0.6607E-02
    -12.660  0.6514E+00  0.7649E-01
    -12.553  0.2112E+01  0.3031E+00
    -12.446  0.3398E+01  0.6677E+00
    -12.338  0.4011E+01  0.1098E+01
    -12.231  0.3578E+01  0.1482E+01
    -12.124  0.2915E+01  0.1795E+01
    -12.017  0.2621E+01  0.2076E+01
    -11.909  0.2551E+01  0.2350E+01
    -11.802  0.2680E+01  0.2637E+01
    -11.695  0.3090E+01  0.2968E+01
    -11.587  0.3424E+01  0.3336E+01
    -11.480  0.3111E+01  0.3670E+01
    -11.373  0.2066E+01  0.3891E+01
    -11.266  0.8497E+00  0.3982E+01
    -11.158  0.1563E+00  0.3999E+01
    -11.051  0.7698E-02  0.4000E+01
    -10.944  0.6703E-04  0.4000E+01
    -10.837  0.8095E-07  0.4000E+01
    -10.729  0.1191E-10  0.4000E+01
    -10.622  0.1949E-15  0.4000E+01
    -10.515  0.0000E+00  0.4000E+01
    -10.407  0.0000E+00  0.4000E+01
    -10.300  0.0000E+00  0.4000E+01
    -10.193  0.0000E+00  0.4000E+01
    -10.086  0.0000E+00  0.4000E+01
     -9.978  0.0000E+00  0.4000E+01
     -9.871  0.0000E+00  0.4000E+01
     -9.764  0.0000E+00  0.4000E+01
     -9.656  0.0000E+00  0.4000E+01
     -9.549  0.0000E+00  0.4000E+01
     -9.442  0.0000E+00  0.4000E+01
     -9.335  0.2236E-13  0.4000E+01
     -9.227  0.6320E-09  0.4000E+01
     -9.120  0.2067E-05  0.4000E+01
     -9.013  0.8514E-03  0.4000E+01
     -8.905  0.5189E-01  0.4006E+01
     -8.798  0.6340E+00  0.4074E+01
     -8.691  0.2554E+01  0.4348E+01
     -8.584  0.5230E+01  0.4909E+01
     -8.476  0.6341E+01  0.5589E+01
     -8.369  0.5438E+01  0.6172E+01
     -8.262  0.4782E+01  0.6685E+01
     -8.155  0.4639E+01  0.7183E+01
     -8.047  0.3915E+01  0.7603E+01
     -7.940  0.2352E+01  0.7855E+01
     -7.833  0.1016E+01  0.7964E+01
     -7.725  0.2975E+00  0.7996E+01
     -7.618  0.3484E-01  0.8000E+01
     -7.511  0.9338E-03  0.8000E+01
     -7.404  0.4012E-05  0.8000E+01
     -7.296  0.2337E-07  0.8000E+01
     -7.189  0.1608E-04  0.8000E+01
     -7.082  0.1695E-02  0.8000E+01
     -6.974  0.3124E-01  0.8004E+01
     -6.867  0.1488E+00  0.8019E+01
     -6.760  0.3194E+00  0.8054E+01
     -6.653  0.5137E+00  0.8109E+01
     -6.545  0.7264E+00  0.8187E+01
     -6.438  0.1006E+01  0.8295E+01
     -6.331  0.1533E+01  0.8459E+01
     -6.224  0.2293E+01  0.8705E+01
     -6.116  0.3240E+01  0.9053E+01
     -6.009  0.3863E+01  0.9467E+01
     -5.902  0.4025E+01  0.9899E+01
     -5.794  0.4089E+01  0.1034E+02
     -5.687  0.4106E+01  0.1078E+02
     -5.580  0.4059E+01  0.1121E+02
     -5.473  0.4261E+01  0.1167E+02
     -5.365  0.4598E+01  0.1216E+02
     -5.258  0.4619E+01  0.1266E+02
     -5.151  0.4231E+01  0.1311E+02
     -5.043  0.3713E+01  0.1351E+02
     -4.936  0.3040E+01  0.1384E+02
     -4.829  0.2558E+01  0.1411E+02
     -4.722  0.2799E+01  0.1441E+02
     -4.614  0.3320E+01  0.1477E+02
     -4.507  0.3513E+01  0.1515E+02
     -4.400  0.3275E+01  0.1550E+02
     -4.292  0.3017E+01  0.1582E+02
     -4.185  0.2906E+01  0.1613E+02
     -4.078  0.2916E+01  0.1645E+02
     -3.971  0.2950E+01  0.1676E+02
     -3.863  0.3002E+01  0.1708E+02
     -3.756  0.2994E+01  0.1740E+02
     -3.649  0.2915E+01  0.1772E+02
     -3.542  0.2802E+01  0.1802E+02
     -3.434  0.2698E+01  0.1831E+02
     -3.327  0.2660E+01  0.1859E+02
     -3.220  0.2673E+01  0.1888E+02
     -3.112  0.2783E+01  0.1918E+02
     -3.005  0.2968E+01  0.1950E+02
     -2.898  0.2947E+01  0.1981E+02
     -2.791  0.2606E+01  0.2009E+02
     -2.683  0.2341E+01  0.2034E+02
     -2.576  0.2510E+01  0.2061E+02
     -2.469  0.2982E+01  0.2093E+02
     -2.361  0.3358E+01  0.2129E+02
     -2.254  0.3647E+01  0.2168E+02
     -2.147  0.3564E+01  0.2207E+02
     -2.040  0.3546E+01  0.2245E+02
     -1.932  0.3985E+01  0.2287E+02
     -1.825  0.4836E+01  0.2339E+02
     -1.718  0.5607E+01  0.2399E+02
     -1.611  0.6019E+01  0.2464E+02
     -1.503  0.6272E+01  0.2531E+02
     -1.396  0.6045E+01  0.2596E+02
     -1.289  0.5499E+01  0.2655E+02
     -1.181  0.5185E+01  0.2711E+02
     -1.074  0.5044E+01  0.2765E+02
     -0.967  0.3915E+01  0.2807E+02
     -0.860  0.2907E+01  0.2838E+02
     -0.752  0.2962E+01  0.2870E+02
     -0.645  0.4060E+01  0.2913E+02
     -0.538  0.5059E+01  0.2968E+02
     -0.430  0.5714E+01  0.3029E+02
     -0.323  0.6140E+01  0.3095E+02
     -0.216  0.6234E+01  0.3162E+02
     -0.109  0.6531E+01  0.3232E+02
     -0.001  0.6631E+01  0.3303E+02
      0.106  0.7272E+01  0.3381E+02
      0.213  0.8806E+01  0.3475E+02
      0.321  0.8641E+01  0.3568E+02
      0.428  0.7607E+01  0.3650E+02
      0.535  0.5674E+01  0.3711E+02
      0.642  0.4035E+01  0.3754E+02
      0.750  0.3246E+01  0.3789E+02
      0.857  0.3166E+01  0.3823E+02
      0.964  0.3382E+01  0.3859E+02
      1.071  0.3560E+01  0.3897E+02
      1.179  0.3674E+01  0.3937E+02
      1.286  0.3636E+01  0.3976E+02
      1.393  0.3716E+01  0.4015E+02
      1.501  0.3803E+01  0.4056E+02
      1.608  0.3860E+01  0.4098E+02
      1.715  0.3668E+01  0.4137E+02
      1.822  0.3296E+01  0.4172E+02
      1.930  0.2919E+01  0.4204E+02
      2.037  0.2714E+01  0.4233E+02
      2.144  0.2563E+01  0.4260E+02
      2.252  0.2334E+01  0.4285E+02
      2.359  0.2009E+01  0.4307E+02
      2.466  0.1557E+01  0.4324E+02
      2.573  0.1066E+01  0.4335E+02
      2.681  0.7422E+00  0.4343E+02
      2.788  0.6290E+00  0.4350E+02
      2.895  0.5734E+00  0.4356E+02
      3.002  0.5247E+00  0.4362E+02
      3.110  0.4934E+00  0.4367E+02
      3.217  0.4513E+00  0.4372E+02
      3.324  0.4232E+00  0.4376E+02
      3.432  0.3915E+00  0.4380E+02
      3.539  0.3601E+00  0.4384E+02
      3.646  0.3349E+00  0.4388E+02
      3.753  0.3038E+00  0.4391E+02
      3.861  0.2791E+00  0.4394E+02
      3.968  0.2477E+00  0.4397E+02
      4.075  0.1958E+00  0.4399E+02
      4.183  0.9606E-01  0.4400E+02
      4.290  0.8250E-01  0.4401E+02
      4.397  0.2228E+00  0.4403E+02
      4.504  0.3842E+00  0.4407E+02
      4.612  0.5724E+00  0.4413E+02
      4.719  0.7508E+00  0.4421E+02
      4.826  0.8541E+00  0.4431E+02
      4.934  0.9507E+00  0.4441E+02
      5.041  0.1073E+01  0.4452E+02
      5.148  0.1227E+01  0.4466E+02
      5.255  0.1451E+01  0.4481E+02
      5.363  0.1776E+01  0.4500E+02
      5.470  0.2206E+01  0.4524E+02
      5.577  0.2691E+01  0.4553E+02
      5.684  0.2994E+01  0.4585E+02
      5.792  0.3288E+01  0.4620E+02
      5.899  0.3850E+01  0.4661E+02
      6.006  0.4452E+01  0.4709E+02
      6.114  0.4615E+01  0.4759E+02
      6.221  0.4442E+01  0.4806E+02
      6.328  0.4197E+01  0.4851E+02
      6.435  0.4132E+01  0.4896E+02
      6.543  0.3999E+01  0.4939E+02
      6.650  0.3634E+01  0.4978E+02
      6.757  0.3640E+01  0.5017E+02
      6.865  0.4112E+01  0.5061E+02
      6.972  0.4437E+01  0.5108E+02
      7.079  0.4675E+01  0.5158E+02
      7.186  0.4889E+01  0.5211E+02
      7.294  0.4823E+01  0.5263E+02
      7.401  0.4560E+01  0.5312E+02
      7.508  0.4390E+01  0.5359E+02
      7.615  0.4078E+01  0.5402E+02
      7.723  0.3544E+01  0.5440E+02
      7.830  0.3214E+01  0.5475E+02
      7.937  0.3261E+01  0.5510E+02
      8.045  0.3395E+01  0.5546E+02
      8.152  0.3614E+01  0.5585E+02
      8.259  0.3927E+01  0.5627E+02
      8.366  0.4052E+01  0.5671E+02
      8.474  0.4072E+01  0.5714E+02
      8.581  0.3951E+01  0.5757E+02
      8.688  0.4058E+01  0.5800E+02
      8.796  0.4538E+01  0.5849E+02
      8.903  0.5108E+01  0.5904E+02
      9.010  0.5329E+01  0.5961E+02
      9.117  0.5297E+01  0.6018E+02
      9.225  0.5331E+01  0.6075E+02
      9.332  0.5154E+01  0.6130E+02
      9.439  0.4857E+01  0.6182E+02
      9.547  0.4766E+01  0.6233E+02
      9.654  0.4961E+01  0.6287E+02
      9.761  0.5183E+01  0.6342E+02
      9.868  0.5268E+01  0.6399E+02
      9.976  0.4838E+01  0.6451E+02
     10.083  0.4179E+01  0.6496E+02
     10.190  0.4292E+01  0.6542E+02
     10.297  0.4690E+01  0.6592E+02
     10.405  0.5179E+01  0.6647E+02
     10.512  0.5266E+01  0.6704E+02
     10.619  0.4680E+01  0.6754E+02
     10.727  0.4129E+01  0.6798E+02
     10.834  0.3774E+01  0.6839E+02
     10.941  0.3704E+01  0.6879E+02
     11.048  0.4540E+01  0.6927E+02
     11.156  0.5411E+01  0.6985E+02
     11.263  0.5643E+01  0.7046E+02
     11.370  0.5515E+01  0.7105E+02
     11.478  0.5071E+01  0.7160E+02
     11.585  0.4896E+01  0.7212E+02
     11.692  0.4952E+01  0.7265E+02
     11.799  0.5045E+01  0.7319E+02
     11.907  0.5382E+01  0.7377E+02
     12.014  0.5771E+01  0.7439E+02
     12.121  0.5798E+01  0.7501E+02
     12.228  0.5564E+01  0.7561E+02
     12.336  0.5498E+01  0.7620E+02
     12.443  0.5717E+01  0.7681E+02
     12.550  0.5977E+01  0.7745E+02
     12.658  0.6016E+01  0.7810E+02
     12.765  0.5768E+01  0.7872E+02
     12.872  0.5534E+01  0.7931E+02
     12.979  0.5654E+01  0.7992E+02
     13.087  0.5915E+01  0.8055E+02
     13.194  0.6016E+01  0.8120E+02
     13.301  0.5840E+01  0.8182E+02
     13.409  0.5651E+01  0.8243E+02
     13.516  0.5676E+01  0.8304E+02
     13.623  0.5679E+01  0.8365E+02
     13.730  0.5735E+01  0.8426E+02
     13.838  0.5685E+01  0.8487E+02
     13.945  0.5562E+01  0.8547E+02
     14.052  0.5362E+01  0.8605E+02
     14.160  0.5161E+01  0.8660E+02
     14.267  0.5157E+01  0.8715E+02
     14.374  0.5004E+01  0.8769E+02
     14.481  0.5032E+01  0.8823E+02
     14.589  0.5169E+01  0.8878E+02
     14.696  0.4903E+01  0.8931E+02
     14.803  0.4443E+01  0.8979E+02
     14.910  0.4614E+01  0.9028E+02
     15.018  0.5491E+01  0.9087E+02
     15.125  0.5926E+01  0.9151E+02
     15.232  0.5869E+01  0.9214E+02
     15.340  0.5803E+01  0.9276E+02
     15.447  0.6178E+01  0.9342E+02
     15.554  0.6036E+01  0.9407E+02
     15.661  0.4946E+01  0.9460E+02
     15.769  0.3688E+01  0.9499E+02
     15.876  0.2713E+01  0.9529E+02
     15.983  0.1997E+01  0.9550E+02
     16.091  0.1430E+01  0.9565E+02
     16.198  0.1091E+01  0.9577E+02
     16.305  0.9401E+00  0.9587E+02
     16.412  0.7401E+00  0.9595E+02
     16.520  0.3770E+00  0.9599E+02
     16.627  0.8045E-01  0.9600E+02
     16.734  0.4790E-02  0.9600E+02
     16.842  0.6213E-04  0.9600E+02
     16.949  0.1488E-06  0.9600E+02
     17.056  0.5469E-10  0.9600E+02
     17.163  0.2579E-14  0.9600E+02
     17.271  0.0000E+00  0.9600E+02
     17.378  0.0000E+00  0.9600E+02
     17.485  0.0000E+00  0.9600E+02
     17.592  0.0000E+00  0.9600E+02
     17.700  0.0000E+00  0.9600E+02
     17.807  0.0000E+00  0.9600E+02
     17.914  0.0000E+00  0.9600E+02
     18.022  0.0000E+00  0.9600E+02
