<?xml version="1.0" encoding="ISO-8859-1"?>
<modeling>
 <generator>
  <i name="program" type="string">vasp </i>
  <i name="version" type="string">6.4.3  </i>
  <i name="subversion" type="string">19Mar24 (build May 31 2024 16:31:43) complex                          parallel </i>
  <i name="platform" type="string">LinuxIFC </i>
  <i name="date" type="string">2024 10 31 </i>
  <i name="time" type="string">00:22:37 </i>
 </generator>
 <incar>
  <i type="string" name="SYSTEM">Kpoints</i>
  <i type="int" name="ISTART">     0</i>
  <i type="string" name="PREC">Accurate</i>
  <i type="string" name="ALGO">Normal</i>
  <i type="int" name="ISPIN">     1</i>
  <i type="int" name="ICHARG">     2</i>
  <i type="int" name="NELM">   100</i>
  <i type="int" name="IBRION">    -1</i>
  <i name="EDIFF">      0.00000100</i>
  <i name="EDIFFG">     -0.00100000</i>
  <i type="int" name="NSW">     0</i>
  <i type="int" name="ISIF">     2</i>
  <i name="ENCUT">    480.00000000</i>
  <i name="POTIM">      0.50000000</i>
  <i type="int" name="ISMEAR">     0</i>
  <i name="SIGMA">      0.05000000</i>
  <i type="logical" name="LWAVE"> F  </i>
  <i type="logical" name="LCHARG"> F  </i>
  <i type="string" name="GGA">PE</i>
 </incar>
 <primitive_cell>
  <structure name="primitive_cell" >
   <crystal>
    <varray name="basis" >
     <v>       5.69700000       0.00000000       0.00000000 </v>
     <v>       0.00000000       4.04790000       0.00000000 </v>
     <v>       0.00000000       0.00000000       6.20420000 </v>
    </varray>
    <i name="volume">    143.07435078 </i>
    <varray name="rec_basis" >
     <v>       0.17553098       0.00000000       0.00000000 </v>
     <v>       0.00000000       0.24704168       0.00000000 </v>
     <v>       0.00000000       0.00000000       0.16118114 </v>
    </varray>
   </crystal>
   <varray name="positions" >
    <v>       0.52123000       0.50000000       0.63796000 </v>
    <v>       0.47877000       0.50000000       0.36204000 </v>
    <v>       0.97877000       0.50000000       0.63796000 </v>
    <v>       0.02123000       0.50000000       0.36204000 </v>
    <v>       0.60090000       0.50000000       0.89991000 </v>
    <v>       0.39910000       0.50000000       0.10009000 </v>
    <v>       0.89910000       0.50000000       0.89991000 </v>
    <v>       0.10090000       0.50000000       0.10009000 </v>
    <v>       0.75000000       0.79171000       0.72973000 </v>
    <v>       0.25000000       0.20829000       0.27027000 </v>
    <v>       0.75000000       0.20829000       0.72973000 </v>
    <v>       0.25000000       0.79171000       0.27027000 </v>
    <v>       0.25000000       0.50000000       0.52367000 </v>
    <v>       0.75000000       0.50000000       0.47633000 </v>
   </varray>
  </structure>
  <varray name="primitive_index" >
   <v type="int" >        1 </v>
   <v type="int" >        2 </v>
   <v type="int" >        3 </v>
   <v type="int" >        4 </v>
   <v type="int" >        5 </v>
   <v type="int" >        6 </v>
   <v type="int" >        7 </v>
   <v type="int" >        8 </v>
   <v type="int" >        9 </v>
   <v type="int" >       10 </v>
   <v type="int" >       11 </v>
   <v type="int" >       12 </v>
   <v type="int" >       13 </v>
   <v type="int" >       14 </v>
  </varray>
 </primitive_cell>
 <kpoints>
  <generation param="Monkhorst-Pack">
   <v type="int" name="divisions">      13       18       12 </v>
   <v name="usershift">      0.00000000       0.00000000       0.00000000 </v>
   <v name="genvec1">      0.07692308       0.00000000       0.00000000 </v>
   <v name="genvec2">      0.00000000       0.05555556       0.00000000 </v>
   <v name="genvec3">      0.00000000       0.00000000       0.08333333 </v>
   <v name="shift">      0.00000000       0.50000000       0.50000000 </v>
  </generation>
  <varray name="kpointlist" >
   <v>       0.00000000       0.02777778       0.04166667 </v>
   <v>       0.07692308       0.02777778       0.04166667 </v>
   <v>       0.15384615       0.02777778       0.04166667 </v>
   <v>       0.23076923       0.02777778       0.04166667 </v>
   <v>       0.30769231       0.02777778       0.04166667 </v>
   <v>       0.38461538       0.02777778       0.04166667 </v>
   <v>       0.46153846       0.02777778       0.04166667 </v>
   <v>       0.00000000       0.08333333       0.04166667 </v>
   <v>       0.07692308       0.08333333       0.04166667 </v>
   <v>       0.15384615       0.08333333       0.04166667 </v>
   <v>       0.23076923       0.08333333       0.04166667 </v>
   <v>       0.30769231       0.08333333       0.04166667 </v>
   <v>       0.38461538       0.08333333       0.04166667 </v>
   <v>       0.46153846       0.08333333       0.04166667 </v>
   <v>       0.00000000       0.13888889       0.04166667 </v>
   <v>       0.07692308       0.13888889       0.04166667 </v>
   <v>       0.15384615       0.13888889       0.04166667 </v>
   <v>       0.23076923       0.13888889       0.04166667 </v>
   <v>       0.30769231       0.13888889       0.04166667 </v>
   <v>       0.38461538       0.13888889       0.04166667 </v>
   <v>       0.46153846       0.13888889       0.04166667 </v>
   <v>       0.00000000       0.19444444       0.04166667 </v>
   <v>       0.07692308       0.19444444       0.04166667 </v>
   <v>       0.15384615       0.19444444       0.04166667 </v>
   <v>       0.23076923       0.19444444       0.04166667 </v>
   <v>       0.30769231       0.19444444       0.04166667 </v>
   <v>       0.38461538       0.19444444       0.04166667 </v>
   <v>       0.46153846       0.19444444       0.04166667 </v>
   <v>       0.00000000       0.25000000       0.04166667 </v>
   <v>       0.07692308       0.25000000       0.04166667 </v>
   <v>       0.15384615       0.25000000       0.04166667 </v>
   <v>       0.23076923       0.25000000       0.04166667 </v>
   <v>       0.30769231       0.25000000       0.04166667 </v>
   <v>       0.38461538       0.25000000       0.04166667 </v>
   <v>       0.46153846       0.25000000       0.04166667 </v>
   <v>       0.00000000       0.30555556       0.04166667 </v>
   <v>       0.07692308       0.30555556       0.04166667 </v>
   <v>       0.15384615       0.30555556       0.04166667 </v>
   <v>       0.23076923       0.30555556       0.04166667 </v>
   <v>       0.30769231       0.30555556       0.04166667 </v>
   <v>       0.38461538       0.30555556       0.04166667 </v>
   <v>       0.46153846       0.30555556       0.04166667 </v>
   <v>       0.00000000       0.36111111       0.04166667 </v>
   <v>       0.07692308       0.36111111       0.04166667 </v>
   <v>       0.15384615       0.36111111       0.04166667 </v>
   <v>       0.23076923       0.36111111       0.04166667 </v>
   <v>       0.30769231       0.36111111       0.04166667 </v>
   <v>       0.38461538       0.36111111       0.04166667 </v>
   <v>       0.46153846       0.36111111       0.04166667 </v>
   <v>       0.00000000       0.41666667       0.04166667 </v>
   <v>       0.07692308       0.41666667       0.04166667 </v>
   <v>       0.15384615       0.41666667       0.04166667 </v>
   <v>       0.23076923       0.41666667       0.04166667 </v>
   <v>       0.30769231       0.41666667       0.04166667 </v>
   <v>       0.38461538       0.41666667       0.04166667 </v>
   <v>       0.46153846       0.41666667       0.04166667 </v>
   <v>       0.00000000       0.47222222       0.04166667 </v>
   <v>       0.07692308       0.47222222       0.04166667 </v>
   <v>       0.15384615       0.47222222       0.04166667 </v>
   <v>       0.23076923       0.47222222       0.04166667 </v>
   <v>       0.30769231       0.47222222       0.04166667 </v>
   <v>       0.38461538       0.47222222       0.04166667 </v>
   <v>       0.46153846       0.47222222       0.04166667 </v>
   <v>       0.00000000       0.02777778       0.12500000 </v>
   <v>       0.07692308       0.02777778       0.12500000 </v>
   <v>       0.15384615       0.02777778       0.12500000 </v>
   <v>       0.23076923       0.02777778       0.12500000 </v>
   <v>       0.30769231       0.02777778       0.12500000 </v>
   <v>       0.38461538       0.02777778       0.12500000 </v>
   <v>       0.46153846       0.02777778       0.12500000 </v>
   <v>       0.00000000       0.08333333       0.12500000 </v>
   <v>       0.07692308       0.08333333       0.12500000 </v>
   <v>       0.15384615       0.08333333       0.12500000 </v>
   <v>       0.23076923       0.08333333       0.12500000 </v>
   <v>       0.30769231       0.08333333       0.12500000 </v>
   <v>       0.38461538       0.08333333       0.12500000 </v>
   <v>       0.46153846       0.08333333       0.12500000 </v>
   <v>       0.00000000       0.13888889       0.12500000 </v>
   <v>       0.07692308       0.13888889       0.12500000 </v>
   <v>       0.15384615       0.13888889       0.12500000 </v>
   <v>       0.23076923       0.13888889       0.12500000 </v>
   <v>       0.30769231       0.13888889       0.12500000 </v>
   <v>       0.38461538       0.13888889       0.12500000 </v>
   <v>       0.46153846       0.13888889       0.12500000 </v>
   <v>       0.00000000       0.19444444       0.12500000 </v>
   <v>       0.07692308       0.19444444       0.12500000 </v>
   <v>       0.15384615       0.19444444       0.12500000 </v>
   <v>       0.23076923       0.19444444       0.12500000 </v>
   <v>       0.30769231       0.19444444       0.12500000 </v>
   <v>       0.38461538       0.19444444       0.12500000 </v>
   <v>       0.46153846       0.19444444       0.12500000 </v>
   <v>       0.00000000       0.25000000       0.12500000 </v>
   <v>       0.07692308       0.25000000       0.12500000 </v>
   <v>       0.15384615       0.25000000       0.12500000 </v>
   <v>       0.23076923       0.25000000       0.12500000 </v>
   <v>       0.30769231       0.25000000       0.12500000 </v>
   <v>       0.38461538       0.25000000       0.12500000 </v>
   <v>       0.46153846       0.25000000       0.12500000 </v>
   <v>       0.00000000       0.30555556       0.12500000 </v>
   <v>       0.07692308       0.30555556       0.12500000 </v>
   <v>       0.15384615       0.30555556       0.12500000 </v>
   <v>       0.23076923       0.30555556       0.12500000 </v>
   <v>       0.30769231       0.30555556       0.12500000 </v>
   <v>       0.38461538       0.30555556       0.12500000 </v>
   <v>       0.46153846       0.30555556       0.12500000 </v>
   <v>       0.00000000       0.36111111       0.12500000 </v>
   <v>       0.07692308       0.36111111       0.12500000 </v>
   <v>       0.15384615       0.36111111       0.12500000 </v>
   <v>       0.23076923       0.36111111       0.12500000 </v>
   <v>       0.30769231       0.36111111       0.12500000 </v>
   <v>       0.38461538       0.36111111       0.12500000 </v>
   <v>       0.46153846       0.36111111       0.12500000 </v>
   <v>       0.00000000       0.41666667       0.12500000 </v>
   <v>       0.07692308       0.41666667       0.12500000 </v>
   <v>       0.15384615       0.41666667       0.12500000 </v>
   <v>       0.23076923       0.41666667       0.12500000 </v>
   <v>       0.30769231       0.41666667       0.12500000 </v>
   <v>       0.38461538       0.41666667       0.12500000 </v>
   <v>       0.46153846       0.41666667       0.12500000 </v>
   <v>       0.00000000       0.47222222       0.12500000 </v>
   <v>       0.07692308       0.47222222       0.12500000 </v>
   <v>       0.15384615       0.47222222       0.12500000 </v>
   <v>       0.23076923       0.47222222       0.12500000 </v>
   <v>       0.30769231       0.47222222       0.12500000 </v>
   <v>       0.38461538       0.47222222       0.12500000 </v>
   <v>       0.46153846       0.47222222       0.12500000 </v>
   <v>       0.00000000       0.02777778       0.20833333 </v>
   <v>       0.07692308       0.02777778       0.20833333 </v>
   <v>       0.15384615       0.02777778       0.20833333 </v>
   <v>       0.23076923       0.02777778       0.20833333 </v>
   <v>       0.30769231       0.02777778       0.20833333 </v>
   <v>       0.38461538       0.02777778       0.20833333 </v>
   <v>       0.46153846       0.02777778       0.20833333 </v>
   <v>       0.00000000       0.08333333       0.20833333 </v>
   <v>       0.07692308       0.08333333       0.20833333 </v>
   <v>       0.15384615       0.08333333       0.20833333 </v>
   <v>       0.23076923       0.08333333       0.20833333 </v>
   <v>       0.30769231       0.08333333       0.20833333 </v>
   <v>       0.38461538       0.08333333       0.20833333 </v>
   <v>       0.46153846       0.08333333       0.20833333 </v>
   <v>       0.00000000       0.13888889       0.20833333 </v>
   <v>       0.07692308       0.13888889       0.20833333 </v>
   <v>       0.15384615       0.13888889       0.20833333 </v>
   <v>       0.23076923       0.13888889       0.20833333 </v>
   <v>       0.30769231       0.13888889       0.20833333 </v>
   <v>       0.38461538       0.13888889       0.20833333 </v>
   <v>       0.46153846       0.13888889       0.20833333 </v>
   <v>       0.00000000       0.19444444       0.20833333 </v>
   <v>       0.07692308       0.19444444       0.20833333 </v>
   <v>       0.15384615       0.19444444       0.20833333 </v>
   <v>       0.23076923       0.19444444       0.20833333 </v>
   <v>       0.30769231       0.19444444       0.20833333 </v>
   <v>       0.38461538       0.19444444       0.20833333 </v>
   <v>       0.46153846       0.19444444       0.20833333 </v>
   <v>       0.00000000       0.25000000       0.20833333 </v>
   <v>       0.07692308       0.25000000       0.20833333 </v>
   <v>       0.15384615       0.25000000       0.20833333 </v>
   <v>       0.23076923       0.25000000       0.20833333 </v>
   <v>       0.30769231       0.25000000       0.20833333 </v>
   <v>       0.38461538       0.25000000       0.20833333 </v>
   <v>       0.46153846       0.25000000       0.20833333 </v>
   <v>       0.00000000       0.30555556       0.20833333 </v>
   <v>       0.07692308       0.30555556       0.20833333 </v>
   <v>       0.15384615       0.30555556       0.20833333 </v>
   <v>       0.23076923       0.30555556       0.20833333 </v>
   <v>       0.30769231       0.30555556       0.20833333 </v>
   <v>       0.38461538       0.30555556       0.20833333 </v>
   <v>       0.46153846       0.30555556       0.20833333 </v>
   <v>       0.00000000       0.36111111       0.20833333 </v>
   <v>       0.07692308       0.36111111       0.20833333 </v>
   <v>       0.15384615       0.36111111       0.20833333 </v>
   <v>       0.23076923       0.36111111       0.20833333 </v>
   <v>       0.30769231       0.36111111       0.20833333 </v>
   <v>       0.38461538       0.36111111       0.20833333 </v>
   <v>       0.46153846       0.36111111       0.20833333 </v>
   <v>       0.00000000       0.41666667       0.20833333 </v>
   <v>       0.07692308       0.41666667       0.20833333 </v>
   <v>       0.15384615       0.41666667       0.20833333 </v>
   <v>       0.23076923       0.41666667       0.20833333 </v>
   <v>       0.30769231       0.41666667       0.20833333 </v>
   <v>       0.38461538       0.41666667       0.20833333 </v>
   <v>       0.46153846       0.41666667       0.20833333 </v>
   <v>       0.00000000       0.47222222       0.20833333 </v>
   <v>       0.07692308       0.47222222       0.20833333 </v>
   <v>       0.15384615       0.47222222       0.20833333 </v>
   <v>       0.23076923       0.47222222       0.20833333 </v>
   <v>       0.30769231       0.47222222       0.20833333 </v>
   <v>       0.38461538       0.47222222       0.20833333 </v>
   <v>       0.46153846       0.47222222       0.20833333 </v>
   <v>       0.00000000       0.02777778       0.29166667 </v>
   <v>       0.07692308       0.02777778       0.29166667 </v>
   <v>       0.15384615       0.02777778       0.29166667 </v>
   <v>       0.23076923       0.02777778       0.29166667 </v>
   <v>       0.30769231       0.02777778       0.29166667 </v>
   <v>       0.38461538       0.02777778       0.29166667 </v>
   <v>       0.46153846       0.02777778       0.29166667 </v>
   <v>       0.00000000       0.08333333       0.29166667 </v>
   <v>       0.07692308       0.08333333       0.29166667 </v>
   <v>       0.15384615       0.08333333       0.29166667 </v>
   <v>       0.23076923       0.08333333       0.29166667 </v>
   <v>       0.30769231       0.08333333       0.29166667 </v>
   <v>       0.38461538       0.08333333       0.29166667 </v>
   <v>       0.46153846       0.08333333       0.29166667 </v>
   <v>       0.00000000       0.13888889       0.29166667 </v>
   <v>       0.07692308       0.13888889       0.29166667 </v>
   <v>       0.15384615       0.13888889       0.29166667 </v>
   <v>       0.23076923       0.13888889       0.29166667 </v>
   <v>       0.30769231       0.13888889       0.29166667 </v>
   <v>       0.38461538       0.13888889       0.29166667 </v>
   <v>       0.46153846       0.13888889       0.29166667 </v>
   <v>       0.00000000       0.19444444       0.29166667 </v>
   <v>       0.07692308       0.19444444       0.29166667 </v>
   <v>       0.15384615       0.19444444       0.29166667 </v>
   <v>       0.23076923       0.19444444       0.29166667 </v>
   <v>       0.30769231       0.19444444       0.29166667 </v>
   <v>       0.38461538       0.19444444       0.29166667 </v>
   <v>       0.46153846       0.19444444       0.29166667 </v>
   <v>       0.00000000       0.25000000       0.29166667 </v>
   <v>       0.07692308       0.25000000       0.29166667 </v>
   <v>       0.15384615       0.25000000       0.29166667 </v>
   <v>       0.23076923       0.25000000       0.29166667 </v>
   <v>       0.30769231       0.25000000       0.29166667 </v>
   <v>       0.38461538       0.25000000       0.29166667 </v>
   <v>       0.46153846       0.25000000       0.29166667 </v>
   <v>       0.00000000       0.30555556       0.29166667 </v>
   <v>       0.07692308       0.30555556       0.29166667 </v>
   <v>       0.15384615       0.30555556       0.29166667 </v>
   <v>       0.23076923       0.30555556       0.29166667 </v>
   <v>       0.30769231       0.30555556       0.29166667 </v>
   <v>       0.38461538       0.30555556       0.29166667 </v>
   <v>       0.46153846       0.30555556       0.29166667 </v>
   <v>       0.00000000       0.36111111       0.29166667 </v>
   <v>       0.07692308       0.36111111       0.29166667 </v>
   <v>       0.15384615       0.36111111       0.29166667 </v>
   <v>       0.23076923       0.36111111       0.29166667 </v>
   <v>       0.30769231       0.36111111       0.29166667 </v>
   <v>       0.38461538       0.36111111       0.29166667 </v>
   <v>       0.46153846       0.36111111       0.29166667 </v>
   <v>       0.00000000       0.41666667       0.29166667 </v>
   <v>       0.07692308       0.41666667       0.29166667 </v>
   <v>       0.15384615       0.41666667       0.29166667 </v>
   <v>       0.23076923       0.41666667       0.29166667 </v>
   <v>       0.30769231       0.41666667       0.29166667 </v>
   <v>       0.38461538       0.41666667       0.29166667 </v>
   <v>       0.46153846       0.41666667       0.29166667 </v>
   <v>       0.00000000       0.47222222       0.29166667 </v>
   <v>       0.07692308       0.47222222       0.29166667 </v>
   <v>       0.15384615       0.47222222       0.29166667 </v>
   <v>       0.23076923       0.47222222       0.29166667 </v>
   <v>       0.30769231       0.47222222       0.29166667 </v>
   <v>       0.38461538       0.47222222       0.29166667 </v>
   <v>       0.46153846       0.47222222       0.29166667 </v>
   <v>       0.00000000       0.02777778       0.37500000 </v>
   <v>       0.07692308       0.02777778       0.37500000 </v>
   <v>       0.15384615       0.02777778       0.37500000 </v>
   <v>       0.23076923       0.02777778       0.37500000 </v>
   <v>       0.30769231       0.02777778       0.37500000 </v>
   <v>       0.38461538       0.02777778       0.37500000 </v>
   <v>       0.46153846       0.02777778       0.37500000 </v>
   <v>       0.00000000       0.08333333       0.37500000 </v>
   <v>       0.07692308       0.08333333       0.37500000 </v>
   <v>       0.15384615       0.08333333       0.37500000 </v>
   <v>       0.23076923       0.08333333       0.37500000 </v>
   <v>       0.30769231       0.08333333       0.37500000 </v>
   <v>       0.38461538       0.08333333       0.37500000 </v>
   <v>       0.46153846       0.08333333       0.37500000 </v>
   <v>       0.00000000       0.13888889       0.37500000 </v>
   <v>       0.07692308       0.13888889       0.37500000 </v>
   <v>       0.15384615       0.13888889       0.37500000 </v>
   <v>       0.23076923       0.13888889       0.37500000 </v>
   <v>       0.30769231       0.13888889       0.37500000 </v>
   <v>       0.38461538       0.13888889       0.37500000 </v>
   <v>       0.46153846       0.13888889       0.37500000 </v>
   <v>       0.00000000       0.19444444       0.37500000 </v>
   <v>       0.07692308       0.19444444       0.37500000 </v>
   <v>       0.15384615       0.19444444       0.37500000 </v>
   <v>       0.23076923       0.19444444       0.37500000 </v>
   <v>       0.30769231       0.19444444       0.37500000 </v>
   <v>       0.38461538       0.19444444       0.37500000 </v>
   <v>       0.46153846       0.19444444       0.37500000 </v>
   <v>       0.00000000       0.25000000       0.37500000 </v>
   <v>       0.07692308       0.25000000       0.37500000 </v>
   <v>       0.15384615       0.25000000       0.37500000 </v>
   <v>       0.23076923       0.25000000       0.37500000 </v>
   <v>       0.30769231       0.25000000       0.37500000 </v>
   <v>       0.38461538       0.25000000       0.37500000 </v>
   <v>       0.46153846       0.25000000       0.37500000 </v>
   <v>       0.00000000       0.30555556       0.37500000 </v>
   <v>       0.07692308       0.30555556       0.37500000 </v>
   <v>       0.15384615       0.30555556       0.37500000 </v>
   <v>       0.23076923       0.30555556       0.37500000 </v>
   <v>       0.30769231       0.30555556       0.37500000 </v>
   <v>       0.38461538       0.30555556       0.37500000 </v>
   <v>       0.46153846       0.30555556       0.37500000 </v>
   <v>       0.00000000       0.36111111       0.37500000 </v>
   <v>       0.07692308       0.36111111       0.37500000 </v>
   <v>       0.15384615       0.36111111       0.37500000 </v>
   <v>       0.23076923       0.36111111       0.37500000 </v>
   <v>       0.30769231       0.36111111       0.37500000 </v>
   <v>       0.38461538       0.36111111       0.37500000 </v>
   <v>       0.46153846       0.36111111       0.37500000 </v>
   <v>       0.00000000       0.41666667       0.37500000 </v>
   <v>       0.07692308       0.41666667       0.37500000 </v>
   <v>       0.15384615       0.41666667       0.37500000 </v>
   <v>       0.23076923       0.41666667       0.37500000 </v>
   <v>       0.30769231       0.41666667       0.37500000 </v>
   <v>       0.38461538       0.41666667       0.37500000 </v>
   <v>       0.46153846       0.41666667       0.37500000 </v>
   <v>       0.00000000       0.47222222       0.37500000 </v>
   <v>       0.07692308       0.47222222       0.37500000 </v>
   <v>       0.15384615       0.47222222       0.37500000 </v>
   <v>       0.23076923       0.47222222       0.37500000 </v>
   <v>       0.30769231       0.47222222       0.37500000 </v>
   <v>       0.38461538       0.47222222       0.37500000 </v>
   <v>       0.46153846       0.47222222       0.37500000 </v>
   <v>       0.00000000       0.02777778       0.45833333 </v>
   <v>       0.07692308       0.02777778       0.45833333 </v>
   <v>       0.15384615       0.02777778       0.45833333 </v>
   <v>       0.23076923       0.02777778       0.45833333 </v>
   <v>       0.30769231       0.02777778       0.45833333 </v>
   <v>       0.38461538       0.02777778       0.45833333 </v>
   <v>       0.46153846       0.02777778       0.45833333 </v>
   <v>       0.00000000       0.08333333       0.45833333 </v>
   <v>       0.07692308       0.08333333       0.45833333 </v>
   <v>       0.15384615       0.08333333       0.45833333 </v>
   <v>       0.23076923       0.08333333       0.45833333 </v>
   <v>       0.30769231       0.08333333       0.45833333 </v>
   <v>       0.38461538       0.08333333       0.45833333 </v>
   <v>       0.46153846       0.08333333       0.45833333 </v>
   <v>       0.00000000       0.13888889       0.45833333 </v>
   <v>       0.07692308       0.13888889       0.45833333 </v>
   <v>       0.15384615       0.13888889       0.45833333 </v>
   <v>       0.23076923       0.13888889       0.45833333 </v>
   <v>       0.30769231       0.13888889       0.45833333 </v>
   <v>       0.38461538       0.13888889       0.45833333 </v>
   <v>       0.46153846       0.13888889       0.45833333 </v>
   <v>       0.00000000       0.19444444       0.45833333 </v>
   <v>       0.07692308       0.19444444       0.45833333 </v>
   <v>       0.15384615       0.19444444       0.45833333 </v>
   <v>       0.23076923       0.19444444       0.45833333 </v>
   <v>       0.30769231       0.19444444       0.45833333 </v>
   <v>       0.38461538       0.19444444       0.45833333 </v>
   <v>       0.46153846       0.19444444       0.45833333 </v>
   <v>       0.00000000       0.25000000       0.45833333 </v>
   <v>       0.07692308       0.25000000       0.45833333 </v>
   <v>       0.15384615       0.25000000       0.45833333 </v>
   <v>       0.23076923       0.25000000       0.45833333 </v>
   <v>       0.30769231       0.25000000       0.45833333 </v>
   <v>       0.38461538       0.25000000       0.45833333 </v>
   <v>       0.46153846       0.25000000       0.45833333 </v>
   <v>       0.00000000       0.30555556       0.45833333 </v>
   <v>       0.07692308       0.30555556       0.45833333 </v>
   <v>       0.15384615       0.30555556       0.45833333 </v>
   <v>       0.23076923       0.30555556       0.45833333 </v>
   <v>       0.30769231       0.30555556       0.45833333 </v>
   <v>       0.38461538       0.30555556       0.45833333 </v>
   <v>       0.46153846       0.30555556       0.45833333 </v>
   <v>       0.00000000       0.36111111       0.45833333 </v>
   <v>       0.07692308       0.36111111       0.45833333 </v>
   <v>       0.15384615       0.36111111       0.45833333 </v>
   <v>       0.23076923       0.36111111       0.45833333 </v>
   <v>       0.30769231       0.36111111       0.45833333 </v>
   <v>       0.38461538       0.36111111       0.45833333 </v>
   <v>       0.46153846       0.36111111       0.45833333 </v>
   <v>       0.00000000       0.41666667       0.45833333 </v>
   <v>       0.07692308       0.41666667       0.45833333 </v>
   <v>       0.15384615       0.41666667       0.45833333 </v>
   <v>       0.23076923       0.41666667       0.45833333 </v>
   <v>       0.30769231       0.41666667       0.45833333 </v>
   <v>       0.38461538       0.41666667       0.45833333 </v>
   <v>       0.46153846       0.41666667       0.45833333 </v>
   <v>       0.00000000       0.47222222       0.45833333 </v>
   <v>       0.07692308       0.47222222       0.45833333 </v>
   <v>       0.15384615       0.47222222       0.45833333 </v>
   <v>       0.23076923       0.47222222       0.45833333 </v>
   <v>       0.30769231       0.47222222       0.45833333 </v>
   <v>       0.38461538       0.47222222       0.45833333 </v>
   <v>       0.46153846       0.47222222       0.45833333 </v>
  </varray>
  <varray name="weights" >
   <v>       0.00142450 </v>
   <v>       0.00284900 </v>
   <v>       0.00284900 </v>
   <v>       0.00284900 </v>
   <v>       0.00284900 </v>
   <v>       0.00284900 </v>
   <v>       0.00284900 </v>
   <v>       0.00142450 </v>
   <v>       0.00284900 </v>
   <v>       0.00284900 </v>
   <v>       0.00284900 </v>
   <v>       0.00284900 </v>
   <v>       0.00284900 </v>
   <v>       0.00284900 </v>
   <v>       0.00142450 </v>
   <v>       0.00284900 </v>
   <v>       0.00284900 </v>
   <v>       0.00284900 </v>
   <v>       0.00284900 </v>
   <v>       0.00284900 </v>
   <v>       0.00284900 </v>
   <v>       0.00142450 </v>
   <v>       0.00284900 </v>
   <v>       0.00284900 </v>
   <v>       0.00284900 </v>
   <v>       0.00284900 </v>
   <v>       0.00284900 </v>
   <v>       0.00284900 </v>
   <v>       0.00142450 </v>
   <v>       0.00284900 </v>
   <v>       0.00284900 </v>
   <v>       0.00284900 </v>
   <v>       0.00284900 </v>
   <v>       0.00284900 </v>
   <v>       0.00284900 </v>
   <v>       0.00142450 </v>
   <v>       0.00284900 </v>
   <v>       0.00284900 </v>
   <v>       0.00284900 </v>
   <v>       0.00284900 </v>
   <v>       0.00284900 </v>
   <v>       0.00284900 </v>
   <v>       0.00142450 </v>
   <v>       0.00284900 </v>
   <v>       0.00284900 </v>
   <v>       0.00284900 </v>
   <v>       0.00284900 </v>
   <v>       0.00284900 </v>
   <v>       0.00284900 </v>
   <v>       0.00142450 </v>
   <v>       0.00284900 </v>
   <v>       0.00284900 </v>
   <v>       0.00284900 </v>
   <v>       0.00284900 </v>
   <v>       0.00284900 </v>
   <v>       0.00284900 </v>
   <v>       0.00142450 </v>
   <v>       0.00284900 </v>
   <v>       0.00284900 </v>
   <v>       0.00284900 </v>
   <v>       0.00284900 </v>
   <v>       0.00284900 </v>
   <v>       0.00284900 </v>
   <v>       0.00142450 </v>
   <v>       0.00284900 </v>
   <v>       0.00284900 </v>
   <v>       0.00284900 </v>
   <v>       0.00284900 </v>
   <v>       0.00284900 </v>
   <v>       0.00284900 </v>
   <v>       0.00142450 </v>
   <v>       0.00284900 </v>
   <v>       0.00284900 </v>
   <v>       0.00284900 </v>
   <v>       0.00284900 </v>
   <v>       0.00284900 </v>
   <v>       0.00284900 </v>
   <v>       0.00142450 </v>
   <v>       0.00284900 </v>
   <v>       0.00284900 </v>
   <v>       0.00284900 </v>
   <v>       0.00284900 </v>
   <v>       0.00284900 </v>
   <v>       0.00284900 </v>
   <v>       0.00142450 </v>
   <v>       0.00284900 </v>
   <v>       0.00284900 </v>
   <v>       0.00284900 </v>
   <v>       0.00284900 </v>
   <v>       0.00284900 </v>
   <v>       0.00284900 </v>
   <v>       0.00142450 </v>
   <v>       0.00284900 </v>
   <v>       0.00284900 </v>
   <v>       0.00284900 </v>
   <v>       0.00284900 </v>
   <v>       0.00284900 </v>
   <v>       0.00284900 </v>
   <v>       0.00142450 </v>
   <v>       0.00284900 </v>
   <v>       0.00284900 </v>
   <v>       0.00284900 </v>
   <v>       0.00284900 </v>
   <v>       0.00284900 </v>
   <v>       0.00284900 </v>
   <v>       0.00142450 </v>
   <v>       0.00284900 </v>
   <v>       0.00284900 </v>
   <v>       0.00284900 </v>
   <v>       0.00284900 </v>
   <v>       0.00284900 </v>
   <v>       0.00284900 </v>
   <v>       0.00142450 </v>
   <v>       0.00284900 </v>
   <v>       0.00284900 </v>
   <v>       0.00284900 </v>
   <v>       0.00284900 </v>
   <v>       0.00284900 </v>
   <v>       0.00284900 </v>
   <v>       0.00142450 </v>
   <v>       0.00284900 </v>
   <v>       0.00284900 </v>
   <v>       0.00284900 </v>
   <v>       0.00284900 </v>
   <v>       0.00284900 </v>
   <v>       0.00284900 </v>
   <v>       0.00142450 </v>
   <v>       0.00284900 </v>
   <v>       0.00284900 </v>
   <v>       0.00284900 </v>
   <v>       0.00284900 </v>
   <v>       0.00284900 </v>
   <v>       0.00284900 </v>
   <v>       0.00142450 </v>
   <v>       0.00284900 </v>
   <v>       0.00284900 </v>
   <v>       0.00284900 </v>
   <v>       0.00284900 </v>
   <v>       0.00284900 </v>
   <v>       0.00284900 </v>
   <v>       0.00142450 </v>
   <v>       0.00284900 </v>
   <v>       0.00284900 </v>
   <v>       0.00284900 </v>
   <v>       0.00284900 </v>
   <v>       0.00284900 </v>
   <v>       0.00284900 </v>
   <v>       0.00142450 </v>
   <v>       0.00284900 </v>
   <v>       0.00284900 </v>
   <v>       0.00284900 </v>
   <v>       0.00284900 </v>
   <v>       0.00284900 </v>
   <v>       0.00284900 </v>
   <v>       0.00142450 </v>
   <v>       0.00284900 </v>
   <v>       0.00284900 </v>
   <v>       0.00284900 </v>
   <v>       0.00284900 </v>
   <v>       0.00284900 </v>
   <v>       0.00284900 </v>
   <v>       0.00142450 </v>
   <v>       0.00284900 </v>
   <v>       0.00284900 </v>
   <v>       0.00284900 </v>
   <v>       0.00284900 </v>
   <v>       0.00284900 </v>
   <v>       0.00284900 </v>
   <v>       0.00142450 </v>
   <v>       0.00284900 </v>
   <v>       0.00284900 </v>
   <v>       0.00284900 </v>
   <v>       0.00284900 </v>
   <v>       0.00284900 </v>
   <v>       0.00284900 </v>
   <v>       0.00142450 </v>
   <v>       0.00284900 </v>
   <v>       0.00284900 </v>
   <v>       0.00284900 </v>
   <v>       0.00284900 </v>
   <v>       0.00284900 </v>
   <v>       0.00284900 </v>
   <v>       0.00142450 </v>
   <v>       0.00284900 </v>
   <v>       0.00284900 </v>
   <v>       0.00284900 </v>
   <v>       0.00284900 </v>
   <v>       0.00284900 </v>
   <v>       0.00284900 </v>
   <v>       0.00142450 </v>
   <v>       0.00284900 </v>
   <v>       0.00284900 </v>
   <v>       0.00284900 </v>
   <v>       0.00284900 </v>
   <v>       0.00284900 </v>
   <v>       0.00284900 </v>
   <v>       0.00142450 </v>
   <v>       0.00284900 </v>
   <v>       0.00284900 </v>
   <v>       0.00284900 </v>
   <v>       0.00284900 </v>
   <v>       0.00284900 </v>
   <v>       0.00284900 </v>
   <v>       0.00142450 </v>
   <v>       0.00284900 </v>
   <v>       0.00284900 </v>
   <v>       0.00284900 </v>
   <v>       0.00284900 </v>
   <v>       0.00284900 </v>
   <v>       0.00284900 </v>
   <v>       0.00142450 </v>
   <v>       0.00284900 </v>
   <v>       0.00284900 </v>
   <v>       0.00284900 </v>
   <v>       0.00284900 </v>
   <v>       0.00284900 </v>
   <v>       0.00284900 </v>
   <v>       0.00142450 </v>
   <v>       0.00284900 </v>
   <v>       0.00284900 </v>
   <v>       0.00284900 </v>
   <v>       0.00284900 </v>
   <v>       0.00284900 </v>
   <v>       0.00284900 </v>
   <v>       0.00142450 </v>
   <v>       0.00284900 </v>
   <v>       0.00284900 </v>
   <v>       0.00284900 </v>
   <v>       0.00284900 </v>
   <v>       0.00284900 </v>
   <v>       0.00284900 </v>
   <v>       0.00142450 </v>
   <v>       0.00284900 </v>
   <v>       0.00284900 </v>
   <v>       0.00284900 </v>
   <v>       0.00284900 </v>
   <v>       0.00284900 </v>
   <v>       0.00284900 </v>
   <v>       0.00142450 </v>
   <v>       0.00284900 </v>
   <v>       0.00284900 </v>
   <v>       0.00284900 </v>
   <v>       0.00284900 </v>
   <v>       0.00284900 </v>
   <v>       0.00284900 </v>
   <v>       0.00142450 </v>
   <v>       0.00284900 </v>
   <v>       0.00284900 </v>
   <v>       0.00284900 </v>
   <v>       0.00284900 </v>
   <v>       0.00284900 </v>
   <v>       0.00284900 </v>
   <v>       0.00142450 </v>
   <v>       0.00284900 </v>
   <v>       0.00284900 </v>
   <v>       0.00284900 </v>
   <v>       0.00284900 </v>
   <v>       0.00284900 </v>
   <v>       0.00284900 </v>
   <v>       0.00142450 </v>
   <v>       0.00284900 </v>
   <v>       0.00284900 </v>
   <v>       0.00284900 </v>
   <v>       0.00284900 </v>
   <v>       0.00284900 </v>
   <v>       0.00284900 </v>
   <v>       0.00142450 </v>
   <v>       0.00284900 </v>
   <v>       0.00284900 </v>
   <v>       0.00284900 </v>
   <v>       0.00284900 </v>
   <v>       0.00284900 </v>
   <v>       0.00284900 </v>
   <v>       0.00142450 </v>
   <v>       0.00284900 </v>
   <v>       0.00284900 </v>
   <v>       0.00284900 </v>
   <v>       0.00284900 </v>
   <v>       0.00284900 </v>
   <v>       0.00284900 </v>
   <v>       0.00142450 </v>
   <v>       0.00284900 </v>
   <v>       0.00284900 </v>
   <v>       0.00284900 </v>
   <v>       0.00284900 </v>
   <v>       0.00284900 </v>
   <v>       0.00284900 </v>
   <v>       0.00142450 </v>
   <v>       0.00284900 </v>
   <v>       0.00284900 </v>
   <v>       0.00284900 </v>
   <v>       0.00284900 </v>
   <v>       0.00284900 </v>
   <v>       0.00284900 </v>
   <v>       0.00142450 </v>
   <v>       0.00284900 </v>
   <v>       0.00284900 </v>
   <v>       0.00284900 </v>
   <v>       0.00284900 </v>
   <v>       0.00284900 </v>
   <v>       0.00284900 </v>
   <v>       0.00142450 </v>
   <v>       0.00284900 </v>
   <v>       0.00284900 </v>
   <v>       0.00284900 </v>
   <v>       0.00284900 </v>
   <v>       0.00284900 </v>
   <v>       0.00284900 </v>
   <v>       0.00142450 </v>
   <v>       0.00284900 </v>
   <v>       0.00284900 </v>
   <v>       0.00284900 </v>
   <v>       0.00284900 </v>
   <v>       0.00284900 </v>
   <v>       0.00284900 </v>
   <v>       0.00142450 </v>
   <v>       0.00284900 </v>
   <v>       0.00284900 </v>
   <v>       0.00284900 </v>
   <v>       0.00284900 </v>
   <v>       0.00284900 </v>
   <v>       0.00284900 </v>
   <v>       0.00142450 </v>
   <v>       0.00284900 </v>
   <v>       0.00284900 </v>
   <v>       0.00284900 </v>
   <v>       0.00284900 </v>
   <v>       0.00284900 </v>
   <v>       0.00284900 </v>
   <v>       0.00142450 </v>
   <v>       0.00284900 </v>
   <v>       0.00284900 </v>
   <v>       0.00284900 </v>
   <v>       0.00284900 </v>
   <v>       0.00284900 </v>
   <v>       0.00284900 </v>
   <v>       0.00142450 </v>
   <v>       0.00284900 </v>
   <v>       0.00284900 </v>
   <v>       0.00284900 </v>
   <v>       0.00284900 </v>
   <v>       0.00284900 </v>
   <v>       0.00284900 </v>
   <v>       0.00142450 </v>
   <v>       0.00284900 </v>
   <v>       0.00284900 </v>
   <v>       0.00284900 </v>
   <v>       0.00284900 </v>
   <v>       0.00284900 </v>
   <v>       0.00284900 </v>
   <v>       0.00142450 </v>
   <v>       0.00284900 </v>
   <v>       0.00284900 </v>
   <v>       0.00284900 </v>
   <v>       0.00284900 </v>
   <v>       0.00284900 </v>
   <v>       0.00284900 </v>
   <v>       0.00142450 </v>
   <v>       0.00284900 </v>
   <v>       0.00284900 </v>
   <v>       0.00284900 </v>
   <v>       0.00284900 </v>
   <v>       0.00284900 </v>
   <v>       0.00284900 </v>
   <v>       0.00142450 </v>
   <v>       0.00284900 </v>
   <v>       0.00284900 </v>
   <v>       0.00284900 </v>
   <v>       0.00284900 </v>
   <v>       0.00284900 </v>
   <v>       0.00284900 </v>
   <v>       0.00142450 </v>
   <v>       0.00284900 </v>
   <v>       0.00284900 </v>
   <v>       0.00284900 </v>
   <v>       0.00284900 </v>
   <v>       0.00284900 </v>
   <v>       0.00284900 </v>
  </varray>
 </kpoints>
 <parameters>
  <separator name="general" >
   <i type="string" name="SYSTEM">Kpoints</i>
   <i type="logical" name="LCOMPAT"> F  </i>
  </separator>
  <separator name="electronic" >
   <i type="string" name="PREC">accura</i>
   <i name="ENMAX">    480.00000000</i>
   <i name="ENAUG">    535.51400000</i>
   <i name="EDIFF">      0.00000100</i>
   <i type="int" name="IALGO">    38</i>
   <i type="int" name="IWAVPR">    10</i>
   <i type="int" name="NBANDS">    48</i>
   <i type="int" name="NBANDSLOW">    -1</i>
   <i type="int" name="NBANDSHIGH">    -1</i>
   <i name="NELECT">     42.00000000</i>
   <i type="int" name="TURBO">     0</i>
   <i type="int" name="IRESTART">     0</i>
   <i type="int" name="NREBOOT">     0</i>
   <i type="int" name="NMIN">     0</i>
   <i name="EREF">      0.00000000</i>
   <separator name="electronic smearing" >
    <i type="int" name="ISMEAR">     0</i>
    <i name="SIGMA">      0.05000000</i>
    <i name="KSPACING">      0.50000000</i>
    <i type="logical" name="KGAMMA"> T  </i>
    <i type="logical" name="KBLOWUP"> T  </i>
   </separator>
   <separator name="electronic projectors" >
    <i type="logical" name="LREAL"> F  </i>
    <v name="ROPT">      0.00000000</v>
    <i type="int" name="LMAXPAW">  -100</i>
    <i type="int" name="LMAXMIX">     2</i>
    <i type="logical" name="NLSPLINE"> F  </i>
   </separator>
   <separator name="electronic startup" >
    <i type="int" name="ISTART">     0</i>
    <i type="int" name="ICHARG">     2</i>
    <i type="int" name="INIWAV">     1</i>
   </separator>
   <separator name="electronic spin" >
    <i type="int" name="ISPIN">     1</i>
    <i type="logical" name="LNONCOLLINEAR"> F  </i>
    <v name="MAGMOM">      1.00000000      1.00000000      1.00000000      1.00000000      1.00000000      1.00000000      1.00000000      1.00000000      1.00000000      1.00000000      1.00000000      1.00000000      1.00000000      1.00000000</v>
    <i name="NUPDOWN">     -1.00000000</i>
    <i type="logical" name="LSORBIT"> F  </i>
    <v name="SAXIS">      0.00000000      0.00000000      1.00000000</v>
    <i type="logical" name="LSPIRAL"> F  </i>
    <v name="QSPIRAL">      0.00000000      0.00000000      0.00000000</v>
    <i type="logical" name="LZEROZ"> F  </i>
   </separator>
   <separator name="electronic exchange-correlation" >
    <i type="logical" name="LASPH"> F  </i>
   </separator>
   <separator name="electronic convergence" >
    <i type="int" name="NELM">   100</i>
    <i type="int" name="NELMDL">    -5</i>
    <i type="int" name="NELMIN">     2</i>
    <i name="ENINI">    480.00000000</i>
    <separator name="electronic convergence detail" >
     <i type="logical" name="LDIAG"> T  </i>
     <i type="logical" name="LSUBROT"> F  </i>
     <i name="WEIMIN">      0.00000000</i>
     <i name="EBREAK">      0.00000001</i>
     <i name="DEPER">      0.30000000</i>
     <i type="int" name="NRMM">     4</i>
     <i name="TIME">      0.40000000</i>
    </separator>
   </separator>
   <separator name="electronic mixer" >
    <i name="AMIX">      0.40000000</i>
    <i name="BMIX">      1.00000000</i>
    <i name="AMIN">      0.10000000</i>
    <i name="AMIX_MAG">      1.60000000</i>
    <i name="BMIX_MAG">      1.00000000</i>
    <separator name="electronic mixer details" >
     <i type="int" name="IMIX">     4</i>
     <i type="logical" name="MIXFIRST"> F  </i>
     <i type="int" name="MAXMIX">   -45</i>
     <i name="WC">    100.00000000</i>
     <i type="int" name="INIMIX">     1</i>
     <i type="int" name="MIXPRE">     1</i>
     <i type="int" name="MREMOVE">     5</i>
    </separator>
   </separator>
   <separator name="electronic dipolcorrection" >
    <i type="logical" name="LDIPOL"> F  </i>
    <i type="logical" name="LMONO"> F  </i>
    <i type="int" name="IDIPOL">     0</i>
    <i name="EPSILON">      1.00000000</i>
    <v name="DIPOL">   -100.00000000   -100.00000000   -100.00000000</v>
    <i name="EFIELD">      0.00000000</i>
    <i type="logical" name="LVACPOTAV"> F  </i>
   </separator>
  </separator>
  <separator name="grids" >
   <i type="int" name="NGX">    42</i>
   <i type="int" name="NGY">    30</i>
   <i type="int" name="NGZ">    48</i>
   <i type="int" name="NGXF">    84</i>
   <i type="int" name="NGYF">    60</i>
   <i type="int" name="NGZF">    96</i>
   <i type="logical" name="ADDGRID"> F  </i>
  </separator>
  <separator name="ionic" >
   <i type="int" name="NSW">     0</i>
   <i type="int" name="IBRION">    -1</i>
   <i type="int" name="MDALGO">     0</i>
   <i type="int" name="ISIF">     2</i>
   <i name="PSTRESS">      0.00000000</i>
   <i name="EDIFFG">     -0.00100000</i>
   <i type="int" name="NFREE">     0</i>
   <i name="POTIM">      0.50000000</i>
   <i name="SMASS">     -3.00000000</i>
   <i name="SCALEE">      1.00000000</i>
  </separator>
  <separator name="ionic md" >
   <i name="TEBEG">      0.00010000</i>
   <i name="TEEND">      0.00010000</i>
   <i type="int" name="NBLOCK">     1</i>
   <i type="int" name="KBLOCK">     1</i>
   <i type="int" name="NPACO">   256</i>
   <i name="APACO">     10.00000000</i>
  </separator>
  <separator name="symmetry" >
   <i type="int" name="ISYM">     2</i>
   <i name="SYMPREC">      0.00001000</i>
  </separator>
  <separator name="dos" >
   <i type="int" name="LORBIT">     0</i>
   <v name="RWIGS">     -1.00000000</v>
   <i type="int" name="NEDOS">   301</i>
   <i name="EMIN">     10.00000000</i>
   <i name="EMAX">    -10.00000000</i>
   <i name="EFERMI">      0.00000000</i>
  </separator>
  <separator name="writing" >
   <i type="int" name="NWRITE">     2</i>
   <i type="logical" name="LWAVE"> F  </i>
   <i type="logical" name="LDOWNSAMPLE"> F  </i>
   <i type="logical" name="LCHARG"> F  </i>
   <i type="logical" name="LPARD"> F  </i>
   <i type="logical" name="LVTOT"> F  </i>
   <i type="logical" name="LVHAR"> F  </i>
   <i type="logical" name="LELF"> F  </i>
   <i type="logical" name="LOPTICS"> F  </i>
   <v name="STM">      0.00000000      0.00000000      0.00000000      0.00000000      0.00000000      0.00000000      0.00000000</v>
  </separator>
  <separator name="performance" >
   <i type="int" name="NPAR">    24</i>
   <i type="int" name="NSIM">     4</i>
   <i type="int" name="NBLK">    -1</i>
   <i type="logical" name="LPLANE"> T  </i>
   <i type="logical" name="LSCALAPACK"> T  </i>
   <i type="logical" name="LSCAAWARE"> F  </i>
   <i type="logical" name="LSCALU"> F  </i>
   <i type="logical" name="LASYNC"> F  </i>
   <i type="logical" name="LORBITALREAL"> F  </i>
  </separator>
  <separator name="miscellaneous" >
   <i type="int" name="IDIOT">     3</i>
   <i type="int" name="PHON_NSTRUCT">    -1</i>
   <i type="logical" name="LMUSIC"> F  </i>
   <v name="POMASS">     10.81100000</v>
   <v name="DARWINR">      0.00000000</v>
   <v name="DARWINV">      1.00000000</v>
   <i type="logical" name="LCORR"> T  </i>
  </separator>
  <i type="logical" name="GGA_COMPAT"> T  </i>
  <i type="logical" name="LBERRY"> F  </i>
  <i type="int" name="ICORELEVEL">     0</i>
  <i type="logical" name="LDAU"> F  </i>
  <i type="int" name="I_CONSTRAINED_M">     0</i>
  <separator name="electronic exchange-correlation" >
   <i type="string" name="GGA    ">PE</i>
   <i type="string" name="XC_C">1</i>
   <i type="int" name="VOSKOWN">     0</i>
   <i type="logical" name="LHFCALC"> F  </i>
   <i type="string" name="PRECFOCK"></i>
   <i type="logical" name="LSYMGRAD"> F  </i>
   <i type="logical" name="LHFONE"> F  </i>
   <i type="logical" name="LRHFCALC"> F  </i>
   <i type="logical" name="LTHOMAS"> F  </i>
   <i type="logical" name="LMODELHF"> F  </i>
   <i type="logical" name="LFOCKACE"> F  </i>
   <i name="ENCUT4O">     -1.00000000</i>
   <i type="int" name="EXXOEP">     0</i>
   <i type="int" name="FOURORBIT">     0</i>
   <i name="AEXX">      0.00000000</i>
   <i name="HFALPHA">      0.00000000</i>
   <i name="MCALPHA">      0.00000000</i>
   <i name="ALDAX">      1.00000000</i>
   <i name="AGGAX">      1.00000000</i>
   <i name="AMGGAX">      1.00000000</i>
   <i name="ALDAC">      1.00000000</i>
   <i name="AGGAC">      1.00000000</i>
   <i name="AMGGAC">      1.00000000</i>
   <i type="int" name="NKREDX">     1</i>
   <i type="int" name="NKREDY">     1</i>
   <i type="int" name="NKREDZ">     1</i>
   <i type="logical" name="SHIFTRED"> F  </i>
   <i type="logical" name="ODDONLY"> F  </i>
   <i type="logical" name="EVENONLY"> F  </i>
   <i type="int" name="LMAXFOCK">     0</i>
   <i type="int" name="NMAXFOCKAE">     0</i>
   <i type="logical" name="LFOCKAEDFT"> F  </i>
   <i name="HFSCREEN">      0.00000000</i>
   <i name="HFSCREENC">      0.00000000</i>
   <i type="int" name="NBANDSGWLOW">     0</i>
  </separator>
  <separator name="vdW DFT" >
   <i type="logical" name="LUSE_VDW"> F  </i>
   <i type="int" name="IVDW_NL">    -1</i>
   <i type="logical" name="LSPIN_VDW"> F  </i>
   <i name="ZAB_VDW">     -0.84910000</i>
   <i name="GAMMA_VDW">      1.39626340</i>
   <i name="ALPHA_VDW">      0.00000000</i>
   <i name="PARAM1">      0.12340000</i>
   <i name="PARAM2">      1.00000000</i>
   <i name="BPARAM">      6.30000000</i>
   <i name="CPARAM">      0.00930000</i>
  </separator>
  <separator name="model GW" >
   <i type="int" name="MODEL_GW">     0</i>
   <i name="MODEL_EPS0">      6.13175789</i>
   <i name="MODEL_ALPHA">      1.00000000</i>
  </separator>
  <separator name="linear response parameters" >
   <i type="logical" name="LEPSILON"> F  </i>
   <i type="logical" name="LRPA"> F  </i>
   <i type="logical" name="LNABLA"> F  </i>
   <i type="logical" name="LVEL"> F  </i>
   <i name="CSHIFT">      0.10000000</i>
   <i name="OMEGAMAX">     -1.00000000</i>
   <i name="DEG_THRESHOLD">      0.00200000</i>
   <i name="RTIME">     -0.10000000</i>
   <i name="WPLASMAI">      0.00000000</i>
   <v name="DFIELD">      0.00000000      0.00000000      0.00000000</v>
   <v name="WPLASMA">      0.00000000      0.00000000      0.00000000      0.00000000      0.00000000      0.00000000      0.00000000      0.00000000      0.00000000</v>
  </separator>
  <separator name="orbital magnetization" >
   <i type="logical" name="NUCIND"> F  </i>
   <v name="MAGPOS">      0.00000000      0.00000000      0.00000000</v>
   <i type="logical" name="LNICSALL"> T  </i>
   <i type="logical" name="ORBITALMAG"> F  </i>
   <i type="logical" name="LMAGBLOCH"> F  </i>
   <i type="logical" name="LCHIMAG"> F  </i>
   <i type="logical" name="LGAUGE"> T  </i>
   <i type="int" name="MAGATOM">     0</i>
   <v name="MAGDIPOL">      0.00000000      0.00000000      0.00000000</v>
   <v name="AVECCONST">      0.00000000      0.00000000      0.00000000</v>
  </separator>
  <separator name="response functions" >
   <i type="logical" name="LALL_IN_ONE"> F  </i>
   <i type="int" name="IALL_IN_ONE">    -1</i>
   <i type="int" name="NBANDS_WAVE">    -1</i>
   <i type="logical" name="LFINITE_TEMPERATURE"> F  </i>
   <i type="logical" name="LADDER"> F  </i>
   <i type="logical" name="LRPAFORCE"> F  </i>
   <i type="logical" name="LFXC"> F  </i>
   <i type="logical" name="LHARTREE"> T  </i>
   <i type="int" name="IBSE">     0</i>
   <v type="int" name="KPOINT">    -1     0     0     0</v>
   <i type="logical" name="LTCTC"> F  </i>
   <i type="logical" name="LTCTE"> F  </i>
   <i type="logical" name="LTETE"> F  </i>
   <i type="logical" name="LTRIPLET"> F  </i>
   <i type="logical" name="LFXCEPS"> F  </i>
   <i type="logical" name="LFXHEG"> F  </i>
   <i type="int" name="NATURALO">     2</i>
   <i type="logical" name="LHOLEGF"> F  </i>
   <i type="logical" name="L2ORDER"> F  </i>
   <i type="logical" name="LDMP1"> F  </i>
   <i type="logical" name="LMP2LT"> F  </i>
   <i type="logical" name="LSMP2LT"> F  </i>
   <i type="logical" name="LGWLF"> F  </i>
   <i name="ENCUTGW">     -1.60000002</i>
   <i name="ENCUTGWSOFT">     -1.60000002</i>
   <i name="ENCUTLF">     -1.00000000</i>
   <i type="logical" name="ESF_SPLINES"> F  </i>
   <i name="ESF_CONV">      0.01000000</i>
   <i type="int" name="ESF_NINTER">    15</i>
   <i type="int" name="LMAXMP2">    -1</i>
   <i name="SCISSOR">      0.00000000</i>
   <i type="int" name="NOMEGA">     0</i>
   <i type="int" name="NOMEGAR">     0</i>
   <i type="int" name="NBANDSGW">    -1</i>
   <i type="int" name="NBANDSO">    -1</i>
   <i type="int" name="NBANDSV">    -1</i>
   <i type="int" name="NELMGW">     1</i>
   <i type="int" name="NELMHF">     1</i>
   <i type="int" name="DIM">     3</i>
   <i type="int" name="IESPILON">     4</i>
   <i type="int" name="ANTIRES">     0</i>
   <i name="OMEGAMAX">    -30.00000000</i>
   <i name="OMEGAMIN">    -30.00000000</i>
   <i name="OMEGATL">   -200.00000000</i>
   <i type="int" name="OMEGAGRID">     0</i>
   <i name="CSHIFT">     -0.10000000</i>
   <i type="logical" name="LSELFENERGY"> F  </i>
   <i type="logical" name="LSPECTRAL"> F  </i>
   <i type="logical" name="LSPECTRALGW"> F  </i>
   <i type="logical" name="LSINGLES"> F  </i>
   <i type="logical" name="LFERMIGW"> F  </i>
   <i type="logical" name="ODDONLYGW"> F  </i>
   <i type="logical" name="EVENONLYGW"> F  </i>
   <i type="int" name="NKREDLFX">     1</i>
   <i type="int" name="NKREDLFY">     1</i>
   <i type="int" name="NKREDLFZ">     1</i>
   <i type="int" name="MAXMEM">  2800</i>
   <i type="int" name="TELESCOPE">     0</i>
   <i type="int" name="NTAUPAR">    -1</i>
   <i type="int" name="NOMEGAPAR">    -1</i>
   <i name="DAMP_NEWTON">      0.80000001</i>
   <i name="LAMBDA">      1.00000000</i>
  </separator>
  <separator name="External order field" >
   <i name="OFIELD_KAPPA">      0.00000000</i>
   <v name="OFIELD_K">      0.00000000      0.00000000      0.00000000</v>
   <i name="OFIELD_Q6_NEAR">      0.00000000</i>
   <i name="OFIELD_Q6_FAR">      0.00000000</i>
   <i name="OFIELD_A">      0.00000000</i>
  </separator>
  <separator name="optional k-points parameters" >
   <i type="int" name="KPOINTS_OPT_MODE">     1</i>
   <i type="logical" name="LKPOINTS_OPT"> F  </i>
  </separator>
 </parameters>
 <atominfo>
  <atoms>      14 </atoms>
  <types>       1 </types>
  <array name="atoms" >
   <dimension dim="1">ion</dimension>
   <field type="string">element</field>
   <field type="int">atomtype</field>
   <set>
    <rc><c>B </c><c>   1</c></rc>
    <rc><c>B </c><c>   1</c></rc>
    <rc><c>B </c><c>   1</c></rc>
    <rc><c>B </c><c>   1</c></rc>
    <rc><c>B </c><c>   1</c></rc>
    <rc><c>B </c><c>   1</c></rc>
    <rc><c>B </c><c>   1</c></rc>
    <rc><c>B </c><c>   1</c></rc>
    <rc><c>B </c><c>   1</c></rc>
    <rc><c>B </c><c>   1</c></rc>
    <rc><c>B </c><c>   1</c></rc>
    <rc><c>B </c><c>   1</c></rc>
    <rc><c>B </c><c>   1</c></rc>
    <rc><c>B </c><c>   1</c></rc>
   </set>
  </array>
  <array name="atomtypes" >
   <dimension dim="1">type</dimension>
   <field type="int">atomspertype</field>
   <field type="string">element</field>
   <field>mass</field>
   <field>valence</field>
   <field type="string">pseudopotential</field>
   <set>
    <rc><c>  14</c><c>B </c><c>     10.81100000</c><c>      3.00000000</c><c>  PAW_PBE B 06Sep2000                   </c></rc>
   </set>
  </array>
 </atominfo>
 <structure name="initialpos" >
  <crystal>
   <varray name="basis" >
    <v>       5.69700000       0.00000000       0.00000000 </v>
    <v>       0.00000000       4.04790000       0.00000000 </v>
    <v>       0.00000000       0.00000000       6.20420000 </v>
   </varray>
   <i name="volume">    143.07435078 </i>
   <varray name="rec_basis" >
    <v>       0.17553098       0.00000000       0.00000000 </v>
    <v>       0.00000000       0.24704168       0.00000000 </v>
    <v>       0.00000000       0.00000000       0.16118114 </v>
   </varray>
  </crystal>
  <varray name="positions" >
   <v>       0.52123000       0.50000000       0.63796000 </v>
   <v>       0.47877000       0.50000000       0.36204000 </v>
   <v>       0.97877000       0.50000000       0.63796000 </v>
   <v>       0.02123000       0.50000000       0.36204000 </v>
   <v>       0.60090000       0.50000000       0.89991000 </v>
   <v>       0.39910000       0.50000000       0.10009000 </v>
   <v>       0.89910000       0.50000000       0.89991000 </v>
   <v>       0.10090000       0.50000000       0.10009000 </v>
   <v>       0.75000000       0.79171000       0.72973000 </v>
   <v>       0.25000000       0.20829000       0.27027000 </v>
   <v>       0.75000000       0.20829000       0.72973000 </v>
   <v>       0.25000000       0.79171000       0.27027000 </v>
   <v>       0.25000000       0.50000000       0.52367000 </v>
   <v>       0.75000000       0.50000000       0.47633000 </v>
  </varray>
 </structure>
 <calculation>
  <scstep>
   <time name="dav">   10.25   10.41</time>
   <time name="total">   10.28   10.44</time>
   <energy>
    <i name="alphaZ">     94.24357992 </i>
    <i name="ewald">   -795.76658092 </i>
    <i name="hartreedc">   -271.33601302 </i>
    <i name="XCdc">     97.50108136 </i>
    <i name="pawpsdc">    608.99811708 </i>
    <i name="pawaedc">   -597.02363782 </i>
    <i name="eentropy">     -0.00221862 </i>
    <i name="bandstr">    -79.11675388 </i>
    <i name="atom">    996.36613177 </i>
    <i name="e_fr_energy">     53.86370587 </i>
    <i name="e_wo_entrp">     53.86592449 </i>
    <i name="e_0_energy">     53.86481518 </i>
   </energy>
  </scstep>
  <scstep>
   <time name="dav">   13.71   13.83</time>
   <time name="total">   13.72   13.84</time>
   <energy>
    <i name="e_fr_energy">    -92.89889517 </i>
    <i name="e_wo_entrp">    -92.89425773 </i>
    <i name="e_0_energy">    -92.89657645 </i>
   </energy>
  </scstep>
  <scstep>
   <time name="dav">   14.14   14.25</time>
   <time name="total">   14.14   14.25</time>
   <energy>
    <i name="e_fr_energy">    -97.58300441 </i>
    <i name="e_wo_entrp">    -97.57716900 </i>
    <i name="e_0_energy">    -97.58008670 </i>
   </energy>
  </scstep>
  <scstep>
   <time name="dav">   12.24   12.34</time>
   <time name="total">   12.24   12.34</time>
   <energy>
    <i name="e_fr_energy">    -97.61012972 </i>
    <i name="e_wo_entrp">    -97.60428940 </i>
    <i name="e_0_energy">    -97.60720956 </i>
   </energy>
  </scstep>
  <scstep>
   <time name="dav">   13.96   14.06</time>
   <time name="total">   14.14   14.25</time>
   <energy>
    <i name="e_fr_energy">    -97.61044175 </i>
    <i name="e_wo_entrp">    -97.60460134 </i>
    <i name="e_0_energy">    -97.60752154 </i>
   </energy>
  </scstep>
  <scstep>
   <time name="dav">   14.23   14.34</time>
   <time name="total">   14.42   14.54</time>
   <energy>
    <i name="e_fr_energy">    -92.19934097 </i>
    <i name="e_wo_entrp">    -92.19498962 </i>
    <i name="e_0_energy">    -92.19716530 </i>
   </energy>
  </scstep>
  <scstep>
   <time name="dav">   14.46   14.57</time>
   <time name="total">   14.68   14.79</time>
   <energy>
    <i name="e_fr_energy">    -90.55059677 </i>
    <i name="e_wo_entrp">    -90.54661651 </i>
    <i name="e_0_energy">    -90.54860664 </i>
   </energy>
  </scstep>
  <scstep>
   <time name="dav">   11.03   11.11</time>
   <time name="total">   11.21   11.31</time>
   <energy>
    <i name="e_fr_energy">    -90.55860176 </i>
    <i name="e_wo_entrp">    -90.55460729 </i>
    <i name="e_0_energy">    -90.55660452 </i>
   </energy>
  </scstep>
  <scstep>
   <time name="dav">   13.66   13.77</time>
   <time name="total">   13.86   13.97</time>
   <energy>
    <i name="e_fr_energy">    -90.57350053 </i>
    <i name="e_wo_entrp">    -90.56947289 </i>
    <i name="e_0_energy">    -90.57148671 </i>
   </energy>
  </scstep>
  <scstep>
   <time name="dav">   10.93   11.01</time>
   <time name="total">   11.15   11.23</time>
   <energy>
    <i name="e_fr_energy">    -90.57827075 </i>
    <i name="e_wo_entrp">    -90.57424134 </i>
    <i name="e_0_energy">    -90.57625605 </i>
   </energy>
  </scstep>
  <scstep>
   <time name="dav">   12.82   12.92</time>
   <time name="total">   13.01   13.12</time>
   <energy>
    <i name="e_fr_energy">    -90.57966835 </i>
    <i name="e_wo_entrp">    -90.57564689 </i>
    <i name="e_0_energy">    -90.57765762 </i>
   </energy>
  </scstep>
  <scstep>
   <time name="dav">   12.75   12.84</time>
   <time name="total">   12.94   13.04</time>
   <energy>
    <i name="e_fr_energy">    -90.57977226 </i>
    <i name="e_wo_entrp">    -90.57574912 </i>
    <i name="e_0_energy">    -90.57776069 </i>
   </energy>
  </scstep>
  <scstep>
   <time name="dav">   12.85   12.95</time>
   <time name="total">   13.04   13.14</time>
   <energy>
    <i name="e_fr_energy">    -90.57979018 </i>
    <i name="e_wo_entrp">    -90.57576660 </i>
    <i name="e_0_energy">    -90.57777839 </i>
   </energy>
  </scstep>
  <scstep>
   <time name="dav">   12.95   13.05</time>
   <time name="total">   13.14   13.24</time>
   <energy>
    <i name="e_fr_energy">    -90.57979125 </i>
    <i name="e_wo_entrp">    -90.57576788 </i>
    <i name="e_0_energy">    -90.57777956 </i>
   </energy>
  </scstep>
  <scstep>
   <time name="dav">   11.67   11.76</time>
   <time name="total">   11.68   11.78</time>
   <energy>
    <i name="alphaZ">     94.24357992 </i>
    <i name="ewald">   -795.76658092 </i>
    <i name="hartreedc">   -349.09066825 </i>
    <i name="XCdc">    101.58850353 </i>
    <i name="pawpsdc">   3722.80544110 </i>
    <i name="pawaedc">  -3711.99745551 </i>
    <i name="eentropy">     -0.00402352 </i>
    <i name="bandstr">   -148.72471964 </i>
    <i name="atom">    996.36613177 </i>
    <i name="e_fr_energy">    -90.57979153 </i>
    <i name="e_wo_entrp">    -90.57576801 </i>
    <i name="e_0_energy">    -90.57777977 </i>
   </energy>
  </scstep>
  <structure>
   <crystal>
    <varray name="basis" >
     <v>       5.69700000       0.00000000       0.00000000 </v>
     <v>       0.00000000       4.04790000       0.00000000 </v>
     <v>       0.00000000       0.00000000       6.20420000 </v>
    </varray>
    <i name="volume">    143.07435078 </i>
    <varray name="rec_basis" >
     <v>       0.17553098       0.00000000       0.00000000 </v>
     <v>       0.00000000       0.24704168       0.00000000 </v>
     <v>       0.00000000       0.00000000       0.16118114 </v>
    </varray>
   </crystal>
   <varray name="positions" >
    <v>       0.52123000       0.50000000       0.63796000 </v>
    <v>       0.47877000       0.50000000       0.36204000 </v>
    <v>       0.97877000       0.50000000       0.63796000 </v>
    <v>       0.02123000       0.50000000       0.36204000 </v>
    <v>       0.60090000       0.50000000       0.89991000 </v>
    <v>       0.39910000       0.50000000       0.10009000 </v>
    <v>       0.89910000       0.50000000       0.89991000 </v>
    <v>       0.10090000       0.50000000       0.10009000 </v>
    <v>       0.75000000       0.79171000       0.72973000 </v>
    <v>       0.25000000       0.20829000       0.27027000 </v>
    <v>       0.75000000       0.20829000       0.72973000 </v>
    <v>       0.25000000       0.79171000       0.27027000 </v>
    <v>       0.25000000       0.50000000       0.52367000 </v>
    <v>       0.75000000       0.50000000       0.47633000 </v>
   </varray>
  </structure>
  <varray name="forces" >
   <v>      -0.01625429      -0.00000000       0.05737585 </v>
   <v>       0.01625429      -0.00000000      -0.05737585 </v>
   <v>       0.01625429      -0.00000000       0.05737585 </v>
   <v>      -0.01625429      -0.00000000      -0.05737585 </v>
   <v>      -0.82611825      -0.00000000       0.28952569 </v>
   <v>       0.82611825      -0.00000000      -0.28952569 </v>
   <v>       0.82611825      -0.00000000       0.28952569 </v>
   <v>      -0.82611825      -0.00000000      -0.28952569 </v>
   <v>      -0.00000000       0.05011591      -0.08021620 </v>
   <v>       0.00000000      -0.05011591       0.08021620 </v>
   <v>      -0.00000000      -0.05011591      -0.08021620 </v>
   <v>      -0.00000000       0.05011591       0.08021620 </v>
   <v>       0.00000000      -0.00000000       0.07555438 </v>
   <v>       0.00000000      -0.00000000      -0.07555438 </v>
  </varray>
  <varray name="stress" >
   <v>      14.61716245       0.00000000       0.00000000 </v>
   <v>       0.00000000       0.74261446       0.00000000 </v>
   <v>       0.00000000       0.00000000      -5.46544113 </v>
  </varray>
  <energy>
   <i name="e_fr_energy">    -90.57979153 </i>
   <i name="e_wo_entrp">    -90.57576801 </i>
   <i name="e_0_energy">    -90.57777977 </i>
  </energy>
  <time name="totalsc">  201.30  202.96</time>
  <eigenvalues>
   <array>
    <dimension dim="1">band</dimension>
    <dimension dim="2">kpoint</dimension>
    <dimension dim="3">spin</dimension>
    <field>eigene</field>
    <field>occ</field>
    <set>
     <set comment="spin 1">
      <set comment="kpoint 1">
       <r>  -12.7305    1.0000 </r>
       <r>  -11.5783    1.0000 </r>
       <r>   -8.6598    1.0000 </r>
       <r>   -8.4183    1.0000 </r>
       <r>   -6.0942    1.0000 </r>
       <r>   -5.0940    1.0000 </r>
       <r>   -4.5943    1.0000 </r>
       <r>   -4.3332    1.0000 </r>
       <r>   -4.0147    1.0000 </r>
       <r>   -3.5801    1.0000 </r>
       <r>   -2.5111    1.0000 </r>
       <r>   -2.3644    1.0000 </r>
       <r>   -1.9177    1.0000 </r>
       <r>   -1.0589    1.0000 </r>
       <r>   -0.0464    1.0000 </r>
       <r>   -0.0271    1.0000 </r>
       <r>    0.1192    1.0000 </r>
       <r>    0.1897    1.0000 </r>
       <r>    0.5380    1.0000 </r>
       <r>    2.0451    0.0000 </r>
       <r>    2.0923    0.0000 </r>
       <r>    2.2745    0.0000 </r>
       <r>    5.4312    0.0000 </r>
       <r>    5.7672    0.0000 </r>
       <r>    5.8518    0.0000 </r>
       <r>    5.8923    0.0000 </r>
       <r>    6.8283    0.0000 </r>
       <r>    7.6864    0.0000 </r>
       <r>    7.7211    0.0000 </r>
       <r>    8.5723    0.0000 </r>
       <r>    8.7482    0.0000 </r>
       <r>    8.9386    0.0000 </r>
       <r>    9.0546    0.0000 </r>
       <r>   10.0937    0.0000 </r>
       <r>   11.1630    0.0000 </r>
       <r>   11.3881    0.0000 </r>
       <r>   11.6953    0.0000 </r>
       <r>   11.8179    0.0000 </r>
       <r>   11.8967    0.0000 </r>
       <r>   12.3872    0.0000 </r>
       <r>   12.8354    0.0000 </r>
       <r>   13.3401    0.0000 </r>
       <r>   13.6086    0.0000 </r>
       <r>   15.5191    0.0000 </r>
       <r>   15.5633    0.0000 </r>
       <r>   15.8711    0.0000 </r>
       <r>   16.3468    0.0000 </r>
       <r>   16.4393    0.0000 </r>
      </set>
      <set comment="kpoint 2">
       <r>  -12.7175    1.0000 </r>
       <r>  -11.6007    1.0000 </r>
       <r>   -8.6554    1.0000 </r>
       <r>   -8.4135    1.0000 </r>
       <r>   -6.0701    1.0000 </r>
       <r>   -5.2244    1.0000 </r>
       <r>   -4.6780    1.0000 </r>
       <r>   -4.1561    1.0000 </r>
       <r>   -3.9894    1.0000 </r>
       <r>   -3.4574    1.0000 </r>
       <r>   -2.5314    1.0000 </r>
       <r>   -2.3585    1.0000 </r>
       <r>   -1.9428    1.0000 </r>
       <r>   -1.1561    1.0000 </r>
       <r>   -0.0610    1.0000 </r>
       <r>    0.0155    1.0000 </r>
       <r>    0.1231    1.0000 </r>
       <r>    0.1672    1.0000 </r>
       <r>    0.5097    1.0000 </r>
       <r>    1.9920    0.0012 </r>
       <r>    2.0958    0.0000 </r>
       <r>    2.2366    0.0000 </r>
       <r>    5.4564    0.0000 </r>
       <r>    5.7584    0.0000 </r>
       <r>    5.8202    0.0000 </r>
       <r>    6.0510    0.0000 </r>
       <r>    6.7991    0.0000 </r>
       <r>    7.4243    0.0000 </r>
       <r>    7.9241    0.0000 </r>
       <r>    8.6186    0.0000 </r>
       <r>    8.8429    0.0000 </r>
       <r>    9.0166    0.0000 </r>
       <r>    9.0805    0.0000 </r>
       <r>   10.1263    0.0000 </r>
       <r>   11.1819    0.0000 </r>
       <r>   11.2635    0.0000 </r>
       <r>   11.4931    0.0000 </r>
       <r>   11.7514    0.0000 </r>
       <r>   11.9644    0.0000 </r>
       <r>   12.4130    0.0000 </r>
       <r>   12.9750    0.0000 </r>
       <r>   13.4411    0.0000 </r>
       <r>   13.5993    0.0000 </r>
       <r>   15.1922    0.0000 </r>
       <r>   15.6238    0.0000 </r>
       <r>   16.0679    0.0000 </r>
       <r>   16.2089    0.0000 </r>
       <r>   16.3898    0.0000 </r>
      </set>
      <set comment="kpoint 3">
       <r>  -12.6788    1.0000 </r>
       <r>  -11.6651    1.0000 </r>
       <r>   -8.6406    1.0000 </r>
       <r>   -8.4016    1.0000 </r>
       <r>   -6.0231    1.0000 </r>
       <r>   -5.4626    1.0000 </r>
       <r>   -4.7861    1.0000 </r>
       <r>   -3.9651    1.0000 </r>
       <r>   -3.7731    1.0000 </r>
       <r>   -3.1690    1.0000 </r>
       <r>   -2.5947    1.0000 </r>
       <r>   -2.3407    1.0000 </r>
       <r>   -2.0066    1.0000 </r>
       <r>   -1.4234    1.0000 </r>
       <r>   -0.0518    1.0000 </r>
       <r>   -0.0005    1.0000 </r>
       <r>    0.1209    1.0000 </r>
       <r>    0.1913    1.0000 </r>
       <r>    0.4280    1.0000 </r>
       <r>    1.8881    0.4566 </r>
       <r>    2.0588    0.0000 </r>
       <r>    2.1246    0.0000 </r>
       <r>    5.5168    0.0000 </r>
       <r>    5.7612    0.0000 </r>
       <r>    5.8903    0.0000 </r>
       <r>    6.3359    0.0000 </r>
       <r>    6.7202    0.0000 </r>
       <r>    7.1502    0.0000 </r>
       <r>    8.0769    0.0000 </r>
       <r>    8.7377    0.0000 </r>
       <r>    9.0052    0.0000 </r>
       <r>    9.1414    0.0000 </r>
       <r>    9.2945    0.0000 </r>
       <r>   10.2332    0.0000 </r>
       <r>   10.9177    0.0000 </r>
       <r>   11.0645    0.0000 </r>
       <r>   11.2446    0.0000 </r>
       <r>   11.6938    0.0000 </r>
       <r>   12.1420    0.0000 </r>
       <r>   12.4963    0.0000 </r>
       <r>   13.1571    0.0000 </r>
       <r>   13.1815    0.0000 </r>
       <r>   14.0292    0.0000 </r>
       <r>   14.8178    0.0000 </r>
       <r>   15.7419    0.0000 </r>
       <r>   15.8033    0.0000 </r>
       <r>   16.2322    0.0000 </r>
       <r>   16.5095    0.0000 </r>
      </set>
      <set comment="kpoint 4">
       <r>  -12.6154    1.0000 </r>
       <r>  -11.7640    1.0000 </r>
       <r>   -8.6126    1.0000 </r>
       <r>   -8.3892    1.0000 </r>
       <r>   -6.0166    1.0000 </r>
       <r>   -5.6854    1.0000 </r>
       <r>   -4.7763    1.0000 </r>
       <r>   -3.8703    1.0000 </r>
       <r>   -3.3866    1.0000 </r>
       <r>   -2.8227    1.0000 </r>
       <r>   -2.6963    1.0000 </r>
       <r>   -2.3100    1.0000 </r>
       <r>   -2.0847    1.0000 </r>
       <r>   -1.8037    1.0000 </r>
       <r>   -0.1801    1.0000 </r>
       <r>   -0.0072    1.0000 </r>
       <r>    0.1595    1.0000 </r>
       <r>    0.2035    1.0000 </r>
       <r>    0.3841    1.0000 </r>
       <r>    1.7680    0.9995 </r>
       <r>    1.9290    0.1032 </r>
       <r>    1.9892    0.0015 </r>
       <r>    5.5770    0.0000 </r>
       <r>    5.7698    0.0000 </r>
       <r>    6.1153    0.0000 </r>
       <r>    6.6133    0.0000 </r>
       <r>    6.6956    0.0000 </r>
       <r>    6.9319    0.0000 </r>
       <r>    8.1976    0.0000 </r>
       <r>    8.8602    0.0000 </r>
       <r>    9.0027    0.0000 </r>
       <r>    9.4079    0.0000 </r>
       <r>    9.6614    0.0000 </r>
       <r>   10.3943    0.0000 </r>
       <r>   10.4686    0.0000 </r>
       <r>   10.6462    0.0000 </r>
       <r>   11.3299    0.0000 </r>
       <r>   11.7754    0.0000 </r>
       <r>   12.3145    0.0000 </r>
       <r>   12.6943    0.0000 </r>
       <r>   12.7453    0.0000 </r>
       <r>   13.0994    0.0000 </r>
       <r>   14.5240    0.0000 </r>
       <r>   14.7848    0.0000 </r>
       <r>   15.3465    0.0000 </r>
       <r>   15.9340    0.0000 </r>
       <r>   16.1039    0.0000 </r>
       <r>   16.3166    0.0000 </r>
      </set>
      <set comment="kpoint 5">
       <r>  -12.5290    1.0000 </r>
       <r>  -11.8872    1.0000 </r>
       <r>   -8.5710    1.0000 </r>
       <r>   -8.3843    1.0000 </r>
       <r>   -6.0742    1.0000 </r>
       <r>   -5.8677    1.0000 </r>
       <r>   -4.5884    1.0000 </r>
       <r>   -3.7500    1.0000 </r>
       <r>   -3.0234    1.0000 </r>
       <r>   -2.8690    1.0000 </r>
       <r>   -2.4486    1.0000 </r>
       <r>   -2.3152    1.0000 </r>
       <r>   -2.1791    1.0000 </r>
       <r>   -2.1367    1.0000 </r>
       <r>   -0.4050    1.0000 </r>
       <r>   -0.0790    1.0000 </r>
       <r>    0.0907    1.0000 </r>
       <r>    0.2711    1.0000 </r>
       <r>    0.4949    1.0000 </r>
       <r>    1.6548    1.0000 </r>
       <r>    1.6973    1.0000 </r>
       <r>    1.8749    0.6042 </r>
       <r>    5.6188    0.0000 </r>
       <r>    5.7970    0.0000 </r>
       <r>    6.4716    0.0000 </r>
       <r>    6.5156    0.0000 </r>
       <r>    6.7352    0.0000 </r>
       <r>    7.1477    0.0000 </r>
       <r>    8.3010    0.0000 </r>
       <r>    8.8326    0.0000 </r>
       <r>    8.9145    0.0000 </r>
       <r>    9.7189    0.0000 </r>
       <r>    9.8433    0.0000 </r>
       <r>   10.0752    0.0000 </r>
       <r>   10.3820    0.0000 </r>
       <r>   10.8611    0.0000 </r>
       <r>   11.3755    0.0000 </r>
       <r>   12.0007    0.0000 </r>
       <r>   12.2569    0.0000 </r>
       <r>   12.3767    0.0000 </r>
       <r>   12.7219    0.0000 </r>
       <r>   13.0807    0.0000 </r>
       <r>   14.7371    0.0000 </r>
       <r>   15.0286    0.0000 </r>
       <r>   15.1844    0.0000 </r>
       <r>   15.6028    0.0000 </r>
       <r>   15.7275    0.0000 </r>
       <r>   16.2179    0.0000 </r>
      </set>
      <set comment="kpoint 6">
       <r>  -12.4222    1.0000 </r>
       <r>  -12.0238    1.0000 </r>
       <r>   -8.5200    1.0000 </r>
       <r>   -8.3943    1.0000 </r>
       <r>   -6.1379    1.0000 </r>
       <r>   -6.0123    1.0000 </r>
       <r>   -4.2574    1.0000 </r>
       <r>   -3.6021    1.0000 </r>
       <r>   -3.0509    1.0000 </r>
       <r>   -2.9617    1.0000 </r>
       <r>   -2.5004    1.0000 </r>
       <r>   -2.2375    1.0000 </r>
       <r>   -2.1576    1.0000 </r>
       <r>   -2.0394    1.0000 </r>
       <r>   -0.6294    1.0000 </r>
       <r>   -0.3483    1.0000 </r>
       <r>    0.1639    1.0000 </r>
       <r>    0.3082    1.0000 </r>
       <r>    0.6721    1.0000 </r>
       <r>    1.4186    1.0000 </r>
       <r>    1.5974    1.0000 </r>
       <r>    1.7552    0.9999 </r>
       <r>    5.6619    0.0000 </r>
       <r>    5.8056    0.0000 </r>
       <r>    6.4602    0.0000 </r>
       <r>    6.6115    0.0000 </r>
       <r>    6.9316    0.0000 </r>
       <r>    7.6159    0.0000 </r>
       <r>    8.3937    0.0000 </r>
       <r>    8.5609    0.0000 </r>
       <r>    8.7329    0.0000 </r>
       <r>    9.2594    0.0000 </r>
       <r>   10.0539    0.0000 </r>
       <r>   10.4178    0.0000 </r>
       <r>   10.5249    0.0000 </r>
       <r>   11.3018    0.0000 </r>
       <r>   11.4231    0.0000 </r>
       <r>   11.7648    0.0000 </r>
       <r>   12.0937    0.0000 </r>
       <r>   12.3245    0.0000 </r>
       <r>   12.6111    0.0000 </r>
       <r>   13.3460    0.0000 </r>
       <r>   14.5337    0.0000 </r>
       <r>   14.9275    0.0000 </r>
       <r>   15.0940    0.0000 </r>
       <r>   15.2473    0.0000 </r>
       <r>   15.6781    0.0000 </r>
       <r>   16.3677    0.0000 </r>
      </set>
      <set comment="kpoint 7">
       <r>  -12.2988    1.0000 </r>
       <r>  -12.1638    1.0000 </r>
       <r>   -8.4674    1.0000 </r>
       <r>   -8.4228    1.0000 </r>
       <r>   -6.1559    1.0000 </r>
       <r>   -6.1125    1.0000 </r>
       <r>   -3.8389    1.0000 </r>
       <r>   -3.4335    1.0000 </r>
       <r>   -3.3749    1.0000 </r>
       <r>   -3.2431    1.0000 </r>
       <r>   -2.3863    1.0000 </r>
       <r>   -2.2993    1.0000 </r>
       <r>   -1.9670    1.0000 </r>
       <r>   -1.8853    1.0000 </r>
       <r>   -0.7393    1.0000 </r>
       <r>   -0.6139    1.0000 </r>
       <r>    0.2423    1.0000 </r>
       <r>    0.2972    1.0000 </r>
       <r>    0.8925    1.0000 </r>
       <r>    1.1463    1.0000 </r>
       <r>    1.5933    1.0000 </r>
       <r>    1.6527    1.0000 </r>
       <r>    5.7173    0.0000 </r>
       <r>    5.7734    0.0000 </r>
       <r>    6.4653    0.0000 </r>
       <r>    6.5203    0.0000 </r>
       <r>    7.4608    0.0000 </r>
       <r>    7.9673    0.0000 </r>
       <r>    8.2078    0.0000 </r>
       <r>    8.4887    0.0000 </r>
       <r>    8.5975    0.0000 </r>
       <r>    8.6973    0.0000 </r>
       <r>   10.3876    0.0000 </r>
       <r>   10.5970    0.0000 </r>
       <r>   10.8345    0.0000 </r>
       <r>   11.2420    0.0000 </r>
       <r>   11.3731    0.0000 </r>
       <r>   11.6634    0.0000 </r>
       <r>   12.0165    0.0000 </r>
       <r>   12.4273    0.0000 </r>
       <r>   12.7879    0.0000 </r>
       <r>   13.1928    0.0000 </r>
       <r>   14.5243    0.0000 </r>
       <r>   14.6266    0.0000 </r>
       <r>   14.9157    0.0000 </r>
       <r>   14.9733    0.0000 </r>
       <r>   16.0943    0.0000 </r>
       <r>   16.3582    0.0000 </r>
      </set>
      <set comment="kpoint 8">
       <r>  -12.7158    1.0000 </r>
       <r>  -11.5651    1.0000 </r>
       <r>   -8.6483    1.0000 </r>
       <r>   -8.4041    1.0000 </r>
       <r>   -6.0779    1.0000 </r>
       <r>   -5.0718    1.0000 </r>
       <r>   -4.5801    1.0000 </r>
       <r>   -4.4503    1.0000 </r>
       <r>   -4.2048    1.0000 </r>
       <r>   -3.5648    1.0000 </r>
       <r>   -3.0639    1.0000 </r>
       <r>   -2.0035    1.0000 </r>
       <r>   -1.2994    1.0000 </r>
       <r>   -1.0561    1.0000 </r>
       <r>   -0.2018    1.0000 </r>
       <r>   -0.1899    1.0000 </r>
       <r>    0.1271    1.0000 </r>
       <r>    0.2449    1.0000 </r>
       <r>    0.5954    1.0000 </r>
       <r>    1.8681    0.6766 </r>
       <r>    1.9342    0.0792 </r>
       <r>    2.3166    0.0000 </r>
       <r>    5.5863    0.0000 </r>
       <r>    5.6834    0.0000 </r>
       <r>    5.7544    0.0000 </r>
       <r>    5.9368    0.0000 </r>
       <r>    7.0112    0.0000 </r>
       <r>    7.8507    0.0000 </r>
       <r>    7.9218    0.0000 </r>
       <r>    8.2408    0.0000 </r>
       <r>    8.7580    0.0000 </r>
       <r>    9.0619    0.0000 </r>
       <r>    9.0914    0.0000 </r>
       <r>   10.4165    0.0000 </r>
       <r>   11.2774    0.0000 </r>
       <r>   11.3618    0.0000 </r>
       <r>   11.6513    0.0000 </r>
       <r>   11.8767    0.0000 </r>
       <r>   11.9653    0.0000 </r>
       <r>   12.5619    0.0000 </r>
       <r>   12.8341    0.0000 </r>
       <r>   13.1681    0.0000 </r>
       <r>   13.4202    0.0000 </r>
       <r>   15.4223    0.0000 </r>
       <r>   15.4991    0.0000 </r>
       <r>   15.8615    0.0000 </r>
       <r>   16.1235    0.0000 </r>
       <r>   16.2376    0.0000 </r>
      </set>
      <set comment="kpoint 9">
       <r>  -12.7028    1.0000 </r>
       <r>  -11.5874    1.0000 </r>
       <r>   -8.6438    1.0000 </r>
       <r>   -8.3994    1.0000 </r>
       <r>   -6.0535    1.0000 </r>
       <r>   -5.2045    1.0000 </r>
       <r>   -4.6657    1.0000 </r>
       <r>   -4.3794    1.0000 </r>
       <r>   -4.0704    1.0000 </r>
       <r>   -3.4432    1.0000 </r>
       <r>   -3.0825    1.0000 </r>
       <r>   -1.9971    1.0000 </r>
       <r>   -1.3312    1.0000 </r>
       <r>   -1.1529    1.0000 </r>
       <r>   -0.2190    1.0000 </r>
       <r>   -0.1407    1.0000 </r>
       <r>    0.1395    1.0000 </r>
       <r>    0.2157    1.0000 </r>
       <r>    0.5666    1.0000 </r>
       <r>    1.8216    0.9619 </r>
       <r>    1.9327    0.0853 </r>
       <r>    2.2762    0.0000 </r>
       <r>    5.6083    0.0000 </r>
       <r>    5.6645    0.0000 </r>
       <r>    5.8637    0.0000 </r>
       <r>    5.9684    0.0000 </r>
       <r>    6.9822    0.0000 </r>
       <r>    7.6135    0.0000 </r>
       <r>    8.0962    0.0000 </r>
       <r>    8.2889    0.0000 </r>
       <r>    8.8622    0.0000 </r>
       <r>    9.1126    0.0000 </r>
       <r>    9.1510    0.0000 </r>
       <r>   10.4180    0.0000 </r>
       <r>   11.2027    0.0000 </r>
       <r>   11.3260    0.0000 </r>
       <r>   11.4477    0.0000 </r>
       <r>   11.8191    0.0000 </r>
       <r>   12.0337    0.0000 </r>
       <r>   12.5848    0.0000 </r>
       <r>   12.9781    0.0000 </r>
       <r>   13.2545    0.0000 </r>
       <r>   13.4294    0.0000 </r>
       <r>   15.2238    0.0000 </r>
       <r>   15.4669    0.0000 </r>
       <r>   15.9259    0.0000 </r>
       <r>   16.0337    0.0000 </r>
       <r>   16.3280    0.0000 </r>
      </set>
      <set comment="kpoint 10">
       <r>  -12.6641    1.0000 </r>
       <r>  -11.6518    1.0000 </r>
       <r>   -8.6289    1.0000 </r>
       <r>   -8.3878    1.0000 </r>
       <r>   -6.0055    1.0000 </r>
       <r>   -5.4439    1.0000 </r>
       <r>   -4.7742    1.0000 </r>
       <r>   -4.3055    1.0000 </r>
       <r>   -3.7388    1.0000 </r>
       <r>   -3.1907    1.0000 </r>
       <r>   -3.1043    1.0000 </r>
       <r>   -1.9780    1.0000 </r>
       <r>   -1.4295    1.0000 </r>
       <r>   -1.4038    1.0000 </r>
       <r>   -0.2066    1.0000 </r>
       <r>   -0.0938    1.0000 </r>
[...]
       <r>   -2.2278    1.0000 </r>
       <r>   -2.1810    1.0000 </r>
       <r>   -2.0629    1.0000 </r>
       <r>   -1.5823    1.0000 </r>
       <r>   -0.5693    1.0000 </r>
       <r>   -0.0978    1.0000 </r>
       <r>    0.2717    1.0000 </r>
       <r>    0.4173    1.0000 </r>
       <r>    0.5253    1.0000 </r>
       <r>    1.3197    1.0000 </r>
       <r>    1.6260    1.0000 </r>
       <r>    1.8236    0.9571 </r>
       <r>    5.6469    0.0000 </r>
       <r>    6.1296    0.0000 </r>
       <r>    6.6622    0.0000 </r>
       <r>    7.3187    0.0000 </r>
       <r>    7.6799    0.0000 </r>
       <r>    7.9705    0.0000 </r>
       <r>    9.1585    0.0000 </r>
       <r>    9.3804    0.0000 </r>
       <r>    9.7317    0.0000 </r>
       <r>    9.9427    0.0000 </r>
       <r>   10.5476    0.0000 </r>
       <r>   11.0502    0.0000 </r>
       <r>   11.1138    0.0000 </r>
       <r>   11.4656    0.0000 </r>
       <r>   11.5505    0.0000 </r>
       <r>   11.7924    0.0000 </r>
       <r>   12.9291    0.0000 </r>
       <r>   13.2777    0.0000 </r>
       <r>   13.3694    0.0000 </r>
       <r>   13.9379    0.0000 </r>
       <r>   14.0798    0.0000 </r>
       <r>   14.2608    0.0000 </r>
       <r>   14.4573    0.0000 </r>
       <r>   14.8884    0.0000 </r>
       <r>   15.0776    0.0000 </r>
       <r>   15.2841    0.0000 </r>
      </set>
      <set comment="kpoint 378">
       <r>  -12.0036    1.0000 </r>
       <r>  -11.8968    1.0000 </r>
       <r>   -8.5376    1.0000 </r>
       <r>   -8.4511    1.0000 </r>
       <r>   -5.9225    1.0000 </r>
       <r>   -5.8420    1.0000 </r>
       <r>   -4.7919    1.0000 </r>
       <r>   -4.5575    1.0000 </r>
       <r>   -4.4066    1.0000 </r>
       <r>   -4.0811    1.0000 </r>
       <r>   -2.2076    1.0000 </r>
       <r>   -2.1639    1.0000 </r>
       <r>   -2.0236    1.0000 </r>
       <r>   -1.8058    1.0000 </r>
       <r>   -0.1705    1.0000 </r>
       <r>    0.0091    1.0000 </r>
       <r>    0.4155    1.0000 </r>
       <r>    0.4702    1.0000 </r>
       <r>    0.5632    1.0000 </r>
       <r>    0.8071    1.0000 </r>
       <r>    1.6460    1.0000 </r>
       <r>    1.7184    1.0000 </r>
       <r>    5.8814    0.0000 </r>
       <r>    6.0246    0.0000 </r>
       <r>    6.9187    0.0000 </r>
       <r>    7.3905    0.0000 </r>
       <r>    7.4376    0.0000 </r>
       <r>    7.5431    0.0000 </r>
       <r>    9.4513    0.0000 </r>
       <r>    9.6285    0.0000 </r>
       <r>    9.8234    0.0000 </r>
       <r>    9.9700    0.0000 </r>
       <r>   10.4774    0.0000 </r>
       <r>   10.7487    0.0000 </r>
       <r>   11.2558    0.0000 </r>
       <r>   11.4831    0.0000 </r>
       <r>   11.4976    0.0000 </r>
       <r>   11.5545    0.0000 </r>
       <r>   13.1055    0.0000 </r>
       <r>   13.1839    0.0000 </r>
       <r>   13.8181    0.0000 </r>
       <r>   14.1286    0.0000 </r>
       <r>   14.2326    0.0000 </r>
       <r>   14.2661    0.0000 </r>
       <r>   14.6422    0.0000 </r>
       <r>   14.7472    0.0000 </r>
       <r>   14.8566    0.0000 </r>
       <r>   15.0061    0.0000 </r>
      </set>
     </set>
    </set>
   </array>
  </eigenvalues>
  <separator name="orbital magnetization" >
   <v name="MAGDIPOLOUT">      0.00000000      0.00000000      0.00000000</v>
  </separator>
  <dos>
   <i name="efermi">      1.88428703 </i>
   <total>
    <array>
     <dimension dim="1">gridpoints</dimension>
     <dimension dim="2">spin</dimension>
     <field>energy</field>
     <field>total</field>
     <field>integrated</field>
     <set>
      <set comment="spin 1">
       <r>   -14.1941     0.0000     0.0000 </r>
       <r>   -14.0868     0.0000     0.0000 </r>
       <r>   -13.9795     0.0000     0.0000 </r>
       <r>   -13.8721     0.0000     0.0000 </r>
       <r>   -13.7648     0.0000     0.0000 </r>
       <r>   -13.6575     0.0000     0.0000 </r>
       <r>   -13.5501     0.0000     0.0000 </r>
       <r>   -13.4428     0.0000     0.0000 </r>
       <r>   -13.3355     0.0000     0.0000 </r>
       <r>   -13.2281     0.0000     0.0000 </r>
       <r>   -13.1208     0.0000     0.0000 </r>
       <r>   -13.0135     0.0000     0.0000 </r>
       <r>   -12.9061     0.0000     0.0000 </r>
       <r>   -12.7988     0.0026     0.0003 </r>
       <r>   -12.6915     0.4455     0.0481 </r>
       <r>   -12.5841     2.3068     0.2957 </r>
       <r>   -12.4768     3.5387     0.6755 </r>
       <r>   -12.3694     4.3514     1.1426 </r>
       <r>   -12.2621     3.5485     1.5235 </r>
       <r>   -12.1548     2.8395     1.8282 </r>
       <r>   -12.0474     2.6141     2.1088 </r>
       <r>   -11.9401     2.5965     2.3875 </r>
       <r>   -11.8328     2.7580     2.6835 </r>
       <r>   -11.7254     3.3506     3.0432 </r>
       <r>   -11.6181     3.6305     3.4329 </r>
       <r>   -11.5108     3.1112     3.7668 </r>
       <r>   -11.4034     1.7108     3.9504 </r>
       <r>   -11.2961     0.4530     3.9991 </r>
       <r>   -11.1888     0.0088     4.0000 </r>
       <r>   -11.0814     0.0000     4.0000 </r>
       <r>   -10.9741     0.0000     4.0000 </r>
       <r>   -10.8668     0.0000     4.0000 </r>
       <r>   -10.7594     0.0000     4.0000 </r>
       <r>   -10.6521     0.0000     4.0000 </r>
       <r>   -10.5448     0.0000     4.0000 </r>
       <r>   -10.4374     0.0000     4.0000 </r>
       <r>   -10.3301     0.0000     4.0000 </r>
       <r>   -10.2227     0.0000     4.0000 </r>
       <r>   -10.1154     0.0000     4.0000 </r>
       <r>   -10.0081     0.0000     4.0000 </r>
       <r>    -9.9007     0.0000     4.0000 </r>
       <r>    -9.7934     0.0000     4.0000 </r>
       <r>    -9.6861     0.0000     4.0000 </r>
       <r>    -9.5787     0.0000     4.0000 </r>
       <r>    -9.4714     0.0000     4.0000 </r>
       <r>    -9.3641     0.0000     4.0000 </r>
       <r>    -9.2567     0.0000     4.0000 </r>
       <r>    -9.1494     0.0000     4.0000 </r>
       <r>    -9.0421     0.0000     4.0000 </r>
       <r>    -8.9347     0.0005     4.0001 </r>
       <r>    -8.8274     0.2596     4.0279 </r>
       <r>    -8.7201     2.0559     4.2486 </r>
       <r>    -8.6127     5.2519     4.8123 </r>
       <r>    -8.5054     7.0179     5.5656 </r>
       <r>    -8.3981     6.2963     6.2414 </r>
       <r>    -8.2907     5.3153     6.8119 </r>
       <r>    -8.1834     4.8880     7.3365 </r>
       <r>    -8.0761     3.8442     7.7492 </r>
       <r>    -7.9687     1.7002     7.9316 </r>
       <r>    -7.8614     0.5856     7.9945 </r>
       <r>    -7.7540     0.0512     8.0000 </r>
       <r>    -7.6467     0.0000     8.0000 </r>
       <r>    -7.5394     0.0000     8.0000 </r>
       <r>    -7.4320     0.0000     8.0000 </r>
       <r>    -7.3247     0.0000     8.0000 </r>
       <r>    -7.2174     0.0000     8.0000 </r>
       <r>    -7.1100     0.0000     8.0000 </r>
       <r>    -7.0027     0.0032     8.0003 </r>
       <r>    -6.8954     0.0868     8.0097 </r>
       <r>    -6.7880     0.3059     8.0425 </r>
       <r>    -6.6807     0.4003     8.0855 </r>
       <r>    -6.5734     0.7579     8.1668 </r>
       <r>    -6.4660     0.8870     8.2620 </r>
       <r>    -6.3587     1.3385     8.4057 </r>
       <r>    -6.2514     2.2002     8.6419 </r>
       <r>    -6.1440     2.9325     8.9566 </r>
       <r>    -6.0367     3.8300     9.3677 </r>
       <r>    -5.9294     4.0531     9.8027 </r>
       <r>    -5.8220     4.0350    10.2358 </r>
       <r>    -5.7147     4.1052    10.6765 </r>
       <r>    -5.6073     3.9889    11.1046 </r>
       <r>    -5.5000     4.0837    11.5429 </r>
       <r>    -5.3927     4.5068    12.0267 </r>
       <r>    -5.2853     4.8487    12.5471 </r>
       <r>    -5.1780     4.1115    12.9884 </r>
       <r>    -5.0707     4.2927    13.4492 </r>
       <r>    -4.9633     3.2809    13.8013 </r>
       <r>    -4.8560     2.3479    14.0533 </r>
       <r>    -4.7487     2.5268    14.3246 </r>
       <r>    -4.6413     2.9222    14.6382 </r>
       <r>    -4.5340     3.6026    15.0249 </r>
       <r>    -4.4267     3.5919    15.4104 </r>
       <r>    -4.3193     2.8115    15.7122 </r>
       <r>    -4.2120     3.2003    16.0557 </r>
       <r>    -4.1047     3.0275    16.3807 </r>
       <r>    -3.9973     2.6149    16.6613 </r>
       <r>    -3.8900     3.1064    16.9947 </r>
       <r>    -3.7827     3.0597    17.3232 </r>
       <r>    -3.6753     3.0768    17.6534 </r>
       <r>    -3.5680     2.6472    17.9376 </r>
       <r>    -3.4606     2.5368    18.2098 </r>
       <r>    -3.3533     3.0722    18.5396 </r>
       <r>    -3.2460     2.8582    18.8464 </r>
       <r>    -3.1386     2.6782    19.1338 </r>
       <r>    -3.0313     2.7588    19.4300 </r>
       <r>    -2.9240     3.0730    19.7598 </r>
       <r>    -2.8166     2.8603    20.0668 </r>
       <r>    -2.7093     2.6566    20.3520 </r>
       <r>    -2.6020     2.3741    20.6068 </r>
       <r>    -2.4946     3.0365    20.9327 </r>
       <r>    -2.3873     3.0349    21.2585 </r>
       <r>    -2.2800     3.7581    21.6618 </r>
       <r>    -2.1726     3.6699    22.0557 </r>
       <r>    -2.0653     3.2608    22.4057 </r>
       <r>    -1.9580     3.8165    22.8154 </r>
       <r>    -1.8506     4.8405    23.3349 </r>
       <r>    -1.7433     5.7854    23.9559 </r>
       <r>    -1.6360     5.9294    24.5924 </r>
       <r>    -1.5286     5.2355    25.1543 </r>
       <r>    -1.4213     6.6360    25.8666 </r>
       <r>    -1.3139     6.3895    26.5524 </r>
       <r>    -1.2066     4.3585    27.0202 </r>
       <r>    -1.0993     5.1873    27.5770 </r>
       <r>    -0.9919     4.3256    28.0413 </r>
       <r>    -0.8846     3.0320    28.3667 </r>
       <r>    -0.7773     2.1679    28.5994 </r>
       <r>    -0.6699     3.0508    28.9269 </r>
       <r>    -0.5626     4.9809    29.4615 </r>
       <r>    -0.4553     6.2873    30.1363 </r>
       <r>    -0.3479     6.1715    30.7988 </r>
       <r>    -0.2406     6.0462    31.4477 </r>
       <r>    -0.1333     6.8992    32.1883 </r>
       <r>    -0.0259     7.0145    32.9412 </r>
       <r>     0.0814     6.1276    33.5989 </r>
       <r>     0.1887     6.7525    34.3236 </r>
       <r>     0.2961     8.7944    35.2676 </r>
       <r>     0.4034     7.9755    36.1236 </r>
       <r>     0.5107     8.5302    37.0392 </r>
       <r>     0.6181     5.0069    37.5766 </r>
       <r>     0.7254     3.1623    37.9161 </r>
       <r>     0.8328     3.1928    38.2588 </r>
       <r>     0.9401     3.1841    38.6005 </r>
       <r>     1.0474     2.9981    38.9223 </r>
       <r>     1.1548     3.6327    39.3122 </r>
       <r>     1.2621     4.5485    39.8005 </r>
       <r>     1.3694     3.3999    40.1654 </r>
       <r>     1.4768     3.7938    40.5726 </r>
       <r>     1.5841     3.9383    40.9953 </r>
       <r>     1.6914     3.4805    41.3689 </r>
       <r>     1.7988     3.4009    41.7339 </r>
       <r>     1.9061     3.1443    42.0714 </r>
       <r>     2.0134     3.0620    42.4001 </r>
       <r>     2.1208     2.2975    42.6467 </r>
       <r>     2.2281     1.9857    42.8598 </r>
       <r>     2.3354     1.9162    43.0655 </r>
       <r>     2.4428     1.7784    43.2564 </r>
       <r>     2.5501     1.2574    43.3913 </r>
       <r>     2.6574     0.6035    43.4561 </r>
       <r>     2.7648     0.5314    43.5131 </r>
       <r>     2.8721     0.3392    43.5495 </r>
       <r>     2.9794     0.4669    43.5997 </r>
       <r>     3.0868     0.8394    43.6898 </r>
       <r>     3.1941     0.6026    43.7544 </r>
       <r>     3.3015     0.2870    43.7852 </r>
       <r>     3.4088     0.2668    43.8139 </r>
       <r>     3.5161     0.3021    43.8463 </r>
       <r>     3.6235     0.4349    43.8930 </r>
       <r>     3.7308     0.4000    43.9359 </r>
       <r>     3.8381     0.2796    43.9659 </r>
       <r>     3.9455     0.1554    43.9826 </r>
       <r>     4.0528     0.1462    43.9983 </r>
       <r>     4.1601     0.0159    44.0000 </r>
       <r>     4.2675     0.0445    44.0048 </r>
       <r>     4.3748     0.2265    44.0291 </r>
       <r>     4.4821     0.3600    44.0677 </r>
       <r>     4.5895     0.5047    44.1219 </r>
       <r>     4.6968     0.7106    44.1982 </r>
       <r>     4.8041     0.8551    44.2900 </r>
       <r>     4.9115     0.8360    44.3797 </r>
       <r>     5.0188     0.9588    44.4826 </r>
       <r>     5.1261     1.1841    44.6097 </r>
       <r>     5.2335     1.2865    44.7478 </r>
       <r>     5.3408     1.7301    44.9335 </r>
       <r>     5.4482     2.0733    45.1560 </r>
       <r>     5.5555     2.5168    45.4262 </r>
       <r>     5.6628     3.0323    45.7516 </r>
       <r>     5.7702     3.2977    46.1056 </r>
       <r>     5.8775     3.4946    46.4807 </r>
       <r>     5.9848     4.1370    46.9247 </r>
       <r>     6.0922     4.5738    47.4157 </r>
       <r>     6.1995     4.6796    47.9180 </r>
       <r>     6.3068     4.1025    48.3583 </r>
       <r>     6.4142     4.2382    48.8132 </r>
       <r>     6.5215     4.1550    49.2592 </r>
       <r>     6.6288     4.2335    49.7136 </r>
       <r>     6.7362     3.4861    50.0878 </r>
       <r>     6.8435     3.8553    50.5016 </r>
       <r>     6.9508     4.4615    50.9804 </r>
       <r>     7.0582     4.6534    51.4799 </r>
       <r>     7.1655     5.3058    52.0494 </r>
       <r>     7.2728     4.7134    52.5553 </r>
       <r>     7.3802     4.9239    53.0838 </r>
       <r>     7.4875     4.5805    53.5755 </r>
       <r>     7.5949     3.8476    53.9885 </r>
       <r>     7.7022     3.5371    54.3681 </r>
       <r>     7.8095     3.1038    54.7013 </r>
       <r>     7.9169     3.2245    55.0474 </r>
       <r>     8.0242     3.5155    55.4247 </r>
       <r>     8.1315     3.5048    55.8009 </r>
       <r>     8.2389     3.7107    56.1992 </r>
       <r>     8.3462     3.9077    56.6186 </r>
       <r>     8.4535     4.2549    57.0753 </r>
       <r>     8.5609     4.3429    57.5415 </r>
       <r>     8.6682     4.1806    57.9902 </r>
       <r>     8.7755     4.3295    58.4549 </r>
       <r>     8.8829     5.5222    59.0476 </r>
       <r>     8.9902     4.6531    59.5470 </r>
       <r>     9.0975     5.5099    60.1385 </r>
       <r>     9.2049     5.1663    60.6930 </r>
       <r>     9.3122     5.2226    61.2536 </r>
       <r>     9.4195     4.0287    61.6860 </r>
       <r>     9.5269     4.4901    62.1679 </r>
       <r>     9.6342     5.4230    62.7500 </r>
       <r>     9.7416     5.1993    63.3081 </r>
       <r>     9.8489     4.4914    63.7902 </r>
       <r>     9.9562     5.2151    64.3499 </r>
       <r>    10.0636     4.2519    64.8063 </r>
       <r>    10.1709     4.0506    65.2411 </r>
       <r>    10.2782     4.1762    65.6893 </r>
       <r>    10.3856     4.9720    66.2230 </r>
       <r>    10.4929     5.8995    66.8562 </r>
       <r>    10.6002     4.8545    67.3773 </r>
       <r>    10.7076     4.2758    67.8362 </r>
       <r>    10.8149     4.4647    68.3154 </r>
       <r>    10.9222     3.1012    68.6483 </r>
       <r>    11.0296     4.4979    69.1311 </r>
       <r>    11.1369     5.4041    69.7111 </r>
       <r>    11.2442     6.3441    70.3921 </r>
       <r>    11.3516     5.7667    71.0110 </r>
       <r>    11.4589     5.0392    71.5519 </r>
       <r>    11.5662     4.9862    72.0871 </r>
       <r>    11.6736     4.5364    72.5740 </r>
       <r>    11.7809     4.5343    73.0607 </r>
       <r>    11.8883     5.0042    73.5978 </r>
       <r>    11.9956     6.1452    74.2574 </r>
       <r>    12.1029     6.3161    74.9354 </r>
       <r>    12.2103     5.2298    75.4967 </r>
       <r>    12.3176     5.1812    76.0529 </r>
       <r>    12.4249     6.0475    76.7020 </r>
       <r>    12.5323     5.7685    77.3211 </r>
       <r>    12.6396     5.4471    77.9058 </r>
       <r>    12.7469     6.2438    78.5760 </r>
       <r>    12.8543     5.6174    79.1789 </r>
       <r>    12.9616     6.3229    79.8576 </r>
       <r>    13.0689     5.7876    80.4788 </r>
       <r>    13.1763     6.0769    81.1311 </r>
       <r>    13.2836     6.1062    81.7865 </r>
       <r>    13.3909     5.6638    82.3944 </r>
       <r>    13.4983     5.5969    82.9951 </r>
       <r>    13.6056     5.3598    83.5704 </r>
       <r>    13.7129     5.1866    84.1271 </r>
       <r>    13.8203     5.6444    84.7330 </r>
       <r>    13.9276     5.7819    85.3536 </r>
       <r>    14.0349     5.4421    85.9377 </r>
       <r>    14.1423     5.2007    86.4959 </r>
       <r>    14.2496     4.7683    87.0077 </r>
       <r>    14.3570     5.1485    87.5603 </r>
       <r>    14.4643     4.8355    88.0794 </r>
       <r>    14.5716     5.1808    88.6354 </r>
       <r>    14.6790     5.1761    89.1910 </r>
       <r>    14.7863     4.5103    89.6751 </r>
       <r>    14.8936     4.3369    90.1406 </r>
       <r>    15.0010     5.5051    90.7315 </r>
       <r>    15.1083     6.0006    91.3756 </r>
       <r>    15.2156     5.8748    92.0061 </r>
       <r>    15.3230     5.8675    92.6359 </r>
       <r>    15.4303     5.7297    93.2509 </r>
       <r>    15.5376     6.0359    93.8988 </r>
       <r>    15.6450     5.4681    94.4857 </r>
       <r>    15.7523     4.2850    94.9456 </r>
       <r>    15.8596     2.2927    95.1917 </r>
       <r>    15.9670     2.2631    95.4346 </r>
       <r>    16.0743     1.6614    95.6130 </r>
       <r>    16.1816     1.1571    95.7371 </r>
       <r>    16.2890     0.9726    95.8415 </r>
       <r>    16.3963     0.8540    95.9332 </r>
       <r>    16.5037     0.5237    95.9894 </r>
       <r>    16.6110     0.0970    95.9998 </r>
       <r>    16.7183     0.0015    96.0000 </r>
       <r>    16.8257     0.0000    96.0000 </r>
       <r>    16.9330     0.0000    96.0000 </r>
       <r>    17.0403     0.0000    96.0000 </r>
       <r>    17.1477     0.0000    96.0000 </r>
       <r>    17.2550     0.0000    96.0000 </r>
       <r>    17.3623     0.0000    96.0000 </r>
       <r>    17.4697     0.0000    96.0000 </r>
       <r>    17.5770     0.0000    96.0000 </r>
       <r>    17.6843     0.0000    96.0000 </r>
       <r>    17.7917     0.0000    96.0000 </r>
       <r>    17.8990     0.0000    96.0000 </r>
       <r>    18.0063     0.0000    96.0000 </r>
      </set>
     </set>
    </array>
   </total>
  </dos>
 </calculation>
 <structure name="finalpos" >
  <crystal>
   <varray name="basis" >
    <v>       5.69700000       0.00000000       0.00000000 </v>
    <v>       0.00000000       4.04790000       0.00000000 </v>
    <v>       0.00000000       0.00000000       6.20420000 </v>
   </varray>
   <i name="volume">    143.07435078 </i>
   <varray name="rec_basis" >
    <v>       0.17553098       0.00000000       0.00000000 </v>
    <v>       0.00000000       0.24704168       0.00000000 </v>
    <v>       0.00000000       0.00000000       0.16118114 </v>
   </varray>
  </crystal>
  <varray name="positions" >
   <v>       0.52123000       0.50000000       0.63796000 </v>
   <v>       0.47877000       0.50000000       0.36204000 </v>
   <v>       0.97877000       0.50000000       0.63796000 </v>
   <v>       0.02123000       0.50000000       0.36204000 </v>
   <v>       0.60090000       0.50000000       0.89991000 </v>
   <v>       0.39910000       0.50000000       0.10009000 </v>
   <v>       0.89910000       0.50000000       0.89991000 </v>
   <v>       0.10090000       0.50000000       0.10009000 </v>
   <v>       0.75000000       0.79171000       0.72973000 </v>
   <v>       0.25000000       0.20829000       0.27027000 </v>
   <v>       0.75000000       0.20829000       0.72973000 </v>
   <v>       0.25000000       0.79171000       0.27027000 </v>
   <v>       0.25000000       0.50000000       0.52367000 </v>
   <v>       0.75000000       0.50000000       0.47633000 </v>
  </varray>
 </structure>
</modeling>
