   14   14    1    1
  0.1023493E+02  0.5699849E-09  0.4049924E-09  0.6207302E-09  0.5000000E-15
  1.000000000000000E-004
  CAR 
 Convergence                             
     42    175     48
 
  0.5000000E-01  0.3571429E-01  0.0000000E+00  0.3174603E-02
      1        -12.723139   1.000000
      2        -11.581377   1.000000
      3         -8.660060   1.000000
      4         -8.423542   1.000000
      5         -6.067829   1.000000
      6         -5.134282   1.000000
      7         -4.670432   1.000000
      8         -4.277456   1.000000
      9         -4.036815   1.000000
     10         -3.548232   1.000000
     11         -2.600104   1.000000
     12         -2.331213   1.000000
     13         -1.840568   1.000000
     14         -1.102250   1.000000
     15         -0.075569   1.000000
     16         -0.045297   1.000000
     17          0.148522   1.000000
     18          0.169595   1.000000
     19          0.558000   1.000000
     20          2.010771   0.000064
     21          2.073618   0.000000
     22          2.207656   0.000000
     23          5.446228   0.000000
     24          5.737225   0.000000
     25          5.825490   0.000000
     26          5.947426   0.000000
     27          6.801108   0.000000
     28          7.535164   0.000000
     29          7.863592   0.000000
     30          8.518117   0.000000
     31          8.781972   0.000000
     32          8.931644   0.000000
     33          9.028897   0.000000
     34         10.108563   0.000000
     35         11.170344   0.000000
     36         11.314966   0.000000
     37         11.644309   0.000000
     38         11.763069   0.000000
     39         11.924336   0.000000
     40         12.387849   0.000000
     41         12.847573   0.000000
     42         13.430864   0.000000
     43         13.458162   0.000000
     44         15.354820   0.000000
     45         15.546241   0.000000
     46         16.035230   0.000000
     47         16.309752   0.000000
     48         16.331920   0.000000
 
  0.1500000E+00  0.3571429E-01  0.0000000E+00  0.3174603E-02
      1        -12.679411   1.000000
      2        -11.655181   1.000000
      3         -8.638933   1.000000
      4         -8.412042   1.000000
      5         -5.999716   1.000000
      6         -5.474652   1.000000
      7         -4.792535   1.000000
      8         -4.013093   1.000000
      9         -3.795714   1.000000
     10         -3.211189   1.000000
     11         -2.670217   1.000000
     12         -2.311227   1.000000
     13         -1.918862   1.000000
     14         -1.409034   1.000000
     15         -0.035346   1.000000
     16         -0.025618   1.000000
     17          0.086994   1.000000
     18          0.190329   1.000000
     19          0.462870   1.000000
     20          1.924621   0.081830
     21          1.995749   0.000331
     22          2.086627   0.000000
     23          5.535200   0.000000
     24          5.744711   0.000000
     25          5.854373   0.000000
     26          6.292409   0.000000
     27          6.715774   0.000000
     28          7.173813   0.000000
     29          8.072388   0.000000
     30          8.654504   0.000000
     31          9.037069   0.000000
     32          9.111648   0.000000
     33          9.186201   0.000000
     34         10.219367   0.000000
     35         10.923189   0.000000
     36         11.111011   0.000000
     37         11.243107   0.000000
     38         11.680494   0.000000
     39         12.141443   0.000000
     40         12.476650   0.000000
     41         13.099508   0.000000
     42         13.106709   0.000000
     43         13.988598   0.000000
     44         14.843950   0.000000
     45         15.726817   0.000000
     46         15.807158   0.000000
     47         16.201569   0.000000
     48         16.488726   0.000000
 
  0.2500000E+00  0.3571429E-01  0.0000000E+00  0.3174603E-02
      1        -12.593816   1.000000
      2        -11.788151   1.000000
      3         -8.595319   1.000000
      4         -8.397313   1.000000
      5         -5.978059   1.000000
      6         -5.800940   1.000000
      7         -4.746474   1.000000
      8         -3.886011   1.000000
      9         -3.284936   1.000000
     10         -2.838564   1.000000
     11         -2.719544   1.000000
     12         -2.270985   1.000000
     13         -2.029075   1.000000
     14         -1.913071   1.000000
     15         -0.227520   1.000000
     16          0.007407   1.000000
     17          0.136336   1.000000
     18          0.151007   1.000000
     19          0.432680   1.000000
     20          1.776962   0.997312
     21          1.857428   0.694155
     22          1.863139   0.635371
     23          5.656188   0.000000
     24          5.701175   0.000000
     25          6.163368   0.000000
     26          6.590038   0.000000
     27          6.750370   0.000000
     28          6.919400   0.000000
     29          8.222618   0.000000
     30          8.803110   0.000000
     31          8.980473   0.000000
     32          9.555882   0.000000
     33          9.630504   0.000000
     34         10.262817   0.000000
     35         10.466777   0.000000
     36         10.606236   0.000000
     37         11.362533   0.000000
     38         11.823103   0.000000
     39         12.376243   0.000000
     40         12.544479   0.000000
     41         12.775831   0.000000
     42         12.896494   0.000000
     43         14.613656   0.000000
     44         14.894034   0.000000
     45         15.205407   0.000000
     46         15.958934   0.000000
     47         15.978731   0.000000
     48         16.265047   0.000000
 
  0.3500000E+00  0.3571429E-01  0.0000000E+00  0.3174603E-02
      1        -12.470349   1.000000
      2        -11.957503   1.000000
      3         -8.533514   1.000000
      4         -8.394064   1.000000
      5         -6.058469   1.000000
      6         -6.033894   1.000000
      7         -4.419264   1.000000
      8         -3.717352   1.000000
      9         -3.032310   1.000000
     10         -2.900910   1.000000
     11         -2.449114   1.000000
     12         -2.258560   1.000000
     13         -2.152956   1.000000
     14         -2.129638   1.000000
     15         -0.526617   1.000000
     16         -0.253058   1.000000
     17          0.166576   1.000000
     18          0.241903   1.000000
     19          0.605677   1.000000
     20          1.521770   1.000000
     21          1.654586   1.000000
     22          1.715009   0.999997
     23          5.686151   0.000000
     24          5.741363   0.000000
     25          6.489039   0.000000
     26          6.660958   0.000000
     27          6.686738   0.000000
     28          7.399096   0.000000
     29          8.346546   0.000000
     30          8.673098   0.000000
     31          8.791216   0.000000
     32          9.518206   0.000000
     33         10.036817   0.000000
     34         10.101207   0.000000
     35         10.379353   0.000000
     36         11.127055   0.000000
     37         11.388002   0.000000
     38         11.924989   0.000000
     39         12.185267   0.000000
     40         12.255154   0.000000
     41         12.503933   0.000000
     42         13.239290   0.000000
     43         14.694090   0.000000
     44         14.955276   0.000000
     45         15.238224   0.000000
     46         15.352654   0.000000
     47         15.549592   0.000000
     48         16.353630   0.000000
 
  0.4500000E+00  0.3571429E-01  0.0000000E+00  0.3174603E-02
      1        -12.315656   1.000000
      2        -12.139852   1.000000
      3         -8.467472   1.000000
      4         -8.416590   1.000000
      5         -6.147585   1.000000
      6         -6.143405   1.000000
      7         -3.904267   1.000000
      8         -3.508466   1.000000
      9         -3.305241   1.000000
     10         -3.270882   1.000000
     11         -2.366216   1.000000
     12         -2.238472   1.000000
     13         -1.968427   1.000000
     14         -1.914505   1.000000
     15         -0.747167   1.000000
     16         -0.611488   1.000000
     17          0.249682   1.000000
     18          0.283205   1.000000
     19          0.866174   1.000000
     20          1.183264   1.000000
     21          1.574051   1.000000
     22          1.601364   1.000000
     23          5.714467   0.000000
     24          5.752273   0.000000
     25          6.467893   0.000000
     26          6.531954   0.000000
     27          7.354985   0.000000
     28          8.059116   0.000000
     29          8.081331   0.000000
     30          8.463860   0.000000
     31          8.601999   0.000000
     32          8.773831   0.000000
     33         10.484232   0.000000
     34         10.499699   0.000000
     35         10.741605   0.000000
     36         11.199314   0.000000
     37         11.383630   0.000000
     38         11.578212   0.000000
     39         11.911332   0.000000
     40         12.462983   0.000000
     41         12.699086   0.000000
     42         13.234170   0.000000
     43         14.571987   0.000000
     44         14.712717   0.000000
     45         14.849137   0.000000
     46         14.908101   0.000000
     47         16.076750   0.000000
     48         16.421668   0.000000
 
  0.5000000E-01  0.1071429E+00  0.0000000E+00  0.3174603E-02
      1        -12.699156   1.000000
      2        -11.559817   1.000000
      3         -8.641321   1.000000
      4         -8.400447   1.000000
      5         -6.041119   1.000000
      6         -5.100571   1.000000
      7         -4.648423   1.000000
      8         -4.575894   1.000000
      9         -4.180603   1.000000
     10         -3.525440   1.000000
     11         -3.292934   1.000000
     12         -1.800331   1.000000
     13         -1.097685   1.000000
     14         -1.042127   1.000000
     15         -0.309059   1.000000
     16         -0.281059   1.000000
     17          0.162019   1.000000
     18          0.239862   1.000000
     19          0.636255   1.000000
     20          1.743375   0.999906
     21          1.823091   0.930409
     22          2.259803   0.000000
     23          5.565184   0.000000
     24          5.695702   0.000000
     25          5.730274   0.000000
     26          5.993537   0.000000
     27          7.086573   0.000000
     28          7.820563   0.000000
     29          8.061168   0.000000
     30          8.173254   0.000000
     31          8.786377   0.000000
     32          9.077782   0.000000
     33          9.130327   0.000000
     34         10.559688   0.000000
     35         11.246768   0.000000
     36         11.384598   0.000000
     37         11.578388   0.000000
     38         11.865738   0.000000
     39         12.035107   0.000000
     40         12.667393   0.000000
     41         12.848127   0.000000
     42         13.168490   0.000000
     43         13.173905   0.000000
     44         15.306334   0.000000
     45         15.354905   0.000000
     46         15.834528   0.000000
     47         15.842038   0.000000
     48         16.195200   0.000000
 
  0.1500000E+00  0.1071429E+00  0.0000000E+00  0.3174603E-02
      1        -12.655521   1.000000
      2        -11.633475   1.000000
      3         -8.620043   1.000000
      4         -8.389324   1.000000
      5         -5.971220   1.000000
      6         -5.444582   1.000000
      7         -4.772539   1.000000
      8         -4.493622   1.000000
      9         -3.756667   1.000000
     10         -3.373477   1.000000
     11         -3.173214   1.000000
     12         -1.778673   1.000000
     13         -1.403623   1.000000
     14         -1.160789   1.000000
     15         -0.270213   1.000000
     16         -0.201227   1.000000
     17          0.129447   1.000000
     18          0.211785   1.000000
     19          0.533496   1.000000
     20          1.662941   1.000000
     21          1.746699   0.999863
     22          2.129136   0.000000
     23          5.641124   0.000000
     24          5.794543   0.000000
     25          5.921854   0.000000
     26          6.099592   0.000000
     27          7.003284   0.000000
     28          7.495620   0.000000
     29          8.207017   0.000000
     30          8.342813   0.000000
     31          9.108044   0.000000
     32          9.141251   0.000000
     33          9.397443   0.000000
     34         10.483287   0.000000
     35         10.854750   0.000000
     36         11.063776   0.000000
     37         11.438976   0.000000
     38         11.853327   0.000000
     39         12.254572   0.000000
     40         12.720895   0.000000
     41         12.846948   0.000000
     42         13.130736   0.000000
     43         13.706615   0.000000
     44         14.928918   0.000000
     45         15.374055   0.000000
     46         15.727815   0.000000
     47         15.770778   0.000000
     48         16.375301   0.000000
 
  0.2500000E+00  0.1071429E+00  0.0000000E+00  0.3174603E-02
      1        -12.570121   1.000000
      2        -11.766180   1.000000
      3         -8.576217   1.000000
      4         -8.375294   1.000000
      5         -5.946804   1.000000
      6         -5.770572   1.000000
      7         -4.729862   1.000000
      8         -4.385279   1.000000
      9         -3.495239   1.000000
     10         -3.231144   1.000000
     11         -2.707180   1.000000
     12         -1.908483   1.000000
     13         -1.734462   1.000000
     14         -1.323464   1.000000
     15         -0.229738   1.000000
     16         -0.223442   1.000000
     17          0.046242   1.000000
     18          0.198938   1.000000
     19          0.457180   1.000000
     20          1.528085   1.000000
     21          1.616732   1.000000
     22          1.881160   0.435029
     23          5.842741   0.000000
     24          5.922326   0.000000
     25          6.000305   0.000000
     26          6.547749   0.000000
     27          6.882823   0.000000
     28          7.268017   0.000000
     29          8.413367   0.000000
     30          8.475362   0.000000
     31          9.079983   0.000000
     32          9.593866   0.000000
     33          9.855887   0.000000
     34         10.107033   0.000000
     35         10.334538   0.000000
     36         10.803101   0.000000
     37         11.503847   0.000000
     38         12.088009   0.000000
     39         12.287756   0.000000
     40         12.538036   0.000000
     41         12.936123   0.000000
     42         13.005338   0.000000
     43         14.283198   0.000000
     44         15.061165   0.000000
     45         15.139262   0.000000
     46         15.621529   0.000000
     47         15.686064   0.000000
     48         16.395605   0.000000
 
  0.3500000E+00  0.1071429E+00  0.0000000E+00  0.3174603E-02
      1        -12.446920   1.000000
      2        -11.935174   1.000000
      3         -8.514166   1.000000
      4         -8.372936   1.000000
      5         -6.026005   1.000000
      6         -6.002659   1.000000
      7         -4.404790   1.000000
      8         -4.238400   1.000000
      9         -3.666497   1.000000
     10         -2.851906   1.000000
     11         -2.367634   1.000000
     12         -2.224316   1.000000
     13         -1.670326   1.000000
     14         -1.486298   1.000000
     15         -0.488278   1.000000
     16         -0.315382   1.000000
     17          0.077955   1.000000
     18          0.108234   1.000000
     19          0.616329   1.000000
     20          1.388556   1.000000
     21          1.471491   1.000000
     22          1.557536   1.000000
     23          5.860611   0.000000
     24          5.995737   0.000000
     25          6.505302   0.000000
     26          6.793581   0.000000
     27          6.866671   0.000000
     28          7.358456   0.000000
     29          8.402704   0.000000
     30          8.582925   0.000000
     31          8.920810   0.000000
     32          9.354037   0.000000
     33         10.053659   0.000000
     34         10.079309   0.000000
     35         10.423631   0.000000
     36         11.203959   0.000000
     37         11.345850   0.000000
     38         11.821909   0.000000
     39         12.270306   0.000000
     40         12.527929   0.000000
     41         12.703606   0.000000
     42         13.441208   0.000000
     43         14.743514   0.000000
     44         14.751751   0.000000
     45         15.130292   0.000000
     46         15.285368   0.000000
     47         15.627475   0.000000
     48         16.366978   0.000000
 
  0.4500000E+00  0.1071429E+00  0.0000000E+00  0.3174603E-02
      1        -12.292563   1.000000
      2        -12.117139   1.000000
      3         -8.447779   1.000000
      4         -8.396307   1.000000
      5         -6.115535   1.000000
      6         -6.110911   1.000000
      7         -4.059648   1.000000
      8         -3.896899   1.000000
      9         -3.855998   1.000000
     10         -3.292442   1.000000
     11         -2.113168   1.000000
     12         -1.919871   1.000000
     13         -1.602194   1.000000
     14         -1.598627   1.000000
     15         -0.709013   1.000000
     16         -0.607604   1.000000
     17          0.111276   1.000000
     18          0.142436   1.000000
     19          0.875560   1.000000
     20          1.189678   1.000000
     21          1.335119   1.000000
     22          1.359195   1.000000
     23          5.912005   0.000000
     24          5.978142   0.000000
     25          6.782903   0.000000
     26          6.833462   0.000000
     27          7.172093   0.000000
     28          7.883502   0.000000
     29          7.927935   0.000000
     30          8.609391   0.000000
     31          8.675219   0.000000
     32          8.787668   0.000000
     33         10.301567   0.000000
     34         10.550206   0.000000
     35         10.787505   0.000000
     36         10.890069   0.000000
     37         11.530882   0.000000
     38         11.637279   0.000000
     39         11.990042   0.000000
     40         12.631499   0.000000
     41         13.006997   0.000000
     42         13.465012   0.000000
     43         14.527292   0.000000
     44         14.712141   0.000000
     45         14.809731   0.000000
     46         15.027355   0.000000
     47         16.101551   0.000000
     48         16.396126   0.000000
 
  0.5000000E-01  0.1785714E+00  0.0000000E+00  0.3174603E-02
      1        -12.654849   1.000000
      2        -11.520060   1.000000
      3         -8.607010   1.000000
      4         -8.357839   1.000000
      5         -5.991737   1.000000
      6         -5.132651   1.000000
      7         -5.009926   1.000000
      8         -4.606700   1.000000
      9         -4.164297   1.000000
     10         -3.914699   1.000000
     11         -3.472272   1.000000
     12         -1.210850   1.000000
     13         -1.088384   1.000000
     14         -0.652460   1.000000
     15         -0.547264   1.000000
     16         -0.184115   1.000000
     17          0.183185   1.000000
     18          0.292598   1.000000
     19          0.714554   1.000000
     20          1.361136   1.000000
     21          1.424546   1.000000
     22          2.297802   0.000000
     23          5.276694   0.000000
     24          5.441738   0.000000
     25          6.109808   0.000000
     26          6.181374   0.000000
     27          7.520995   0.000000
     28          7.609815   0.000000
     29          8.302410   0.000000
     30          8.708512   0.000000
     31          8.864919   0.000000
     32          9.218899   0.000000
     33          9.351751   0.000000
     34         10.863104   0.000000
     35         11.299310   0.000000
     36         11.552426   0.000000
     37         11.684607   0.000000
     38         12.066022   0.000000
     39         12.251192   0.000000
     40         12.726368   0.000000
     41         12.739462   0.000000
     42         12.983339   0.000000
     43         13.206187   0.000000
     44         14.648970   0.000000
     45         15.136195   0.000000
     46         15.316249   0.000000
     47         15.408714   0.000000
     48         15.935249   0.000000
 
  0.1500000E+00  0.1785714E+00  0.0000000E+00  0.3174603E-02
      1        -12.611398   1.000000
      2        -11.593443   1.000000
      3         -8.585432   1.000000
      4         -8.347414   1.000000
      5         -5.918437   1.000000
      6         -5.396341   1.000000
      7         -5.034583   1.000000
      8         -4.734895   1.000000
      9         -3.980692   1.000000
     10         -3.714684   1.000000
     11         -3.133815   1.000000
     12         -1.395353   1.000000
     13         -1.184590   1.000000
     14         -0.759932   1.000000
     15         -0.509309   1.000000
     16         -0.102886   1.000000
     17          0.163236   1.000000
     18          0.236901   1.000000
     19          0.602061   1.000000
     20          1.282096   1.000000
     21          1.354868   1.000000
     22          2.162140   0.000000
     23          5.357021   0.000000
     24          5.787093   0.000000
     25          6.127437   0.000000
     26          6.224546   0.000000
     27          7.440359   0.000000
     28          7.766349   0.000000
     29          8.034704   0.000000
     30          8.799803   0.000000
     31          9.231319   0.000000
     32          9.268015   0.000000
     33          9.636047   0.000000
     34         10.498648   0.000000
     35         10.760303   0.000000
     36         11.256643   0.000000
     37         11.702526   0.000000
     38         12.178692   0.000000
     39         12.411313   0.000000
     40         12.482271   0.000000
     41         13.140782   0.000000
     42         13.253993   0.000000
     43         13.415234   0.000000
     44         14.659911   0.000000
     45         14.798332   0.000000
     46         15.255080   0.000000
     47         15.472618   0.000000
     48         15.963345   0.000000
 
  0.2500000E+00  0.1785714E+00  0.0000000E+00  0.3174603E-02
      1        -12.526342   1.000000
      2        -11.725637   1.000000
      3         -8.541182   1.000000
      4         -8.334711   1.000000
      5         -5.888626   1.000000
      6         -5.715787   1.000000
      7         -4.942964   1.000000
      8         -4.698836   1.000000
      9         -4.104056   1.000000
     10         -3.181082   1.000000
     11         -2.663276   1.000000
     12         -1.892122   1.000000
     13         -1.144035   1.000000
     14         -0.898883   1.000000
     15         -0.456493   1.000000
     16         -0.094835   1.000000
     17          0.006595   1.000000
     18          0.248609   1.000000
     19          0.487057   1.000000
     20          1.150750   1.000000
     21          1.236666   1.000000
     22          1.905871   0.194200
     23          5.677950   0.000000
     24          6.082481   0.000000
     25          6.262649   0.000000
     26          6.354587   0.000000
     27          7.338222   0.000000
     28          7.845805   0.000000
     29          8.000315   0.000000
     30          8.928510   0.000000
     31          9.226275   0.000000
     32          9.700326   0.000000
     33          9.834378   0.000000
     34         10.118184   0.000000
     35         10.235686   0.000000
     36         11.042210   0.000000
     37         11.568887   0.000000
     38         12.085779   0.000000
     39         12.489399   0.000000
     40         12.783303   0.000000
     41         13.022481   0.000000
     42         13.426854   0.000000
     43         13.937472   0.000000
     44         14.569438   0.000000
     45         14.847802   0.000000
     46         15.276624   0.000000
     47         15.491008   0.000000
     48         16.174036   0.000000
 
  0.3500000E+00  0.1785714E+00  0.0000000E+00  0.3174603E-02
      1        -12.403647   1.000000
      2        -11.893979   1.000000
      3         -8.478681   1.000000
      4         -8.334061   1.000000
      5         -5.965520   1.000000
      6         -5.945053   1.000000
      7         -4.807291   1.000000
      8         -4.378118   1.000000
      9         -4.268308   1.000000
     10         -2.813439   1.000000
     11         -2.326769   1.000000
     12         -2.183199   1.000000
     13         -1.087581   1.000000
     14         -1.035853   1.000000
     15         -0.462402   1.000000
     16         -0.380425   1.000000
     17          0.050381   1.000000
     18          0.053686   1.000000
     19          0.633905   1.000000
     20          1.021272   1.000000
     21          1.104040   1.000000
     22          1.571240   1.000000
     23          6.094004   0.000000
     24          6.212424   0.000000
     25          6.385958   0.000000
     26          6.788939   0.000000
     27          7.282734   0.000000
     28          7.767273   0.000000
     29          8.056041   0.000000
     30          9.028039   0.000000
     31          9.087183   0.000000
     32          9.158382   0.000000
     33          9.868676   0.000000
     34         10.167454   0.000000
     35         10.683591   0.000000
     36         11.059026   0.000000
     37         11.302908   0.000000
     38         11.931755   0.000000
     39         12.332662   0.000000
     40         12.966722   0.000000
     41         13.017719   0.000000
     42         13.770082   0.000000
     43         14.356667   0.000000
     44         14.373468   0.000000
     45         15.006771   0.000000
     46         15.100627   0.000000
     47         15.589327   0.000000
     48         16.351795   0.000000
 
  0.4500000E+00  0.1785714E+00  0.0000000E+00  0.3174603E-02
      1        -12.249926   1.000000
      2        -12.075212   1.000000
      3         -8.411630   1.000000
      4         -8.359039   1.000000
      5         -6.056051   1.000000
      6         -6.050408   1.000000
      7         -4.639735   1.000000
      8         -4.454347   1.000000
      9         -3.865856   1.000000
     10         -3.269917   1.000000
     11         -2.044725   1.000000
     12         -1.879447   1.000000
     13         -1.107980   1.000000
     14         -1.046984   1.000000
     15         -0.636950   1.000000
     16         -0.630975   1.000000
     17          0.000907   1.000000
     18          0.044434   1.000000
     19          0.891204   1.000000
     20          0.958947   1.000000
     21          0.999601   1.000000
     22          1.218107   1.000000
     23          6.185739   0.000000
     24          6.304255   0.000000
     25          6.864423   0.000000
     26          7.202721   0.000000
     27          7.260968   0.000000
     28          7.608150   0.000000
     29          7.914124   0.000000
     30          8.424594   0.000000
     31          9.083867   0.000000
     32          9.115843   0.000000
     33          9.992797   0.000000
     34         10.465033   0.000000
     35         10.688749   0.000000
     36         10.960602   0.000000
     37         11.710950   0.000000
     38         11.727431   0.000000
     39         12.110353   0.000000
     40         12.887755   0.000000
     41         13.396050   0.000000
     42         13.742613   0.000000
     43         14.205452   0.000000
     44         14.359891   0.000000
     45         14.971445   0.000000
     46         15.110963   0.000000
     47         15.966249   0.000000
     48         16.269694   0.000000
 
  0.5000000E-01  0.2500000E+00  0.0000000E+00  0.3174603E-02
      1        -12.597446   1.000000
      2        -11.468700   1.000000
      3         -8.563177   1.000000
      4         -8.302721   1.000000
      5         -5.927641   1.000000
      6         -5.613361   1.000000
      7         -4.939832   1.000000
      8         -4.550576   1.000000
      9         -4.434622   1.000000
     10         -4.125032   1.000000
     11         -3.410385   1.000000
     12         -1.224525   1.000000
     13         -1.074162   1.000000
     14         -1.006412   1.000000
     15         -0.201709   1.000000
     16          0.211368   1.000000
     17          0.335842   1.000000
     18          0.586330   1.000000
     19          0.778148   1.000000
     20          0.976386   1.000000
     21          0.990486   1.000000
     22          2.331923   0.000000
     23          4.933845   0.000000
     24          5.148656   0.000000
     25          6.341432   0.000000
     26          6.571020   0.000000
     27          7.251940   0.000000
     28          7.950601   0.000000
     29          8.681572   0.000000
     30          9.042451   0.000000
     31          9.442452   0.000000
     32          9.562316   0.000000
     33          9.632937   0.000000
     34         10.724529   0.000000
     35         11.248939   0.000000
     36         11.947173   0.000000
     37         12.000193   0.000000
     38         12.273991   0.000000
     39         12.404187   0.000000
     40         12.429365   0.000000
     41         12.545025   0.000000
     42         12.968496   0.000000
     43         13.767211   0.000000
     44         13.859744   0.000000
     45         14.392944   0.000000
     46         15.080527   0.000000
     47         15.381578   0.000000
     48         15.831471   0.000000
 
  0.1500000E+00  0.2500000E+00  0.0000000E+00  0.3174603E-02
      1        -12.554227   1.000000
      2        -11.541720   1.000000
      3         -8.541193   1.000000
      4         -8.293250   1.000000
      5         -5.849723   1.000000
      6         -5.578611   1.000000
      7         -5.276581   1.000000
      8         -4.685087   1.000000