  14  14   0   0
  0.1021960E+02  0.5697000E-09  0.4047900E-09  0.6204200E-09  0.5000000E-15
  1.000000000000000E-004
  CAR 
 Kpoints                                 
     18.01450259    -14.19523771  301      1.91212398      1.00000000
    -14.195  0.0000E+00  0.0000E+00
    -14.088  0.0000E+00  0.0000E+00
    -13.981  0.0000E+00  0.0000E+00
    -13.873  0.0000E+00  0.0000E+00
    -13.766  0.0000E+00  0.0000E+00
    -13.658  0.0000E+00  0.0000E+00
    -13.551  0.0000E+00  0.0000E+00
    -13.444  0.0000E+00  0.0000E+00
    -13.336  0.0000E+00  0.0000E+00
    -13.229  0.0000E+00  0.0000E+00
    -13.122  0.0000E+00  0.0000E+00
    -13.014  0.1629E-16  0.1749E-17
    -12.907  0.1279E-07  0.1374E-08
    -12.799  0.2337E-02  0.2509E-03
    -12.692  0.4312E+00  0.4654E-01
    -12.585  0.2282E+01  0.2916E+00
    -12.477  0.3530E+01  0.6706E+00
    -12.370  0.4372E+01  0.1140E+01
    -12.263  0.3558E+01  0.1522E+01
    -12.155  0.2797E+01  0.1822E+01
    -12.048  0.2671E+01  0.2109E+01
    -11.941  0.2579E+01  0.2386E+01
    -11.833  0.2729E+01  0.2679E+01
    -11.726  0.3372E+01  0.3041E+01
    -11.618  0.3581E+01  0.3426E+01
    -11.511  0.3128E+01  0.3761E+01
    -11.404  0.1745E+01  0.3949E+01
    -11.296  0.4675E+00  0.3999E+01
    -11.189  0.9563E-02  0.4000E+01
    -11.082  0.4795E-06  0.4000E+01
    -10.974  0.6147E-14  0.4000E+01
    -10.867  0.0000E+00  0.4000E+01
    -10.760  0.0000E+00  0.4000E+01
    -10.652  0.0000E+00  0.4000E+01
    -10.545  0.0000E+00  0.4000E+01
    -10.437  0.0000E+00  0.4000E+01
    -10.330  0.0000E+00  0.4000E+01
    -10.223  0.0000E+00  0.4000E+01
    -10.115  0.0000E+00  0.4000E+01
    -10.008  0.0000E+00  0.4000E+01
     -9.901  0.0000E+00  0.4000E+01
     -9.793  0.0000E+00  0.4000E+01
     -9.686  0.0000E+00  0.4000E+01
     -9.579  0.0000E+00  0.4000E+01
     -9.471  0.0000E+00  0.4000E+01
     -9.364  0.0000E+00  0.4000E+01
     -9.256  0.0000E+00  0.4000E+01
     -9.149  0.0000E+00  0.4000E+01
     -9.042  0.1049E-08  0.4000E+01
     -8.934  0.6898E-03  0.4000E+01
     -8.827  0.2975E+00  0.4032E+01
     -8.720  0.2151E+01  0.4263E+01
     -8.612  0.5396E+01  0.4842E+01
     -8.505  0.7012E+01  0.5595E+01
     -8.397  0.6191E+01  0.6260E+01
     -8.290  0.5320E+01  0.6831E+01
     -8.183  0.4850E+01  0.7352E+01
     -8.075  0.3773E+01  0.7757E+01
     -7.968  0.1662E+01  0.7935E+01
     -7.861  0.5565E+00  0.7995E+01
     -7.753  0.4451E-01  0.8000E+01
     -7.646  0.3050E-04  0.8000E+01
     -7.539  0.7694E-11  0.8000E+01
     -7.431  0.0000E+00  0.8000E+01
     -7.324  0.0000E+00  0.8000E+01
     -7.216  0.1631E-14  0.8000E+01
     -7.109  0.1918E-06  0.8000E+01
     -7.002  0.4288E-02  0.8000E+01
     -6.894  0.9736E-01  0.8011E+01
     -6.787  0.3006E+00  0.8043E+01
     -6.680  0.5119E+00  0.8098E+01
     -6.572  0.5351E+00  0.8156E+01
     -6.465  0.1079E+01  0.8271E+01
     -6.358  0.1373E+01  0.8419E+01
     -6.250  0.1965E+01  0.8630E+01
     -6.143  0.3057E+01  0.8958E+01
     -6.035  0.3833E+01  0.9370E+01
     -5.928  0.4082E+01  0.9808E+01
     -5.821  0.4092E+01  0.1025E+02
     -5.713  0.3865E+01  0.1066E+02
     -5.606  0.3983E+01  0.1109E+02
     -5.499  0.4343E+01  0.1156E+02
     -5.391  0.4513E+01  0.1204E+02
     -5.284  0.4370E+01  0.1251E+02
     -5.177  0.4744E+01  0.1302E+02
     -5.069  0.3920E+01  0.1344E+02
     -4.962  0.3194E+01  0.1378E+02
     -4.854  0.2778E+01  0.1408E+02
     -4.747  0.2155E+01  0.1431E+02
     -4.640  0.3077E+01  0.1464E+02
     -4.532  0.3654E+01  0.1504E+02
     -4.425  0.3519E+01  0.1541E+02
     -4.318  0.3070E+01  0.1574E+02
     -4.210  0.2988E+01  0.1606E+02
     -4.103  0.2877E+01  0.1637E+02
     -3.995  0.2702E+01  0.1666E+02
     -3.888  0.3052E+01  0.1699E+02
     -3.781  0.3534E+01  0.1737E+02
     -3.673  0.2617E+01  0.1765E+02
     -3.566  0.2799E+01  0.1795E+02
     -3.459  0.2653E+01  0.1824E+02
     -3.351  0.2736E+01  0.1853E+02
     -3.244  0.3022E+01  0.1885E+02
     -3.137  0.2907E+01  0.1917E+02
     -3.029  0.2748E+01  0.1946E+02
     -2.922  0.2967E+01  0.1978E+02
     -2.814  0.2957E+01  0.2010E+02
     -2.707  0.2371E+01  0.2035E+02
     -2.600  0.2383E+01  0.2061E+02
     -2.492  0.3165E+01  0.2095E+02
     -2.385  0.3242E+01  0.2130E+02
     -2.278  0.3910E+01  0.2172E+02
     -2.170  0.2732E+01  0.2201E+02
     -2.063  0.3332E+01  0.2237E+02
     -1.956  0.4377E+01  0.2284E+02
     -1.848  0.5246E+01  0.2340E+02
     -1.741  0.5212E+01  0.2396E+02
     -1.633  0.5483E+01  0.2455E+02
     -1.526  0.6183E+01  0.2521E+02
     -1.419  0.6375E+01  0.2590E+02
     -1.311  0.5702E+01  0.2651E+02
     -1.204  0.4954E+01  0.2704E+02
     -1.097  0.5434E+01  0.2762E+02
     -0.989  0.3975E+01  0.2805E+02
     -0.882  0.2492E+01  0.2832E+02
     -0.775  0.2588E+01  0.2860E+02
     -0.667  0.3683E+01  0.2899E+02
     -0.560  0.4797E+01  0.2951E+02
     -0.452  0.6430E+01  0.3020E+02
     -0.345  0.5630E+01  0.3080E+02
     -0.238  0.5774E+01  0.3142E+02
     -0.130  0.7799E+01  0.3226E+02
     -0.023  0.6676E+01  0.3298E+02
      0.084  0.5814E+01  0.3360E+02
      0.192  0.6938E+01  0.3434E+02
      0.299  0.8867E+01  0.3530E+02
      0.407  0.8240E+01  0.3618E+02
      0.514  0.8619E+01  0.3711E+02
      0.621  0.4447E+01  0.3758E+02
      0.729  0.2776E+01  0.3788E+02
      0.836  0.3121E+01  0.3822E+02
      0.943  0.4016E+01  0.3865E+02
      1.051  0.3283E+01  0.3900E+02
      1.158  0.3074E+01  0.3933E+02
      1.265  0.3416E+01  0.3970E+02
      1.373  0.3581E+01  0.4008E+02
      1.480  0.4649E+01  0.4058E+02
      1.588  0.4507E+01  0.4107E+02
      1.695  0.3659E+01  0.4146E+02
      1.802  0.2352E+01  0.4171E+02
      1.910  0.2628E+01  0.4199E+02
      2.017  0.3052E+01  0.4232E+02
      2.124  0.3153E+01  0.4266E+02
      2.232  0.2678E+01  0.4295E+02
      2.339  0.1767E+01  0.4314E+02
      2.446  0.1333E+01  0.4328E+02
      2.554  0.6205E+00  0.4335E+02
      2.661  0.4680E+00  0.4340E+02
      2.769  0.9803E+00  0.4350E+02
      2.876  0.9472E+00  0.4360E+02
      2.983  0.5921E+00  0.4367E+02
      3.091  0.2786E+00  0.4370E+02
      3.198  0.3649E+00  0.4374E+02
      3.305  0.2687E+00  0.4376E+02
      3.413  0.4078E+00  0.4381E+02
      3.520  0.5063E+00  0.4386E+02
      3.627  0.4245E+00  0.4391E+02
      3.735  0.3685E+00  0.4395E+02
      3.842  0.1477E+00  0.4396E+02
      3.950  0.1567E+00  0.4398E+02
      4.057  0.1725E+00  0.4400E+02
      4.164  0.7358E-02  0.4400E+02
      4.272  0.5218E-01  0.4401E+02
      4.379  0.2340E+00  0.4403E+02
      4.486  0.3673E+00  0.4407E+02
      4.594  0.5266E+00  0.4413E+02
      4.701  0.7647E+00  0.4421E+02
      4.809  0.7004E+00  0.4428E+02
      4.916  0.9859E+00  0.4439E+02
      5.023  0.1003E+01  0.4450E+02
      5.131  0.1031E+01  0.4461E+02
      5.238  0.1420E+01  0.4476E+02
      5.345  0.1590E+01  0.4493E+02
      5.453  0.2293E+01  0.4518E+02
      5.560  0.2540E+01  0.4545E+02
      5.667  0.3143E+01  0.4579E+02
      5.775  0.2760E+01  0.4608E+02
      5.882  0.3896E+01  0.4650E+02
      5.990  0.4431E+01  0.4698E+02
      6.097  0.4381E+01  0.4745E+02
      6.204  0.4428E+01  0.4792E+02
      6.312  0.4369E+01  0.4839E+02
      6.419  0.3939E+01  0.4882E+02
      6.526  0.4591E+01  0.4931E+02
      6.634  0.3963E+01  0.4973E+02
      6.741  0.3410E+01  0.5010E+02
      6.848  0.4031E+01  0.5053E+02
      6.956  0.4209E+01  0.5099E+02
      7.063  0.5178E+01  0.5154E+02
      7.171  0.4749E+01  0.5205E+02
      7.278  0.4725E+01  0.5256E+02
      7.385  0.5273E+01  0.5312E+02
      7.493  0.4392E+01  0.5360E+02
      7.600  0.3820E+01  0.5401E+02
      7.707  0.3618E+01  0.5439E+02
      7.815  0.3143E+01  0.5473E+02
      7.922  0.2805E+01  0.5503E+02
      8.029  0.3427E+01  0.5540E+02
      8.137  0.4075E+01  0.5584E+02
      8.244  0.3750E+01  0.5624E+02
      8.352  0.3909E+01  0.5666E+02
      8.459  0.3887E+01  0.5708E+02
      8.566  0.4027E+01  0.5751E+02
      8.674  0.4670E+01  0.5801E+02
      8.781  0.5092E+01  0.5856E+02
      8.888  0.4817E+01  0.5908E+02
      8.996  0.4754E+01  0.5959E+02
      9.103  0.4478E+01  0.6007E+02
      9.211  0.6007E+01  0.6071E+02
      9.318  0.5762E+01  0.6133E+02
      9.425  0.3998E+01  0.6176E+02
      9.533  0.4400E+01  0.6223E+02
      9.640  0.4367E+01  0.6270E+02
      9.747  0.5048E+01  0.6324E+02
      9.855  0.6039E+01  0.6389E+02
      9.962  0.4968E+01  0.6442E+02
     10.069  0.3519E+01  0.6480E+02
     10.177  0.3979E+01  0.6523E+02
     10.284  0.4485E+01  0.6571E+02
     10.392  0.5256E+01  0.6628E+02
     10.499  0.5981E+01  0.6692E+02
     10.606  0.4718E+01  0.6742E+02
     10.714  0.4127E+01  0.6787E+02
     10.821  0.4008E+01  0.6830E+02
     10.928  0.3479E+01  0.6867E+02
     11.036  0.4714E+01  0.6918E+02
     11.143  0.5249E+01  0.6974E+02
     11.250  0.6248E+01  0.7041E+02
     11.358  0.6285E+01  0.7109E+02
     11.465  0.4882E+01  0.7161E+02
     11.573  0.4676E+01  0.7211E+02
     11.680  0.4103E+01  0.7255E+02
     11.787  0.5016E+01  0.7309E+02
     11.895  0.5098E+01  0.7364E+02
     12.002  0.5799E+01  0.7426E+02
     12.109  0.6060E+01  0.7491E+02
     12.217  0.6260E+01  0.7558E+02
     12.324  0.5036E+01  0.7613E+02
     12.431  0.5192E+01  0.7668E+02
     12.539  0.6047E+01  0.7733E+02
     12.646  0.6245E+01  0.7800E+02
     12.754  0.5710E+01  0.7862E+02
     12.861  0.5371E+01  0.7919E+02
     12.968  0.6100E+01  0.7985E+02
     13.076  0.6093E+01  0.8050E+02
     13.183  0.6011E+01  0.8115E+02
     13.290  0.6553E+01  0.8185E+02
     13.398  0.5609E+01  0.8245E+02
     13.505  0.5240E+01  0.8302E+02
     13.613  0.5447E+01  0.8360E+02
     13.720  0.5417E+01  0.8418E+02
     13.827  0.5679E+01  0.8479E+02
     13.935  0.5737E+01  0.8541E+02
     14.042  0.4748E+01  0.8592E+02
     14.149  0.5470E+01  0.8650E+02
     14.257  0.5567E+01  0.8710E+02
     14.364  0.4540E+01  0.8759E+02
     14.471  0.4364E+01  0.8806E+02
     14.579  0.5782E+01  0.8868E+02
     14.686  0.5249E+01  0.8924E+02
     14.794  0.4494E+01  0.8973E+02
     14.901  0.4184E+01  0.9017E+02
     15.008  0.5392E+01  0.9075E+02
     15.116  0.6013E+01  0.9140E+02
     15.223  0.6132E+01  0.9206E+02
     15.330  0.5917E+01  0.9269E+02
     15.438  0.5674E+01  0.9330E+02
     15.545  0.5814E+01  0.9393E+02
     15.652  0.5554E+01  0.9452E+02
     15.760  0.3655E+01  0.9491E+02
     15.867  0.3199E+01  0.9526E+02
     15.975  0.1972E+01  0.9547E+02
     16.082  0.1229E+01  0.9560E+02
     16.189  0.1222E+01  0.9573E+02
     16.297  0.9945E+00  0.9584E+02
     16.404  0.9837E+00  0.9595E+02
     16.511  0.4100E+00  0.9599E+02
     16.619  0.9720E-01  0.9600E+02
     16.726  0.1264E-02  0.9600E+02
     16.833  0.1519E-07  0.9600E+02
     16.941  0.3008E-16  0.9600E+02
     17.048  0.0000E+00  0.9600E+02
     17.156  0.0000E+00  0.9600E+02
     17.263  0.0000E+00  0.9600E+02
     17.370  0.0000E+00  0.9600E+02
     17.478  0.0000E+00  0.9600E+02
     17.585  0.0000E+00  0.9600E+02
     17.692  0.0000E+00  0.9600E+02
     17.800  0.0000E+00  0.9600E+02
     17.907  0.0000E+00  0.9600E+02
     18.015  0.0000E+00  0.9600E+02
