   14   14    1    1
  0.1021960E+02  0.5697000E-09  0.4047900E-09  0.6204200E-09  0.5000000E-15
  1.000000000000000E-004
  CAR 
 Kpoints                                 
     42    240     48
 
  0.0000000E+00  0.0000000E+00  0.5000000E-01  0.1212121E-02
      1        -12.731123   1.000000
      2        -11.579254   1.000000
      3         -8.663958   1.000000
      4         -8.420445   1.000000
      5         -6.108422   1.000000
      6         -5.113584   1.000000
      7         -4.584668   1.000000
      8         -4.325868   1.000000
      9         -3.965511   1.000000
     10         -3.582842   1.000000
     11         -2.403611   1.000000
     12         -2.226286   1.000000
     13         -2.192075   1.000000
     14         -1.070202   1.000000
     15         -0.015045   1.000000
     16          0.004692   1.000000
     17          0.094697   1.000000
     18          0.172024   1.000000
     19          0.507865   1.000000
     20          2.074317   0.000002
     21          2.111414   0.000000
     22          2.275787   0.000000
     23          5.413053   0.000000
     24          5.761657   0.000000
     25          5.850803   0.000000
     26          5.907773   0.000000
     27          6.814371   0.000000
     28          7.655324   0.000000
     29          7.707404   0.000000
     30          8.659513   0.000000
     31          8.728377   0.000000
     32          8.922051   0.000000
     33          9.052494   0.000000
     34         10.053051   0.000000
     35         11.142927   0.000000
     36         11.390361   0.000000
     37         11.670716   0.000000
     38         11.809159   0.000000
     39         11.879350   0.000000
     40         12.372436   0.000000
     41         12.841762   0.000000
     42         13.357866   0.000000
     43         13.666855   0.000000
     44         15.502371   0.000000
     45         15.585004   0.000000
     46         15.835479   0.000000
     47         16.367518   0.000000
     48         16.430405   0.000000
 
  0.9090909E-01  0.0000000E+00  0.5000000E-01  0.2424242E-02
      1        -12.712957   1.000000
      2        -11.610320   1.000000
      3         -8.658746   1.000000
      4         -8.413287   1.000000
      5         -6.076922   1.000000
      6         -5.273481   1.000000
      7         -4.701172   1.000000
      8         -4.085579   1.000000
      9         -3.940062   1.000000
     10         -3.414888   1.000000
     11         -2.395755   1.000000
     12         -2.248761   1.000000
     13         -2.231398   1.000000
     14         -1.204533   1.000000
     15         -0.038978   1.000000
     16          0.073711   1.000000
     17          0.085541   1.000000
     18          0.147817   1.000000
     19          0.468965   1.000000
     20          1.991226   0.012743
     21          2.127331   0.000000
     22          2.220915   0.000000
     23          5.444703   0.000000
     24          5.754814   0.000000
     25          5.822011   0.000000
     26          6.112426   0.000000
     27          6.773097   0.000000
     28          7.348351   0.000000
     29          7.936006   0.000000
     30          8.720177   0.000000
     31          8.851110   0.000000
     32          9.012816   0.000000
     33          9.110736   0.000000
     34         10.103227   0.000000
     35         11.170460   0.000000
     36         11.216843   0.000000
     37         11.404740   0.000000
     38         11.724424   0.000000
     39         11.971649   0.000000
     40         12.409003   0.000000
     41         13.026267   0.000000
     42         13.450706   0.000000
     43         13.688449   0.000000
     44         15.087779   0.000000
     45         15.664904   0.000000
     46         16.060629   0.000000
     47         16.177914   0.000000
     48         16.419763   0.000000
 
  0.1818182E+00  0.0000000E+00  0.5000000E-01  0.2424242E-02
      1        -12.659096   1.000000
      2        -11.698301   1.000000
      3         -8.639330   1.000000
      4         -8.397519   1.000000
      5         -6.031631   1.000000
      6         -5.540413   1.000000
      7         -4.810460   1.000000
      8         -3.864377   1.000000
      9         -3.652513   1.000000
     10         -3.043421   1.000000
     11         -2.404050   1.000000
     12         -2.371284   1.000000
     13         -2.246472   1.000000
     14         -1.562780   1.000000
     15         -0.066681   1.000000
     16         -0.019906   1.000000
     17          0.175580   1.000000
     18          0.187671   1.000000
     19          0.362545   1.000000
     20          1.853448   0.951844
     21          2.057944   0.000019
     22          2.081275   0.000001
     23          5.511484   0.000000
     24          5.754421   0.000000
     25          5.968674   0.000000
     26          6.479051   0.000000
     27          6.665536   0.000000
     28          7.035528   0.000000
     29          8.105126   0.000000
     30          8.870262   0.000000
     31          8.996010   0.000000
     32          9.186569   0.000000
     33          9.432600   0.000000
     34         10.276747   0.000000
     35         10.753420   0.000000
     36         10.886213   0.000000
     37         11.252194   0.000000
     38         11.688782   0.000000
     39         12.190277   0.000000
     40         12.538886   0.000000
     41         13.061373   0.000000
     42         13.213724   0.000000
     43         14.242604   0.000000
     44         14.714925   0.000000
     45         15.614564   0.000000
     46         15.852086   0.000000
     47         16.240228   0.000000
     48         16.442853   0.000000
 
  0.2727273E+00  0.0000000E+00  0.5000000E-01  0.2424242E-02
      1        -12.571500   1.000000
      2        -11.829493   1.000000
      3         -8.600463   1.000000
      4         -8.386118   1.000000
      5         -6.064281   1.000000
      6         -5.772977   1.000000
      7         -4.707168   1.000000
      8         -3.740471   1.000000
      9         -3.195915   1.000000
     10         -2.624287   1.000000
     11         -2.617205   1.000000
     12         -2.332362   1.000000
     13         -2.271176   1.000000
     14         -2.033535   1.000000
     15         -0.311874   1.000000
     16          0.044107   1.000000
     17          0.045419   1.000000
     18          0.271680   1.000000
     19          0.404673   1.000000
     20          1.714596   1.000000
     21          1.800949   0.999178
     22          1.972448   0.044301
     23          5.567277   0.000000
     24          5.785756   0.000000
     25          6.309026   0.000000
     26          6.535302   0.000000
     27          6.796494   0.000000
     28          6.947419   0.000000
     29          8.238782   0.000000
     30          8.916542   0.000000
     31          8.965203   0.000000
     32          9.532970   0.000000
     33          9.906129   0.000000
     34         10.112532   0.000000
     35         10.462908   0.000000
     36         10.640799   0.000000
     37         11.339927   0.000000
     38         11.858261   0.000000
     39         12.333039   0.000000
     40         12.525707   0.000000
     41         12.830023   0.000000
     42         12.993862   0.000000
     43         14.743955   0.000000
     44         14.883660   0.000000
     45         15.163061   0.000000
     46         15.878931   0.000000
     47         15.972406   0.000000
     48         16.086488   0.000000
 
  0.3636364E+00  0.0000000E+00  0.5000000E-01  0.2424242E-02
      1        -12.453691   1.000000
      2        -11.986336   1.000000
      3         -8.543922   1.000000
      4         -8.392767   1.000000
      5         -6.138777   1.000000
      6         -5.963153   1.000000
      7         -4.370714   1.000000
      8         -3.572049   1.000000
      9         -2.926683   1.000000
     10         -2.874786   1.000000
     11         -2.528025   1.000000
     12         -2.333370   1.000000
     13         -2.239769   1.000000
     14         -2.095750   1.000000
     15         -0.586314   1.000000
     16         -0.264994   1.000000
     17          0.138315   1.000000
     18          0.326710   1.000000
     19          0.595911   1.000000
     20          1.485015   1.000000
     21          1.622893   1.000000
     22          1.831669   0.988667
     23          5.620827   0.000000
     24          5.806400   0.000000
     25          6.445848   0.000000
     26          6.627727   0.000000
     27          6.810795   0.000000
     28          7.485960   0.000000
     29          8.352883   0.000000
     30          8.705615   0.000000
     31          8.759343   0.000000
     32          9.421955   0.000000
     33          9.917010   0.000000
     34         10.384176   0.000000
     35         10.452909   0.000000
     36         11.212719   0.000000
     37         11.336482   0.000000
     38         11.939913   0.000000
     39         12.173341   0.000000
     40         12.230137   0.000000
     41         12.628934   0.000000
     42         13.287872   0.000000
     43         14.551905   0.000000
     44         15.023939   0.000000
     45         15.187737   0.000000
     46         15.388010   0.000000
     47         15.504131   0.000000
     48         16.307694   0.000000
 
  0.4545455E+00  0.0000000E+00  0.5000000E-01  0.2424242E-02
      1        -12.311109   1.000000
      2        -12.151658   1.000000
      3         -8.480262   1.000000
      4         -8.425319   1.000000
      5         -6.161702   1.000000
      6         -6.100470   1.000000
      7         -3.891266   1.000000
      8         -3.364980   1.000000
      9         -3.347679   1.000000
     10         -3.128147   1.000000
     11         -2.451868   1.000000
     12         -2.370399   1.000000
     13         -2.005005   1.000000
     14         -1.895132   1.000000
     15         -0.744738   1.000000
     16         -0.590456   1.000000
     17          0.239476   1.000000
     18          0.313790   1.000000
     19          0.851640   1.000000
     20          1.155814   1.000000
     21          1.617438   1.000000
     22          1.698820   1.000000
     23          5.692455   0.000000
     24          5.767947   0.000000
     25          6.442040   0.000000
     26          6.510355   0.000000
     27          7.422673   0.000000
     28          7.971807   0.000000
     29          8.227956   0.000000
     30          8.464738   0.000000
     31          8.598117   0.000000
     32          8.752239   0.000000
     33         10.315072   0.000000
     34         10.589921   0.000000
     35         10.826345   0.000000
     36         11.335120   0.000000
     37         11.355761   0.000000
     38         11.725205   0.000000
     39         11.955522   0.000000
     40         12.420567   0.000000
     41         12.745865   0.000000
     42         13.208535   0.000000
     43         14.485981   0.000000
     44         14.610905   0.000000
     45         14.959386   0.000000
     46         15.009518   0.000000
     47         16.035432   0.000000
     48         16.347340   0.000000
 
  0.0000000E+00  0.6666667E-01  0.5000000E-01  0.2424242E-02
      1        -12.720473   1.000000
      2        -11.569678   1.000000
      3         -8.655620   1.000000
      4         -8.410173   1.000000
      5         -6.096693   1.000000
      6         -5.097628   1.000000
      7         -4.574329   1.000000
      8         -4.380281   1.000000
      9         -4.156236   1.000000
     10         -3.571441   1.000000
     11         -2.892528   1.000000
     12         -2.119185   1.000000
     13         -1.478791   1.000000
     14         -1.068168   1.000000
     15         -0.136204   1.000000
     16         -0.127299   1.000000
     17          0.100600   1.000000
     18          0.224910   1.000000
     19          0.556102   1.000000
     20          1.935823   0.252413
     21          1.994590   0.009927
     22          2.314783   0.000000
     23          5.526871   0.000000
     24          5.718506   0.000000
     25          5.805324   0.000000
     26          5.895689   0.000000
     27          6.950106   0.000000
     28          7.800417   0.000000
     29          7.829007   0.000000
     30          8.358592   0.000000
     31          8.753761   0.000000
     32          9.034104   0.000000
     33          9.078578   0.000000
     34         10.307402   0.000000
     35         11.232567   0.000000
     36         11.364623   0.000000
     37         11.637469   0.000000
     38         11.851393   0.000000
     39         11.929353   0.000000
     40         12.499673   0.000000
     41         12.842999   0.000000
     42         13.224061   0.000000
     43         13.524293   0.000000
     44         15.482656   0.000000
     45         15.493194   0.000000
     46         15.851160   0.000000
     47         16.248969   0.000000
     48         16.280754   0.000000
 
  0.9090909E-01  0.6666667E-01  0.5000000E-01  0.4848485E-02
      1        -12.702328   1.000000
      2        -11.600726   1.000000
      3         -8.650343   1.000000
      4         -8.403129   1.000000
      5         -6.064869   1.000000
      6         -5.259228   1.000000
      7         -4.692209   1.000000
      8         -4.251564   1.000000
      9         -4.017717   1.000000
     10         -3.404179   1.000000
     11         -2.919692   1.000000
     12         -2.110523   1.000000
     13         -1.517624   1.000000
     14         -1.202160   1.000000
     15         -0.163469   1.000000
     16         -0.064807   1.000000
     17          0.115763   1.000000
     18          0.190269   1.000000
     19          0.517174   1.000000
     20          1.862915   0.918528
     21          2.001121   0.005972
     22          2.258148   0.000000
     23          5.557405   0.000000
     24          5.708867   0.000000
     25          5.851657   0.000000
     26          6.029249   0.000000
     27          6.909093   0.000000
     28          7.490840   0.000000
     29          8.058758   0.000000
     30          8.423725   0.000000
     31          8.878905   0.000000
     32          9.120554   0.000000
     33          9.153170   0.000000
     34         10.324317   0.000000
     35         11.168950   0.000000
     36         11.277117   0.000000
     37         11.369855   0.000000
     38         11.776794   0.000000
     39         12.022463   0.000000
     40         12.533545   0.000000
     41         13.030913   0.000000
     42         13.307690   0.000000
     43         13.556375   0.000000
     44         15.125037   0.000000
     45         15.543712   0.000000
     46         15.974894   0.000000
     47         16.095278   0.000000
     48         16.377153   0.000000
 
  0.1818182E+00  0.6666667E-01  0.5000000E-01  0.4848485E-02
      1        -12.648515   1.000000
      2        -11.688627   1.000000
      3         -8.630771   1.000000
      4         -8.387624   1.000000
      5         -6.018573   1.000000
      6         -5.526900   1.000000
      7         -4.802176   1.000000
      8         -4.150588   1.000000
      9         -3.612623   1.000000
     10         -3.063360   1.000000
     11         -2.971115   1.000000
     12         -2.084442   1.000000
     13         -1.619014   1.000000
     14         -1.556371   1.000000
     15         -0.151831   1.000000
     16         -0.080601   1.000000
     17          0.122575   1.000000
     18          0.207548   1.000000
     19          0.407650   1.000000
     20          1.729720   1.000000
     21          1.950952   0.136796
     22          2.092483   0.000000
     23          5.618709   0.000000
     24          5.815519   0.000000
     25          5.911817   0.000000
     26          6.375759   0.000000
     27          6.803125   0.000000
     28          7.195995   0.000000
     29          8.219800   0.000000
     30          8.584421   0.000000
     31          9.031022   0.000000
     32          9.303851   0.000000
     33          9.496569   0.000000
     34         10.380633   0.000000
     35         10.710652   0.000000
     36         10.873432   0.000000
     37         11.337641   0.000000
     38         11.778275   0.000000
     39         12.246704   0.000000
     40         12.652314   0.000000
     41         12.928234   0.000000
     42         13.228406   0.000000
     43         14.062056   0.000000
     44         14.816193   0.000000
     45         15.551754   0.000000
     46         15.759674   0.000000
     47         16.072616   0.000000
     48         16.509215   0.000000
 
  0.2727273E+00  0.6666667E-01  0.5000000E-01  0.4848485E-02
      1        -12.561016   1.000000
      2        -11.819707   1.000000
      3         -8.591770   1.000000
      4         -8.376560   1.000000
      5         -6.050310   1.000000
      6         -5.759278   1.000000
      7         -4.700078   1.000000
      8         -4.033595   1.000000
      9         -3.152987   1.000000
     10         -3.145274   1.000000
     11         -2.589473   1.000000
     12         -2.076276   1.000000
     13         -2.003943   1.000000
     14         -1.736339   1.000000
     15         -0.305834   1.000000
     16         -0.114581   1.000000
     17          0.119876   1.000000
     18          0.213442   1.000000
     19          0.414778   1.000000
     20          1.592393   1.000000
     21          1.804338   0.998864
     22          1.869455   0.886912
     23          5.666857   0.000000
     24          5.886840   0.000000
     25          6.227414   0.000000
     26          6.665965   0.000000
     27          6.770967   0.000000
     28          7.045767   0.000000
     29          8.348164   0.000000
     30          8.719675   0.000000
     31          9.000161   0.000000
     32          9.614793   0.000000
     33          9.963350   0.000000
     34         10.052335   0.000000
     35         10.347623   0.000000
     36         10.764563   0.000000
     37         11.400344   0.000000
     38         11.983861   0.000000
     39         12.361492   0.000000
     40         12.446089   0.000000
     41         12.919193   0.000000
     42         13.031415   0.000000
     43         14.540191   0.000000
     44         15.024785   0.000000
     45         15.204885   0.000000
     46         15.648177   0.000000
     47         15.902970   0.000000
     48         16.236221   0.000000
 
  0.3636364E+00  0.6666667E-01  0.5000000E-01  0.4848485E-02
      1        -12.443317   1.000000
      2        -11.976401   1.000000
      3         -8.535133   1.000000
      4         -8.383525   1.000000
      5         -6.124515   1.000000
      6         -5.949123   1.000000
      7         -4.364355   1.000000
      8         -3.883645   1.000000
      9         -3.318778   1.000000
     10         -2.893623   1.000000
     11         -2.442360   1.000000
     12         -2.149720   1.000000
     13         -1.952217   1.000000
     14         -1.861236   1.000000
     15         -0.571600   1.000000
     16         -0.285446   1.000000
     17          0.087777   1.000000
     18          0.257905   1.000000
     19          0.600687   1.000000
     20          1.470144   1.000000
     21          1.529715   1.000000
     22          1.716421   1.000000
     23          5.718677   0.000000
     24          5.914413   0.000000
     25          6.586899   0.000000
     26          6.726638   0.000000
     27          6.751268   0.000000
     28          7.433584   0.000000
     29          8.455023   0.000000
     30          8.572258   0.000000
     31          8.827458   0.000000
     32          9.344530   0.000000
     33          9.951479   0.000000
     34         10.289543   0.000000
     35         10.515192   0.000000
     36         11.244973   0.000000
     37         11.354588   0.000000
     38         11.821560   0.000000
     39         12.256502   0.000000
     40         12.366218   0.000000
     41         12.706974   0.000000
     42         13.380648   0.000000
     43         14.598162   0.000000
     44         15.006982   0.000000
     45         15.060165   0.000000
     46         15.322209   0.000000
     47         15.641484   0.000000
     48         16.320006   0.000000
 
  0.4545455E+00  0.6666667E-01  0.5000000E-01  0.4848485E-02
      1        -12.300864   1.000000
      2        -12.141565   1.000000
      3         -8.471388   1.000000
      4         -8.416316   1.000000
      5         -6.147389   1.000000
      6         -6.086237   1.000000
      7         -3.885790   1.000000
      8         -3.706438   1.000000
      9         -3.511468   1.000000
     10         -3.339442   1.000000
     11         -2.205032   1.000000
     12         -2.007851   1.000000
     13         -1.890812   1.000000
     14         -1.837162   1.000000
     15         -0.730678   1.000000
     16         -0.587281   1.000000
     17          0.171437   1.000000
     18          0.243264   1.000000
     19          0.855921   1.000000
     20          1.160091   1.000000
     21          1.504014   1.000000
     22          1.583984   1.000000
     23          5.793318   0.000000
     24          5.873275   0.000000
     25          6.586131   0.000000
     26          6.650566   0.000000
     27          7.337182   0.000000
     28          7.890271   0.000000
     29          8.148911   0.000000
     30          8.556022   0.000000
     31          8.650143   0.000000
     32          8.703545   0.000000
     33         10.327093   0.000000
     34         10.575536   0.000000
     35         10.760606   0.000000
     36         11.153300   0.000000
     37         11.441921   0.000000
     38         11.787921   0.000000
     39         11.994702   0.000000
     40         12.508972   0.000000
     41         12.883840   0.000000
     42         13.323866   0.000000
     43         14.506448   0.000000
     44         14.609301   0.000000
     45         14.945046   0.000000
     46         15.047561   0.000000
     47         16.049827   0.000000
     48         16.331935   0.000000
 
  0.0000000E+00  0.1333333E+00  0.5000000E-01  0.2424242E-02
      1        -12.689897   1.000000
      2        -11.542225   1.000000
      3         -8.631830   1.000000
      4         -8.380731   1.000000
      5         -6.063032   1.000000
      6         -5.051510   1.000000
      7         -4.771917   1.000000
      8         -4.544134   1.000000
      9         -4.235093   1.000000
     10         -3.555312   1.000000
     11         -3.497625   1.000000
     12         -1.550033   1.000000
     13         -1.062464   1.000000
     14         -0.732211   1.000000
     15         -0.397676   1.000000
     16         -0.377398   1.000000
     17          0.114995   1.000000
     18          0.283574   1.000000
     19          0.635845   1.000000
     20          1.631150   1.000000
     21          1.691587   1.000000
     22          2.359564   0.000000
     23          5.543823   0.000000
     24          5.551136   0.000000
     25          5.833124   0.000000
     26          6.046446   0.000000
     27          7.297880   0.000000
     28          7.903172   0.000000
     29          8.090566   0.000000
     30          8.311027   0.000000
     31          8.760062   0.000000
     32          9.161595   0.000000
     33          9.198052   0.000000
     34         10.787221   0.000000
     35         11.283967   0.000000
     36         11.500171   0.000000
     37         11.546269   0.000000
     38         11.977253   0.000000
     39         12.086626   0.000000
     40         12.782398   0.000000
     41         12.851123   0.000000
     42         12.997162   0.000000
     43         13.201951   0.000000
     44         15.128921   0.000000
     45         15.430865   0.000000
     46         15.613275   0.000000
     47         15.734578   0.000000
     48         16.105345   0.000000
 
  0.9090909E-01  0.1333333E+00  0.5000000E-01  0.4848485E-02
      1        -12.671803   1.000000
      2        -11.573197   1.000000
      3         -8.626340   1.000000
      4         -8.373992   1.000000
      5         -6.030245   1.000000
      6         -5.219976   1.000000
      7         -4.737699   1.000000
      8         -4.652353   1.000000
      9         -4.006952   1.000000
     10         -3.549748   1.000000
     11         -3.362245   1.000000
     12         -1.541235   1.000000
     13         -1.196818   1.000000
     14         -0.808250   1.000000
     15         -0.421914   1.000000
     16         -0.272938   1.000000
     17          0.132496   1.000000
     18          0.239106   1.000000
     19          0.594548   1.000000
     20          1.561551   1.000000
     21          1.697883   1.000000
     22          2.298766   0.000000
     23          5.496381   0.000000
     24          5.766605   0.000000
     25          5.867578   0.000000
     26          6.048552   0.000000
     27          7.257283   0.000000
     28          7.863398   0.000000
     29          7.973937   0.000000
     30          8.435623   0.000000
     31          8.920866   0.000000
     32          9.195887   0.000000
     33          9.326206   0.000000
     34         10.706193   0.000000
     35         11.092222   0.000000
     36         11.326355   0.000000
     37         11.503665   0.000000
     38         11.936881   0.000000
     39         12.179680   0.000000
     40         12.847368   0.000000
     41         12.991530   0.000000
     42         13.041397   0.000000
     43         13.303522   0.000000
     44         15.112969   0.000000
     45         15.178502   0.000000
     46         15.639607   0.000000
     47         15.678398   0.000000
     48         16.164382   0.000000
 
  0.1818182E+00  0.1333333E+00  0.5000000E-01  0.4848485E-02
      1        -12.618155   1.000000
      2        -11.660880   1.000000
      3         -8.606321   1.000000
      4         -8.359259   1.000000
      5         -5.981038   1.000000
      6         -5.488879   1.000000
      7         -4.779807   1.000000
      8         -4.651882   1.000000
      9         -3.627076   1.000000
     10         -3.574108   1.000000
     11         -2.991170   1.000000
     12         -1.553078   1.000000
     13         -1.514835   1.000000
     14         -0.963242   1.000000
     15         -0.388102   1.000000
     16         -0.169983   1.000000
     17          0.079505   1.000000
     18          0.233612   1.000000
     19          0.474130   1.000000
     20          1.432943   1.000000
     21          1.652842   1.000000
     22          2.121115   0.000000
     23          5.640818   0.000000
     24          5.897701   0.000000
     25          6.073320   0.000000
     26          6.151617   0.000000
     27          7.153932   0.000000
     28          7.604233   0.000000
     29          8.150831   0.000000
     30          8.555892   0.000000
     31          9.108056   0.000000
     32          9.408711   0.000000
     33          9.661433   0.000000
     34         10.433480   0.000000
     35         10.603670   0.000000
     36         10.985891   0.000000
     37         11.535370   0.000000
     38         12.039040   0.000000
     39         12.403169   0.000000
     40         12.607266   0.000000
     41         12.997033   0.000000
     42         13.269228   0.000000
     43         13.758392   0.000000
     44         14.876814   0.000000
     45         15.117845   0.000000
     46         15.552908   0.000000
     47         15.706029   0.000000
     48         16.325824   0.000000
 
  0.2727273E+00  0.1333333E+00  0.5000000E-01  0.4848485E-02
      1        -12.530899   1.000000
      2        -11.791623   1.000000
      3         -8.566923   1.000000
      4         -8.349166   1.000000
      5         -6.010096   1.000000
      6         -5.720102   1.000000
      7         -4.680024   1.000000
      8         -4.549904   1.000000
      9         -3.751590   1.000000
     10         -3.104265   1.000000
     11         -2.558500   1.000000
     12         -2.027657   1.000000
     13         -1.471958   1.000000
     14         -1.127664   1.000000
     15         -0.341867   1.000000
     16         -0.263093   1.000000
     17          0.045368   1.000000
     18          0.203035   1.000000
     19          0.433623   1.000000
     20          1.300579   1.000000
     21          1.550402   1.000000
     22          1.847564   0.966332
     23          5.878162   0.000000
     24          6.020248   0.000000
     25          6.172171   0.000000
     26          6.562166   0.000000
     27          7.038620   0.000000
     28          7.439158   0.000000
     29          8.344997   0.000000
     30          8.665814   0.000000
     31          9.105583   0.000000
     32          9.730440   0.000000
     33          9.831776   0.000000
     34         10.178656   0.000000
     35         10.182199   0.000000
     36         10.947381   0.000000
     37         11.509974   0.000000
     38         12.097670   0.000000
     39         12.339411   0.000000
     40         12.633291   0.000000
     41         13.043007   0.000000
     42         13.258973   0.000000
     43         14.245496   0.000000
     44         14.928823   0.000000
     45         15.124469   0.000000
     46         15.427591   0.000000
     47         15.660257   0.000000
     48         16.297745   0.000000
 
  0.3636364E+00  0.1333333E+00  0.5000000E-01  0.4848485E-02
      1        -12.413524   1.000000
      2        -11.947897   1.000000
      3         -8.510009   1.000000
      4         -8.357058   1.000000
      5         -6.083433   1.000000
      6         -5.908764   1.000000
      7         -4.416096   1.000000
      8         -4.345308   1.000000