   14   14    1    1
  0.1021960E+02  0.5697000E-09  0.4047900E-09  0.6204200E-09  0.5000000E-15
  1.000000000000000E-004
  CAR 
 Kpoints                                 
     42    240     48
 
  0.0000000E+00  0.0000000E+00  0.5000000E-01  0.1212121E-02
      1        -12.731159   1.000000
      2        -11.579301   1.000000
      3         -8.664029   1.000000
      4         -8.420531   1.000000
      5         -6.108523   1.000000
      6         -5.113674   1.000000
      7         -4.584770   1.000000
      8         -4.325960   1.000000
      9         -3.965609   1.000000
     10         -3.582958   1.000000
     11         -2.403729   1.000000
     12         -2.226411   1.000000
     13         -2.192212   1.000000
     14         -1.070382   1.000000
     15         -0.015151   1.000000
     16          0.004581   1.000000
     17          0.094555   1.000000
     18          0.171900   1.000000
     19          0.507721   1.000000
     20          2.074197   0.000002
     21          2.111308   0.000000
     22          2.275634   0.000000
     23          5.412866   0.000000
     24          5.761465   0.000000
     25          5.850688   0.000000
     26          5.907614   0.000000
     27          6.814200   0.000000
     28          7.655140   0.000000
     29          7.707208   0.000000
     30          8.659253   0.000000
     31          8.728122   0.000000
     32          8.921810   0.000000
     33          9.052212   0.000000
     34         10.052883   0.000000
     35         11.142755   0.000000
     36         11.390140   0.000000
     37         11.670458   0.000000
     38         11.808856   0.000000
     39         11.879159   0.000000
     40         12.372285   0.000000
     41         12.841542   0.000000
     42         13.357666   0.000000
     43         13.666594   0.000000
     44         15.502118   0.000000
     45         15.584808   0.000000
     46         15.835218   0.000000
     47         16.367256   0.000000
     48         16.430091   0.000000
 
  0.9090909E-01  0.0000000E+00  0.5000000E-01  0.2424242E-02
      1        -12.712999   1.000000
      2        -11.610368   1.000000
      3         -8.658816   1.000000
      4         -8.413374   1.000000
      5         -6.077030   1.000000
      6         -5.273566   1.000000
      7         -4.701268   1.000000
      8         -4.085656   1.000000
      9         -3.940158   1.000000
     10         -3.415000   1.000000
     11         -2.395878   1.000000
     12         -2.248890   1.000000
     13         -2.231521   1.000000
     14         -1.204654   1.000000
     15         -0.039082   1.000000
     16          0.073606   1.000000
     17          0.085415   1.000000
     18          0.147680   1.000000
     19          0.468833   1.000000
     20          1.991111   0.012739
     21          2.127218   0.000000
     22          2.220766   0.000000
     23          5.444549   0.000000
     24          5.754653   0.000000
     25          5.821881   0.000000
     26          6.112277   0.000000
     27          6.772932   0.000000
     28          7.348179   0.000000
     29          7.935800   0.000000
     30          8.719915   0.000000
     31          8.850860   0.000000
     32          9.012573   0.000000
     33          9.110478   0.000000
     34         10.103054   0.000000
     35         11.170283   0.000000
     36         11.216634   0.000000
     37         11.404471   0.000000
     38         11.724151   0.000000
     39         11.971445   0.000000
     40         12.408856   0.000000
     41         13.026041   0.000000
     42         13.450490   0.000000
     43         13.688223   0.000000
     44         15.087515   0.000000
     45         15.664716   0.000000
     46         16.060403   0.000000
     47         16.177643   0.000000
     48         16.419515   0.000000
 
  0.1818182E+00  0.0000000E+00  0.5000000E-01  0.2424242E-02
      1        -12.659140   1.000000
      2        -11.698346   1.000000
      3         -8.639399   1.000000
      4         -8.397609   1.000000
      5         -6.031726   1.000000
      6         -5.540491   1.000000
      7         -4.810564   1.000000
      8         -3.864461   1.000000
      9         -3.652585   1.000000
     10         -3.043525   1.000000
     11         -2.404166   1.000000
     12         -2.371404   1.000000
     13         -2.246595   1.000000
     14         -1.562893   1.000000
     15         -0.066819   1.000000
     16         -0.020008   1.000000
     17          0.175471   1.000000
     18          0.187551   1.000000
     19          0.362411   1.000000
     20          1.853334   0.951826
     21          2.057806   0.000019
     22          2.081154   0.000001
     23          5.511330   0.000000
     24          5.754263   0.000000
     25          5.968540   0.000000
     26          6.478879   0.000000
     27          6.665364   0.000000
     28          7.035354   0.000000
     29          8.104893   0.000000
     30          8.870028   0.000000
     31          8.995733   0.000000
     32          9.186356   0.000000
     33          9.432363   0.000000
     34         10.276547   0.000000
     35         10.753226   0.000000
     36         10.885955   0.000000
     37         11.252010   0.000000
     38         11.688543   0.000000
     39         12.190075   0.000000
     40         12.538737   0.000000
     41         13.061129   0.000000
     42         13.213494   0.000000
     43         14.242364   0.000000
     44         14.714679   0.000000
     45         15.614334   0.000000
     46         15.851913   0.000000
     47         16.239943   0.000000
     48         16.442588   0.000000
 
  0.2727273E+00  0.0000000E+00  0.5000000E-01  0.2424242E-02
      1        -12.571557   1.000000
      2        -11.829546   1.000000
      3         -8.600546   1.000000
      4         -8.386208   1.000000
      5         -6.064372   1.000000
      6         -5.773066   1.000000
      7         -4.707279   1.000000
      8         -3.740559   1.000000
      9         -3.195998   1.000000
     10         -2.624410   1.000000
     11         -2.617305   1.000000
     12         -2.332500   1.000000
     13         -2.271294   1.000000
     14         -2.033652   1.000000
     15         -0.312007   1.000000
     16          0.043997   1.000000
     17          0.045283   1.000000
     18          0.271576   1.000000
     19          0.404556   1.000000
     20          1.714480   1.000000
     21          1.800824   0.999178
     22          1.972331   0.044292
     23          5.567121   0.000000
     24          5.785580   0.000000
     25          6.308874   0.000000
     26          6.535121   0.000000
     27          6.796328   0.000000
     28          6.947225   0.000000
     29          8.238534   0.000000
     30          8.916252   0.000000
     31          8.964990   0.000000
     32          9.532731   0.000000
     33          9.905907   0.000000
     34         10.112338   0.000000
     35         10.462652   0.000000
     36         10.640565   0.000000
     37         11.339722   0.000000
     38         11.858041   0.000000
     39         12.332819   0.000000
     40         12.525463   0.000000
     41         12.829830   0.000000
     42         12.993629   0.000000
     43         14.743734   0.000000
     44         14.883405   0.000000
     45         15.162832   0.000000
     46         15.878637   0.000000
     47         15.972123   0.000000
     48         16.086314   0.000000
 
  0.3636364E+00  0.0000000E+00  0.5000000E-01  0.2424242E-02
      1        -12.453744   1.000000
      2        -11.986390   1.000000
      3         -8.544012   1.000000
      4         -8.392854   1.000000
      5         -6.138860   1.000000
      6         -5.963231   1.000000
      7         -4.370819   1.000000
      8         -3.572141   1.000000
      9         -2.926793   1.000000
     10         -2.874890   1.000000
     11         -2.528124   1.000000
     12         -2.333476   1.000000
     13         -2.239886   1.000000
     14         -2.095860   1.000000
     15         -0.586439   1.000000
     16         -0.265136   1.000000
     17          0.138208   1.000000
     18          0.326611   1.000000
     19          0.595793   1.000000
     20          1.484898   1.000000
     21          1.622775   1.000000
     22          1.831543   0.988672
     23          5.620639   0.000000
     24          5.806235   0.000000
     25          6.445668   0.000000
     26          6.627558   0.000000
     27          6.810649   0.000000
     28          7.485759   0.000000
     29          8.352627   0.000000
     30          8.705447   0.000000
     31          8.759051   0.000000
     32          9.421710   0.000000
     33          9.916764   0.000000
     34         10.383929   0.000000
     35         10.452662   0.000000
     36         11.212491   0.000000
     37         11.336250   0.000000
     38         11.939684   0.000000
     39         12.173105   0.000000
     40         12.229921   0.000000
     41         12.628704   0.000000
     42         13.287695   0.000000
     43         14.551694   0.000000
     44         15.023685   0.000000
     45         15.187469   0.000000
     46         15.387778   0.000000
     47         15.503873   0.000000
     48         16.307506   0.000000
 
  0.4545455E+00  0.0000000E+00  0.5000000E-01  0.2424242E-02
      1        -12.311154   1.000000
      2        -12.151713   1.000000
      3         -8.480348   1.000000
      4         -8.425410   1.000000
      5         -6.161777   1.000000
      6         -6.100552   1.000000
      7         -3.891380   1.000000
      8         -3.365069   1.000000
      9         -3.347802   1.000000
     10         -3.128242   1.000000
     11         -2.451958   1.000000
     12         -2.370503   1.000000
     13         -2.005115   1.000000
     14         -1.895234   1.000000
     15         -0.744855   1.000000
     16         -0.590592   1.000000
     17          0.239382   1.000000
     18          0.313701   1.000000
     19          0.851516   1.000000
     20          1.155699   1.000000
     21          1.617321   1.000000
     22          1.698698   1.000000
     23          5.692295   0.000000
     24          5.767784   0.000000
     25          6.441858   0.000000
     26          6.510179   0.000000
     27          7.422535   0.000000
     28          7.971624   0.000000
     29          8.227773   0.000000
     30          8.464508   0.000000
     31          8.597863   0.000000
     32          8.751994   0.000000
     33         10.314822   0.000000
     34         10.589694   0.000000
     35         10.826130   0.000000
     36         11.334875   0.000000
     37         11.355557   0.000000
     38         11.724957   0.000000
     39         11.955245   0.000000
     40         12.420317   0.000000
     41         12.745673   0.000000
     42         13.208359   0.000000
     43         14.485752   0.000000
     44         14.610636   0.000000
     45         14.959167   0.000000
     46         15.009313   0.000000
     47         16.035183   0.000000
     48         16.347123   0.000000
 
  0.0000000E+00  0.6666667E-01  0.5000000E-01  0.2424242E-02
      1        -12.720516   1.000000
      2        -11.569725   1.000000
      3         -8.655695   1.000000
      4         -8.410259   1.000000
      5         -6.096797   1.000000
      6         -5.097728   1.000000
      7         -4.574431   1.000000
      8         -4.380365   1.000000
      9         -4.156340   1.000000
     10         -3.571563   1.000000
     11         -2.892642   1.000000
     12         -2.119312   1.000000
     13         -1.478927   1.000000
     14         -1.068332   1.000000
     15         -0.136309   1.000000
     16         -0.127409   1.000000
     17          0.100455   1.000000
     18          0.224777   1.000000
     19          0.555952   1.000000
     20          1.935696   0.252474
     21          1.994482   0.009918
     22          2.314633   0.000000
     23          5.526683   0.000000
     24          5.718364   0.000000
     25          5.805164   0.000000
     26          5.895523   0.000000
     27          6.949916   0.000000
     28          7.800213   0.000000
     29          7.828826   0.000000
     30          8.358354   0.000000
     31          8.753491   0.000000
     32          9.033878   0.000000
     33          9.078294   0.000000
     34         10.307210   0.000000
     35         11.232384   0.000000
     36         11.364410   0.000000
     37         11.637229   0.000000
     38         11.851068   0.000000
     39         11.929144   0.000000
     40         12.499519   0.000000
     41         12.842771   0.000000
     42         13.223857   0.000000
     43         13.524052   0.000000
     44         15.482457   0.000000
     45         15.492935   0.000000
     46         15.850878   0.000000
     47         16.248663   0.000000
     48         16.280496   0.000000
 
  0.9090909E-01  0.6666667E-01  0.5000000E-01  0.4848485E-02
      1        -12.702370   1.000000
      2        -11.600765   1.000000
      3         -8.650411   1.000000
      4         -8.403215   1.000000
      5         -6.064970   1.000000
      6         -5.259320   1.000000
      7         -4.692308   1.000000
      8         -4.251650   1.000000
      9         -4.017808   1.000000
     10         -3.404293   1.000000
     11         -2.919807   1.000000
     12         -2.110643   1.000000
     13         -1.517749   1.000000
     14         -1.202295   1.000000
     15         -0.163573   1.000000
     16         -0.064914   1.000000
     17          0.115640   1.000000
     18          0.190135   1.000000
     19          0.517037   1.000000
     20          1.862798   0.918515
     21          2.001005   0.005970
     22          2.258002   0.000000
     23          5.557234   0.000000
     24          5.708725   0.000000
     25          5.851494   0.000000
     26          6.029103   0.000000
     27          6.908910   0.000000
     28          7.490660   0.000000
     29          8.058546   0.000000
     30          8.423492   0.000000
     31          8.878649   0.000000
     32          9.120286   0.000000
     33          9.152942   0.000000
     34         10.324125   0.000000
     35         11.168735   0.000000
     36         11.276933   0.000000
     37         11.369615   0.000000
     38         11.776511   0.000000
     39         12.022252   0.000000
     40         12.533397   0.000000
     41         13.030685   0.000000
     42         13.307462   0.000000
     43         13.556155   0.000000
     44         15.124769   0.000000
     45         15.543514   0.000000
     46         15.974651   0.000000
     47         16.095012   0.000000
     48         16.376897   0.000000
 
  0.1818182E+00  0.6666667E-01  0.5000000E-01  0.4848485E-02
      1        -12.648562   1.000000
      2        -11.688668   1.000000
      3         -8.630839   1.000000
      4         -8.387709   1.000000
      5         -6.018669   1.000000
      6         -5.526985   1.000000
      7         -4.802283   1.000000
      8         -4.150672   1.000000
      9         -3.612700   1.000000
     10         -3.063466   1.000000
     11         -2.971225   1.000000
     12         -2.084562   1.000000
     13         -1.619133   1.000000
     14         -1.556481   1.000000
     15         -0.151942   1.000000
     16         -0.080722   1.000000
     17          0.122459   1.000000
     18          0.207426   1.000000
     19          0.407518   1.000000
     20          1.729605   1.000000
     21          1.950832   0.136794
     22          2.092352   0.000000
     23          5.618545   0.000000
     24          5.815361   0.000000
     25          5.911666   0.000000
     26          6.375596   0.000000
     27          6.802952   0.000000
     28          7.195821   0.000000
     29          8.219569   0.000000
     30          8.584193   0.000000
     31          9.030754   0.000000
     32          9.303602   0.000000
     33          9.496357   0.000000
     34         10.380421   0.000000
     35         10.710458   0.000000
     36         10.873194   0.000000
     37         11.337452   0.000000
     38         11.778025   0.000000
     39         12.246491   0.000000
     40         12.652160   0.000000
     41         12.927995   0.000000
     42         13.228173   0.000000
     43         14.061827   0.000000
     44         14.815944   0.000000
     45         15.551517   0.000000
     46         15.759496   0.000000
     47         16.072370   0.000000
     48         16.503448   0.000000
 
  0.2727273E+00  0.6666667E-01  0.5000000E-01  0.4848485E-02
      1        -12.561064   1.000000
      2        -11.819755   1.000000
      3         -8.591844   1.000000
      4         -8.376647   1.000000
      5         -6.050401   1.000000
      6         -5.759356   1.000000
      7         -4.700181   1.000000
      8         -4.033671   1.000000
      9         -3.153077   1.000000
     10         -3.145373   1.000000
     11         -2.589575   1.000000
     12         -2.076395   1.000000
     13         -2.004060   1.000000
     14         -1.736450   1.000000
     15         -0.305973   1.000000
     16         -0.114696   1.000000
     17          0.119747   1.000000
     18          0.213330   1.000000
     19          0.414659   1.000000
     20          1.592281   1.000000
     21          1.804216   0.998864
     22          1.869341   0.886876
     23          5.666685   0.000000
     24          5.886667   0.000000
     25          6.227269   0.000000
     26          6.665797   0.000000
     27          6.770792   0.000000
     28          7.045593   0.000000
     29          8.347915   0.000000
     30          8.719459   0.000000
     31          8.999881   0.000000
     32          9.614551   0.000000
     33          9.963132   0.000000
     34         10.052118   0.000000
     35         10.347392   0.000000
     36         10.764314   0.000000
     37         11.400151   0.000000
     38         11.983650   0.000000
     39         12.361253   0.000000
     40         12.445884   0.000000
     41         12.918983   0.000000
     42         13.031201   0.000000
     43         14.539972   0.000000
     44         15.024551   0.000000
     45         15.204646   0.000000
     46         15.647933   0.000000
     47         15.902725   0.000000
     48         16.235989   0.000000
 
  0.3636364E+00  0.6666667E-01  0.5000000E-01  0.4848485E-02
      1        -12.443361   1.000000
      2        -11.976452   1.000000
      3         -8.535217   1.000000
      4         -8.383606   1.000000
      5         -6.124594   1.000000
      6         -5.949199   1.000000
      7         -4.364455   1.000000
      8         -3.883723   1.000000
      9         -3.318873   1.000000
     10         -2.893737   1.000000
     11         -2.442446   1.000000
     12         -2.149811   1.000000
     13         -1.952346   1.000000
     14         -1.861336   1.000000
     15         -0.571732   1.000000
     16         -0.285580   1.000000
     17          0.087666   1.000000
     18          0.257797   1.000000
     19          0.600567   1.000000
     20          1.470022   1.000000
     21          1.529605   1.000000
     22          1.716301   1.000000
     23          5.718482   0.000000
     24          5.914237   0.000000
     25          6.586727   0.000000
     26          6.726488   0.000000
     27          6.751096   0.000000
     28          7.433396   0.000000
     29          8.454769   0.000000
     30          8.572081   0.000000
     31          8.827176   0.000000
     32          9.344313   0.000000
     33          9.951229   0.000000
     34         10.289308   0.000000
     35         10.514968   0.000000
     36         11.244727   0.000000
     37         11.354356   0.000000
     38         11.821330   0.000000
     39         12.256266   0.000000
     40         12.366008   0.000000
     41         12.706745   0.000000
     42         13.380472   0.000000
     43         14.597938   0.000000
     44         15.006754   0.000000
     45         15.059900   0.000000
     46         15.321982   0.000000
     47         15.641239   0.000000
     48         16.319799   0.000000
 
  0.4545455E+00  0.6666667E-01  0.5000000E-01  0.4848485E-02
      1        -12.300909   1.000000
      2        -12.141612   1.000000
      3         -8.471473   1.000000
      4         -8.416402   1.000000
      5         -6.147468   1.000000
      6         -6.086316   1.000000
      7         -3.885901   1.000000
      8         -3.706520   1.000000
      9         -3.511553   1.000000
     10         -3.339565   1.000000
     11         -2.205106   1.000000
     12         -2.007935   1.000000
     13         -1.890931   1.000000
     14         -1.837283   1.000000
     15         -0.730805   1.000000
     16         -0.587407   1.000000
     17          0.171339   1.000000
     18          0.243170   1.000000
     19          0.855802   1.000000
     20          1.159975   1.000000
     21          1.503901   1.000000
     22          1.583867   1.000000
     23          5.793157   0.000000
     24          5.873115   0.000000
     25          6.585955   0.000000
     26          6.650397   0.000000
     27          7.337033   0.000000
     28          7.890098   0.000000
     29          8.148729   0.000000
     30          8.555788   0.000000
     31          8.649908   0.000000
     32          8.703307   0.000000
     33         10.326850   0.000000
     34         10.575311   0.000000
     35         10.760372   0.000000
     36         11.153088   0.000000
     37         11.441682   0.000000
     38         11.787690   0.000000
     39         11.994414   0.000000
     40         12.508724   0.000000
     41         12.883640   0.000000
     42         13.323679   0.000000
     43         14.506209   0.000000
     44         14.609051   0.000000
     45         14.944841   0.000000
     46         15.047358   0.000000
     47         16.049593   0.000000
     48         16.331707   0.000000
 
  0.0000000E+00  0.1333333E+00  0.5000000E-01  0.2424242E-02
      1        -12.689937   1.000000
      2        -11.542269   1.000000
      3         -8.631886   1.000000
      4         -8.380803   1.000000
      5         -6.063120   1.000000
      6         -5.051609   1.000000
      7         -4.771988   1.000000
      8         -4.544217   1.000000
      9         -4.235180   1.000000
     10         -3.555427   1.000000
     11         -3.497740   1.000000
     12         -1.550142   1.000000
     13         -1.062593   1.000000
     14         -0.732350   1.000000
     15         -0.397774   1.000000
     16         -0.377503   1.000000
     17          0.114868   1.000000
     18          0.283439   1.000000
     19          0.635702   1.000000
     20          1.631047   1.000000
     21          1.691485   1.000000
     22          2.359422   0.000000
     23          5.543683   0.000000
     24          5.551010   0.000000
     25          5.832958   0.000000
     26          6.046287   0.000000
     27          7.297695   0.000000
     28          7.902968   0.000000
     29          8.090383   0.000000
     30          8.310861   0.000000
     31          8.759818   0.000000
     32          9.161342   0.000000
     33          9.197842   0.000000
     34         10.787023   0.000000
     35         11.283800   0.000000
     36         11.499981   0.000000
     37         11.546087   0.000000
     38         11.976961   0.000000
     39         12.086432   0.000000
     40         12.782193   0.000000
     41         12.850977   0.000000
     42         12.996966   0.000000
     43         13.201718   0.000000
     44         15.128680   0.000000
     45         15.430642   0.000000
     46         15.613067   0.000000
     47         15.734302   0.000000
     48         16.105114   0.000000
 
  0.9090909E-01  0.1333333E+00  0.5000000E-01  0.4848485E-02
      1        -12.671849   1.000000
      2        -11.573242   1.000000
      3         -8.626409   1.000000
      4         -8.374079   1.000000
      5         -6.030350   1.000000
      6         -5.220067   1.000000
      7         -4.737777   1.000000
      8         -4.652445   1.000000
      9         -4.007042   1.000000
     10         -3.549862   1.000000
     11         -3.362366   1.000000
     12         -1.541345   1.000000
     13         -1.196955   1.000000
     14         -0.808380   1.000000
     15         -0.422023   1.000000
     16         -0.273056   1.000000
     17          0.132369   1.000000
     18          0.238957   1.000000
     19          0.594405   1.000000
     20          1.561440   1.000000
     21          1.697772   1.000000
     22          2.298620   0.000000
     23          5.496245   0.000000
     24          5.766460   0.000000
     25          5.867397   0.000000
     26          6.048372   0.000000
     27          7.257101   0.000000
     28          7.863196   0.000000
     29          7.973731   0.000000
     30          8.435418   0.000000
     31          8.920606   0.000000
     32          9.195617   0.000000
     33          9.325990   0.000000
     34         10.706002   0.000000
     35         11.092045   0.000000
     36         11.326152   0.000000
     37         11.503467   0.000000
     38         11.936595   0.000000
     39         12.179472   0.000000
     40         12.847210   0.000000
     41         12.991311   0.000000
     42         13.041173   0.000000
     43         13.303286   0.000000
     44         15.112725   0.000000
     45         15.178246   0.000000
     46         15.639402   0.000000
     47         15.678131   0.000000
     48         16.164150   0.000000
 
  0.1818182E+00  0.1333333E+00  0.5000000E-01  0.4848485E-02
      1        -12.618201   1.000000
      2        -11.660922   1.000000
      3         -8.606393   1.000000
      4         -8.359347   1.000000
      5         -5.981141   1.000000
      6         -5.488968   1.000000
      7         -4.779915   1.000000
      8         -4.651955   1.000000
      9         -3.627182   1.000000
     10         -3.574200   1.000000
     11         -2.991280   1.000000
     12         -1.553194   1.000000
     13         -1.514948   1.000000
     14         -0.963359   1.000000
     15         -0.388211   1.000000
     16         -0.170117   1.000000
     17          0.079368   1.000000
     18          0.233487   1.000000
     19          0.473996   1.000000
     20          1.432830   1.000000
     21          1.652729   1.000000
     22          2.120978   0.000000
     23          5.640677   0.000000
     24          5.897525   0.000000
     25          6.073154   0.000000
     26          6.151476   0.000000
     27          7.153753   0.000000
     28          7.604044   0.000000
     29          8.150622   0.000000
     30          8.555658   0.000000
     31          9.107788   0.000000
     32          9.408453   0.000000
     33          9.661228   0.000000
     34         10.433287   0.000000
     35         10.603483   0.000000
     36         10.985672   0.000000
     37         11.535173   0.000000
     38         12.038793   0.000000
     39         12.402952   0.000000
     40         12.607067   0.000000
     41         12.996857   0.000000
     42         13.268975   0.000000
     43         13.758174   0.000000
     44         14.876567   0.000000
     45         15.117590   0.000000
     46         15.552678   0.000000
     47         15.705829   0.000000
     48         16.325591   0.000000
 
  0.2727273E+00  0.1333333E+00  0.5000000E-01  0.4848485E-02
      1        -12.530943   1.000000
      2        -11.791671   1.000000
      3         -8.567004   1.000000
      4         -8.349253   1.000000
      5         -6.010191   1.000000
      6         -5.720186   1.000000
      7         -4.680131   1.000000
      8         -4.549977   1.000000
      9         -3.751684   1.000000
     10         -3.104355   1.000000
     11         -2.558603   1.000000
     12         -2.027773   1.000000
     13         -1.472073   1.000000
     14         -1.127762   1.000000
     15         -0.341978   1.000000
     16         -0.263241   1.000000
     17          0.045247   1.000000
     18          0.202897   1.000000
     19          0.433500   1.000000
     20          1.300467   1.000000
     21          1.550283   1.000000
     22          1.847444   0.966332
     23          5.877974   0.000000
     24          6.020110   0.000000
     25          6.172007   0.000000
     26          6.562015   0.000000
     27          7.038437   0.000000
     28          7.438974   0.000000
     29          8.344806   0.000000
     30          8.665570   0.000000
     31          9.105298   0.000000
     32          9.730186   0.000000
     33          9.831590   0.000000
     34         10.178457   0.000000
     35         10.181988   0.000000
     36         10.947132   0.000000
     37         11.509777   0.000000
     38         12.097436   0.000000
     39         12.339192   0.000000
     40         12.633086   0.000000
     41         13.042748   0.000000
     42         13.258806   0.000000
     43         14.245290   0.000000
     44         14.928584   0.000000
     45         15.124236   0.000000
     46         15.427358   0.000000
     47         15.660037   0.000000
     48         16.297507   0.000000
 
  0.3636364E+00  0.1333333E+00  0.5000000E-01  0.4848485E-02
      1        -12.413567   1.000000
      2        -11.947950   1.000000
      3         -8.510094   1.000000
      4         -8.357147   1.000000
      5         -6.083520   1.000000
      6         -5.908849   1.000000
      7         -4.416165   1.000000
      8         -4.345422   1.000000