       N       E                     dE             d eps       ncg     rms          rms(c)
DAV:   1     0.534294073920E+02    0.53429E+02   -0.17621E+04 23040   0.723E+02
