<?xml version="1.0" encoding="ISO-8859-1"?>
<modeling>
 <generator>
  <i name="program" type="string">vasp </i>
  <i name="version" type="string">6.4.3  </i>
  <i name="subversion" type="string">19Mar24 (build May 31 2024 16:31:43) complex                          parallel </i>
  <i name="platform" type="string">LinuxIFC </i>
  <i name="date" type="string">2024 10 29 </i>
  <i name="time" type="string">14:13:59 </i>
 </generator>
 <incar>
  <i type="string" name="SYSTEM">Kpoints</i>
  <i type="int" name="ISTART">     0</i>
  <i type="string" name="PREC">Accurate</i>
  <i type="string" name="ALGO">Normal</i>
  <i type="int" name="ISPIN">     1</i>
  <i type="int" name="ICHARG">     2</i>
  <i type="int" name="NELM">   100</i>
  <i type="int" name="IBRION">    -1</i>
  <i name="EDIFF">      0.00000100</i>
  <i name="EDIFFG">     -0.00100000</i>
  <i type="int" name="NSW">     0</i>
  <i type="int" name="ISIF">     2</i>
  <i name="ENCUT">    450.00000000</i>
  <i name="POTIM">      0.50000000</i>
  <i type="int" name="ISMEAR">     0</i>
  <i name="SIGMA">      0.05000000</i>
  <i type="logical" name="LWAVE"> F  </i>
  <i type="logical" name="LCHARG"> F  </i>
  <i type="string" name="GGA">PE</i>
 </incar>
 <primitive_cell>
  <structure name="primitive_cell" >
   <crystal>
    <varray name="basis" >
     <v>       5.69700000       0.00000000       0.00000000 </v>
     <v>       0.00000000       4.04790000       0.00000000 </v>
     <v>       0.00000000       0.00000000       6.20420000 </v>
    </varray>
    <i name="volume">    143.07435078 </i>
    <varray name="rec_basis" >
     <v>       0.17553098       0.00000000       0.00000000 </v>
     <v>       0.00000000       0.24704168       0.00000000 </v>
     <v>       0.00000000       0.00000000       0.16118114 </v>
    </varray>
   </crystal>
   <varray name="positions" >
    <v>       0.52123000       0.50000000       0.63796000 </v>
    <v>       0.47877000       0.50000000       0.36204000 </v>
    <v>       0.97877000       0.50000000       0.63796000 </v>
    <v>       0.02123000       0.50000000       0.36204000 </v>
    <v>       0.60090000       0.50000000       0.89991000 </v>
    <v>       0.39910000       0.50000000       0.10009000 </v>
    <v>       0.89910000       0.50000000       0.89991000 </v>
    <v>       0.10090000       0.50000000       0.10009000 </v>
    <v>       0.75000000       0.79171000       0.72973000 </v>
    <v>       0.25000000       0.20829000       0.27027000 </v>
    <v>       0.75000000       0.20829000       0.72973000 </v>
    <v>       0.25000000       0.79171000       0.27027000 </v>
    <v>       0.25000000       0.50000000       0.52367000 </v>
    <v>       0.75000000       0.50000000       0.47633000 </v>
   </varray>
  </structure>
  <varray name="primitive_index" >
   <v type="int" >        1 </v>
   <v type="int" >        2 </v>
   <v type="int" >        3 </v>
   <v type="int" >        4 </v>
   <v type="int" >        5 </v>
   <v type="int" >        6 </v>
   <v type="int" >        7 </v>
   <v type="int" >        8 </v>
   <v type="int" >        9 </v>
   <v type="int" >       10 </v>
   <v type="int" >       11 </v>
   <v type="int" >       12 </v>
   <v type="int" >       13 </v>
   <v type="int" >       14 </v>
  </varray>
 </primitive_cell>
 <kpoints>
  <generation param="Monkhorst-Pack">
   <v type="int" name="divisions">      11       15       10 </v>
   <v name="usershift">      0.00000000       0.00000000       0.00000000 </v>
   <v name="genvec1">      0.09090909       0.00000000       0.00000000 </v>
   <v name="genvec2">      0.00000000       0.06666667       0.00000000 </v>
   <v name="genvec3">      0.00000000       0.00000000       0.10000000 </v>
   <v name="shift">      0.00000000       0.00000000       0.50000000 </v>
  </generation>
  <varray name="kpointlist" >
   <v>       0.00000000       0.00000000       0.05000000 </v>
   <v>       0.09090909       0.00000000       0.05000000 </v>
   <v>       0.18181818       0.00000000       0.05000000 </v>
   <v>       0.27272727       0.00000000       0.05000000 </v>
   <v>       0.36363636       0.00000000       0.05000000 </v>
   <v>       0.45454545       0.00000000       0.05000000 </v>
   <v>       0.00000000       0.06666667       0.05000000 </v>
   <v>       0.09090909       0.06666667       0.05000000 </v>
   <v>       0.18181818       0.06666667       0.05000000 </v>
   <v>       0.27272727       0.06666667       0.05000000 </v>
   <v>       0.36363636       0.06666667       0.05000000 </v>
   <v>       0.45454545       0.06666667       0.05000000 </v>
   <v>       0.00000000       0.13333333       0.05000000 </v>
   <v>       0.09090909       0.13333333       0.05000000 </v>
   <v>       0.18181818       0.13333333       0.05000000 </v>
   <v>       0.27272727       0.13333333       0.05000000 </v>
   <v>       0.36363636       0.13333333       0.05000000 </v>
   <v>       0.45454545       0.13333333       0.05000000 </v>
   <v>       0.00000000       0.20000000       0.05000000 </v>
   <v>       0.09090909       0.20000000       0.05000000 </v>
   <v>       0.18181818       0.20000000       0.05000000 </v>
   <v>       0.27272727       0.20000000       0.05000000 </v>
   <v>       0.36363636       0.20000000       0.05000000 </v>
   <v>       0.45454545       0.20000000       0.05000000 </v>
   <v>       0.00000000       0.26666667       0.05000000 </v>
   <v>       0.09090909       0.26666667       0.05000000 </v>
   <v>       0.18181818       0.26666667       0.05000000 </v>
   <v>       0.27272727       0.26666667       0.05000000 </v>
   <v>       0.36363636       0.26666667       0.05000000 </v>
   <v>       0.45454545       0.26666667       0.05000000 </v>
   <v>       0.00000000       0.33333333       0.05000000 </v>
   <v>       0.09090909       0.33333333       0.05000000 </v>
   <v>       0.18181818       0.33333333       0.05000000 </v>
   <v>       0.27272727       0.33333333       0.05000000 </v>
   <v>       0.36363636       0.33333333       0.05000000 </v>
   <v>       0.45454545       0.33333333       0.05000000 </v>
   <v>       0.00000000       0.40000000       0.05000000 </v>
   <v>       0.09090909       0.40000000       0.05000000 </v>
   <v>       0.18181818       0.40000000       0.05000000 </v>
   <v>       0.27272727       0.40000000       0.05000000 </v>
   <v>       0.36363636       0.40000000       0.05000000 </v>
   <v>       0.45454545       0.40000000       0.05000000 </v>
   <v>       0.00000000       0.46666667       0.05000000 </v>
   <v>       0.09090909       0.46666667       0.05000000 </v>
   <v>       0.18181818       0.46666667       0.05000000 </v>
   <v>       0.27272727       0.46666667       0.05000000 </v>
   <v>       0.36363636       0.46666667       0.05000000 </v>
   <v>       0.45454545       0.46666667       0.05000000 </v>
   <v>       0.00000000       0.00000000       0.15000000 </v>
   <v>       0.09090909       0.00000000       0.15000000 </v>
   <v>       0.18181818       0.00000000       0.15000000 </v>
   <v>       0.27272727       0.00000000       0.15000000 </v>
   <v>       0.36363636       0.00000000       0.15000000 </v>
   <v>       0.45454545       0.00000000       0.15000000 </v>
   <v>       0.00000000       0.06666667       0.15000000 </v>
   <v>       0.09090909       0.06666667       0.15000000 </v>
   <v>       0.18181818       0.06666667       0.15000000 </v>
   <v>       0.27272727       0.06666667       0.15000000 </v>
   <v>       0.36363636       0.06666667       0.15000000 </v>
   <v>       0.45454545       0.06666667       0.15000000 </v>
   <v>       0.00000000       0.13333333       0.15000000 </v>
   <v>       0.09090909       0.13333333       0.15000000 </v>
   <v>       0.18181818       0.13333333       0.15000000 </v>
   <v>       0.27272727       0.13333333       0.15000000 </v>
   <v>       0.36363636       0.13333333       0.15000000 </v>
   <v>       0.45454545       0.13333333       0.15000000 </v>
   <v>       0.00000000       0.20000000       0.15000000 </v>
   <v>       0.09090909       0.20000000       0.15000000 </v>
   <v>       0.18181818       0.20000000       0.15000000 </v>
   <v>       0.27272727       0.20000000       0.15000000 </v>
   <v>       0.36363636       0.20000000       0.15000000 </v>
   <v>       0.45454545       0.20000000       0.15000000 </v>
   <v>       0.00000000       0.26666667       0.15000000 </v>
   <v>       0.09090909       0.26666667       0.15000000 </v>
   <v>       0.18181818       0.26666667       0.15000000 </v>
   <v>       0.27272727       0.26666667       0.15000000 </v>
   <v>       0.36363636       0.26666667       0.15000000 </v>
   <v>       0.45454545       0.26666667       0.15000000 </v>
   <v>       0.00000000       0.33333333       0.15000000 </v>
   <v>       0.09090909       0.33333333       0.15000000 </v>
   <v>       0.18181818       0.33333333       0.15000000 </v>
   <v>       0.27272727       0.33333333       0.15000000 </v>
   <v>       0.36363636       0.33333333       0.15000000 </v>
   <v>       0.45454545       0.33333333       0.15000000 </v>
   <v>       0.00000000       0.40000000       0.15000000 </v>
   <v>       0.09090909       0.40000000       0.15000000 </v>
   <v>       0.18181818       0.40000000       0.15000000 </v>
   <v>       0.27272727       0.40000000       0.15000000 </v>
   <v>       0.36363636       0.40000000       0.15000000 </v>
   <v>       0.45454545       0.40000000       0.15000000 </v>
   <v>       0.00000000       0.46666667       0.15000000 </v>
   <v>       0.09090909       0.46666667       0.15000000 </v>
   <v>       0.18181818       0.46666667       0.15000000 </v>
   <v>       0.27272727       0.46666667       0.15000000 </v>
   <v>       0.36363636       0.46666667       0.15000000 </v>
   <v>       0.45454545       0.46666667       0.15000000 </v>
   <v>       0.00000000       0.00000000       0.25000000 </v>
   <v>       0.09090909       0.00000000       0.25000000 </v>
   <v>       0.18181818       0.00000000       0.25000000 </v>
   <v>       0.27272727       0.00000000       0.25000000 </v>
   <v>       0.36363636       0.00000000       0.25000000 </v>
   <v>       0.45454545       0.00000000       0.25000000 </v>
   <v>       0.00000000       0.06666667       0.25000000 </v>
   <v>       0.09090909       0.06666667       0.25000000 </v>
   <v>       0.18181818       0.06666667       0.25000000 </v>
   <v>       0.27272727       0.06666667       0.25000000 </v>
   <v>       0.36363636       0.06666667       0.25000000 </v>
   <v>       0.45454545       0.06666667       0.25000000 </v>
   <v>       0.00000000       0.13333333       0.25000000 </v>
   <v>       0.09090909       0.13333333       0.25000000 </v>
   <v>       0.18181818       0.13333333       0.25000000 </v>
   <v>       0.27272727       0.13333333       0.25000000 </v>
   <v>       0.36363636       0.13333333       0.25000000 </v>
   <v>       0.45454545       0.13333333       0.25000000 </v>
   <v>       0.00000000       0.20000000       0.25000000 </v>
   <v>       0.09090909       0.20000000       0.25000000 </v>
   <v>       0.18181818       0.20000000       0.25000000 </v>
   <v>       0.27272727       0.20000000       0.25000000 </v>
   <v>       0.36363636       0.20000000       0.25000000 </v>
   <v>       0.45454545       0.20000000       0.25000000 </v>
   <v>       0.00000000       0.26666667       0.25000000 </v>
   <v>       0.09090909       0.26666667       0.25000000 </v>
   <v>       0.18181818       0.26666667       0.25000000 </v>
   <v>       0.27272727       0.26666667       0.25000000 </v>
   <v>       0.36363636       0.26666667       0.25000000 </v>
   <v>       0.45454545       0.26666667       0.25000000 </v>
   <v>       0.00000000       0.33333333       0.25000000 </v>
   <v>       0.09090909       0.33333333       0.25000000 </v>
   <v>       0.18181818       0.33333333       0.25000000 </v>
   <v>       0.27272727       0.33333333       0.25000000 </v>
   <v>       0.36363636       0.33333333       0.25000000 </v>
   <v>       0.45454545       0.33333333       0.25000000 </v>
   <v>       0.00000000       0.40000000       0.25000000 </v>
   <v>       0.09090909       0.40000000       0.25000000 </v>
   <v>       0.18181818       0.40000000       0.25000000 </v>
   <v>       0.27272727       0.40000000       0.25000000 </v>
   <v>       0.36363636       0.40000000       0.25000000 </v>
   <v>       0.45454545       0.40000000       0.25000000 </v>
   <v>       0.00000000       0.46666667       0.25000000 </v>
   <v>       0.09090909       0.46666667       0.25000000 </v>
   <v>       0.18181818       0.46666667       0.25000000 </v>
   <v>       0.27272727       0.46666667       0.25000000 </v>
   <v>       0.36363636       0.46666667       0.25000000 </v>
   <v>       0.45454545       0.46666667       0.25000000 </v>
   <v>       0.00000000       0.00000000       0.35000000 </v>
   <v>       0.09090909       0.00000000       0.35000000 </v>
   <v>       0.18181818       0.00000000       0.35000000 </v>
   <v>       0.27272727       0.00000000       0.35000000 </v>
   <v>       0.36363636       0.00000000       0.35000000 </v>
   <v>       0.45454545       0.00000000       0.35000000 </v>
   <v>       0.00000000       0.06666667       0.35000000 </v>
   <v>       0.09090909       0.06666667       0.35000000 </v>
   <v>       0.18181818       0.06666667       0.35000000 </v>
   <v>       0.27272727       0.06666667       0.35000000 </v>
   <v>       0.36363636       0.06666667       0.35000000 </v>
   <v>       0.45454545       0.06666667       0.35000000 </v>
   <v>       0.00000000       0.13333333       0.35000000 </v>
   <v>       0.09090909       0.13333333       0.35000000 </v>
   <v>       0.18181818       0.13333333       0.35000000 </v>
   <v>       0.27272727       0.13333333       0.35000000 </v>
   <v>       0.36363636       0.13333333       0.35000000 </v>
   <v>       0.45454545       0.13333333       0.35000000 </v>
   <v>       0.00000000       0.20000000       0.35000000 </v>
   <v>       0.09090909       0.20000000       0.35000000 </v>
   <v>       0.18181818       0.20000000       0.35000000 </v>
   <v>       0.27272727       0.20000000       0.35000000 </v>
   <v>       0.36363636       0.20000000       0.35000000 </v>
   <v>       0.45454545       0.20000000       0.35000000 </v>
   <v>       0.00000000       0.26666667       0.35000000 </v>
   <v>       0.09090909       0.26666667       0.35000000 </v>
   <v>       0.18181818       0.26666667       0.35000000 </v>
   <v>       0.27272727       0.26666667       0.35000000 </v>
   <v>       0.36363636       0.26666667       0.35000000 </v>
   <v>       0.45454545       0.26666667       0.35000000 </v>
   <v>       0.00000000       0.33333333       0.35000000 </v>
   <v>       0.09090909       0.33333333       0.35000000 </v>
   <v>       0.18181818       0.33333333       0.35000000 </v>
   <v>       0.27272727       0.33333333       0.35000000 </v>
   <v>       0.36363636       0.33333333       0.35000000 </v>
   <v>       0.45454545       0.33333333       0.35000000 </v>
   <v>       0.00000000       0.40000000       0.35000000 </v>
   <v>       0.09090909       0.40000000       0.35000000 </v>
   <v>       0.18181818       0.40000000       0.35000000 </v>
   <v>       0.27272727       0.40000000       0.35000000 </v>
   <v>       0.36363636       0.40000000       0.35000000 </v>
   <v>       0.45454545       0.40000000       0.35000000 </v>
   <v>       0.00000000       0.46666667       0.35000000 </v>
   <v>       0.09090909       0.46666667       0.35000000 </v>
   <v>       0.18181818       0.46666667       0.35000000 </v>
   <v>       0.27272727       0.46666667       0.35000000 </v>
   <v>       0.36363636       0.46666667       0.35000000 </v>
   <v>       0.45454545       0.46666667       0.35000000 </v>
   <v>       0.00000000       0.00000000       0.45000000 </v>
   <v>       0.09090909       0.00000000       0.45000000 </v>
   <v>       0.18181818       0.00000000       0.45000000 </v>
   <v>       0.27272727       0.00000000       0.45000000 </v>
   <v>       0.36363636       0.00000000       0.45000000 </v>
   <v>       0.45454545       0.00000000       0.45000000 </v>
   <v>       0.00000000       0.06666667       0.45000000 </v>
   <v>       0.09090909       0.06666667       0.45000000 </v>
   <v>       0.18181818       0.06666667       0.45000000 </v>
   <v>       0.27272727       0.06666667       0.45000000 </v>
   <v>       0.36363636       0.06666667       0.45000000 </v>
   <v>       0.45454545       0.06666667       0.45000000 </v>
   <v>       0.00000000       0.13333333       0.45000000 </v>
   <v>       0.09090909       0.13333333       0.45000000 </v>
   <v>       0.18181818       0.13333333       0.45000000 </v>
   <v>       0.27272727       0.13333333       0.45000000 </v>
   <v>       0.36363636       0.13333333       0.45000000 </v>
   <v>       0.45454545       0.13333333       0.45000000 </v>
   <v>       0.00000000       0.20000000       0.45000000 </v>
   <v>       0.09090909       0.20000000       0.45000000 </v>
   <v>       0.18181818       0.20000000       0.45000000 </v>
   <v>       0.27272727       0.20000000       0.45000000 </v>
   <v>       0.36363636       0.20000000       0.45000000 </v>
   <v>       0.45454545       0.20000000       0.45000000 </v>
   <v>       0.00000000       0.26666667       0.45000000 </v>
   <v>       0.09090909       0.26666667       0.45000000 </v>
   <v>       0.18181818       0.26666667       0.45000000 </v>
   <v>       0.27272727       0.26666667       0.45000000 </v>
   <v>       0.36363636       0.26666667       0.45000000 </v>
   <v>       0.45454545       0.26666667       0.45000000 </v>
   <v>       0.00000000       0.33333333       0.45000000 </v>
   <v>       0.09090909       0.33333333       0.45000000 </v>
   <v>       0.18181818       0.33333333       0.45000000 </v>
   <v>       0.27272727       0.33333333       0.45000000 </v>
   <v>       0.36363636       0.33333333       0.45000000 </v>
   <v>       0.45454545       0.33333333       0.45000000 </v>
   <v>       0.00000000       0.40000000       0.45000000 </v>
   <v>       0.09090909       0.40000000       0.45000000 </v>
   <v>       0.18181818       0.40000000       0.45000000 </v>
   <v>       0.27272727       0.40000000       0.45000000 </v>
   <v>       0.36363636       0.40000000       0.45000000 </v>
   <v>       0.45454545       0.40000000       0.45000000 </v>
   <v>       0.00000000       0.46666667       0.45000000 </v>
   <v>       0.09090909       0.46666667       0.45000000 </v>
   <v>       0.18181818       0.46666667       0.45000000 </v>
   <v>       0.27272727       0.46666667       0.45000000 </v>
   <v>       0.36363636       0.46666667       0.45000000 </v>
   <v>       0.45454545       0.46666667       0.45000000 </v>
  </varray>
  <varray name="weights" >
   <v>       0.00121212 </v>
   <v>       0.00242424 </v>
   <v>       0.00242424 </v>
   <v>       0.00242424 </v>
   <v>       0.00242424 </v>
   <v>       0.00242424 </v>
   <v>       0.00242424 </v>
   <v>       0.00484848 </v>
   <v>       0.00484848 </v>
   <v>       0.00484848 </v>
   <v>       0.00484848 </v>
   <v>       0.00484848 </v>
   <v>       0.00242424 </v>
   <v>       0.00484848 </v>
   <v>       0.00484848 </v>
   <v>       0.00484848 </v>
   <v>       0.00484848 </v>
   <v>       0.00484848 </v>
   <v>       0.00242424 </v>
   <v>       0.00484848 </v>
   <v>       0.00484848 </v>
   <v>       0.00484848 </v>
   <v>       0.00484848 </v>
   <v>       0.00484848 </v>
   <v>       0.00242424 </v>
   <v>       0.00484848 </v>
   <v>       0.00484848 </v>
   <v>       0.00484848 </v>
   <v>       0.00484848 </v>
   <v>       0.00484848 </v>
   <v>       0.00242424 </v>
   <v>       0.00484848 </v>
   <v>       0.00484848 </v>
   <v>       0.00484848 </v>
   <v>       0.00484848 </v>
   <v>       0.00484848 </v>
   <v>       0.00242424 </v>
   <v>       0.00484848 </v>
   <v>       0.00484848 </v>
   <v>       0.00484848 </v>
   <v>       0.00484848 </v>
   <v>       0.00484848 </v>
   <v>       0.00242424 </v>
   <v>       0.00484848 </v>
   <v>       0.00484848 </v>
   <v>       0.00484848 </v>
   <v>       0.00484848 </v>
   <v>       0.00484848 </v>
   <v>       0.00121212 </v>
   <v>       0.00242424 </v>
   <v>       0.00242424 </v>
   <v>       0.00242424 </v>
   <v>       0.00242424 </v>
   <v>       0.00242424 </v>
   <v>       0.00242424 </v>
   <v>       0.00484848 </v>
   <v>       0.00484848 </v>
   <v>       0.00484848 </v>
   <v>       0.00484848 </v>
   <v>       0.00484848 </v>
   <v>       0.00242424 </v>
   <v>       0.00484848 </v>
   <v>       0.00484848 </v>
   <v>       0.00484848 </v>
   <v>       0.00484848 </v>
   <v>       0.00484848 </v>
   <v>       0.00242424 </v>
   <v>       0.00484848 </v>
   <v>       0.00484848 </v>
   <v>       0.00484848 </v>
   <v>       0.00484848 </v>
   <v>       0.00484848 </v>
   <v>       0.00242424 </v>
   <v>       0.00484848 </v>
   <v>       0.00484848 </v>
   <v>       0.00484848 </v>
   <v>       0.00484848 </v>
   <v>       0.00484848 </v>
   <v>       0.00242424 </v>
   <v>       0.00484848 </v>
   <v>       0.00484848 </v>
   <v>       0.00484848 </v>
   <v>       0.00484848 </v>
   <v>       0.00484848 </v>
   <v>       0.00242424 </v>
   <v>       0.00484848 </v>
   <v>       0.00484848 </v>
   <v>       0.00484848 </v>
   <v>       0.00484848 </v>
   <v>       0.00484848 </v>
   <v>       0.00242424 </v>
   <v>       0.00484848 </v>
   <v>       0.00484848 </v>
   <v>       0.00484848 </v>
   <v>       0.00484848 </v>
   <v>       0.00484848 </v>
   <v>       0.00121212 </v>
   <v>       0.00242424 </v>
   <v>       0.00242424 </v>
   <v>       0.00242424 </v>
   <v>       0.00242424 </v>
   <v>       0.00242424 </v>
   <v>       0.00242424 </v>
   <v>       0.00484848 </v>
   <v>       0.00484848 </v>
   <v>       0.00484848 </v>
   <v>       0.00484848 </v>
   <v>       0.00484848 </v>
   <v>       0.00242424 </v>
   <v>       0.00484848 </v>
   <v>       0.00484848 </v>
   <v>       0.00484848 </v>
   <v>       0.00484848 </v>
   <v>       0.00484848 </v>
   <v>       0.00242424 </v>
   <v>       0.00484848 </v>
   <v>       0.00484848 </v>
   <v>       0.00484848 </v>
   <v>       0.00484848 </v>
   <v>       0.00484848 </v>
   <v>       0.00242424 </v>
   <v>       0.00484848 </v>
   <v>       0.00484848 </v>
   <v>       0.00484848 </v>
   <v>       0.00484848 </v>
   <v>       0.00484848 </v>
   <v>       0.00242424 </v>
   <v>       0.00484848 </v>
   <v>       0.00484848 </v>
   <v>       0.00484848 </v>
   <v>       0.00484848 </v>
   <v>       0.00484848 </v>
   <v>       0.00242424 </v>
   <v>       0.00484848 </v>
   <v>       0.00484848 </v>
   <v>       0.00484848 </v>
   <v>       0.00484848 </v>
   <v>       0.00484848 </v>
   <v>       0.00242424 </v>
   <v>       0.00484848 </v>
   <v>       0.00484848 </v>
   <v>       0.00484848 </v>
   <v>       0.00484848 </v>
   <v>       0.00484848 </v>
   <v>       0.00121212 </v>
   <v>       0.00242424 </v>
   <v>       0.00242424 </v>
   <v>       0.00242424 </v>
   <v>       0.00242424 </v>
   <v>       0.00242424 </v>
   <v>       0.00242424 </v>
   <v>       0.00484848 </v>
   <v>       0.00484848 </v>
   <v>       0.00484848 </v>
   <v>       0.00484848 </v>
   <v>       0.00484848 </v>
   <v>       0.00242424 </v>
   <v>       0.00484848 </v>
   <v>       0.00484848 </v>
   <v>       0.00484848 </v>
   <v>       0.00484848 </v>
   <v>       0.00484848 </v>
   <v>       0.00242424 </v>
   <v>       0.00484848 </v>
   <v>       0.00484848 </v>
   <v>       0.00484848 </v>
   <v>       0.00484848 </v>
   <v>       0.00484848 </v>
   <v>       0.00242424 </v>
   <v>       0.00484848 </v>
   <v>       0.00484848 </v>
   <v>       0.00484848 </v>
   <v>       0.00484848 </v>
   <v>       0.00484848 </v>
   <v>       0.00242424 </v>
   <v>       0.00484848 </v>
   <v>       0.00484848 </v>
   <v>       0.00484848 </v>
   <v>       0.00484848 </v>
   <v>       0.00484848 </v>
   <v>       0.00242424 </v>
   <v>       0.00484848 </v>
   <v>       0.00484848 </v>
   <v>       0.00484848 </v>
   <v>       0.00484848 </v>
   <v>       0.00484848 </v>
   <v>       0.00242424 </v>
   <v>       0.00484848 </v>
   <v>       0.00484848 </v>
   <v>       0.00484848 </v>
   <v>       0.00484848 </v>
   <v>       0.00484848 </v>
   <v>       0.00121212 </v>
   <v>       0.00242424 </v>
   <v>       0.00242424 </v>
   <v>       0.00242424 </v>
   <v>       0.00242424 </v>
   <v>       0.00242424 </v>
   <v>       0.00242424 </v>
   <v>       0.00484848 </v>
   <v>       0.00484848 </v>
   <v>       0.00484848 </v>
   <v>       0.00484848 </v>
   <v>       0.00484848 </v>
   <v>       0.00242424 </v>
   <v>       0.00484848 </v>
   <v>       0.00484848 </v>
   <v>       0.00484848 </v>
   <v>       0.00484848 </v>
   <v>       0.00484848 </v>
   <v>       0.00242424 </v>
   <v>       0.00484848 </v>
   <v>       0.00484848 </v>
   <v>       0.00484848 </v>
   <v>       0.00484848 </v>
   <v>       0.00484848 </v>
   <v>       0.00242424 </v>
   <v>       0.00484848 </v>
   <v>       0.00484848 </v>
   <v>       0.00484848 </v>
   <v>       0.00484848 </v>
   <v>       0.00484848 </v>
   <v>       0.00242424 </v>
   <v>       0.00484848 </v>
   <v>       0.00484848 </v>
   <v>       0.00484848 </v>
   <v>       0.00484848 </v>
   <v>       0.00484848 </v>
   <v>       0.00242424 </v>
   <v>       0.00484848 </v>
   <v>       0.00484848 </v>
   <v>       0.00484848 </v>
   <v>       0.00484848 </v>
   <v>       0.00484848 </v>
   <v>       0.00242424 </v>
   <v>       0.00484848 </v>
   <v>       0.00484848 </v>
   <v>       0.00484848 </v>
   <v>       0.00484848 </v>
   <v>       0.00484848 </v>
  </varray>
 </kpoints>
 <parameters>
  <separator name="general" >
   <i type="string" name="SYSTEM">Kpoints</i>
   <i type="logical" name="LCOMPAT"> F  </i>
  </separator>
  <separator name="electronic" >
   <i type="string" name="PREC">accura</i>
   <i name="ENMAX">    450.00000000</i>
   <i name="ENAUG">    535.51400000</i>
   <i name="EDIFF">      0.00000100</i>
   <i type="int" name="IALGO">    38</i>
   <i type="int" name="IWAVPR">    10</i>
   <i type="int" name="NBANDS">    48</i>
   <i type="int" name="NBANDSLOW">    -1</i>
   <i type="int" name="NBANDSHIGH">    -1</i>
   <i name="NELECT">     42.00000000</i>
   <i type="int" name="TURBO">     0</i>
   <i type="int" name="IRESTART">     0</i>
   <i type="int" name="NREBOOT">     0</i>
   <i type="int" name="NMIN">     0</i>
   <i name="EREF">      0.00000000</i>
   <separator name="electronic smearing" >
    <i type="int" name="ISMEAR">     0</i>
    <i name="SIGMA">      0.05000000</i>
    <i name="KSPACING">      0.50000000</i>
    <i type="logical" name="KGAMMA"> T  </i>
    <i type="logical" name="KBLOWUP"> T  </i>
   </separator>
   <separator name="electronic projectors" >
    <i type="logical" name="LREAL"> F  </i>
    <v name="ROPT">      0.00000000</v>
    <i type="int" name="LMAXPAW">  -100</i>
    <i type="int" name="LMAXMIX">     2</i>
    <i type="logical" name="NLSPLINE"> F  </i>
   </separator>
   <separator name="electronic startup" >
    <i type="int" name="ISTART">     0</i>
    <i type="int" name="ICHARG">     2</i>
    <i type="int" name="INIWAV">     1</i>
   </separator>
   <separator name="electronic spin" >
    <i type="int" name="ISPIN">     1</i>
    <i type="logical" name="LNONCOLLINEAR"> F  </i>
    <v name="MAGMOM">      1.00000000      1.00000000      1.00000000      1.00000000      1.00000000      1.00000000      1.00000000      1.00000000      1.00000000      1.00000000      1.00000000      1.00000000      1.00000000      1.00000000</v>
    <i name="NUPDOWN">     -1.00000000</i>
    <i type="logical" name="LSORBIT"> F  </i>
    <v name="SAXIS">      0.00000000      0.00000000      1.00000000</v>
    <i type="logical" name="LSPIRAL"> F  </i>
    <v name="QSPIRAL">      0.00000000      0.00000000      0.00000000</v>
    <i type="logical" name="LZEROZ"> F  </i>
   </separator>
   <separator name="electronic exchange-correlation" >
    <i type="logical" name="LASPH"> F  </i>
   </separator>
   <separator name="electronic convergence" >
    <i type="int" name="NELM">   100</i>
    <i type="int" name="NELMDL">    -5</i>
    <i type="int" name="NELMIN">     2</i>
    <i name="ENINI">    450.00000000</i>
    <separator name="electronic convergence detail" >
     <i type="logical" name="LDIAG"> T  </i>
     <i type="logical" name="LSUBROT"> F  </i>
     <i name="WEIMIN">      0.00000000</i>
     <i name="EBREAK">      0.00000001</i>
     <i name="DEPER">      0.30000000</i>
     <i type="int" name="NRMM">     4</i>
     <i name="TIME">      0.40000000</i>
    </separator>
   </separator>
   <separator name="electronic mixer" >
    <i name="AMIX">      0.40000000</i>
    <i name="BMIX">      1.00000000</i>
    <i name="AMIN">      0.10000000</i>
    <i name="AMIX_MAG">      1.60000000</i>
    <i name="BMIX_MAG">      1.00000000</i>
    <separator name="electronic mixer details" >
     <i type="int" name="IMIX">     4</i>
     <i type="logical" name="MIXFIRST"> F  </i>
     <i type="int" name="MAXMIX">   -45</i>
     <i name="WC">    100.00000000</i>
     <i type="int" name="INIMIX">     1</i>
     <i type="int" name="MIXPRE">     1</i>
     <i type="int" name="MREMOVE">     5</i>
    </separator>
   </separator>
   <separator name="electronic dipolcorrection" >
    <i type="logical" name="LDIPOL"> F  </i>
    <i type="logical" name="LMONO"> F  </i>
    <i type="int" name="IDIPOL">     0</i>
    <i name="EPSILON">      1.00000000</i>
    <v name="DIPOL">   -100.00000000   -100.00000000   -100.00000000</v>
    <i name="EFIELD">      0.00000000</i>
    <i type="logical" name="LVACPOTAV"> F  </i>
   </separator>
  </separator>
  <separator name="grids" >
   <i type="int" name="NGX">    40</i>
   <i type="int" name="NGY">    28</i>
   <i type="int" name="NGZ">    48</i>
   <i type="int" name="NGXF">    80</i>
   <i type="int" name="NGYF">    56</i>
   <i type="int" name="NGZF">    96</i>
   <i type="logical" name="ADDGRID"> F  </i>
  </separator>
  <separator name="ionic" >
   <i type="int" name="NSW">     0</i>
   <i type="int" name="IBRION">    -1</i>
   <i type="int" name="MDALGO">     0</i>
   <i type="int" name="ISIF">     2</i>
   <i name="PSTRESS">      0.00000000</i>
   <i name="EDIFFG">     -0.00100000</i>
   <i type="int" name="NFREE">     0</i>
   <i name="POTIM">      0.50000000</i>
   <i name="SMASS">     -3.00000000</i>
   <i name="SCALEE">      1.00000000</i>
  </separator>
  <separator name="ionic md" >
   <i name="TEBEG">      0.00010000</i>
   <i name="TEEND">      0.00010000</i>
   <i type="int" name="NBLOCK">     1</i>
   <i type="int" name="KBLOCK">     1</i>
   <i type="int" name="NPACO">   256</i>
   <i name="APACO">     10.00000000</i>
  </separator>
  <separator name="symmetry" >
   <i type="int" name="ISYM">     2</i>
   <i name="SYMPREC">      0.00001000</i>
  </separator>
  <separator name="dos" >
   <i type="int" name="LORBIT">     0</i>
   <v name="RWIGS">     -1.00000000</v>
   <i type="int" name="NEDOS">   301</i>
   <i name="EMIN">     10.00000000</i>
   <i name="EMAX">    -10.00000000</i>
   <i name="EFERMI">      0.00000000</i>
  </separator>
  <separator name="writing" >
   <i type="int" name="NWRITE">     2</i>
   <i type="logical" name="LWAVE"> F  </i>
   <i type="logical" name="LDOWNSAMPLE"> F  </i>
   <i type="logical" name="LCHARG"> F  </i>
   <i type="logical" name="LPARD"> F  </i>
   <i type="logical" name="LVTOT"> F  </i>
   <i type="logical" name="LVHAR"> F  </i>
   <i type="logical" name="LELF"> F  </i>
   <i type="logical" name="LOPTICS"> F  </i>
   <v name="STM">      0.00000000      0.00000000      0.00000000      0.00000000      0.00000000      0.00000000      0.00000000</v>
  </separator>
  <separator name="performance" >
   <i type="int" name="NPAR">    24</i>
   <i type="int" name="NSIM">     4</i>
   <i type="int" name="NBLK">    -1</i>
   <i type="logical" name="LPLANE"> T  </i>
   <i type="logical" name="LSCALAPACK"> T  </i>
   <i type="logical" name="LSCAAWARE"> F  </i>
   <i type="logical" name="LSCALU"> F  </i>
   <i type="logical" name="LASYNC"> F  </i>
   <i type="logical" name="LORBITALREAL"> F  </i>
  </separator>
  <separator name="miscellaneous" >
   <i type="int" name="IDIOT">     3</i>
   <i type="int" name="PHON_NSTRUCT">    -1</i>
   <i type="logical" name="LMUSIC"> F  </i>
   <v name="POMASS">     10.81100000</v>
   <v name="DARWINR">      0.00000000</v>
   <v name="DARWINV">      1.00000000</v>
   <i type="logical" name="LCORR"> T  </i>
  </separator>
  <i type="logical" name="GGA_COMPAT"> T  </i>
  <i type="logical" name="LBERRY"> F  </i>
  <i type="int" name="ICORELEVEL">     0</i>
  <i type="logical" name="LDAU"> F  </i>
  <i type="int" name="I_CONSTRAINED_M">     0</i>
  <separator name="electronic exchange-correlation" >
   <i type="string" name="GGA    ">PE</i>
   <i type="string" name="XC_C">1</i>
   <i type="int" name="VOSKOWN">     0</i>
   <i type="logical" name="LHFCALC"> F  </i>
   <i type="string" name="PRECFOCK"></i>
   <i type="logical" name="LSYMGRAD"> F  </i>
   <i type="logical" name="LHFONE"> F  </i>
   <i type="logical" name="LRHFCALC"> F  </i>
   <i type="logical" name="LTHOMAS"> F  </i>
   <i type="logical" name="LMODELHF"> F  </i>
   <i type="logical" name="LFOCKACE"> F  </i>
   <i name="ENCUT4O">     -1.00000000</i>
   <i type="int" name="EXXOEP">     0</i>
   <i type="int" name="FOURORBIT">     0</i>
   <i name="AEXX">      0.00000000</i>
   <i name="HFALPHA">      0.00000000</i>
   <i name="MCALPHA">      0.00000000</i>
   <i name="ALDAX">      1.00000000</i>
   <i name="AGGAX">      1.00000000</i>
   <i name="AMGGAX">      1.00000000</i>
   <i name="ALDAC">      1.00000000</i>
   <i name="AGGAC">      1.00000000</i>
   <i name="AMGGAC">      1.00000000</i>
   <i type="int" name="NKREDX">     1</i>
   <i type="int" name="NKREDY">     1</i>
   <i type="int" name="NKREDZ">     1</i>
   <i type="logical" name="SHIFTRED"> F  </i>
   <i type="logical" name="ODDONLY"> F  </i>
   <i type="logical" name="EVENONLY"> F  </i>
   <i type="int" name="LMAXFOCK">     0</i>
   <i type="int" name="NMAXFOCKAE">     0</i>
   <i type="logical" name="LFOCKAEDFT"> F  </i>
   <i name="HFSCREEN">      0.00000000</i>
   <i name="HFSCREENC">      0.00000000</i>
   <i type="int" name="NBANDSGWLOW">     0</i>
  </separator>
  <separator name="vdW DFT" >
   <i type="logical" name="LUSE_VDW"> F  </i>
   <i type="int" name="IVDW_NL">    -1</i>
   <i type="logical" name="LSPIN_VDW"> F  </i>
   <i name="ZAB_VDW">     -0.84910000</i>
   <i name="GAMMA_VDW">      1.39626340</i>
   <i name="ALPHA_VDW">      0.00000000</i>
   <i name="PARAM1">      0.12340000</i>
   <i name="PARAM2">      1.00000000</i>
   <i name="BPARAM">      6.30000000</i>
   <i name="CPARAM">      0.00930000</i>
  </separator>
  <separator name="model GW" >
   <i type="int" name="MODEL_GW">     0</i>
   <i name="MODEL_EPS0">      6.13175789</i>
   <i name="MODEL_ALPHA">      1.00000000</i>
  </separator>
  <separator name="linear response parameters" >
   <i type="logical" name="LEPSILON"> F  </i>
   <i type="logical" name="LRPA"> F  </i>
   <i type="logical" name="LNABLA"> F  </i>
   <i type="logical" name="LVEL"> F  </i>
   <i name="CSHIFT">      0.10000000</i>
   <i name="OMEGAMAX">     -1.00000000</i>
   <i name="DEG_THRESHOLD">      0.00200000</i>
   <i name="RTIME">     -0.10000000</i>
   <i name="WPLASMAI">      0.00000000</i>
   <v name="DFIELD">      0.00000000      0.00000000      0.00000000</v>
   <v name="WPLASMA">      0.00000000      0.00000000      0.00000000      0.00000000      0.00000000      0.00000000      0.00000000      0.00000000      0.00000000</v>
  </separator>
  <separator name="orbital magnetization" >
   <i type="logical" name="NUCIND"> F  </i>
   <v name="MAGPOS">      0.00000000      0.00000000      0.00000000</v>
   <i type="logical" name="LNICSALL"> T  </i>
   <i type="logical" name="ORBITALMAG"> F  </i>
   <i type="logical" name="LMAGBLOCH"> F  </i>
   <i type="logical" name="LCHIMAG"> F  </i>
   <i type="logical" name="LGAUGE"> T  </i>
   <i type="int" name="MAGATOM">     0</i>
   <v name="MAGDIPOL">      0.00000000      0.00000000      0.00000000</v>
   <v name="AVECCONST">      0.00000000      0.00000000      0.00000000</v>
  </separator>
  <separator name="response functions" >
   <i type="logical" name="LALL_IN_ONE"> F  </i>
   <i type="int" name="IALL_IN_ONE">    -1</i>
   <i type="int" name="NBANDS_WAVE">    -1</i>
   <i type="logical" name="LFINITE_TEMPERATURE"> F  </i>
   <i type="logical" name="LADDER"> F  </i>
   <i type="logical" name="LRPAFORCE"> F  </i>
   <i type="logical" name="LFXC"> F  </i>
   <i type="logical" name="LHARTREE"> T  </i>
   <i type="int" name="IBSE">     0</i>
   <v type="int" name="KPOINT">    -1     0     0     0</v>
   <i type="logical" name="LTCTC"> F  </i>
   <i type="logical" name="LTCTE"> F  </i>
   <i type="logical" name="LTETE"> F  </i>
   <i type="logical" name="LTRIPLET"> F  </i>
   <i type="logical" name="LFXCEPS"> F  </i>
   <i type="logical" name="LFXHEG"> F  </i>
   <i type="int" name="NATURALO">     2</i>
   <i type="logical" name="LHOLEGF"> F  </i>
   <i type="logical" name="L2ORDER"> F  </i>
   <i type="logical" name="LDMP1"> F  </i>
   <i type="logical" name="LMP2LT"> F  </i>
   <i type="logical" name="LSMP2LT"> F  </i>
   <i type="logical" name="LGWLF"> F  </i>
   <i name="ENCUTGW">     -1.60000002</i>
   <i name="ENCUTGWSOFT">     -1.60000002</i>
   <i name="ENCUTLF">     -1.00000000</i>
   <i type="logical" name="ESF_SPLINES"> F  </i>
   <i name="ESF_CONV">      0.01000000</i>
   <i type="int" name="ESF_NINTER">    15</i>
   <i type="int" name="LMAXMP2">    -1</i>
   <i name="SCISSOR">      0.00000000</i>
   <i type="int" name="NOMEGA">     0</i>
   <i type="int" name="NOMEGAR">     0</i>
   <i type="int" name="NBANDSGW">    -1</i>
   <i type="int" name="NBANDSO">    -1</i>
   <i type="int" name="NBANDSV">    -1</i>
   <i type="int" name="NELMGW">     1</i>
   <i type="int" name="NELMHF">     1</i>
   <i type="int" name="DIM">     3</i>
   <i type="int" name="IESPILON">     4</i>
   <i type="int" name="ANTIRES">     0</i>
   <i name="OMEGAMAX">    -30.00000000</i>
   <i name="OMEGAMIN">    -30.00000000</i>
   <i name="OMEGATL">   -200.00000000</i>
   <i type="int" name="OMEGAGRID">     0</i>
   <i name="CSHIFT">     -0.10000000</i>
   <i type="logical" name="LSELFENERGY"> F  </i>
   <i type="logical" name="LSPECTRAL"> F  </i>
   <i type="logical" name="LSPECTRALGW"> F  </i>
   <i type="logical" name="LSINGLES"> F  </i>
   <i type="logical" name="LFERMIGW"> F  </i>
   <i type="logical" name="ODDONLYGW"> F  </i>
   <i type="logical" name="EVENONLYGW"> F  </i>
   <i type="int" name="NKREDLFX">     1</i>
   <i type="int" name="NKREDLFY">     1</i>
   <i type="int" name="NKREDLFZ">     1</i>
   <i type="int" name="MAXMEM">  2800</i>
   <i type="int" name="TELESCOPE">     0</i>
   <i type="int" name="NTAUPAR">    -1</i>
   <i type="int" name="NOMEGAPAR">    -1</i>
   <i name="DAMP_NEWTON">      0.80000001</i>
   <i name="LAMBDA">      1.00000000</i>
  </separator>
  <separator name="External order field" >
   <i name="OFIELD_KAPPA">      0.00000000</i>
   <v name="OFIELD_K">      0.00000000      0.00000000      0.00000000</v>
   <i name="OFIELD_Q6_NEAR">      0.00000000</i>
   <i name="OFIELD_Q6_FAR">      0.00000000</i>
   <i name="OFIELD_A">      0.00000000</i>
  </separator>
  <separator name="optional k-points parameters" >
   <i type="int" name="KPOINTS_OPT_MODE">     1</i>
   <i type="logical" name="LKPOINTS_OPT"> F  </i>
  </separator>
 </parameters>
 <atominfo>
  <atoms>      14 </atoms>
  <types>       1 </types>
  <array name="atoms" >
   <dimension dim="1">ion</dimension>
   <field type="string">element</field>
   <field type="int">atomtype</field>
   <set>
    <rc><c>B </c><c>   1</c></rc>
    <rc><c>B </c><c>   1</c></rc>
    <rc><c>B </c><c>   1</c></rc>
    <rc><c>B </c><c>   1</c></rc>
    <rc><c>B </c><c>   1</c></rc>
    <rc><c>B </c><c>   1</c></rc>
    <rc><c>B </c><c>   1</c></rc>
    <rc><c>B </c><c>   1</c></rc>
    <rc><c>B </c><c>   1</c></rc>
    <rc><c>B </c><c>   1</c></rc>
    <rc><c>B </c><c>   1</c></rc>
    <rc><c>B </c><c>   1</c></rc>
    <rc><c>B </c><c>   1</c></rc>
    <rc><c>B </c><c>   1</c></rc>
   </set>
  </array>
  <array name="atomtypes" >
   <dimension dim="1">type</dimension>
   <field type="int">atomspertype</field>
   <field type="string">element</field>
   <field>mass</field>
   <field>valence</field>
   <field type="string">pseudopotential</field>
   <set>
    <rc><c>  14</c><c>B </c><c>     10.81100000</c><c>      3.00000000</c><c>  PAW_PBE B 06Sep2000                   </c></rc>
   </set>
  </array>
 </atominfo>
 <structure name="initialpos" >
  <crystal>
   <varray name="basis" >
    <v>       5.69700000       0.00000000       0.00000000 </v>
    <v>       0.00000000       4.04790000       0.00000000 </v>
    <v>       0.00000000       0.00000000       6.20420000 </v>
   </varray>
   <i name="volume">    143.07435078 </i>
   <varray name="rec_basis" >
    <v>       0.17553098       0.00000000       0.00000000 </v>
    <v>       0.00000000       0.24704168       0.00000000 </v>
    <v>       0.00000000       0.00000000       0.16118114 </v>
   </varray>
  </crystal>
  <varray name="positions" >
   <v>       0.52123000       0.50000000       0.63796000 </v>
   <v>       0.47877000       0.50000000       0.36204000 </v>
   <v>       0.97877000       0.50000000       0.63796000 </v>
   <v>       0.02123000       0.50000000       0.36204000 </v>
   <v>       0.60090000       0.50000000       0.89991000 </v>
   <v>       0.39910000       0.50000000       0.10009000 </v>
   <v>       0.89910000       0.50000000       0.89991000 </v>
   <v>       0.10090000       0.50000000       0.10009000 </v>
   <v>       0.75000000       0.79171000       0.72973000 </v>
   <v>       0.25000000       0.20829000       0.27027000 </v>
   <v>       0.75000000       0.20829000       0.72973000 </v>
   <v>       0.25000000       0.79171000       0.27027000 </v>
   <v>       0.25000000       0.50000000       0.52367000 </v>
   <v>       0.75000000       0.50000000       0.47633000 </v>
  </varray>
 </structure>
 <calculation>
  <scstep>
   <time name="dav">    5.86    5.99</time>
   <time name="total">    5.89    6.01</time>
   <energy>
    <i name="alphaZ">     94.24357992 </i>
    <i name="ewald">   -795.76658092 </i>
    <i name="hartreedc">   -271.33601302 </i>
    <i name="XCdc">     97.50108175 </i>
    <i name="pawpsdc">    608.99811708 </i>
    <i name="pawaedc">   -597.02363782 </i>
    <i name="eentropy">     -0.00279506 </i>
    <i name="bandstr">    -85.62426315 </i>
    <i name="atom">    996.36340036 </i>
    <i name="e_fr_energy">     47.35288914 </i>
    <i name="e_wo_entrp">     47.35568420 </i>
    <i name="e_0_energy">     47.35428667 </i>
   </energy>
  </scstep>
  <scstep>
   <time name="dav">    7.82    7.88</time>
   <time name="total">    7.82    7.88</time>
   <energy>
    <i name="e_fr_energy">    -93.16307669 </i>
    <i name="e_wo_entrp">    -93.15891198 </i>
    <i name="e_0_energy">    -93.16099434 </i>
   </energy>
  </scstep>
  <scstep>
   <time name="dav">    8.06    8.11</time>
   <time name="total">    8.06    8.11</time>
   <energy>
    <i name="e_fr_energy">    -97.59057127 </i>
    <i name="e_wo_entrp">    -97.58682495 </i>
    <i name="e_0_energy">    -97.58869811 </i>
   </energy>
  </scstep>
  <scstep>
   <time name="dav">    7.05    7.10</time>
   <time name="total">    7.06    7.11</time>
   <energy>
    <i name="e_fr_energy">    -97.61626465 </i>
    <i name="e_wo_entrp">    -97.61251985 </i>
    <i name="e_0_energy">    -97.61439225 </i>
   </energy>
  </scstep>
  <scstep>
   <time name="dav">    7.99    8.04</time>
   <time name="total">    8.09    8.15</time>
   <energy>
    <i name="e_fr_energy">    -97.61656208 </i>
    <i name="e_wo_entrp">    -97.61281729 </i>
    <i name="e_0_energy">    -97.61468969 </i>
   </energy>
  </scstep>
  <scstep>
   <time name="dav">    8.11    8.16</time>
   <time name="total">    8.21    8.27</time>
   <energy>
    <i name="e_fr_energy">    -92.20179622 </i>
    <i name="e_wo_entrp">    -92.19803956 </i>
    <i name="e_0_energy">    -92.19991789 </i>
   </energy>
  </scstep>
  <scstep>
   <time name="dav">    8.29    8.35</time>
   <time name="total">    8.39    8.45</time>
   <energy>
    <i name="e_fr_energy">    -90.55220175 </i>
    <i name="e_wo_entrp">    -90.54852807 </i>
    <i name="e_0_energy">    -90.55036491 </i>
   </energy>
  </scstep>
  <scstep>
   <time name="dav">    6.25    6.29</time>
   <time name="total">    6.35    6.40</time>
   <energy>
    <i name="e_fr_energy">    -90.56221593 </i>
    <i name="e_wo_entrp">    -90.55859886 </i>
    <i name="e_0_energy">    -90.56040739 </i>
   </energy>
  </scstep>
  <scstep>
   <time name="dav">    7.87    7.92</time>
   <time name="total">    7.97    8.02</time>
   <energy>
    <i name="e_fr_energy">    -90.57724704 </i>
    <i name="e_wo_entrp">    -90.57361978 </i>
    <i name="e_0_energy">    -90.57543341 </i>
   </energy>
  </scstep>
  <scstep>
   <time name="dav">    6.28    6.32</time>
   <time name="total">    6.38    6.42</time>
   <energy>
    <i name="e_fr_energy">    -90.58147719 </i>
    <i name="e_wo_entrp">    -90.57787358 </i>
    <i name="e_0_energy">    -90.57967539 </i>
   </energy>
  </scstep>
  <scstep>
   <time name="dav">    7.27    7.31</time>
   <time name="total">    7.37    7.42</time>
   <energy>
    <i name="e_fr_energy">    -90.58266534 </i>
    <i name="e_wo_entrp">    -90.57905772 </i>
    <i name="e_0_energy">    -90.58086153 </i>
   </energy>
  </scstep>
  <scstep>
   <time name="dav">    6.86    6.91</time>
   <time name="total">    6.96    7.01</time>
   <energy>
    <i name="e_fr_energy">    -90.58277718 </i>
    <i name="e_wo_entrp">    -90.57916925 </i>
    <i name="e_0_energy">    -90.58097321 </i>
   </energy>
  </scstep>
  <scstep>
   <time name="dav">    7.70    7.75</time>
   <time name="total">    7.80    7.85</time>
   <energy>
    <i name="e_fr_energy">    -90.58278457 </i>
    <i name="e_wo_entrp">    -90.57917828 </i>
    <i name="e_0_energy">    -90.58098142 </i>
   </energy>
  </scstep>
  <scstep>
   <time name="dav">    6.92    6.97</time>
   <time name="total">    6.93    6.99</time>
   <energy>
    <i name="alphaZ">     94.24357992 </i>
    <i name="ewald">   -795.76658092 </i>
    <i name="hartreedc">   -349.07213925 </i>
    <i name="XCdc">    101.58520928 </i>
    <i name="pawpsdc">   3715.60805580 </i>
    <i name="pawaedc">  -3704.80140943 </i>
    <i name="eentropy">     -0.00360659 </i>
    <i name="bandstr">   -148.73929460 </i>
    <i name="atom">    996.36340036 </i>
    <i name="e_fr_energy">    -90.58278544 </i>
    <i name="e_wo_entrp">    -90.57917885 </i>
    <i name="e_0_energy">    -90.58098214 </i>
   </energy>
  </scstep>
  <structure>
   <crystal>
    <varray name="basis" >
     <v>       5.69700000       0.00000000       0.00000000 </v>
     <v>       0.00000000       4.04790000       0.00000000 </v>
     <v>       0.00000000       0.00000000       6.20420000 </v>
    </varray>
    <i name="volume">    143.07435078 </i>
    <varray name="rec_basis" >
     <v>       0.17553098       0.00000000       0.00000000 </v>
     <v>       0.00000000       0.24704168       0.00000000 </v>
     <v>       0.00000000       0.00000000       0.16118114 </v>
    </varray>
   </crystal>
   <varray name="positions" >
    <v>       0.52123000       0.50000000       0.63796000 </v>
    <v>       0.47877000       0.50000000       0.36204000 </v>
    <v>       0.97877000       0.50000000       0.63796000 </v>
    <v>       0.02123000       0.50000000       0.36204000 </v>
    <v>       0.60090000       0.50000000       0.89991000 </v>
    <v>       0.39910000       0.50000000       0.10009000 </v>
    <v>       0.89910000       0.50000000       0.89991000 </v>
    <v>       0.10090000       0.50000000       0.10009000 </v>
    <v>       0.75000000       0.79171000       0.72973000 </v>
    <v>       0.25000000       0.20829000       0.27027000 </v>
    <v>       0.75000000       0.20829000       0.72973000 </v>
    <v>       0.25000000       0.79171000       0.27027000 </v>
    <v>       0.25000000       0.50000000       0.52367000 </v>
    <v>       0.75000000       0.50000000       0.47633000 </v>
   </varray>
  </structure>
  <varray name="forces" >
   <v>       0.01757170      -0.00000000       0.02720963 </v>
   <v>      -0.01757170       0.00000000      -0.02720963 </v>
   <v>      -0.01757170       0.00000000       0.02720963 </v>
   <v>       0.01757170      -0.00000000      -0.02720963 </v>
   <v>      -0.82351908       0.00000000       0.28057099 </v>
   <v>       0.82351908       0.00000000      -0.28057099 </v>
   <v>       0.82351908       0.00000000       0.28057099 </v>
   <v>      -0.82351908      -0.00000000      -0.28057099 </v>
   <v>       0.00000000       0.07892559      -0.07498540 </v>
   <v>      -0.00000000      -0.07892559       0.07498540 </v>
   <v>       0.00000000      -0.07892559      -0.07498540 </v>
   <v>      -0.00000000       0.07892559       0.07498540 </v>
   <v>      -0.00000000      -0.00000000       0.03388522 </v>
   <v>       0.00000000      -0.00000000      -0.03388522 </v>
  </varray>
  <varray name="stress" >
   <v>      13.16073566       0.00000000       0.00000000 </v>
   <v>       0.00000000       3.88282624       0.00000000 </v>
   <v>      -0.00000000       0.00000000      -6.74998848 </v>
  </varray>
  <energy>
   <i name="e_fr_energy">    -90.58278544 </i>
   <i name="e_wo_entrp">    -90.57917885 </i>
   <i name="e_0_energy">    -90.58098214 </i>
  </energy>
  <time name="totalsc">  107.75  108.56</time>
  <eigenvalues>
   <array>
    <dimension dim="1">band</dimension>
    <dimension dim="2">kpoint</dimension>
    <dimension dim="3">spin</dimension>
    <field>eigene</field>
    <field>occ</field>
    <set>
     <set comment="spin 1">
      <set comment="kpoint 1">
       <r>  -12.7311    1.0000 </r>
       <r>  -11.5793    1.0000 </r>
       <r>   -8.6640    1.0000 </r>
       <r>   -8.4204    1.0000 </r>
       <r>   -6.1084    1.0000 </r>
       <r>   -5.1136    1.0000 </r>
       <r>   -4.5847    1.0000 </r>
       <r>   -4.3259    1.0000 </r>
       <r>   -3.9655    1.0000 </r>
       <r>   -3.5828    1.0000 </r>
       <r>   -2.4036    1.0000 </r>
       <r>   -2.2263    1.0000 </r>
       <r>   -2.1921    1.0000 </r>
       <r>   -1.0702    1.0000 </r>
       <r>   -0.0150    1.0000 </r>
       <r>    0.0047    1.0000 </r>
       <r>    0.0947    1.0000 </r>
       <r>    0.1720    1.0000 </r>
       <r>    0.5079    1.0000 </r>
       <r>    2.0743    0.0000 </r>
       <r>    2.1114    0.0000 </r>
       <r>    2.2758    0.0000 </r>
       <r>    5.4131    0.0000 </r>
       <r>    5.7617    0.0000 </r>
       <r>    5.8508    0.0000 </r>
       <r>    5.9078    0.0000 </r>
       <r>    6.8144    0.0000 </r>
       <r>    7.6553    0.0000 </r>
       <r>    7.7074    0.0000 </r>
       <r>    8.6595    0.0000 </r>
       <r>    8.7284    0.0000 </r>
       <r>    8.9221    0.0000 </r>
       <r>    9.0525    0.0000 </r>
       <r>   10.0531    0.0000 </r>
       <r>   11.1429    0.0000 </r>
       <r>   11.3904    0.0000 </r>
       <r>   11.6707    0.0000 </r>
       <r>   11.8092    0.0000 </r>
       <r>   11.8793    0.0000 </r>
       <r>   12.3724    0.0000 </r>
       <r>   12.8418    0.0000 </r>
       <r>   13.3579    0.0000 </r>
       <r>   13.6669    0.0000 </r>
       <r>   15.5024    0.0000 </r>
       <r>   15.5850    0.0000 </r>
       <r>   15.8355    0.0000 </r>
       <r>   16.3675    0.0000 </r>
       <r>   16.4304    0.0000 </r>
      </set>
      <set comment="kpoint 2">
       <r>  -12.7130    1.0000 </r>
       <r>  -11.6103    1.0000 </r>
       <r>   -8.6587    1.0000 </r>
       <r>   -8.4133    1.0000 </r>
       <r>   -6.0769    1.0000 </r>
       <r>   -5.2735    1.0000 </r>
       <r>   -4.7012    1.0000 </r>
       <r>   -4.0856    1.0000 </r>
       <r>   -3.9401    1.0000 </r>
       <r>   -3.4149    1.0000 </r>
       <r>   -2.3958    1.0000 </r>
       <r>   -2.2488    1.0000 </r>
       <r>   -2.2314    1.0000 </r>
       <r>   -1.2045    1.0000 </r>
       <r>   -0.0390    1.0000 </r>
       <r>    0.0737    1.0000 </r>
       <r>    0.0855    1.0000 </r>
       <r>    0.1478    1.0000 </r>
       <r>    0.4690    1.0000 </r>
       <r>    1.9912    0.0127 </r>
       <r>    2.1273    0.0000 </r>
       <r>    2.2209    0.0000 </r>
       <r>    5.4447    0.0000 </r>
       <r>    5.7548    0.0000 </r>
       <r>    5.8220    0.0000 </r>
       <r>    6.1124    0.0000 </r>
       <r>    6.7731    0.0000 </r>
       <r>    7.3484    0.0000 </r>
       <r>    7.9360    0.0000 </r>
       <r>    8.7202    0.0000 </r>
       <r>    8.8511    0.0000 </r>
       <r>    9.0128    0.0000 </r>
       <r>    9.1107    0.0000 </r>
       <r>   10.1032    0.0000 </r>
       <r>   11.1705    0.0000 </r>
       <r>   11.2168    0.0000 </r>
       <r>   11.4047    0.0000 </r>
       <r>   11.7244    0.0000 </r>
       <r>   11.9716    0.0000 </r>
       <r>   12.4090    0.0000 </r>
       <r>   13.0263    0.0000 </r>
       <r>   13.4507    0.0000 </r>
       <r>   13.6884    0.0000 </r>
       <r>   15.0878    0.0000 </r>
       <r>   15.6649    0.0000 </r>
       <r>   16.0606    0.0000 </r>
       <r>   16.1779    0.0000 </r>
       <r>   16.4198    0.0000 </r>
      </set>
      <set comment="kpoint 3">
       <r>  -12.6591    1.0000 </r>
       <r>  -11.6983    1.0000 </r>
       <r>   -8.6393    1.0000 </r>
       <r>   -8.3975    1.0000 </r>
       <r>   -6.0316    1.0000 </r>
       <r>   -5.5404    1.0000 </r>
       <r>   -4.8105    1.0000 </r>
       <r>   -3.8644    1.0000 </r>
       <r>   -3.6525    1.0000 </r>
       <r>   -3.0434    1.0000 </r>
       <r>   -2.4041    1.0000 </r>
       <r>   -2.3713    1.0000 </r>
       <r>   -2.2465    1.0000 </r>
       <r>   -1.5628    1.0000 </r>
       <r>   -0.0667    1.0000 </r>
       <r>   -0.0199    1.0000 </r>
       <r>    0.1756    1.0000 </r>
       <r>    0.1877    1.0000 </r>
       <r>    0.3625    1.0000 </r>
       <r>    1.8534    0.9518 </r>
       <r>    2.0579    0.0000 </r>
       <r>    2.0813    0.0000 </r>
       <r>    5.5115    0.0000 </r>
       <r>    5.7544    0.0000 </r>
       <r>    5.9687    0.0000 </r>
       <r>    6.4791    0.0000 </r>
       <r>    6.6655    0.0000 </r>
       <r>    7.0355    0.0000 </r>
       <r>    8.1051    0.0000 </r>
       <r>    8.8703    0.0000 </r>
       <r>    8.9960    0.0000 </r>
       <r>    9.1866    0.0000 </r>
       <r>    9.4326    0.0000 </r>
       <r>   10.2767    0.0000 </r>
       <r>   10.7534    0.0000 </r>
       <r>   10.8862    0.0000 </r>
       <r>   11.2522    0.0000 </r>
       <r>   11.6888    0.0000 </r>
       <r>   12.1903    0.0000 </r>
       <r>   12.5389    0.0000 </r>
       <r>   13.0614    0.0000 </r>
       <r>   13.2137    0.0000 </r>
       <r>   14.2426    0.0000 </r>
       <r>   14.7149    0.0000 </r>
       <r>   15.6146    0.0000 </r>
       <r>   15.8521    0.0000 </r>
       <r>   16.2402    0.0000 </r>
       <r>   16.4429    0.0000 </r>
      </set>
      <set comment="kpoint 4">
       <r>  -12.5715    1.0000 </r>
       <r>  -11.8295    1.0000 </r>
       <r>   -8.6005    1.0000 </r>
       <r>   -8.3861    1.0000 </r>
       <r>   -6.0643    1.0000 </r>
       <r>   -5.7730    1.0000 </r>
       <r>   -4.7072    1.0000 </r>
       <r>   -3.7405    1.0000 </r>
       <r>   -3.1959    1.0000 </r>
       <r>   -2.6243    1.0000 </r>
       <r>   -2.6172    1.0000 </r>
       <r>   -2.3324    1.0000 </r>
       <r>   -2.2712    1.0000 </r>
       <r>   -2.0335    1.0000 </r>
       <r>   -0.3119    1.0000 </r>
       <r>    0.0441    1.0000 </r>
       <r>    0.0454    1.0000 </r>
       <r>    0.2717    1.0000 </r>
       <r>    0.4047    1.0000 </r>
       <r>    1.7146    1.0000 </r>
       <r>    1.8009    0.9992 </r>
       <r>    1.9724    0.0443 </r>
       <r>    5.5673    0.0000 </r>
       <r>    5.7858    0.0000 </r>
       <r>    6.3090    0.0000 </r>
       <r>    6.5353    0.0000 </r>
       <r>    6.7965    0.0000 </r>
       <r>    6.9474    0.0000 </r>
       <r>    8.2388    0.0000 </r>
       <r>    8.9165    0.0000 </r>
       <r>    8.9652    0.0000 </r>
       <r>    9.5330    0.0000 </r>
       <r>    9.9061    0.0000 </r>
       <r>   10.1125    0.0000 </r>
       <r>   10.4629    0.0000 </r>
       <r>   10.6408    0.0000 </r>
       <r>   11.3399    0.0000 </r>
       <r>   11.8583    0.0000 </r>
       <r>   12.3330    0.0000 </r>
       <r>   12.5257    0.0000 </r>
       <r>   12.8300    0.0000 </r>
       <r>   12.9939    0.0000 </r>
       <r>   14.7440    0.0000 </r>
       <r>   14.8837    0.0000 </r>
       <r>   15.1631    0.0000 </r>
       <r>   15.8789    0.0000 </r>
       <r>   15.9724    0.0000 </r>
       <r>   16.0865    0.0000 </r>
      </set>
      <set comment="kpoint 5">
       <r>  -12.4537    1.0000 </r>
       <r>  -11.9863    1.0000 </r>
       <r>   -8.5439    1.0000 </r>
       <r>   -8.3928    1.0000 </r>
       <r>   -6.1388    1.0000 </r>
       <r>   -5.9632    1.0000 </r>
       <r>   -4.3707    1.0000 </r>
       <r>   -3.5720    1.0000 </r>
       <r>   -2.9267    1.0000 </r>
       <r>   -2.8748    1.0000 </r>
       <r>   -2.5280    1.0000 </r>
       <r>   -2.3334    1.0000 </r>
       <r>   -2.2398    1.0000 </r>
       <r>   -2.0958    1.0000 </r>
       <r>   -0.5863    1.0000 </r>
       <r>   -0.2650    1.0000 </r>
       <r>    0.1383    1.0000 </r>
       <r>    0.3267    1.0000 </r>
       <r>    0.5959    1.0000 </r>
       <r>    1.4850    1.0000 </r>
       <r>    1.6229    1.0000 </r>
       <r>    1.8317    0.9887 </r>
       <r>    5.6208    0.0000 </r>
       <r>    5.8064    0.0000 </r>
       <r>    6.4458    0.0000 </r>
       <r>    6.6277    0.0000 </r>
       <r>    6.8108    0.0000 </r>
       <r>    7.4860    0.0000 </r>
       <r>    8.3529    0.0000 </r>
       <r>    8.7056    0.0000 </r>
       <r>    8.7593    0.0000 </r>
       <r>    9.4220    0.0000 </r>
       <r>    9.9170    0.0000 </r>
       <r>   10.3842    0.0000 </r>
       <r>   10.4529    0.0000 </r>
       <r>   11.2127    0.0000 </r>
       <r>   11.3365    0.0000 </r>
       <r>   11.9399    0.0000 </r>
       <r>   12.1733    0.0000 </r>
       <r>   12.2301    0.0000 </r>
       <r>   12.6289    0.0000 </r>
       <r>   13.2879    0.0000 </r>
       <r>   14.5519    0.0000 </r>
       <r>   15.0239    0.0000 </r>
       <r>   15.1877    0.0000 </r>
       <r>   15.3880    0.0000 </r>
       <r>   15.5041    0.0000 </r>
       <r>   16.3077    0.0000 </r>
      </set>
      <set comment="kpoint 6">
       <r>  -12.3111    1.0000 </r>
       <r>  -12.1517    1.0000 </r>
       <r>   -8.4803    1.0000 </r>
       <r>   -8.4253    1.0000 </r>
       <r>   -6.1617    1.0000 </r>
       <r>   -6.1005    1.0000 </r>
       <r>   -3.8913    1.0000 </r>
       <r>   -3.3650    1.0000 </r>
       <r>   -3.3477    1.0000 </r>
       <r>   -3.1281    1.0000 </r>
       <r>   -2.4519    1.0000 </r>
       <r>   -2.3704    1.0000 </r>
       <r>   -2.0050    1.0000 </r>
       <r>   -1.8951    1.0000 </r>
       <r>   -0.7447    1.0000 </r>
       <r>   -0.5905    1.0000 </r>
       <r>    0.2395    1.0000 </r>
       <r>    0.3138    1.0000 </r>
       <r>    0.8516    1.0000 </r>
       <r>    1.1558    1.0000 </r>
       <r>    1.6174    1.0000 </r>
       <r>    1.6988    1.0000 </r>
       <r>    5.6925    0.0000 </r>
       <r>    5.7679    0.0000 </r>
       <r>    6.4420    0.0000 </r>
       <r>    6.5104    0.0000 </r>
       <r>    7.4227    0.0000 </r>
       <r>    7.9718    0.0000 </r>
       <r>    8.2280    0.0000 </r>
       <r>    8.4647    0.0000 </r>
       <r>    8.5981    0.0000 </r>
       <r>    8.7522    0.0000 </r>
       <r>   10.3151    0.0000 </r>
       <r>   10.5899    0.0000 </r>
       <r>   10.8263    0.0000 </r>
       <r>   11.3351    0.0000 </r>
       <r>   11.3558    0.0000 </r>
       <r>   11.7252    0.0000 </r>
       <r>   11.9555    0.0000 </r>
       <r>   12.4206    0.0000 </r>
       <r>   12.7459    0.0000 </r>
       <r>   13.2085    0.0000 </r>
       <r>   14.4860    0.0000 </r>
       <r>   14.6109    0.0000 </r>
       <r>   14.9594    0.0000 </r>
       <r>   15.0095    0.0000 </r>
       <r>   16.0354    0.0000 </r>
       <r>   16.3473    0.0000 </r>
      </set>
      <set comment="kpoint 7">
       <r>  -12.7205    1.0000 </r>
       <r>  -11.5697    1.0000 </r>
       <r>   -8.6556    1.0000 </r>
       <r>   -8.4102    1.0000 </r>
       <r>   -6.0967    1.0000 </r>
       <r>   -5.0976    1.0000 </r>
       <r>   -4.5743    1.0000 </r>
       <r>   -4.3803    1.0000 </r>
       <r>   -4.1562    1.0000 </r>
       <r>   -3.5714    1.0000 </r>
       <r>   -2.8925    1.0000 </r>
       <r>   -2.1192    1.0000 </r>
       <r>   -1.4788    1.0000 </r>
       <r>   -1.0682    1.0000 </r>
       <r>   -0.1362    1.0000 </r>
       <r>   -0.1273    1.0000 </r>
       <r>    0.1006    1.0000 </r>
       <r>    0.2249    1.0000 </r>
       <r>    0.5561    1.0000 </r>
       <r>    1.9358    0.2524 </r>
       <r>    1.9946    0.0099 </r>
       <r>    2.3148    0.0000 </r>
       <r>    5.5269    0.0000 </r>
       <r>    5.7185    0.0000 </r>
       <r>    5.8053    0.0000 </r>
       <r>    5.8957    0.0000 </r>
       <r>    6.9501    0.0000 </r>
       <r>    7.8004    0.0000 </r>
       <r>    7.8290    0.0000 </r>
       <r>    8.3586    0.0000 </r>
       <r>    8.7538    0.0000 </r>
       <r>    9.0341    0.0000 </r>
       <r>    9.0786    0.0000 </r>
       <r>   10.3074    0.0000 </r>
       <r>   11.2326    0.0000 </r>
       <r>   11.3646    0.0000 </r>
       <r>   11.6375    0.0000 </r>
       <r>   11.8514    0.0000 </r>
       <r>   11.9294    0.0000 </r>
       <r>   12.4997    0.0000 </r>
       <r>   12.8430    0.0000 </r>
       <r>   13.2241    0.0000 </r>
       <r>   13.5243    0.0000 </r>
       <r>   15.4827    0.0000 </r>
       <r>   15.4932    0.0000 </r>
       <r>   15.8512    0.0000 </r>
       <r>   16.2490    0.0000 </r>
       <r>   16.2808    0.0000 </r>
      </set>
      <set comment="kpoint 8">
       <r>  -12.7023    1.0000 </r>
       <r>  -11.6007    1.0000 </r>
       <r>   -8.6503    1.0000 </r>
       <r>   -8.4031    1.0000 </r>
       <r>   -6.0649    1.0000 </r>
       <r>   -5.2592    1.0000 </r>
       <r>   -4.6922    1.0000 </r>
       <r>   -4.2516    1.0000 </r>
       <r>   -4.0177    1.0000 </r>
       <r>   -3.4042    1.0000 </r>
       <r>   -2.9197    1.0000 </r>
       <r>   -2.1105    1.0000 </r>
       <r>   -1.5176    1.0000 </r>
       <r>   -1.2022    1.0000 </r>
       <r>   -0.1635    1.0000 </r>
       <r>   -0.0648    1.0000 </r>
       <r>    0.1158    1.0000 </r>
       <r>    0.1903    1.0000 </r>
       <r>    0.5172    1.0000 </r>
       <r>    1.8629    0.9185 </r>
       <r>    2.0011    0.0060 </r>
       <r>    2.2581    0.0000 </r>
       <r>    5.5574    0.0000 </r>
       <r>    5.7089    0.0000 </r>
       <r>    5.8517    0.0000 </r>
       <r>    6.0292    0.0000 </r>
       <r>    6.9091    0.0000 </r>
       <r>    7.4908    0.0000 </r>
       <r>    8.0588    0.0000 </r>
       <r>    8.4237    0.0000 </r>
       <r>    8.8789    0.0000 </r>
       <r>    9.1206    0.0000 </r>
       <r>    9.1532    0.0000 </r>
       <r>   10.3243    0.0000 </r>
       <r>   11.1689    0.0000 </r>
       <r>   11.2771    0.0000 </r>
       <r>   11.3699    0.0000 </r>
       <r>   11.7768    0.0000 </r>
       <r>   12.0225    0.0000 </r>
       <r>   12.5335    0.0000 </r>
       <r>   13.0309    0.0000 </r>
       <r>   13.3077    0.0000 </r>
       <r>   13.5564    0.0000 </r>
       <r>   15.1250    0.0000 </r>
       <r>   15.5437    0.0000 </r>
       <r>   15.9749    0.0000 </r>
       <r>   16.0953    0.0000 </r>
       <r>   16.3772    0.0000 </r>
      </set>
      <set comment="kpoint 9">
       <r>  -12.6485    1.0000 </r>
       <r>  -11.6886    1.0000 </r>
       <r>   -8.6308    1.0000 </r>
       <r>   -8.3876    1.0000 </r>
       <r>   -6.0186    1.0000 </r>
       <r>   -5.5269    1.0000 </r>
       <r>   -4.8022    1.0000 </r>
       <r>   -4.1506    1.0000 </r>
       <r>   -3.6126    1.0000 </r>
       <r>   -3.0634    1.0000 </r>
       <r>   -2.9711    1.0000 </r>
       <r>   -2.0844    1.0000 </r>
       <r>   -1.6190    1.0000 </r>
       <r>   -1.5564    1.0000 </r>
       <r>   -0.1518    1.0000 </r>
       <r>   -0.0806    1.0000 </r>
       <r>    0.1226    1.0000 </r>
       <r>    0.2075    1.0000 </r>
       <r>    0.4077    1.0000 </r>
       <r>    1.7297    1.0000 </r>
       <r>    1.9510    0.1368 </r>
       <r>    2.0925    0.0000 </r>
       <r>    5.6187    0.0000 </r>
       <r>    5.8155    0.0000 </r>
       <r>    5.9118    0.0000 </r>
       <r>    6.3758    0.0000 </r>
       <r>    6.8031    0.0000 </r>
       <r>    7.1960    0.0000 </r>
       <r>    8.2198    0.0000 </r>
       <r>    8.5844    0.0000 </r>
       <r>    9.0310    0.0000 </r>
       <r>    9.3039    0.0000 </r>
       <r>    9.4966    0.0000 </r>
       <r>   10.3806    0.0000 </r>
       <r>   10.7107    0.0000 </r>
       <r>   10.8734    0.0000 </r>
       <r>   11.3376    0.0000 </r>
       <r>   11.7783    0.0000 </r>
       <r>   12.2467    0.0000 </r>
       <r>   12.6523    0.0000 </r>
       <r>   12.9282    0.0000 </r>
       <r>   13.2284    0.0000 </r>
       <r>   14.0621    0.0000 </r>
       <r>   14.8162    0.0000 </r>
       <r>   15.5518    0.0000 </r>
       <r>   15.7597    0.0000 </r>
       <r>   16.0726    0.0000 </r>
       <r>   16.5092    0.0000 </r>
      </set>
      <set comment="kpoint 10">
       <r>  -12.5610    1.0000 </r>
       <r>  -11.8197    1.0000 </r>
       <r>   -8.5918    1.0000 </r>
       <r>   -8.3766    1.0000 </r>
       <r>   -6.0503    1.0000 </r>
       <r>   -5.7593    1.0000 </r>
       <r>   -4.7001    1.0000 </r>
       <r>   -4.0336    1.0000 </r>
       <r>   -3.1530    1.0000 </r>
       <r>   -3.1453    1.0000 </r>
       <r>   -2.5895    1.0000 </r>
       <r>   -2.0763    1.0000 </r>
       <r>   -2.0039    1.0000 </r>
       <r>   -1.7363    1.0000 </r>
       <r>   -0.3058    1.0000 </r>
       <r>   -0.1146    1.0000 </r>
       <r>    0.1199    1.0000 </r>
       <r>    0.2134    1.0000 </r>
       <r>    0.4148    1.0000 </r>
       <r>    1.5924    1.0000 </r>
       <r>    1.8043    0.9989 </r>
       <r>    1.8695    0.8869 </r>
       <r>    5.6669    0.0000 </r>
       <r>    5.8868    0.0000 </r>
       <r>    6.2274    0.0000 </r>
       <r>    6.6660    0.0000 </r>
       <r>    6.7710    0.0000 </r>
       <r>    7.0458    0.0000 </r>
       <r>    8.3482    0.0000 </r>
       <r>    8.7197    0.0000 </r>
       <r>    9.0002    0.0000 </r>
       <r>    9.6148    0.0000 </r>
       <r>    9.9634    0.0000 </r>
       <r>   10.0523    0.0000 </r>
       <r>   10.3476    0.0000 </r>
       <r>   10.7646    0.0000 </r>
       <r>   11.4003    0.0000 </r>
       <r>   11.9839    0.0000 </r>
       <r>   12.3615    0.0000 </r>
       <r>   12.4461    0.0000 </r>
       <r>   12.9192    0.0000 </r>
       <r>   13.0314    0.0000 </r>
       <r>   14.5402    0.0000 </r>
       <r>   15.0248    0.0000 </r>
       <r>   15.2049    0.0000 </r>
       <r>   15.6482    0.0000 </r>
       <r>   15.9030    0.0000 </r>
       <r>   16.2362    0.0000 </r>
      </set>
      <set comment="kpoint 11">
       <r>  -12.4433    1.0000 </r>
       <r>  -11.9764    1.0000 </r>
       <r>   -8.5351    1.0000 </r>
       <r>   -8.3835    1.0000 </r>
       <r>   -6.1245    1.0000 </r>
       <r>   -5.9491    1.0000 </r>
       <r>   -4.3644    1.0000 </r>
       <r>   -3.8836    1.0000 </r>
       <r>   -3.3188    1.0000 </r>
       <r>   -2.8936    1.0000 </r>
       <r>   -2.4424    1.0000 </r>
       <r>   -2.1497    1.0000 </r>
       <r>   -1.9522    1.0000 </r>
       <r>   -1.8612    1.0000 </r>
       <r>   -0.5716    1.0000 </r>
       <r>   -0.2854    1.0000 </r>
       <r>    0.0878    1.0000 </r>
       <r>    0.2579    1.0000 </r>
       <r>    0.6007    1.0000 </r>
       <r>    1.4701    1.0000 </r>
       <r>    1.5297    1.0000 </r>
       <r>    1.7164    1.0000 </r>
       <r>    5.7187    0.0000 </r>
       <r>    5.9144    0.0000 </r>
       <r>    6.5869    0.0000 </r>
       <r>    6.7266    0.0000 </r>
       <r>    6.7513    0.0000 </r>
       <r>    7.4336    0.0000 </r>
       <r>    8.4550    0.0000 </r>
       <r>    8.5723    0.0000 </r>
       <r>    8.8275    0.0000 </r>
       <r>    9.3445    0.0000 </r>
       <r>    9.9515    0.0000 </r>
       <r>   10.2895    0.0000 </r>
       <r>   10.5152    0.0000 </r>
       <r>   11.2450    0.0000 </r>
       <r>   11.3546    0.0000 </r>
       <r>   11.8216    0.0000 </r>
       <r>   12.2565    0.0000 </r>
       <r>   12.3662    0.0000 </r>
       <r>   12.7070    0.0000 </r>
       <r>   13.3806    0.0000 </r>
       <r>   14.5982    0.0000 </r>
       <r>   15.0070    0.0000 </r>
       <r>   15.0602    0.0000 </r>
       <r>   15.3222    0.0000 </r>
       <r>   15.6415    0.0000 </r>
       <r>   16.3200    0.0000 </r>
      </set>
      <set comment="kpoint 12">
       <r>  -12.3009    1.0000 </r>
       <r>  -12.1416    1.0000 </r>
       <r>   -8.4714    1.0000 </r>
       <r>   -8.4163    1.0000 </r>
       <r>   -6.1474    1.0000 </r>
       <r>   -6.0862    1.0000 </r>
       <r>   -3.8858    1.0000 </r>
       <r>   -3.7064    1.0000 </r>
       <r>   -3.5115    1.0000 </r>
       <r>   -3.3394    1.0000 </r>
       <r>   -2.2050    1.0000 </r>
       <r>   -2.0079    1.0000 </r>
       <r>   -1.8908    1.0000 </r>
       <r>   -1.8372    1.0000 </r>
       <r>   -0.7307    1.0000 </r>
       <r>   -0.5873    1.0000 </r>
       <r>    0.1714    1.0000 </r>
       <r>    0.2433    1.0000 </r>
       <r>    0.8559    1.0000 </r>
       <r>    1.1601    1.0000 </r>
       <r>    1.5040    1.0000 </r>
       <r>    1.5840    1.0000 </r>
       <r>    5.7933    0.0000 </r>
       <r>    5.8733    0.0000 </r>
       <r>    6.5861    0.0000 </r>
       <r>    6.6506    0.0000 </r>
       <r>    7.3372    0.0000 </r>
       <r>    7.8903    0.0000 </r>
       <r>    8.1489    0.0000 </r>
       <r>    8.5560    0.0000 </r>
       <r>    8.6501    0.0000 </r>
       <r>    8.7035    0.0000 </r>
       <r>   10.3271    0.0000 </r>
       <r>   10.5755    0.0000 </r>
       <r>   10.7606    0.0000 </r>
       <r>   11.1533    0.0000 </r>
       <r>   11.4419    0.0000 </r>
       <r>   11.7879    0.0000 </r>
       <r>   11.9947    0.0000 </r>
       <r>   12.5090    0.0000 </r>
       <r>   12.8838    0.0000 </r>
       <r>   13.3239    0.0000 </r>
       <r>   14.5064    0.0000 </r>
       <r>   14.6093    0.0000 </r>
       <r>   14.9450    0.0000 </r>
       <r>   15.0476    0.0000 </r>
       <r>   16.0498    0.0000 </r>
       <r>   16.3319    0.0000 </r>
      </set>
      <set comment="kpoint 13">
       <r>  -12.6899    1.0000 </r>
       <r>  -11.5422    1.0000 </r>
       <r>   -8.6318    1.0000 </r>
       <r>   -8.3807    1.0000 </r>
       <r>   -6.0630    1.0000 </r>
       <r>   -5.0515    1.0000 </r>
       <r>   -4.7719    1.0000 </r>
       <r>   -4.5441    1.0000 </r>
       <r>   -4.2351    1.0000 </r>
       <r>   -3.5553    1.0000 </r>
       <r>   -3.4976    1.0000 </r>
       <r>   -1.5500    1.0000 </r>
       <r>   -1.0625    1.0000 </r>
       <r>   -0.7322    1.0000 </r>
       <r>   -0.3977    1.0000 </r>
       <r>   -0.3774    1.0000 </r>
       <r>    0.1150    1.0000 </r>
       <r>    0.2836    1.0000 </r>
       <r>    0.6358    1.0000 </r>
       <r>    1.6311    1.0000 </r>
       <r>    1.6916    1.0000 </r>
       <r>    2.3596    0.0000 </r>
       <r>    5.5438    0.0000 </r>
       <r>    5.5511    0.0000 </r>
       <r>    5.8331    0.0000 </r>
       <r>    6.0464    0.0000 </r>
       <r>    7.2979    0.0000 </r>
       <r>    7.9032    0.0000 </r>
       <r>    8.0906    0.0000 </r>
       <r>    8.3110    0.0000 </r>
       <r>    8.7601    0.0000 </r>
       <r>    9.1616    0.0000 </r>
       <r>    9.1981    0.0000 </r>
       <r>   10.7872    0.0000 </r>
       <r>   11.2840    0.0000 </r>
       <r>   11.5002    0.0000 </r>
       <r>   11.5463    0.0000 </r>
       <r>   11.9773    0.0000 </r>
       <r>   12.0866    0.0000 </r>
       <r>   12.7824    0.0000 </r>
       <r>   12.8511    0.0000 </r>
       <r>   12.9972    0.0000 </r>
       <r>   13.2020    0.0000 </r>
       <r>   15.1289    0.0000 </r>
       <r>   15.4309    0.0000 </r>
       <r>   15.6133    0.0000 </r>
       <r>   15.7346    0.0000 </r>
       <r>   16.1053    0.0000 </r>
      </set>
      <set comment="kpoint 14">
       <r>  -12.6718    1.0000 </r>
       <r>  -11.5732    1.0000 </r>
       <r>   -8.6263    1.0000 </r>
       <r>   -8.3740    1.0000 </r>
       <r>   -6.0302    1.0000 </r>
       <r>   -5.2200    1.0000 </r>
       <r>   -4.7377    1.0000 </r>
       <r>   -4.6524    1.0000 </r>
       <r>   -4.0070    1.0000 </r>
       <r>   -3.5497    1.0000 </r>
       <r>   -3.3622    1.0000 </r>
       <r>   -1.5412    1.0000 </r>
       <r>   -1.1968    1.0000 </r>
       <r>   -0.8083    1.0000 </r>
       <r>   -0.4219    1.0000 </r>
       <r>   -0.2729    1.0000 </r>
       <r>    0.1325    1.0000 </r>
       <r>    0.2391    1.0000 </r>
       <r>    0.5945    1.0000 </r>
       <r>    1.5616    1.0000 </r>
       <r>    1.6979    1.0000 </r>
       <r>    2.2988    0.0000 </r>
       <r>    5.4964    0.0000 </r>
       <r>    5.7666    0.0000 </r>
       <r>    5.8676    0.0000 </r>
       <r>    6.0486    0.0000 </r>
       <r>    7.2573    0.0000 </r>
       <r>    7.8634    0.0000 </r>
       <r>    7.9739    0.0000 </r>
       <r>    8.4356    0.0000 </r>
       <r>    8.9209    0.0000 </r>
       <r>    9.1959    0.0000 </r>
       <r>    9.3262    0.0000 </r>
       <r>   10.7062    0.0000 </r>
       <r>   11.0922    0.0000 </r>
       <r>   11.3264    0.0000 </r>
       <r>   11.5037    0.0000 </r>
       <r>   11.9369    0.0000 </r>
       <r>   12.1797    0.0000 </r>
       <r>   12.8474    0.0000 </r>
       <r>   12.9915    0.0000 </r>
       <r>   13.0414    0.0000 </r>
       <r>   13.3035    0.0000 </r>
       <r>   15.1130    0.0000 </r>
       <r>   15.1785    0.0000 </r>
       <r>   15.6396    0.0000 </r>
       <r>   15.6784    0.0000 </r>
       <r>   16.1644    0.0000 </r>
      </set>
      <set comment="kpoint 15">
       <r>  -12.6182    1.0000 </r>
       <r>  -11.6609    1.0000 </r>
       <r>   -8.6063    1.0000 </r>
       <r>   -8.3593    1.0000 </r>
       <r>   -5.9810    1.0000 </r>
       <r>   -5.4889    1.0000 </r>
       <r>   -4.7798    1.0000 </r>
       <r>   -4.6519    1.0000 </r>
       <r>   -3.6271    1.0000 </r>
       <r>   -3.5741    1.0000 </r>
       <r>   -2.9912    1.0000 </r>
       <r>   -1.5531    1.0000 </r>
       <r>   -1.5148    1.0000 </r>
       <r>   -0.9632    1.0000 </r>
       <r>   -0.3881    1.0000 </r>
       <r>   -0.1700    1.0000 </r>
       <r>    0.0795    1.0000 </r>
       <r>    0.2336    1.0000 </r>
       <r>    0.4741    1.0000 </r>
       <r>    1.4329    1.0000 </r>
       <r>    1.6528    1.0000 </r>
       <r>    2.1211    0.0000 </r>
       <r>    5.6408    0.0000 </r>
       <r>    5.8977    0.0000 </r>
       <r>    6.0733    0.0000 </r>
       <r>    6.1516    0.0000 </r>
       <r>    7.1539    0.0000 </r>
       <r>    7.6042    0.0000 </r>
       <r>    8.1508    0.0000 </r>
       <r>    8.5559    0.0000 </r>
       <r>    9.1081    0.0000 </r>
       <r>    9.4087    0.0000 </r>
       <r>    9.6614    0.0000 </r>
       <r>   10.4335    0.0000 </r>
       <r>   10.6037    0.0000 </r>
       <r>   10.9859    0.0000 </r>
       <r>   11.5354    0.0000 </r>
       <r>   12.0390    0.0000 </r>
       <r>   12.4032    0.0000 </r>
       <r>   12.6073    0.0000 </r>
       <r>   12.9970    0.0000 </r>
       <r>   13.2692    0.0000 </r>
       <r>   13.7584    0.0000 </r>
       <r>   14.8768    0.0000 </r>
       <r>   15.1178    0.0000 </r>
       <r>   15.5529    0.0000 </r>
       <r>   15.7060    0.0000 </r>
       <r>   16.3258    0.0000 </r>
      </set>
      <set comment="kpoint 16">
       <r>  -12.5309    1.0000 </r>
       <r>  -11.7916    1.0000 </r>
       <r>   -8.5669    1.0000 </r>
       <r>   -8.3492    1.0000 </r>
       <r>   -6.0101    1.0000 </r>
       <r>   -5.7201    1.0000 </r>
       <r>   -4.6800    1.0000 </r>
       <r>   -4.5499    1.0000 </r>
       <r>   -3.7516    1.0000 </r>
       <r>   -3.1043    1.0000 </r>
       <r>   -2.5585    1.0000 </r>
       <r>   -2.0277    1.0000 </r>
       <r>   -1.4720    1.0000 </r>
       <r>   -1.1277    1.0000 </r>
       <r>   -0.3419    1.0000 </r>
       <r>   -0.2631    1.0000 </r>
       <r>    0.0454    1.0000 </r>
       <r>    0.2030    1.0000 </r>
       <r>    0.4336    1.0000 </r>
       <r>    1.3006    1.0000 </r>
       <r>    1.5504    1.0000 </r>
       <r>    1.8476    0.9663 </r>
       <r>    5.8782    0.0000 </r>
       <r>    6.0202    0.0000 </r>
       <r>    6.1722    0.0000 </r>
       <r>    6.5622    0.0000 </r>
       <r>    7.0386    0.0000 </r>
       <r>    7.4392    0.0000 </r>
       <r>    8.3450    0.0000 </r>
       <r>    8.6658    0.0000 </r>
       <r>    9.1056    0.0000 </r>
       <r>    9.7304    0.0000 </r>
       <r>    9.8318    0.0000 </r>
       <r>   10.1787    0.0000 </r>
       <r>   10.1822    0.0000 </r>
       <r>   10.9474    0.0000 </r>
       <r>   11.5100    0.0000 </r>
       <r>   12.0977    0.0000 </r>
       <r>   12.3394    0.0000 </r>
       <r>   12.6333    0.0000 </r>
       <r>   13.0430    0.0000 </r>
       <r>   13.2590    0.0000 </r>
       <r>   14.2455    0.0000 </r>
       <r>   14.9288    0.0000 </r>
       <r>   15.1245    0.0000 </r>
       <r>   15.4276    0.0000 </r>
       <r>   15.6603    0.0000 </r>
       <r>   16.2977    0.0000 </r>
      </set>
      <set comment="kpoint 17">
       <r>  -12.4135    1.0000 </r>
       <r>  -11.9479    1.0000 </r>
       <r>   -8.5100    1.0000 </r>
       <r>   -8.3571    1.0000 </r>
       <r>   -6.0834    1.0000 </r>
       <r>   -5.9088    1.0000 </r>
       <r>   -4.4161    1.0000 </r>
       <r>   -4.3453    1.0000 </r>
       <r>   -3.9084    1.0000 </r>
       <r>   -2.8637    1.0000 </r>
       <r>   -2.3889    1.0000 </r>
       <r>   -2.1039    1.0000 </r>
       <r>   -1.4165    1.0000 </r>
       <r>   -1.2792    1.0000 </r>
       <r>   -0.5170    1.0000 </r>
       <r>   -0.3695    1.0000 </r>
       <r>    0.0073    1.0000 </r>
       <r>    0.1170    1.0000 </r>
       <r>    0.6131    1.0000 </r>
       <r>    1.2121    1.0000 </r>
       <r>    1.4175    1.0000 </r>
       <r>    1.5198    1.0000 </r>
       <r>    5.9445    0.0000 </r>
       <r>    6.1960    0.0000 </r>
       <r>    6.5050    0.0000 </r>
       <r>    6.9137    0.0000 </r>
       <r>    6.9828    0.0000 </r>
       <r>    7.4658    0.0000 </r>
       <r>    8.2896    0.0000 </r>
       <r>    8.7529    0.0000 </r>
       <r>    8.9871    0.0000 </r>
       <r>    9.1564    0.0000 </r>
[...]
       <r>   -2.2885    1.0000 </r>
       <r>   -2.1580    1.0000 </r>
       <r>   -2.0112    1.0000 </r>
       <r>   -1.5337    1.0000 </r>
       <r>   -0.6835    1.0000 </r>
       <r>   -0.1639    1.0000 </r>
       <r>    0.2173    1.0000 </r>
       <r>    0.4065    1.0000 </r>
       <r>    0.5136    1.0000 </r>
       <r>    1.4736    1.0000 </r>
       <r>    1.6285    1.0000 </r>
       <r>    1.8616    0.9240 </r>
       <r>    5.5667    0.0000 </r>
       <r>    6.1451    0.0000 </r>
       <r>    6.6578    0.0000 </r>
       <r>    7.2554    0.0000 </r>
       <r>    7.7356    0.0000 </r>
       <r>    8.1273    0.0000 </r>
       <r>    9.0606    0.0000 </r>
       <r>    9.2374    0.0000 </r>
       <r>    9.7239    0.0000 </r>
       <r>    9.9508    0.0000 </r>
       <r>   10.5673    0.0000 </r>
       <r>   11.0398    0.0000 </r>
       <r>   11.1716    0.0000 </r>
       <r>   11.4810    0.0000 </r>
       <r>   11.5640    0.0000 </r>
       <r>   11.8892    0.0000 </r>
       <r>   12.8752    0.0000 </r>
       <r>   13.2272    0.0000 </r>
       <r>   13.3321    0.0000 </r>
       <r>   13.8255    0.0000 </r>
       <r>   13.9533    0.0000 </r>
       <r>   14.1932    0.0000 </r>
       <r>   14.4786    0.0000 </r>
       <r>   14.9329    0.0000 </r>
       <r>   15.0867    0.0000 </r>
       <r>   15.3546    0.0000 </r>
      </set>
      <set comment="kpoint 240">
       <r>  -12.0140    1.0000 </r>
       <r>  -11.8875    1.0000 </r>
       <r>   -8.5471    1.0000 </r>
       <r>   -8.4448    1.0000 </r>
       <r>   -5.9149    1.0000 </r>
       <r>   -5.8187    1.0000 </r>
       <r>   -4.8557    1.0000 </r>
       <r>   -4.5660    1.0000 </r>
       <r>   -4.4170    1.0000 </r>
       <r>   -4.0218    1.0000 </r>
       <r>   -2.1983    1.0000 </r>
       <r>   -2.1438    1.0000 </r>
       <r>   -2.0525    1.0000 </r>
       <r>   -1.7946    1.0000 </r>
       <r>   -0.2095    1.0000 </r>
       <r>   -0.0051    1.0000 </r>
       <r>    0.4077    1.0000 </r>
       <r>    0.4816    1.0000 </r>
       <r>    0.5492    1.0000 </r>
       <r>    0.8402    1.0000 </r>
       <r>    1.6453    1.0000 </r>
       <r>    1.7339    1.0000 </r>
       <r>    5.8687    0.0000 </r>
       <r>    6.0383    0.0000 </r>
       <r>    6.8888    0.0000 </r>
       <r>    7.4104    0.0000 </r>
       <r>    7.4453    0.0000 </r>
       <r>    7.5576    0.0000 </r>
       <r>    9.4210    0.0000 </r>
       <r>    9.6024    0.0000 </r>
       <r>    9.8004    0.0000 </r>
       <r>    9.9667    0.0000 </r>
       <r>   10.4649    0.0000 </r>
       <r>   10.7866    0.0000 </r>
       <r>   11.2422    0.0000 </r>
       <r>   11.5019    0.0000 </r>
       <r>   11.5186    0.0000 </r>
       <r>   11.5927    0.0000 </r>
       <r>   13.0928    0.0000 </r>
       <r>   13.1880    0.0000 </r>
       <r>   13.7561    0.0000 </r>
       <r>   14.0826    0.0000 </r>
       <r>   14.2069    0.0000 </r>
       <r>   14.2781    0.0000 </r>
       <r>   14.6156    0.0000 </r>
       <r>   14.7388    0.0000 </r>
       <r>   14.8706    0.0000 </r>
       <r>   15.0349    0.0000 </r>
      </set>
     </set>
    </set>
   </array>
  </eigenvalues>
  <separator name="orbital magnetization" >
   <v name="MAGDIPOLOUT">      0.00000000      0.00000000      0.00000000</v>
  </separator>
  <dos>
   <i name="efermi">      1.91224417 </i>
   <total>
    <array>
     <dimension dim="1">gridpoints</dimension>
     <dimension dim="2">spin</dimension>
     <field>energy</field>
     <field>total</field>
     <field>integrated</field>
     <set>
      <set comment="spin 1">
       <r>   -14.1952     0.0000     0.0000 </r>
       <r>   -14.0878     0.0000     0.0000 </r>
       <r>   -13.9805     0.0000     0.0000 </r>
       <r>   -13.8731     0.0000     0.0000 </r>
       <r>   -13.7657     0.0000     0.0000 </r>
       <r>   -13.6584     0.0000     0.0000 </r>
       <r>   -13.5510     0.0000     0.0000 </r>
       <r>   -13.4436     0.0000     0.0000 </r>
       <r>   -13.3363     0.0000     0.0000 </r>
       <r>   -13.2289     0.0000     0.0000 </r>
       <r>   -13.1215     0.0000     0.0000 </r>
       <r>   -13.0142     0.0000     0.0000 </r>
       <r>   -12.9068     0.0000     0.0000 </r>
       <r>   -12.7994     0.0023     0.0003 </r>
       <r>   -12.6921     0.4311     0.0465 </r>
       <r>   -12.5847     2.2821     0.2916 </r>
       <r>   -12.4773     3.5303     0.6706 </r>
       <r>   -12.3700     4.3717     1.1400 </r>
       <r>   -12.2626     3.5576     1.5219 </r>
       <r>   -12.1552     2.7968     1.8222 </r>
       <r>   -12.0479     2.6713     2.1090 </r>
       <r>   -11.9405     2.5793     2.3860 </r>
       <r>   -11.8331     2.7295     2.6790 </r>
       <r>   -11.7258     3.3719     3.0410 </r>
       <r>   -11.6184     3.5813     3.4256 </r>
       <r>   -11.5110     3.1283     3.7614 </r>
       <r>   -11.4037     1.7449     3.9488 </r>
       <r>   -11.2963     0.4675     3.9990 </r>
       <r>   -11.1889     0.0096     4.0000 </r>
       <r>   -11.0816     0.0000     4.0000 </r>
       <r>   -10.9742     0.0000     4.0000 </r>
       <r>   -10.8668     0.0000     4.0000 </r>
       <r>   -10.7595     0.0000     4.0000 </r>
       <r>   -10.6521     0.0000     4.0000 </r>
       <r>   -10.5447     0.0000     4.0000 </r>
       <r>   -10.4374     0.0000     4.0000 </r>
       <r>   -10.3300     0.0000     4.0000 </r>
       <r>   -10.2226     0.0000     4.0000 </r>
       <r>   -10.1153     0.0000     4.0000 </r>
       <r>   -10.0079     0.0000     4.0000 </r>
       <r>    -9.9005     0.0000     4.0000 </r>
       <r>    -9.7932     0.0000     4.0000 </r>
       <r>    -9.6858     0.0000     4.0000 </r>
       <r>    -9.5784     0.0000     4.0000 </r>
       <r>    -9.4711     0.0000     4.0000 </r>
       <r>    -9.3637     0.0000     4.0000 </r>
       <r>    -9.2563     0.0000     4.0000 </r>
       <r>    -9.1490     0.0000     4.0000 </r>
       <r>    -9.0416     0.0000     4.0000 </r>
       <r>    -8.9343     0.0007     4.0001 </r>
       <r>    -8.8269     0.2974     4.0320 </r>
       <r>    -8.7195     2.1509     4.2629 </r>
       <r>    -8.6122     5.3956     4.8422 </r>
       <r>    -8.5048     7.0122     5.5951 </r>
       <r>    -8.3974     6.1911     6.2598 </r>
       <r>    -8.2901     5.3203     6.8311 </r>
       <r>    -8.1827     4.8501     7.3518 </r>
       <r>    -8.0753     3.7736     7.7570 </r>
       <r>    -7.9680     1.6622     7.9354 </r>
       <r>    -7.8606     0.5568     7.9952 </r>
       <r>    -7.7532     0.0446     8.0000 </r>
       <r>    -7.6459     0.0000     8.0000 </r>
       <r>    -7.5385     0.0000     8.0000 </r>
       <r>    -7.4311     0.0000     8.0000 </r>
       <r>    -7.3238     0.0000     8.0000 </r>
       <r>    -7.2164     0.0000     8.0000 </r>
       <r>    -7.1090     0.0000     8.0000 </r>
       <r>    -7.0017     0.0043     8.0005 </r>
       <r>    -6.8943     0.0973     8.0109 </r>
       <r>    -6.7869     0.3006     8.0432 </r>
       <r>    -6.6796     0.5119     8.0981 </r>
       <r>    -6.5722     0.5351     8.1556 </r>
       <r>    -6.4648     1.0791     8.2715 </r>
       <r>    -6.3575     1.3732     8.4189 </r>
       <r>    -6.2501     1.9646     8.6298 </r>
       <r>    -6.1427     3.0571     8.9580 </r>
       <r>    -6.0354     3.8333     9.3696 </r>
       <r>    -5.9280     4.0819     9.8079 </r>
       <r>    -5.8206     4.0917    10.2472 </r>
       <r>    -5.7133     3.8652    10.6622 </r>
       <r>    -5.6059     3.9833    11.0899 </r>
       <r>    -5.4985     4.3431    11.5562 </r>
       <r>    -5.3912     4.5131    12.0407 </r>
       <r>    -5.2838     4.3696    12.5099 </r>
       <r>    -5.1764     4.7439    13.0192 </r>
       <r>    -5.0691     3.9198    13.4401 </r>
       <r>    -4.9617     3.1937    13.7830 </r>
       <r>    -4.8543     2.7785    14.0813 </r>
       <r>    -4.7470     2.1547    14.3126 </r>
       <r>    -4.6396     3.0773    14.6430 </r>
       <r>    -4.5322     3.6536    15.0353 </r>
       <r>    -4.4249     3.5187    15.4131 </r>
       <r>    -4.3175     3.0697    15.7427 </r>
       <r>    -4.2101     2.9884    16.0635 </r>
       <r>    -4.1028     2.8774    16.3725 </r>
       <r>    -3.9954     2.7024    16.6626 </r>
       <r>    -3.8880     3.0516    16.9902 </r>
       <r>    -3.7807     3.5335    17.3696 </r>
       <r>    -3.6733     2.6173    17.6506 </r>
       <r>    -3.5659     2.7991    17.9512 </r>
       <r>    -3.4586     2.6528    18.2360 </r>
       <r>    -3.3512     2.7362    18.5298 </r>
       <r>    -3.2438     3.0215    18.8542 </r>
       <r>    -3.1365     2.9075    19.1663 </r>
       <r>    -3.0291     2.7481    19.4614 </r>
       <r>    -2.9217     2.9671    19.7800 </r>
       <r>    -2.8144     2.9568    20.0974 </r>
       <r>    -2.7070     2.3712    20.3520 </r>
       <r>    -2.5996     2.3828    20.6079 </r>
       <r>    -2.4923     3.1652    20.9477 </r>
       <r>    -2.3849     3.2420    21.2958 </r>
       <r>    -2.2775     3.9100    21.7156 </r>
       <r>    -2.1702     2.7320    22.0089 </r>
       <r>    -2.0628     3.3319    22.3666 </r>
       <r>    -1.9554     4.3772    22.8366 </r>
       <r>    -1.8481     5.2459    23.3998 </r>
       <r>    -1.7407     5.2120    23.9594 </r>
       <r>    -1.6333     5.4832    24.5482 </r>
       <r>    -1.5260     6.1826    25.2120 </r>
       <r>    -1.4186     6.3748    25.8964 </r>
       <r>    -1.3112     5.7024    26.5086 </r>
       <r>    -1.2039     4.9543    27.0406 </r>
       <r>    -1.0965     5.4337    27.6240 </r>
       <r>    -0.9891     3.9741    28.0507 </r>
       <r>    -0.8818     2.4920    28.3182 </r>
       <r>    -0.7744     2.5883    28.5961 </r>
       <r>    -0.6670     3.6830    28.9915 </r>
       <r>    -0.5597     4.7968    29.5066 </r>
       <r>    -0.4523     6.4299    30.1969 </r>
       <r>    -0.3449     5.6300    30.8014 </r>
       <r>    -0.2376     5.7741    31.4213 </r>
       <r>    -0.1302     7.7996    32.2588 </r>
       <r>    -0.0228     6.6763    32.9756 </r>
       <r>     0.0845     5.8136    33.5998 </r>
       <r>     0.1919     6.9379    34.3447 </r>
       <r>     0.2993     8.8666    35.2966 </r>
       <r>     0.4066     8.2399    36.1813 </r>
       <r>     0.5140     8.6188    37.1067 </r>
       <r>     0.6214     4.4470    37.5842 </r>
       <r>     0.7287     2.7757    37.8822 </r>
       <r>     0.8361     3.1210    38.2173 </r>
       <r>     0.9435     4.0164    38.6485 </r>
       <r>     1.0508     3.2834    39.0010 </r>
       <r>     1.1582     3.0744    39.3311 </r>
       <r>     1.2656     3.4158    39.6979 </r>
       <r>     1.3729     3.5807    40.0823 </r>
       <r>     1.4803     4.6486    40.5814 </r>
       <r>     1.5877     4.5071    41.0653 </r>
       <r>     1.6950     3.6590    41.4582 </r>
       <r>     1.8024     2.3522    41.7107 </r>
       <r>     1.9098     2.6281    41.9929 </r>
       <r>     2.0171     3.0515    42.3205 </r>
       <r>     2.1245     3.1529    42.6590 </r>
       <r>     2.2319     2.6784    42.9466 </r>
       <r>     2.3392     1.7672    43.1363 </r>
       <r>     2.4466     1.3328    43.2794 </r>
       <r>     2.5540     0.6204    43.3460 </r>
       <r>     2.6613     0.4680    43.3963 </r>
       <r>     2.7687     0.9801    43.5015 </r>
       <r>     2.8761     0.9473    43.6032 </r>
       <r>     2.9834     0.5922    43.6668 </r>
       <r>     3.0908     0.2786    43.6967 </r>
       <r>     3.1982     0.3648    43.7359 </r>
       <r>     3.3055     0.2687    43.7647 </r>
       <r>     3.4129     0.4077    43.8085 </r>
       <r>     3.5203     0.5061    43.8628 </r>
       <r>     3.6276     0.4246    43.9084 </r>
       <r>     3.7350     0.3686    43.9480 </r>
       <r>     3.8424     0.1478    43.9639 </r>
       <r>     3.9497     0.1566    43.9807 </r>
       <r>     4.0571     0.1726    43.9992 </r>
       <r>     4.1645     0.0074    44.0000 </r>
       <r>     4.2718     0.0523    44.0056 </r>
       <r>     4.3792     0.2341    44.0308 </r>
       <r>     4.4866     0.3674    44.0702 </r>
       <r>     4.5939     0.5268    44.1268 </r>
       <r>     4.7013     0.7646    44.2089 </r>
       <r>     4.8087     0.7005    44.2841 </r>
       <r>     4.9160     0.9860    44.3899 </r>
       <r>     5.0234     1.0034    44.4977 </r>
       <r>     5.1308     1.0312    44.6084 </r>
       <r>     5.2381     1.4202    44.7609 </r>
       <r>     5.3455     1.5906    44.9316 </r>
       <r>     5.4529     2.2928    45.1778 </r>
       <r>     5.5602     2.5401    45.4505 </r>
       <r>     5.6676     3.1426    45.7879 </r>
       <r>     5.7750     2.7599    46.0843 </r>
       <r>     5.8823     3.8965    46.5026 </r>
       <r>     5.9897     4.4310    46.9784 </r>
       <r>     6.0971     4.3805    47.4487 </r>
       <r>     6.2044     4.4276    47.9241 </r>
       <r>     6.3118     4.3683    48.3931 </r>
       <r>     6.4192     3.9389    48.8160 </r>
       <r>     6.5265     4.5911    49.3089 </r>
       <r>     6.6339     3.9625    49.7343 </r>
       <r>     6.7413     3.4105    50.1005 </r>
       <r>     6.8486     4.0303    50.5332 </r>
       <r>     6.9560     4.2094    50.9852 </r>
       <r>     7.0634     5.1777    51.5411 </r>
       <r>     7.1707     4.7498    52.0511 </r>
       <r>     7.2781     4.7246    52.5583 </r>
       <r>     7.3855     5.2726    53.1244 </r>
       <r>     7.4928     4.3916    53.5959 </r>
       <r>     7.6002     3.8204    54.0061 </r>
       <r>     7.7076     3.6183    54.3946 </r>
       <r>     7.8149     3.1424    54.7320 </r>
       <r>     7.9223     2.8046    55.0331 </r>
       <r>     8.0297     3.4279    55.4011 </r>
       <r>     8.1370     4.0741    55.8386 </r>
       <r>     8.2444     3.7502    56.2412 </r>
       <r>     8.3518     3.9093    56.6609 </r>
       <r>     8.4591     3.8870    57.0783 </r>
       <r>     8.5665     4.0264    57.5106 </r>
       <r>     8.6739     4.6695    58.0119 </r>
       <r>     8.7812     5.0910    58.5585 </r>
       <r>     8.8886     4.8178    59.0758 </r>
       <r>     8.9960     4.7540    59.5862 </r>
       <r>     9.1033     4.4781    60.0670 </r>
       <r>     9.2107     6.0076    60.7120 </r>
       <r>     9.3181     5.7623    61.3307 </r>
       <r>     9.4254     3.9984    61.7600 </r>
       <r>     9.5328     4.4001    62.2324 </r>
       <r>     9.6402     4.3667    62.7013 </r>
       <r>     9.7475     5.0479    63.2433 </r>
       <r>     9.8549     6.0384    63.8916 </r>
       <r>     9.9623     4.9678    64.4250 </r>
       <r>    10.0696     3.5191    64.8028 </r>
       <r>    10.1770     3.9788    65.2300 </r>
       <r>    10.2844     4.4842    65.7114 </r>
       <r>    10.3917     5.2561    66.2758 </r>
       <r>    10.4991     5.9807    66.9179 </r>
       <r>    10.6065     4.7185    67.4245 </r>
       <r>    10.7138     4.1268    67.8676 </r>
       <r>    10.8212     4.0082    68.2979 </r>
       <r>    10.9286     3.4791    68.6715 </r>
       <r>    11.0359     4.7135    69.1776 </r>
       <r>    11.1433     5.2488    69.7411 </r>
       <r>    11.2507     6.2484    70.4120 </r>
       <r>    11.3580     6.2849    71.0868 </r>
       <r>    11.4654     4.8822    71.6109 </r>
       <r>    11.5728     4.6763    72.1130 </r>
       <r>    11.6801     4.1029    72.5535 </r>
       <r>    11.7875     5.0164    73.0921 </r>
       <r>    11.8949     5.0973    73.6394 </r>
       <r>    12.0022     5.7994    74.2621 </r>
       <r>    12.1096     6.0599    74.9127 </r>
       <r>    12.2170     6.2602    75.5848 </r>
       <r>    12.3243     5.0356    76.1255 </r>
       <r>    12.4317     5.1920    76.6830 </r>
       <r>    12.5391     6.0475    77.3323 </r>
       <r>    12.6464     6.2449    78.0027 </r>
       <r>    12.7538     5.7107    78.6159 </r>
       <r>    12.8612     5.3712    79.1926 </r>
       <r>    12.9685     6.1001    79.8475 </r>
       <r>    13.0759     6.0928    80.5017 </r>
       <r>    13.1833     6.0104    81.1470 </r>
       <r>    13.2906     6.5531    81.8506 </r>
       <r>    13.3980     5.6098    82.4529 </r>
       <r>    13.5054     5.2391    83.0154 </r>
       <r>    13.6127     5.4469    83.6002 </r>
       <r>    13.7201     5.4170    84.1818 </r>
       <r>    13.8275     5.6790    84.7916 </r>
       <r>    13.9348     5.7369    85.4075 </r>
       <r>    14.0422     4.7478    85.9173 </r>
       <r>    14.1496     5.4705    86.5046 </r>
       <r>    14.2569     5.5670    87.1023 </r>
       <r>    14.3643     4.5398    87.5897 </r>
       <r>    14.4717     4.3639    88.0583 </r>
       <r>    14.5790     5.7825    88.6791 </r>
       <r>    14.6864     5.2483    89.2426 </r>
       <r>    14.7938     4.4938    89.7251 </r>
       <r>    14.9011     4.1845    90.1744 </r>
       <r>    15.0085     5.3926    90.7534 </r>
       <r>    15.1159     6.0130    91.3990 </r>
       <r>    15.2232     6.1325    92.0574 </r>
       <r>    15.3306     5.9174    92.6927 </r>
       <r>    15.4380     5.6739    93.3019 </r>
       <r>    15.5453     5.8133    93.9261 </r>
       <r>    15.6527     5.5527    94.5222 </r>
       <r>    15.7601     3.6553    94.9147 </r>
       <r>    15.8674     3.2052    95.2588 </r>
       <r>    15.9748     1.9585    95.4691 </r>
       <r>    16.0822     1.2353    95.6017 </r>
       <r>    16.1895     1.2223    95.7330 </r>
       <r>    16.2969     0.9939    95.8397 </r>
       <r>    16.4043     0.9844    95.9454 </r>
       <r>    16.5116     0.4047    95.9888 </r>
       <r>    16.6190     0.1028    95.9999 </r>
       <r>    16.7264     0.0013    96.0000 </r>
       <r>    16.8337     0.0000    96.0000 </r>
       <r>    16.9411     0.0000    96.0000 </r>
       <r>    17.0485     0.0000    96.0000 </r>
       <r>    17.1558     0.0000    96.0000 </r>
       <r>    17.2632     0.0000    96.0000 </r>
       <r>    17.3706     0.0000    96.0000 </r>
       <r>    17.4779     0.0000    96.0000 </r>
       <r>    17.5853     0.0000    96.0000 </r>
       <r>    17.6927     0.0000    96.0000 </r>
       <r>    17.8000     0.0000    96.0000 </r>
       <r>    17.9074     0.0000    96.0000 </r>
       <r>    18.0148     0.0000    96.0000 </r>
      </set>
     </set>
    </array>
   </total>
  </dos>
 </calculation>
 <structure name="finalpos" >
  <crystal>
   <varray name="basis" >
    <v>       5.69700000       0.00000000       0.00000000 </v>
    <v>       0.00000000       4.04790000       0.00000000 </v>
    <v>       0.00000000       0.00000000       6.20420000 </v>
   </varray>
   <i name="volume">    143.07435078 </i>
   <varray name="rec_basis" >
    <v>       0.17553098       0.00000000       0.00000000 </v>
    <v>       0.00000000       0.24704168       0.00000000 </v>
    <v>       0.00000000       0.00000000       0.16118114 </v>
   </varray>
  </crystal>
  <varray name="positions" >
   <v>       0.52123000       0.50000000       0.63796000 </v>
   <v>       0.47877000       0.50000000       0.36204000 </v>
   <v>       0.97877000       0.50000000       0.63796000 </v>
   <v>       0.02123000       0.50000000       0.36204000 </v>
   <v>       0.60090000       0.50000000       0.89991000 </v>
   <v>       0.39910000       0.50000000       0.10009000 </v>
   <v>       0.89910000       0.50000000       0.89991000 </v>
   <v>       0.10090000       0.50000000       0.10009000 </v>
   <v>       0.75000000       0.79171000       0.72973000 </v>
   <v>       0.25000000       0.20829000       0.27027000 </v>
   <v>       0.75000000       0.20829000       0.72973000 </v>
   <v>       0.25000000       0.79171000       0.27027000 </v>
   <v>       0.25000000       0.50000000       0.52367000 </v>
   <v>       0.75000000       0.50000000       0.47633000 </v>
  </varray>
 </structure>
</modeling>
