  14  14   0   0
  0.1021960E+02  0.5697000E-09  0.4047900E-09  0.6204200E-09  0.5000000E-15
  1.000000000000000E-004
  CAR 
 Kpoints                                 
     18.06902818    -14.19132855  301      1.85844458      1.00000000
    -14.191  0.0000E+00  0.0000E+00
    -14.084  0.0000E+00  0.0000E+00
    -13.976  0.0000E+00  0.0000E+00
    -13.869  0.0000E+00  0.0000E+00
    -13.761  0.0000E+00  0.0000E+00
    -13.654  0.0000E+00  0.0000E+00
    -13.546  0.0000E+00  0.0000E+00
    -13.439  0.0000E+00  0.0000E+00
    -13.331  0.0000E+00  0.0000E+00
    -13.224  0.0000E+00  0.0000E+00
    -13.116  0.0000E+00  0.0000E+00
    -13.008  0.3352E-16  0.3605E-17
    -12.901  0.2430E-07  0.2613E-08
    -12.793  0.3652E-02  0.3927E-03
    -12.686  0.5035E+00  0.5454E-01
    -12.578  0.2408E+01  0.3135E+00
    -12.471  0.3598E+01  0.7004E+00
    -12.363  0.4256E+01  0.1158E+01
    -12.256  0.3696E+01  0.1555E+01
    -12.148  0.2479E+01  0.1822E+01
    -12.041  0.3123E+01  0.2158E+01
    -11.933  0.2066E+01  0.2380E+01
    -11.826  0.3210E+01  0.2725E+01
    -11.718  0.3053E+01  0.3054E+01
    -11.611  0.3782E+01  0.3460E+01
    -11.503  0.2988E+01  0.3782E+01
    -11.395  0.1628E+01  0.3957E+01
    -11.288  0.3991E+00  0.3999E+01
    -11.180  0.4884E-02  0.4000E+01
    -11.073  0.5876E-07  0.4000E+01
    -10.965  0.1207E-15  0.4000E+01
    -10.858  0.0000E+00  0.4000E+01
    -10.750  0.0000E+00  0.4000E+01
    -10.643  0.0000E+00  0.4000E+01
    -10.535  0.0000E+00  0.4000E+01
    -10.428  0.0000E+00  0.4000E+01
    -10.320  0.0000E+00  0.4000E+01
    -10.213  0.0000E+00  0.4000E+01
    -10.105  0.0000E+00  0.4000E+01
     -9.997  0.0000E+00  0.4000E+01
     -9.890  0.0000E+00  0.4000E+01
     -9.782  0.0000E+00  0.4000E+01
     -9.675  0.0000E+00  0.4000E+01
     -9.567  0.0000E+00  0.4000E+01
     -9.460  0.0000E+00  0.4000E+01
     -9.352  0.0000E+00  0.4000E+01
     -9.245  0.0000E+00  0.4000E+01
     -9.137  0.0000E+00  0.4000E+01
     -9.030  0.2998E-08  0.4000E+01
     -8.922  0.1378E-02  0.4000E+01
     -8.815  0.3790E+00  0.4041E+01
     -8.707  0.2362E+01  0.4295E+01
     -8.600  0.5683E+01  0.4906E+01
     -8.492  0.6954E+01  0.5654E+01
     -8.384  0.6174E+01  0.6318E+01
     -8.277  0.5126E+01  0.6869E+01
     -8.169  0.5025E+01  0.7409E+01
     -8.062  0.3410E+01  0.7776E+01
     -7.954  0.1587E+01  0.7947E+01
     -7.847  0.4716E+00  0.7997E+01
     -7.739  0.2549E-01  0.8000E+01
     -7.632  0.1666E-05  0.8000E+01
     -7.524  0.1775E-13  0.8000E+01
     -7.417  0.0000E+00  0.8000E+01
     -7.309  0.0000E+00  0.8000E+01
     -7.202  0.0000E+00  0.8000E+01
     -7.094  0.3030E-10  0.8000E+01
     -6.987  0.1047E-03  0.8000E+01
     -6.879  0.1076E+00  0.8012E+01
     -6.771  0.4236E+00  0.8057E+01
     -6.664  0.3164E+00  0.8091E+01
     -6.556  0.7469E+00  0.8171E+01
     -6.449  0.9650E+00  0.8275E+01
     -6.341  0.1676E+01  0.8455E+01
     -6.234  0.1997E+01  0.8670E+01
     -6.126  0.3373E+01  0.9033E+01
     -6.019  0.3667E+01  0.9427E+01
     -5.911  0.4108E+01  0.9869E+01
     -5.804  0.3852E+01  0.1028E+02
     -5.696  0.4347E+01  0.1075E+02
     -5.589  0.4016E+01  0.1118E+02
     -5.481  0.4435E+01  0.1166E+02
     -5.373  0.4050E+01  0.1210E+02
     -5.266  0.5085E+01  0.1264E+02
     -5.158  0.3914E+01  0.1306E+02
     -5.051  0.3674E+01  0.1346E+02
     -4.943  0.3593E+01  0.1384E+02
     -4.836  0.2799E+01  0.1415E+02
     -4.728  0.2353E+01  0.1440E+02
     -4.621  0.3214E+01  0.1474E+02
     -4.513  0.3315E+01  0.1510E+02
     -4.406  0.3126E+01  0.1544E+02
     -4.298  0.2724E+01  0.1573E+02
     -4.191  0.3264E+01  0.1608E+02
     -4.083  0.3313E+01  0.1644E+02
     -3.976  0.3083E+01  0.1677E+02
     -3.868  0.3727E+01  0.1717E+02
     -3.760  0.2307E+01  0.1742E+02
     -3.653  0.1967E+01  0.1763E+02
     -3.545  0.2592E+01  0.1791E+02
     -3.438  0.3224E+01  0.1825E+02
     -3.330  0.3218E+01  0.1860E+02
     -3.223  0.3635E+01  0.1899E+02
     -3.115  0.2534E+01  0.1926E+02
     -3.008  0.2374E+01  0.1952E+02
     -2.900  0.2211E+01  0.1976E+02
     -2.793  0.2873E+01  0.2007E+02
     -2.685  0.3041E+01  0.2039E+02
     -2.578  0.2557E+01  0.2067E+02
     -2.470  0.3222E+01  0.2101E+02
     -2.363  0.3442E+01  0.2138E+02
     -2.255  0.3922E+01  0.2181E+02
     -2.147  0.3339E+01  0.2216E+02
     -2.040  0.2959E+01  0.2248E+02
     -1.932  0.2814E+01  0.2279E+02
     -1.825  0.6526E+01  0.2349E+02
     -1.717  0.4596E+01  0.2398E+02
     -1.610  0.7228E+01  0.2476E+02
     -1.502  0.7037E+01  0.2552E+02
     -1.395  0.5228E+01  0.2608E+02
     -1.287  0.5211E+01  0.2664E+02
     -1.180  0.4056E+01  0.2707E+02
     -1.072  0.5354E+01  0.2765E+02
     -0.965  0.3978E+01  0.2808E+02
     -0.857  0.3342E+01  0.2844E+02
     -0.750  0.2807E+01  0.2874E+02
     -0.642  0.3700E+01  0.2914E+02
     -0.534  0.4588E+01  0.2963E+02
     -0.427  0.5221E+01  0.3019E+02
     -0.319  0.6979E+01  0.3094E+02
     -0.212  0.6252E+01  0.3161E+02
     -0.104  0.7441E+01  0.3241E+02
      0.003  0.7427E+01  0.3321E+02
      0.111  0.4926E+01  0.3374E+02
      0.218  0.7262E+01  0.3452E+02
      0.326  0.9102E+01  0.3550E+02
      0.433  0.8547E+01  0.3642E+02
      0.541  0.7624E+01  0.3724E+02
      0.648  0.3819E+01  0.3765E+02
      0.756  0.2525E+01  0.3792E+02
      0.864  0.3116E+01  0.3826E+02
      0.971  0.4572E+01  0.3875E+02
      1.079  0.3737E+01  0.3915E+02
      1.186  0.3494E+01  0.3953E+02
      1.294  0.3594E+01  0.3991E+02
      1.401  0.3226E+01  0.4026E+02
      1.509  0.3080E+01  0.4059E+02
      1.616  0.3443E+01  0.4096E+02
      1.724  0.4426E+01  0.4144E+02
      1.831  0.4267E+01  0.4190E+02
      1.939  0.3705E+01  0.4230E+02
      2.046  0.1888E+01  0.4250E+02
      2.154  0.2195E+01  0.4274E+02
      2.261  0.2028E+01  0.4295E+02
      2.369  0.1628E+01  0.4313E+02
      2.477  0.1197E+01  0.4326E+02
      2.584  0.3087E+00  0.4329E+02
      2.692  0.8440E+00  0.4338E+02
      2.799  0.1673E+01  0.4356E+02
      2.907  0.1108E+01  0.4368E+02
      3.014  0.3127E+00  0.4371E+02
      3.122  0.2265E-02  0.4371E+02
      3.229  0.2129E-01  0.4372E+02
      3.337  0.4127E+00  0.4376E+02
      3.444  0.6676E+00  0.4383E+02
      3.552  0.2266E+00  0.4386E+02
      3.659  0.1412E+00  0.4387E+02
      3.767  0.6383E+00  0.4394E+02
      3.874  0.5332E+00  0.4400E+02
      3.982  0.1606E-01  0.4400E+02
      4.090  0.3863E-06  0.4400E+02
      4.197  0.1080E-02  0.4400E+02
      4.305  0.1156E+00  0.4401E+02
      4.412  0.2423E+00  0.4404E+02
      4.520  0.4193E+00  0.4408E+02
      4.627  0.6556E+00  0.4415E+02
      4.735  0.6739E+00  0.4423E+02
      4.842  0.8772E+00  0.4432E+02
      4.950  0.8872E+00  0.4442E+02
      5.057  0.9107E+00  0.4451E+02
      5.165  0.1371E+01  0.4466E+02
      5.272  0.1292E+01  0.4480E+02
      5.380  0.2122E+01  0.4503E+02
      5.487  0.1988E+01  0.4524E+02
      5.595  0.2800E+01  0.4554E+02
      5.703  0.3022E+01  0.4587E+02
      5.810  0.3378E+01  0.4623E+02
      5.918  0.4013E+01  0.4666E+02
      6.025  0.4119E+01  0.4711E+02
      6.133  0.4658E+01  0.4761E+02
      6.240  0.4066E+01  0.4804E+02
      6.348  0.4418E+01  0.4852E+02
      6.455  0.4393E+01  0.4899E+02
      6.563  0.4359E+01  0.4946E+02
      6.670  0.3493E+01  0.4984E+02
      6.778  0.4117E+01  0.5028E+02
      6.885  0.3930E+01  0.5070E+02
      6.993  0.4426E+01  0.5118E+02
      7.101  0.4279E+01  0.5164E+02
      7.208  0.6052E+01  0.5229E+02
      7.316  0.4015E+01  0.5272E+02
      7.423  0.5258E+01  0.5329E+02
      7.531  0.4430E+01  0.5376E+02
      7.638  0.4060E+01  0.5420E+02
      7.746  0.2632E+01  0.5448E+02
      7.853  0.3732E+01  0.5488E+02
      7.961  0.2627E+01  0.5517E+02
      8.068  0.3497E+01  0.5554E+02
      8.176  0.3727E+01  0.5594E+02
      8.283  0.4331E+01  0.5641E+02
      8.391  0.4048E+01  0.5684E+02
      8.498  0.3824E+01  0.5725E+02
      8.606  0.3057E+01  0.5758E+02
      8.714  0.5509E+01  0.5818E+02
      8.821  0.5925E+01  0.5881E+02
      8.929  0.4856E+01  0.5933E+02
      9.036  0.4127E+01  0.5978E+02
      9.144  0.5204E+01  0.6034E+02
      9.251  0.4974E+01  0.6087E+02
      9.359  0.4873E+01  0.6140E+02
      9.466  0.4995E+01  0.6193E+02
      9.574  0.4772E+01  0.6245E+02
      9.681  0.4845E+01  0.6297E+02
      9.789  0.4608E+01  0.6346E+02
      9.896  0.5416E+01  0.6405E+02
     10.004  0.5754E+01  0.6467E+02
     10.111  0.3915E+01  0.6509E+02
     10.219  0.2507E+01  0.6536E+02
     10.327  0.4628E+01  0.6585E+02
     10.434  0.5673E+01  0.6646E+02
     10.542  0.5379E+01  0.6704E+02
     10.649  0.5183E+01  0.6760E+02
     10.757  0.4552E+01  0.6809E+02
     10.864  0.3481E+01  0.6846E+02
     10.972  0.3862E+01  0.6888E+02
     11.079  0.5255E+01  0.6944E+02
     11.187  0.5905E+01  0.7008E+02
     11.294  0.6320E+01  0.7076E+02
     11.402  0.4534E+01  0.7125E+02
     11.509  0.4630E+01  0.7174E+02
     11.617  0.4406E+01  0.7222E+02
     11.724  0.4275E+01  0.7268E+02
     11.832  0.5720E+01  0.7329E+02
     11.940  0.6347E+01  0.7397E+02
     12.047  0.6170E+01  0.7464E+02
     12.155  0.5570E+01  0.7524E+02
     12.262  0.4805E+01  0.7575E+02
     12.370  0.6484E+01  0.7645E+02
     12.477  0.5267E+01  0.7702E+02
     12.585  0.5399E+01  0.7760E+02
     12.692  0.6308E+01  0.7828E+02
     12.800  0.4946E+01  0.7881E+02
     12.907  0.5568E+01  0.7941E+02
     13.015  0.7201E+01  0.8018E+02
     13.122  0.5369E+01  0.8076E+02
     13.230  0.5881E+01  0.8139E+02
     13.338  0.6822E+01  0.8212E+02
     13.445  0.5211E+01  0.8269E+02
     13.553  0.5388E+01  0.8326E+02
     13.660  0.5780E+01  0.8389E+02
     13.768  0.5844E+01  0.8451E+02
     13.875  0.5809E+01  0.8514E+02
     13.983  0.5131E+01  0.8569E+02
     14.090  0.4499E+01  0.8617E+02
     14.198  0.5141E+01  0.8673E+02
     14.305  0.5365E+01  0.8730E+02
     14.413  0.3960E+01  0.8773E+02
     14.520  0.5769E+01  0.8835E+02
     14.628  0.5504E+01  0.8894E+02
     14.735  0.4969E+01  0.8948E+02
     14.843  0.4090E+01  0.8992E+02
     14.951  0.4854E+01  0.9044E+02
     15.058  0.5706E+01  0.9105E+02
     15.166  0.5718E+01  0.9167E+02
     15.273  0.6702E+01  0.9239E+02
     15.381  0.6136E+01  0.9305E+02
     15.488  0.4852E+01  0.9357E+02
     15.596  0.6097E+01  0.9423E+02
     15.703  0.4423E+01  0.9470E+02
     15.811  0.3699E+01  0.9510E+02
     15.918  0.2732E+01  0.9539E+02
     16.026  0.1848E+01  0.9559E+02
     16.133  0.6851E+00  0.9566E+02
     16.241  0.1029E+01  0.9578E+02
     16.348  0.1073E+01  0.9589E+02
     16.456  0.5936E+00  0.9595E+02
     16.564  0.3377E+00  0.9599E+02
     16.671  0.8117E-01  0.9600E+02
     16.779  0.1609E-02  0.9600E+02
     16.886  0.1949E-07  0.9600E+02
     16.994  0.3352E-16  0.9600E+02
     17.101  0.0000E+00  0.9600E+02
     17.209  0.0000E+00  0.9600E+02
     17.316  0.0000E+00  0.9600E+02
     17.424  0.0000E+00  0.9600E+02
     17.531  0.0000E+00  0.9600E+02
     17.639  0.0000E+00  0.9600E+02
     17.746  0.0000E+00  0.9600E+02
     17.854  0.0000E+00  0.9600E+02
     17.961  0.0000E+00  0.9600E+02
     18.069  0.0000E+00  0.9600E+02
