 vasp.6.4.3 19Mar24 (build May 31 2024 16:31:43) complex                        
  
 executed on             LinuxIFC date 2024.10.31  00:22:32
 running   24 mpi-ranks, with    1 threads/rank, on    1 nodes
 distrk:  each k-point on   24 cores,    1 groups
 distr:  one band on NCORE=   1 cores,   24 groups


--------------------------------------------------------------------------------------------------------


 INCAR:
   SYSTEM = Kpoints
   ISTART = 0
   ICHARG = 2
   PREC = Accurate
   ENCUT = 480
   LCHARG = .FALSE.
   LWAVE = .FALSE.
   ALGO = Normal
   NELM = 100
   EDIFF = 1E-6
   EDIFFG = -1E-3
   SIGMA = 0.05
   ISMEAR = 0
   ISPIN = 1
   NSW = 0
   IBRION = -1
   POTIM = .5
   ISIF = 2
   GGA = PE

 POTCAR:    PAW_PBE B 06Sep2000                   
 POTCAR:    PAW_PBE B 06Sep2000                   
   SHA256 =  a32ced30f5ae56fd4d10b4325ff17eb3e4e38ee0f4288bc219fb012fddfa6e97 B/POTCAR              
   COPYR  = (c) Copyright 06Sep2000 Georg Kresse                                                    
   COPYR  = This file is part of the software VASP. Any use, copying, and all other rights are regul
   COPYR  = If you do not have a valid VASP license, you may not use, copy or distribute this file. 
   VRHFIN =B: s2p1                                                                                  
   LEXCH  = PE                                                                                      
   EATOM  =    71.1703 eV,    5.2309 Ry                                                             
                                                                                                    
   TITEL  = PAW_PBE B 06Sep2000                                                                     
   LULTRA =        F    use ultrasoft PP ?                                                          
   IUNSCR =        1    unscreen: 0-lin 1-nonlin 2-no                                               
   RPACOR =    1.200    partial core radius                                                         
   POMASS =   10.811; ZVAL   =    3.000    mass and valenz                                          
   RCORE  =    1.700    outmost cutoff radius                                                       
   RWIGS  =    1.710; RWIGS  =    0.905    wigner-seitz radius (au A)                               
   ENMAX  =  318.614; ENMIN  =  238.960 eV                                                          
   ICORE  =        2    local potential                                                             
   LCOR   =        T    correct aug charges                                                         
   LPAW   =        T    paw PP                                                                      
   EAUG   =  535.514                                                                                
   DEXC   =    0.000                                                                                
   RMAX   =    1.732    core radius for proj-oper                                                   
   RAUG   =    1.300    factor for augmentation sphere                                              
   RDEP   =    1.757    radius for radial grids                                                     
   RDEPT  =    1.436    core radius for aug-charge                                                  
                                                                                                    
   Atomic configuration                                                                             
    4 entries                                                                                       
     n  l   j            E        occ.                                                              
     1  0  0.50      -180.5896   2.0000                                                             
     2  0  0.50        -9.4431   2.0000                                                             
     2  1  0.50        -3.6068   1.0000                                                             
     3  2  1.50        -4.0817   0.0000                                                             
   Description                                                                                      
     l       E           TYP  RCUT    TYP  RCUT                                                     
     0     -9.4430752     23  1.500                                                                 
     0      0.8675899     23  1.500                                                                 
     1     -3.6067955     23  1.700                                                                 
     1      6.1086146     23  1.700                                                                 
     2     -4.0817478      7  1.700                                                                 
  local pseudopotential read in
  partial core-charges read in
  partial kinetic energy density read in
  atomic valenz-charges read in
  non local Contribution for L=           0  read in
    real space projection operators read in
  non local Contribution for L=           0  read in
    real space projection operators read in
  non local Contribution for L=           1  read in
    real space projection operators read in
  non local Contribution for L=           1  read in
    real space projection operators read in
    PAW grid and wavefunctions read in
 
   number of l-projection  operators is LMAX  =           4
   number of lm-projection operators is LMMAX =           8
 
  PAW_PBE B 06Sep2000                   :
 energy of atom  1       EATOM=  -71.1703
 kinetic energy error for atom=    0.0013 (will be added to EATOM!!)
 
 
 POSCAR: o-B14
  positions in direct lattice
  No initial velocities read in


 exchange-correlation table for PE
   RHO(1)=    0.500       N(1)  =     2000
   RHO(2)=  100.500       N(2)  =     4000
 


--------------------------------------------------------------------------------------------------------


 ion  position               nearest neighbor table
   1  0.521  0.500  0.638-  14 1.64   5 1.69  13 1.70   2 1.73   9 1.85  11 1.85
   2  0.479  0.500  0.362-  13 1.64   6 1.69  14 1.70   1 1.73  10 1.85  12 1.85
   3  0.979  0.500  0.638-  14 1.64   7 1.69  13 1.70   4 1.73   9 1.85  11 1.85
   4  0.021  0.500  0.362-  13 1.64   8 1.69  14 1.70   3 1.73  10 1.85  12 1.85
   5  0.601  0.500  0.900-   1 1.69   6 1.69   7 1.70   9 1.80  11 1.80
   6  0.399  0.500  0.100-   2 1.69   5 1.69   8 1.70  10 1.80  12 1.80
   7  0.899  0.500  0.900-   3 1.69   8 1.69   5 1.70   9 1.80  11 1.80
   8  0.101  0.500  0.100-   4 1.69   7 1.69   6 1.70  10 1.80  12 1.80
   9  0.750  0.792  0.730-  11 1.69   7 1.80   5 1.80   3 1.85   1 1.85  14 1.97
  10  0.250  0.208  0.270-  12 1.69   8 1.80   6 1.80   4 1.85   2 1.85  13 1.97
  11  0.750  0.208  0.730-   9 1.69   7 1.80   5 1.80   3 1.85   1 1.85  14 1.97
  12  0.250  0.792  0.270-  10 1.69   8 1.80   6 1.80   4 1.85   2 1.85  13 1.97
  13  0.250  0.500  0.524-   2 1.64   4 1.64   3 1.70   1 1.70  10 1.97  12 1.97
  14  0.750  0.500  0.476-   1 1.64   3 1.64   2 1.70   4 1.70   9 1.97  11 1.97
 
  LATTYP: Found a simple orthorhombic cell.
 ALAT       =     4.0479000000
 B/A-ratio  =     1.4073964278
 C/A-ratio  =     1.5326959658
  
  Lattice vectors:
  
 A1 = (   0.0000000000,  -4.0479000000,   0.0000000000)
 A2 = (   5.6970000000,   0.0000000000,   0.0000000000)
 A3 = (   0.0000000000,   0.0000000000,   6.2042000000)


Analysis of symmetry for initial positions (statically):
=====================================================================
 Subroutine PRICEL returns:
 Original cell was already a primitive cell.
 

 Routine SETGRP: Setting up the symmetry group for a 
 simple orthorhombic supercell.


 Subroutine GETGRP returns: Found  8 space group operations
 (whereof  4 operations were pure point group operations)
 out of a pool of  8 trial point group operations.


The static configuration has the point symmetry C_2h.
 The point group associated with its full space group is D_2h.


Analysis of symmetry for dynamics (positions and initial velocities):
=====================================================================
 Subroutine PRICEL returns:
 Original cell was already a primitive cell.
 

 Routine SETGRP: Setting up the symmetry group for a 
 simple orthorhombic supercell.


 Subroutine GETGRP returns: Found  8 space group operations
 (whereof  4 operations were pure point group operations)
 out of a pool of  8 trial point group operations.


The dynamic configuration has the point symmetry C_2h.
 The point group associated with its full space group is D_2h.


 Subroutine INISYM returns: Found  8 space group operations
 (whereof  4 operations are pure point group operations),
 and found     1 'primitive' translations


----------------------------------------------------------------------------------------

                                     Primitive cell                                     

  volume of cell :     143.0744

  direct lattice vectors                    reciprocal lattice vectors
     5.697000000  0.000000000  0.000000000     0.175530981  0.000000000  0.000000000
     0.000000000  4.047900000  0.000000000     0.000000000  0.247041676  0.000000000
     0.000000000  0.000000000  6.204200000     0.000000000  0.000000000  0.161181135

  length of vectors
     5.697000000  4.047900000  6.204200000     0.175530981  0.247041676  0.161181135

  position of ions in fractional coordinates (direct lattice)
     0.521230000  0.500000000  0.637960000
     0.478770000  0.500000000  0.362040000
     0.978770000  0.500000000  0.637960000
     0.021230000  0.500000000  0.362040000
     0.600900000  0.500000000  0.899910000
     0.399100000  0.500000000  0.100090000
     0.899100000  0.500000000  0.899910000
     0.100900000  0.500000000  0.100090000
     0.750000000  0.791710000  0.729730000
     0.250000000  0.208290000  0.270270000
     0.750000000  0.208290000  0.729730000
     0.250000000  0.791710000  0.270270000
     0.250000000  0.500000000  0.523670000
     0.750000000  0.500000000  0.476330000

  ion indices of the primitive-cell ions
   primitive index   ion index
                 1           1
                 2           2
                 3           3
                 4           4
                 5           5
                 6           6
                 7           7
                 8           8
                 9           9
                10          10
                11          11
                12          12
                13          13
                14          14

----------------------------------------------------------------------------------------

 
 
 KPOINTS: k-points                                

Automatic generation of k-mesh.
 Grid dimensions read from file:
 generate k-points for:    8   11    7

 Generating k-lattice:

  Cartesian coordinates                     Fractional coordinates (reciprocal lattice)
     0.021941373  0.000000000  0.000000000     0.125000000  0.000000000  0.000000000
     0.000000000  0.022458334  0.000000000     0.000000000  0.090909091  0.000000000
     0.000000000  0.000000000  0.023025876     0.000000000  0.000000000  0.142857143

  Length of vectors
     0.021941373  0.022458334  0.023025876

  Shift w.r.t. Gamma in fractional coordinates (k-lattice)
     0.500000000  0.000000000  0.000000000

 
 Subroutine IBZKPT returns following result:
 ===========================================
 
 Found     96 irreducible k-points:
 
 Following reciprocal coordinates:
            Coordinates               Weight
  0.062500  0.000000  0.000000      2.000000
  0.187500  0.000000  0.000000      2.000000
  0.312500  0.000000  0.000000      2.000000
  0.437500  0.000000  0.000000      2.000000
  0.062500  0.090909  0.000000      4.000000
  0.187500  0.090909  0.000000      4.000000
  0.312500  0.090909  0.000000      4.000000
  0.437500  0.090909  0.000000      4.000000
  0.062500  0.181818  0.000000      4.000000
  0.187500  0.181818  0.000000      4.000000
  0.312500  0.181818  0.000000      4.000000
  0.437500  0.181818  0.000000      4.000000
  0.062500  0.272727  0.000000      4.000000
  0.187500  0.272727  0.000000      4.000000
  0.312500  0.272727  0.000000      4.000000
  0.437500  0.272727  0.000000      4.000000
  0.062500  0.363636  0.000000      4.000000
  0.187500  0.363636  0.000000      4.000000
  0.312500  0.363636  0.000000      4.000000
  0.437500  0.363636  0.000000      4.000000
  0.062500  0.454545  0.000000      4.000000
  0.187500  0.454545  0.000000      4.000000
  0.312500  0.454545  0.000000      4.000000
  0.437500  0.454545  0.000000      4.000000
  0.062500  0.000000  0.142857      4.000000
  0.187500  0.000000  0.142857      4.000000
  0.312500  0.000000  0.142857      4.000000
  0.437500  0.000000  0.142857      4.000000
  0.062500  0.090909  0.142857      8.000000
  0.187500  0.090909  0.142857      8.000000
  0.312500  0.090909  0.142857      8.000000
  0.437500  0.090909  0.142857      8.000000
  0.062500  0.181818  0.142857      8.000000
  0.187500  0.181818  0.142857      8.000000
  0.312500  0.181818  0.142857      8.000000
  0.437500  0.181818  0.142857      8.000000
  0.062500  0.272727  0.142857      8.000000
  0.187500  0.272727  0.142857      8.000000
  0.312500  0.272727  0.142857      8.000000
  0.437500  0.272727  0.142857      8.000000
  0.062500  0.363636  0.142857      8.000000
  0.187500  0.363636  0.142857      8.000000
  0.312500  0.363636  0.142857      8.000000
  0.437500  0.363636  0.142857      8.000000
  0.062500  0.454545  0.142857      8.000000
  0.187500  0.454545  0.142857      8.000000
  0.312500  0.454545  0.142857      8.000000
  0.437500  0.454545  0.142857      8.000000
  0.062500  0.000000  0.285714      4.000000
  0.187500  0.000000  0.285714      4.000000
  0.312500  0.000000  0.285714      4.000000
  0.437500  0.000000  0.285714      4.000000
  0.062500  0.090909  0.285714      8.000000
  0.187500  0.090909  0.285714      8.000000
  0.312500  0.090909  0.285714      8.000000
  0.437500  0.090909  0.285714      8.000000
  0.062500  0.181818  0.285714      8.000000
  0.187500  0.181818  0.285714      8.000000
  0.312500  0.181818  0.285714      8.000000
  0.437500  0.181818  0.285714      8.000000
  0.062500  0.272727  0.285714      8.000000
  0.187500  0.272727  0.285714      8.000000
  0.312500  0.272727  0.285714      8.000000
  0.437500  0.272727  0.285714      8.000000
  0.062500  0.363636  0.285714      8.000000
  0.187500  0.363636  0.285714      8.000000
  0.312500  0.363636  0.285714      8.000000
  0.437500  0.363636  0.285714      8.000000
  0.062500  0.454545  0.285714      8.000000
  0.187500  0.454545  0.285714      8.000000
  0.312500  0.454545  0.285714      8.000000
  0.437500  0.454545  0.285714      8.000000
  0.062500  0.000000  0.428571      4.000000
  0.187500  0.000000  0.428571      4.000000
  0.312500  0.000000  0.428571      4.000000
  0.437500  0.000000  0.428571      4.000000
  0.062500  0.090909  0.428571      8.000000
  0.187500  0.090909  0.428571      8.000000
  0.312500  0.090909  0.428571      8.000000
  0.437500  0.090909  0.428571      8.000000
  0.062500  0.181818  0.428571      8.000000
  0.187500  0.181818  0.428571      8.000000
  0.312500  0.181818  0.428571      8.000000
  0.437500  0.181818  0.428571      8.000000
  0.062500  0.272727  0.428571      8.000000
  0.187500  0.272727  0.428571      8.000000
  0.312500  0.272727  0.428571      8.000000
  0.437500  0.272727  0.428571      8.000000
  0.062500  0.363636  0.428571      8.000000
  0.187500  0.363636  0.428571      8.000000
  0.312500  0.363636  0.428571      8.000000
  0.437500  0.363636  0.428571      8.000000
  0.062500  0.454545  0.428571      8.000000
  0.187500  0.454545  0.428571      8.000000
  0.312500  0.454545  0.428571      8.000000
  0.437500  0.454545  0.428571      8.000000
 
 Following cartesian coordinates:
            Coordinates               Weight
  0.010971  0.000000  0.000000      2.000000
  0.032912  0.000000  0.000000      2.000000
  0.054853  0.000000  0.000000      2.000000
  0.076795  0.000000  0.000000      2.000000
  0.010971  0.022458  0.000000      4.000000
  0.032912  0.022458  0.000000      4.000000
  0.054853  0.022458  0.000000      4.000000
  0.076795  0.022458  0.000000      4.000000
  0.010971  0.044917  0.000000      4.000000
  0.032912  0.044917  0.000000      4.000000
  0.054853  0.044917  0.000000      4.000000
  0.076795  0.044917  0.000000      4.000000
  0.010971  0.067375  0.000000      4.000000
  0.032912  0.067375  0.000000      4.000000
  0.054853  0.067375  0.000000      4.000000
  0.076795  0.067375  0.000000      4.000000
  0.010971  0.089833  0.000000      4.000000
  0.032912  0.089833  0.000000      4.000000
  0.054853  0.089833  0.000000      4.000000
  0.076795  0.089833  0.000000      4.000000
  0.010971  0.112292  0.000000      4.000000
  0.032912  0.112292  0.000000      4.000000
  0.054853  0.112292  0.000000      4.000000
  0.076795  0.112292  0.000000      4.000000
  0.010971  0.000000  0.023026      4.000000
  0.032912  0.000000  0.023026      4.000000
  0.054853  0.000000  0.023026      4.000000
  0.076795  0.000000  0.023026      4.000000
  0.010971  0.022458  0.023026      8.000000
  0.032912  0.022458  0.023026      8.000000
  0.054853  0.022458  0.023026      8.000000
  0.076795  0.022458  0.023026      8.000000
  0.010971  0.044917  0.023026      8.000000
  0.032912  0.044917  0.023026      8.000000
  0.054853  0.044917  0.023026      8.000000
  0.076795  0.044917  0.023026      8.000000
  0.010971  0.067375  0.023026      8.000000
  0.032912  0.067375  0.023026      8.000000
  0.054853  0.067375  0.023026      8.000000
  0.076795  0.067375  0.023026      8.000000
  0.010971  0.089833  0.023026      8.000000
  0.032912  0.089833  0.023026      8.000000
  0.054853  0.089833  0.023026      8.000000
  0.076795  0.089833  0.023026      8.000000
  0.010971  0.112292  0.023026      8.000000
  0.032912  0.112292  0.023026      8.000000
  0.054853  0.112292  0.023026      8.000000
  0.076795  0.112292  0.023026      8.000000
  0.010971  0.000000  0.046052      4.000000
  0.032912  0.000000  0.046052      4.000000
  0.054853  0.000000  0.046052      4.000000
  0.076795  0.000000  0.046052      4.000000
  0.010971  0.022458  0.046052      8.000000
  0.032912  0.022458  0.046052      8.000000
  0.054853  0.022458  0.046052      8.000000
  0.076795  0.022458  0.046052      8.000000
  0.010971  0.044917  0.046052      8.000000
  0.032912  0.044917  0.046052      8.000000
  0.054853  0.044917  0.046052      8.000000
  0.076795  0.044917  0.046052      8.000000
  0.010971  0.067375  0.046052      8.000000
  0.032912  0.067375  0.046052      8.000000
  0.054853  0.067375  0.046052      8.000000
  0.076795  0.067375  0.046052      8.000000
  0.010971  0.089833  0.046052      8.000000
  0.032912  0.089833  0.046052      8.000000
  0.054853  0.089833  0.046052      8.000000
  0.076795  0.089833  0.046052      8.000000
  0.010971  0.112292  0.046052      8.000000
  0.032912  0.112292  0.046052      8.000000
  0.054853  0.112292  0.046052      8.000000
  0.076795  0.112292  0.046052      8.000000
  0.010971  0.000000  0.069078      4.000000
  0.032912  0.000000  0.069078      4.000000
  0.054853  0.000000  0.069078      4.000000
  0.076795  0.000000  0.069078      4.000000
  0.010971  0.022458  0.069078      8.000000
  0.032912  0.022458  0.069078      8.000000
  0.054853  0.022458  0.069078      8.000000
  0.076795  0.022458  0.069078      8.000000
  0.010971  0.044917  0.069078      8.000000
  0.032912  0.044917  0.069078      8.000000
  0.054853  0.044917  0.069078      8.000000
  0.076795  0.044917  0.069078      8.000000
  0.010971  0.067375  0.069078      8.000000
  0.032912  0.067375  0.069078      8.000000
  0.054853  0.067375  0.069078      8.000000
  0.076795  0.067375  0.069078      8.000000
  0.010971  0.089833  0.069078      8.000000
  0.032912  0.089833  0.069078      8.000000
  0.054853  0.089833  0.069078      8.000000
  0.076795  0.089833  0.069078      8.000000
  0.010971  0.112292  0.069078      8.000000
  0.032912  0.112292  0.069078      8.000000
  0.054853  0.112292  0.069078      8.000000
  0.076795  0.112292  0.069078      8.000000
 


--------------------------------------------------------------------------------------------------------




 Dimension of arrays:
   k-points           NKPTS =     96   k-points in BZ     NKDIM =     96   number of bands    NBANDS=     48
   number of dos      NEDOS =    301   number of ions     NIONS =     14
   non local maximal  LDIM  =      4   non local SUM 2l+1 LMDIM =      8
   total plane-waves  NPLWV =  60480
   max r-space proj   IRMAX =      1   max aug-charges    IRDMAX=   6791
   dimension x,y,z NGX =    42 NGY =   30 NGZ =   48
   dimension x,y,z NGXF=    84 NGYF=   60 NGZF=   96
   support grid    NGXF=    84 NGYF=   60 NGZF=   96
   ions per type =              14
   NGX,Y,Z   is equivalent  to a cutoff of  12.26, 12.32, 12.86 a.u.
   NGXF,Y,Z  is equivalent  to a cutoff of  24.51, 24.64, 25.72 a.u.

 SYSTEM =  Kpoints                                 
 POSCAR =  o-B14

 Startparameter for this run:
   NWRITE =      2    write-flag & timer
   PREC   = accura    normal or accurate (medium, high low for compatibility)
   ISTART =      0    job   : 0-new  1-cont  2-samecut
   ICHARG =      2    charge: 1-file 2-atom 10-const
   ISPIN  =      1    spin polarized calculation?
   LNONCOLLINEAR =      F non collinear calculations
   LSORBIT =      F    spin-orbit coupling
   INIWAV =      1    electr: 0-lowe 1-rand  2-diag
   LASPH  =      F    aspherical Exc in radial PAW
 Electronic Relaxation 1
   ENCUT  =  480.0 eV  35.28 Ry    5.94 a.u.  10.18  7.23 11.08*2*pi/ulx,y,z
   ENINI  =  480.0     initial cutoff
   ENAUG  =  535.5 eV  augmentation charge cutoff
   NELM   =    100;   NELMIN=  2; NELMDL= -5     # of ELM steps 
   EDIFF  = 0.1E-05   stopping-criterion for ELM
   LREAL  =      F    real-space projection
   NLSPLINE    = F    spline interpolate recip. space projectors
   LCOMPAT=      F    compatible to vasp.4.4
   GGA_COMPAT  = T    GGA compatible to vasp.4.4-vasp.4.6
   LMAXPAW     = -100 max onsite density
   LMAXMIX     =    2 max onsite mixed and CHGCAR
   VOSKOWN=      0    Vosko Wilk Nusair interpolation
   ROPT   =    0.00000
 Ionic relaxation
   EDIFFG = -.1E-02   stopping-criterion for IOM
   NSW    =      0    number of steps for IOM
   NBLOCK =      1;   KBLOCK =      1    inner block; outer block 
   IBRION =     -1    ionic relax: 0-MD 1-quasi-New 2-CG
   NFREE  =      0    steps in history (QN), initial steepest desc. (CG)
   ISIF   =      2    stress and relaxation
   IWAVPR =     10    prediction:  0-non 1-charg 2-wave 3-comb
   ISYM   =      2    0-nonsym 1-usesym 2-fastsym
   LCORR  =      T    Harris-Foulkes like correction to forces

   POTIM  = 0.5000    time-step for ionic-motion
   TEIN   =    0.0    initial temperature
   TEBEG  =    0.0;   TEEND  =   0.0 temperature during run
   SMASS  =  -3.00    Nose mass-parameter (am)
   estimated Nose-frequenzy (Omega)   =  0.10E-29 period in steps = 0.13E+47 mass=  -0.742E-27a.u.
   SCALEE = 1.0000    scale energy and forces
   NPACO  =    256;   APACO  = 10.0  distance and # of slots for P.C.
   PSTRESS=    0.0 pullay stress

  Mass of Ions in am
   POMASS =  10.81
  Ionic Valenz
   ZVAL   =   3.00
  Atomic Wigner-Seitz radii
   RWIGS  =  -1.00
  virtual crystal weights 
   VCA    =   1.00
   NELECT =      42.0000    total number of electrons
   NUPDOWN=      -1.0000    fix difference up-down

 DOS related values:
   EMIN   =  10.00;   EMAX   =-10.00  energy-range for DOS
   EFERMI =   0.00;   METHOD = LEGACY      
   ISMEAR =     0;   SIGMA  =   0.05  broadening in eV -4-tet -1-fermi 0-gaus

 Electronic relaxation 2 (details)
   IALGO  =     38    algorithm
   LDIAG  =      T    sub-space diagonalisation (order eigenvalues)
   LSUBROT=      F    optimize rotation matrix (better conditioning)
   TURBO    =      0    0=normal 1=particle mesh
   IRESTART =      0    0=no restart 2=restart with 2 vectors
   NREBOOT  =      0    no. of reboots
   NMIN     =      0    reboot dimension
   EREF     =   0.00    reference energy to select bands
   IMIX   =      4    mixing-type and parameters
     AMIX     =   0.40;   BMIX     =  1.00
     AMIX_MAG =   1.60;   BMIX_MAG =  1.00
     AMIN     =   0.10
     WC   =   100.;   INIMIX=   1;  MIXPRE=   1;  MAXMIX= -45

 Intra band minimization:
   WEIMIN = 0.0000     energy-eigenvalue tresh-hold
   EBREAK =  0.52E-08  absolut break condition
   DEPER  =   0.30     relativ break condition  

   TIME   =   0.40     timestep for ELM

  volume/ion in A,a.u.               =      10.22        68.97
  Fermi-wavevector in a.u.,A,eV,Ry     =   1.088021  2.056062 16.106441  1.183790
  Thomas-Fermi vector in A             =   2.224193
 
 Write flags
   LWAVE        =      F    write WAVECAR
   LDOWNSAMPLE  =      F    k-point downsampling of WAVECAR
   LCHARG       =      F    write CHGCAR
   LVTOT        =      F    write LOCPOT, total local potential
   LVHAR        =      F    write LOCPOT, Hartree potential only
   WRT_POTENTIAL= false  ! write potential to hdf5 file
   LELF         =      F    write electronic localiz. function (ELF)
   LORBIT       =      0    0 simple, 1 ext, 2 COOP (PROOUT), +10 PAW based schemes


 Dipole corrections
   LMONO      =      F    monopole corrections only (constant potential shift)
   LDIPOL     =      F    correct potential (dipole corrections)
   IDIPOL     =      0    1-x, 2-y, 3-z, 4-all directions 
   EPSILON    =  1.0000000 bulk dielectric constant
   LVACPOTAV  =      F  vacuum potentials using an averaging scheme for the charge density
   VACPOTFLAT =  0.1000000 required flatness to determine vacuum potential
 Exchange correlation treatment:
   GGA     = PE    functional components
   XC_C    = 1    coefficients multiplying the functional components
   LIBXC   =     F    Libxc                    
   VOSKOWN =     0    Vosko Wilk Nusair interpolation
   LHFCALC =     F    Hartree Fock is set to
   LHFONE  =     F    Hartree Fock one center treatment
   AEXX    =    0.0000 exact exchange contribution

 Parameters of functionals:
   PE:
     No parameter
 
 Van der Waals corrections
   IVDW    =     0    specifies the selected vdW correction

 Linear response parameters
   LEPSILON=     F    determine dielectric tensor
   LRPA    =     F    only Hartree local field effects (RPA)
   LNABLA  =     F    use nabla operator in PAW spheres
   LVEL    =     F    velocity operator in full k-point grid
   CSHIFT  =0.1000    complex shift for real part using Kramers Kronig
   OMEGAMAX=  -1.0    maximum frequency
   DEG_THRESHOLD= 0.2000000E-02 threshold for treating states as degnerate
   RTIME   =   -0.100 relaxation time in fs
  (WPLASMAI=    0.000 imaginary part of plasma frequency in eV, 0.658/RTIME)
   DFIELD  = 0.0000000 0.0000000 0.0000000 field for delta impulse in time
 
  Optional k-point grid parameters
   LKPOINTS_OPT  =     F    use optional k-point grid
   KPOINTS_OPT_MODE=     1    mode for optional k-point grid
 
 Orbital magnetization related:
   ORBITALMAG=     F  switch on orbital magnetization
   LCHIMAG   =     F  perturbation theory with respect to B field
   DQ        =  0.001000  dq finite difference perturbation B field
   LLRAUG    =     F  two centre corrections for induced B field
   LBONE     =     F  B-component reconstruction in AE one-centre
   LVGVCALC  =     T  calculate vGv susceptibility
   LVGVAPPL  =     F  apply vGv susceptibility instead of pGv for G=0

 Random number generation:
   RANDOM_GENERATOR = DEFAULT
   PCG_SEED         = not used


--------------------------------------------------------------------------------------------------------


 Static calculation
 charge density and potential will be updated during run
 non-spin polarized calculation
 Variant of blocked Davidson
 Davidson routine will perform the subspace rotation
 perform sub-space diagonalisation
    after iterative eigenvector-optimisation
 modified Broyden-mixing scheme, WC =      100.0
 initial mixing is a Kerker type mixing with AMIX =  0.4000 and BMIX =      1.0000
 Hartree-type preconditioning will be used
 using additional bands           27
 reciprocal scheme for non local part
 use partial core corrections
 calculate Harris-corrections to forces 
   (improved forces if not selfconsistent)
 use gradient corrections 
 use of overlap-Matrix (Vanderbilt PP)
 Gauss-broadening in eV      SIGMA  =   0.05


--------------------------------------------------------------------------------------------------------


  energy-cutoff  :      480.00
  volume of cell :      143.07
      direct lattice vectors                 reciprocal lattice vectors
     5.697000000  0.000000000  0.000000000     0.175530981  0.000000000  0.000000000
     0.000000000  4.047900000  0.000000000     0.000000000  0.247041676  0.000000000
     0.000000000  0.000000000  6.204200000     0.000000000  0.000000000  0.161181135

  length of vectors
     5.697000000  4.047900000  6.204200000     0.175530981  0.247041676  0.161181135


 
 k-points in units of 2pi/SCALE and weight: k-points                                
   0.01097069  0.00000000  0.00000000       0.003
   0.03291206  0.00000000  0.00000000       0.003
   0.05485343  0.00000000  0.00000000       0.003
   0.07679480  0.00000000  0.00000000       0.003
   0.01097069  0.02245833  0.00000000       0.006
   0.03291206  0.02245833  0.00000000       0.006
   0.05485343  0.02245833  0.00000000       0.006
   0.07679480  0.02245833  0.00000000       0.006
   0.01097069  0.04491667  0.00000000       0.006
   0.03291206  0.04491667  0.00000000       0.006
   0.05485343  0.04491667  0.00000000       0.006
   0.07679480  0.04491667  0.00000000       0.006
   0.01097069  0.06737500  0.00000000       0.006
   0.03291206  0.06737500  0.00000000       0.006
   0.05485343  0.06737500  0.00000000       0.006
   0.07679480  0.06737500  0.00000000       0.006
   0.01097069  0.08983334  0.00000000       0.006
   0.03291206  0.08983334  0.00000000       0.006
   0.05485343  0.08983334  0.00000000       0.006
   0.07679480  0.08983334  0.00000000       0.006
   0.01097069  0.11229167  0.00000000       0.006
   0.03291206  0.11229167  0.00000000       0.006
   0.05485343  0.11229167  0.00000000       0.006
   0.07679480  0.11229167  0.00000000       0.006
   0.01097069  0.00000000  0.02302588       0.006
   0.03291206  0.00000000  0.02302588       0.006
   0.05485343  0.00000000  0.02302588       0.006
   0.07679480  0.00000000  0.02302588       0.006
   0.01097069  0.02245833  0.02302588       0.013
   0.03291206  0.02245833  0.02302588       0.013
   0.05485343  0.02245833  0.02302588       0.013
   0.07679480  0.02245833  0.02302588       0.013
   0.01097069  0.04491667  0.02302588       0.013
   0.03291206  0.04491667  0.02302588       0.013
   0.05485343  0.04491667  0.02302588       0.013
   0.07679480  0.04491667  0.02302588       0.013
   0.01097069  0.06737500  0.02302588       0.013
   0.03291206  0.06737500  0.02302588       0.013
   0.05485343  0.06737500  0.02302588       0.013
   0.07679480  0.06737500  0.02302588       0.013
   0.01097069  0.08983334  0.02302588       0.013
   0.03291206  0.08983334  0.02302588       0.013
   0.05485343  0.08983334  0.02302588       0.013
   0.07679480  0.08983334  0.02302588       0.013
   0.01097069  0.11229167  0.02302588       0.013
   0.03291206  0.11229167  0.02302588       0.013
   0.05485343  0.11229167  0.02302588       0.013
   0.07679480  0.11229167  0.02302588       0.013
   0.01097069  0.00000000  0.04605175       0.006
   0.03291206  0.00000000  0.04605175       0.006
   0.05485343  0.00000000  0.04605175       0.006
   0.07679480  0.00000000  0.04605175       0.006
   0.01097069  0.02245833  0.04605175       0.013
   0.03291206  0.02245833  0.04605175       0.013
   0.05485343  0.02245833  0.04605175       0.013
   0.07679480  0.02245833  0.04605175       0.013
   0.01097069  0.04491667  0.04605175       0.013
   0.03291206  0.04491667  0.04605175       0.013
   0.05485343  0.04491667  0.04605175       0.013
   0.07679480  0.04491667  0.04605175       0.013
   0.01097069  0.06737500  0.04605175       0.013
   0.03291206  0.06737500  0.04605175       0.013
   0.05485343  0.06737500  0.04605175       0.013
   0.07679480  0.06737500  0.04605175       0.013
   0.01097069  0.08983334  0.04605175       0.013
   0.03291206  0.08983334  0.04605175       0.013
   0.05485343  0.08983334  0.04605175       0.013
   0.07679480  0.08983334  0.04605175       0.013
   0.01097069  0.11229167  0.04605175       0.013
   0.03291206  0.11229167  0.04605175       0.013
   0.05485343  0.11229167  0.04605175       0.013
   0.07679480  0.11229167  0.04605175       0.013
   0.01097069  0.00000000  0.06907763       0.006
   0.03291206  0.00000000  0.06907763       0.006
   0.05485343  0.00000000  0.06907763       0.006
   0.07679480  0.00000000  0.06907763       0.006
   0.01097069  0.02245833  0.06907763       0.013
   0.03291206  0.02245833  0.06907763       0.013
   0.05485343  0.02245833  0.06907763       0.013
   0.07679480  0.02245833  0.06907763       0.013
   0.01097069  0.04491667  0.06907763       0.013
   0.03291206  0.04491667  0.06907763       0.013
   0.05485343  0.04491667  0.06907763       0.013
   0.07679480  0.04491667  0.06907763       0.013
   0.01097069  0.06737500  0.06907763       0.013
   0.03291206  0.06737500  0.06907763       0.013
   0.05485343  0.06737500  0.06907763       0.013
   0.07679480  0.06737500  0.06907763       0.013
   0.01097069  0.08983334  0.06907763       0.013
   0.03291206  0.08983334  0.06907763       0.013
   0.05485343  0.08983334  0.06907763       0.013
   0.07679480  0.08983334  0.06907763       0.013
   0.01097069  0.11229167  0.06907763       0.013
   0.03291206  0.11229167  0.06907763       0.013
   0.05485343  0.11229167  0.06907763       0.013
   0.07679480  0.11229167  0.06907763       0.013
 
 k-points in reciprocal lattice and weights: k-points                                
   0.06250000  0.00000000  0.00000000       0.003
   0.18750000  0.00000000  0.00000000       0.003
   0.31250000  0.00000000  0.00000000       0.003
   0.43750000  0.00000000  0.00000000       0.003
   0.06250000  0.09090909  0.00000000       0.006
   0.18750000  0.09090909  0.00000000       0.006
   0.31250000  0.09090909  0.00000000       0.006
   0.43750000  0.09090909  0.00000000       0.006
   0.06250000  0.18181818  0.00000000       0.006
   0.18750000  0.18181818  0.00000000       0.006
   0.31250000  0.18181818  0.00000000       0.006
   0.43750000  0.18181818  0.00000000       0.006
   0.06250000  0.27272727  0.00000000       0.006
   0.18750000  0.27272727  0.00000000       0.006
   0.31250000  0.27272727  0.00000000       0.006
   0.43750000  0.27272727  0.00000000       0.006
   0.06250000  0.36363636  0.00000000       0.006
   0.18750000  0.36363636  0.00000000       0.006
   0.31250000  0.36363636  0.00000000       0.006
   0.43750000  0.36363636  0.00000000       0.006
   0.06250000  0.45454545  0.00000000       0.006
   0.18750000  0.45454545  0.00000000       0.006
   0.31250000  0.45454545  0.00000000       0.006
   0.43750000  0.45454545  0.00000000       0.006
   0.06250000  0.00000000  0.14285714       0.006
   0.18750000  0.00000000  0.14285714       0.006
   0.31250000  0.00000000  0.14285714       0.006
   0.43750000  0.00000000  0.14285714       0.006
   0.06250000  0.09090909  0.14285714       0.013
   0.18750000  0.09090909  0.14285714       0.013
   0.31250000  0.09090909  0.14285714       0.013
   0.43750000  0.09090909  0.14285714       0.013
   0.06250000  0.18181818  0.14285714       0.013
   0.18750000  0.18181818  0.14285714       0.013
   0.31250000  0.18181818  0.14285714       0.013
   0.43750000  0.18181818  0.14285714       0.013
   0.06250000  0.27272727  0.14285714       0.013
   0.18750000  0.27272727  0.14285714       0.013
   0.31250000  0.27272727  0.14285714       0.013
   0.43750000  0.27272727  0.14285714       0.013
   0.06250000  0.36363636  0.14285714       0.013
   0.18750000  0.36363636  0.14285714       0.013
   0.31250000  0.36363636  0.14285714       0.013
   0.43750000  0.36363636  0.14285714       0.013
   0.06250000  0.45454545  0.14285714       0.013
   0.18750000  0.45454545  0.14285714       0.013
   0.31250000  0.45454545  0.14285714       0.013
   0.43750000  0.45454545  0.14285714       0.013
   0.06250000  0.00000000  0.28571429       0.006
   0.18750000  0.00000000  0.28571429       0.006
   0.31250000  0.00000000  0.28571429       0.006
   0.43750000  0.00000000  0.28571429       0.006
   0.06250000  0.09090909  0.28571429       0.013
   0.18750000  0.09090909  0.28571429       0.013
   0.31250000  0.09090909  0.28571429       0.013
   0.43750000  0.09090909  0.28571429       0.013
   0.06250000  0.18181818  0.28571429       0.013
   0.18750000  0.18181818  0.28571429       0.013
   0.31250000  0.18181818  0.28571429       0.013
   0.43750000  0.18181818  0.28571429       0.013
   0.06250000  0.27272727  0.28571429       0.013
   0.18750000  0.27272727  0.28571429       0.013
   0.31250000  0.27272727  0.28571429       0.013
   0.43750000  0.27272727  0.28571429       0.013
   0.06250000  0.36363636  0.28571429       0.013
   0.18750000  0.36363636  0.28571429       0.013
   0.31250000  0.36363636  0.28571429       0.013
   0.43750000  0.36363636  0.28571429       0.013
   0.06250000  0.45454545  0.28571429       0.013
   0.18750000  0.45454545  0.28571429       0.013
   0.31250000  0.45454545  0.28571429       0.013
   0.43750000  0.45454545  0.28571429       0.013
   0.06250000  0.00000000  0.42857143       0.006
   0.18750000  0.00000000  0.42857143       0.006
   0.31250000  0.00000000  0.42857143       0.006
   0.43750000  0.00000000  0.42857143       0.006
   0.06250000  0.09090909  0.42857143       0.013
   0.18750000  0.09090909  0.42857143       0.013
   0.31250000  0.09090909  0.42857143       0.013
   0.43750000  0.09090909  0.42857143       0.013
   0.06250000  0.18181818  0.42857143       0.013
   0.18750000  0.18181818  0.42857143       0.013
   0.31250000  0.18181818  0.42857143       0.013
   0.43750000  0.18181818  0.42857143       0.013
   0.06250000  0.27272727  0.42857143       0.013
   0.18750000  0.27272727  0.42857143       0.013
   0.31250000  0.27272727  0.42857143       0.013
   0.43750000  0.27272727  0.42857143       0.013
   0.06250000  0.36363636  0.42857143       0.013
   0.18750000  0.36363636  0.42857143       0.013
   0.31250000  0.36363636  0.42857143       0.013
   0.43750000  0.36363636  0.42857143       0.013
   0.06250000  0.45454545  0.42857143       0.013
   0.18750000  0.45454545  0.42857143       0.013
   0.31250000  0.45454545  0.42857143       0.013
   0.43750000  0.45454545  0.42857143       0.013
 
 position of ions in fractional coordinates (direct lattice) 
   0.52123000  0.50000000  0.63796000
   0.47877000  0.50000000  0.36204000
   0.97877000  0.50000000  0.63796000
   0.02123000  0.50000000  0.36204000
   0.60090000  0.50000000  0.89991000
   0.39910000  0.50000000  0.10009000
   0.89910000  0.50000000  0.89991000
   0.10090000  0.50000000  0.10009000
   0.75000000  0.79171000  0.72973000
   0.25000000  0.20829000  0.27027000
   0.75000000  0.20829000  0.72973000
   0.25000000  0.79171000  0.27027000
   0.25000000  0.50000000  0.52367000
   0.75000000  0.50000000  0.47633000
 
 position of ions in cartesian coordinates  (Angst):
   2.96944731  2.02395000  3.95803143
   2.72755269  2.02395000  2.24616857
   5.57605269  2.02395000  3.95803143
   0.12094731  2.02395000  2.24616857
   3.42332730  2.02395000  5.58322162
   2.27367270  2.02395000  0.62097838
   5.12217270  2.02395000  5.58322162
   0.57482730  2.02395000  0.62097838
   4.27275000  3.20476291  4.52739087
   1.42425000  0.84313709  1.67680913
   4.27275000  0.84313709  4.52739087
   1.42425000  3.20476291  1.67680913
   1.42425000  2.02395000  3.24895341
   4.27275000  2.02395000  2.95524659
 


--------------------------------------------------------------------------------------------------------


 k-point     1 :   0.0625 0.0000 0.0000  plane waves:    3427
 k-point     2 :   0.1875 0.0000 0.0000  plane waves:    3418
 k-point     3 :   0.3125 0.0000 0.0000  plane waves:    3414
 k-point     4 :   0.4375 0.0000 0.0000  plane waves:    3396
 k-point     5 :   0.0625 0.0909 0.0000  plane waves:    3416
 k-point     6 :   0.1875 0.0909 0.0000  plane waves:    3406
 k-point     7 :   0.3125 0.0909 0.0000  plane waves:    3413
 k-point     8 :   0.4375 0.0909 0.0000  plane waves:    3403
 k-point     9 :   0.0625 0.1818 0.0000  plane waves:    3405
 k-point    10 :   0.1875 0.1818 0.0000  plane waves:    3415
 k-point    11 :   0.3125 0.1818 0.0000  plane waves:    3416
 k-point    12 :   0.4375 0.1818 0.0000  plane waves:    3408
 k-point    13 :   0.0625 0.2727 0.0000  plane waves:    3400
 k-point    14 :   0.1875 0.2727 0.0000  plane waves:    3409
 k-point    15 :   0.3125 0.2727 0.0000  plane waves:    3406
 k-point    16 :   0.4375 0.2727 0.0000  plane waves:    3414
 k-point    17 :   0.0625 0.3636 0.0000  plane waves:    3403
 k-point    18 :   0.1875 0.3636 0.0000  plane waves:    3419
 k-point    19 :   0.3125 0.3636 0.0000  plane waves:    3417
 k-point    20 :   0.4375 0.3636 0.0000  plane waves:    3431
 k-point    21 :   0.0625 0.4545 0.0000  plane waves:    3402
 k-point    22 :   0.1875 0.4545 0.0000  plane waves:    3412
 k-point    23 :   0.3125 0.4545 0.0000  plane waves:    3424
 k-point    24 :   0.4375 0.4545 0.0000  plane waves:    3430
 k-point    25 :   0.0625 0.0000 0.1429  plane waves:    3411
 k-point    26 :   0.1875 0.0000 0.1429  plane waves:    3412
 k-point    27 :   0.3125 0.0000 0.1429  plane waves:    3419
 k-point    28 :   0.4375 0.0000 0.1429  plane waves:    3411
 k-point    29 :   0.0625 0.0909 0.1429  plane waves:    3413
 k-point    30 :   0.1875 0.0909 0.1429  plane waves:    3411
 k-point    31 :   0.3125 0.0909 0.1429  plane waves:    3411
 k-point    32 :   0.4375 0.0909 0.1429  plane waves:    3416
 k-point    33 :   0.0625 0.1818 0.1429  plane waves:    3416
 k-point    34 :   0.1875 0.1818 0.1429  plane waves:    3409
 k-point    35 :   0.3125 0.1818 0.1429  plane waves:    3412
 k-point    36 :   0.4375 0.1818 0.1429  plane waves:    3415
 k-point    37 :   0.0625 0.2727 0.1429  plane waves:    3415
 k-point    38 :   0.1875 0.2727 0.1429  plane waves:    3410
 k-point    39 :   0.3125 0.2727 0.1429  plane waves:    3413
 k-point    40 :   0.4375 0.2727 0.1429  plane waves:    3419
 k-point    41 :   0.0625 0.3636 0.1429  plane waves:    3408
 k-point    42 :   0.1875 0.3636 0.1429  plane waves:    3407
 k-point    43 :   0.3125 0.3636 0.1429  plane waves:    3419
 k-point    44 :   0.4375 0.3636 0.1429  plane waves:    3423
 k-point    45 :   0.0625 0.4545 0.1429  plane waves:    3407
 k-point    46 :   0.1875 0.4545 0.1429  plane waves:    3409
 k-point    47 :   0.3125 0.4545 0.1429  plane waves:    3422
 k-point    48 :   0.4375 0.4545 0.1429  plane waves:    3427
 k-point    49 :   0.0625 0.0000 0.2857  plane waves:    3425
 k-point    50 :   0.1875 0.0000 0.2857  plane waves:    3411
 k-point    51 :   0.3125 0.0000 0.2857  plane waves:    3404
 k-point    52 :   0.4375 0.0000 0.2857  plane waves:    3421
 k-point    53 :   0.0625 0.0909 0.2857  plane waves:    3421
 k-point    54 :   0.1875 0.0909 0.2857  plane waves:    3415
 k-point    55 :   0.3125 0.0909 0.2857  plane waves:    3418
 k-point    56 :   0.4375 0.0909 0.2857  plane waves:    3416
 k-point    57 :   0.0625 0.1818 0.2857  plane waves:    3417
 k-point    58 :   0.1875 0.1818 0.2857  plane waves:    3412
 k-point    59 :   0.3125 0.1818 0.2857  plane waves:    3407
 k-point    60 :   0.4375 0.1818 0.2857  plane waves:    3413
 k-point    61 :   0.0625 0.2727 0.2857  plane waves:    3414
 k-point    62 :   0.1875 0.2727 0.2857  plane waves:    3413
 k-point    63 :   0.3125 0.2727 0.2857  plane waves:    3415
 k-point    64 :   0.4375 0.2727 0.2857  plane waves:    3426
 k-point    65 :   0.0625 0.3636 0.2857  plane waves:    3408
 k-point    66 :   0.1875 0.3636 0.2857  plane waves:    3415
 k-point    67 :   0.3125 0.3636 0.2857  plane waves:    3427
 k-point    68 :   0.4375 0.3636 0.2857  plane waves:    3429
 k-point    69 :   0.0625 0.4545 0.2857  plane waves:    3415
 k-point    70 :   0.1875 0.4545 0.2857  plane waves:    3422
 k-point    71 :   0.3125 0.4545 0.2857  plane waves:    3428
 k-point    72 :   0.4375 0.4545 0.2857  plane waves:    3419
 k-point    73 :   0.0625 0.0000 0.4286  plane waves:    3443
 k-point    74 :   0.1875 0.0000 0.4286  plane waves:    3427
 k-point    75 :   0.3125 0.0000 0.4286  plane waves:    3419
 k-point    76 :   0.4375 0.0000 0.4286  plane waves:    3413
 k-point    77 :   0.0625 0.0909 0.4286  plane waves:    3428
 k-point    78 :   0.1875 0.0909 0.4286  plane waves:    3424
 k-point    79 :   0.3125 0.0909 0.4286  plane waves:    3420
 k-point    80 :   0.4375 0.0909 0.4286  plane waves:    3414
 k-point    81 :   0.0625 0.1818 0.4286  plane waves:    3428
 k-point    82 :   0.1875 0.1818 0.4286  plane waves:    3420
 k-point    83 :   0.3125 0.1818 0.4286  plane waves:    3413
 k-point    84 :   0.4375 0.1818 0.4286  plane waves:    3415
 k-point    85 :   0.0625 0.2727 0.4286  plane waves:    3411
 k-point    86 :   0.1875 0.2727 0.4286  plane waves:    3413
 k-point    87 :   0.3125 0.2727 0.4286  plane waves:    3426
 k-point    88 :   0.4375 0.2727 0.4286  plane waves:    3421
 k-point    89 :   0.0625 0.3636 0.4286  plane waves:    3411
 k-point    90 :   0.1875 0.3636 0.4286  plane waves:    3414
 k-point    91 :   0.3125 0.3636 0.4286  plane waves:    3421
 k-point    92 :   0.4375 0.3636 0.4286  plane waves:    3415
 k-point    93 :   0.0625 0.4545 0.4286  plane waves:    3424
 k-point    94 :   0.1875 0.4545 0.4286  plane waves:    3429
 k-point    95 :   0.3125 0.4545 0.4286  plane waves:    3412
 k-point    96 :   0.4375 0.4545 0.4286  plane waves:    3420

 maximum and minimum number of plane-waves per node :      3443     3396

 maximum number of plane-waves:      3443
 maximum index in each direction: 
   IXMAX=   10   IYMAX=    7   IZMAX=   11
   IXMIN=  -10   IYMIN=   -7   IZMIN=  -11


 serial   3D FFT for wavefunctions
 parallel 3D FFT for charge:
    minimum data exchange during FFTs selected (reduces bandwidth)


 total amount of memory used by VASP MPI-rank0    67614. kBytes
=======================================================================

   base      :      30000. kBytes
   nonl-proj :      22007. kBytes
   fftplans  :       1019. kBytes
   grid      :       3560. kBytes
   one-center:         43. kBytes
   wavefun   :      10985. kBytes
 
     INWAV:  cpu time      0.0000: real time      0.0001
 Broyden mixing: mesh for mixing (old mesh)
   NGX = 21   NGY = 15   NGZ = 23
  (NGX  = 84   NGY  = 60   NGZ  = 96)
  gives a total of   7245 points

 initial charge density was supplied:
 charge density of overlapping atoms calculated
 number of electron      42.0000000 magnetization 
 keeping initial charge density in first step


--------------------------------------------------------------------------------------------------------


 Maximum index for augmentation-charges          566 (set IRDMAX)


--------------------------------------------------------------------------------------------------------


 First call to EWALD:  gamma=   0.339
 Maximum number of real-space cells 3x 3x 2
 Maximum number of reciprocal cells 3x 2x 3

    FEWALD:  cpu time      0.0027: real time      0.0029


--------------------------------------- Ionic step        1  -------------------------------------------




--------------------------------------- Iteration      1(   1)  ---------------------------------------


    POTLOK:  cpu time      0.0192: real time      0.0216
    SETDIJ:  cpu time      0.0018: real time      0.0021
     EDDAV:  cpu time      2.7643: real time      2.8619
       DOS:  cpu time      0.0014: real time      0.0014
    --------------------------------------------
      LOOP:  cpu time      2.7868: real time      2.8869

 eigenvalue-minimisations  :  9216
 total energy-change (2. order) : 0.5319008E+02  (-0.1762174E+04)
 number of electron      42.0000000 magnetization 
 augmentation part       42.0000000 magnetization 

 Free energy of the ion-electron system (eV)
  ---------------------------------------------------
  alpha Z        PSCENC =        94.24357992
  Ewald energy   TEWEN  =      -795.76658092
  -Hartree energ DENC   =      -271.33601302
  -exchange      EXHF   =         0.00000000
  -V(xc)+E(xc)   XCENC  =        97.50108136
  PAW double counting   =       608.99811708     -597.02363782
  entropy T*S    EENTRO =        -0.00171649
  eigenvalues    EBANDS =       -79.79088468
  atomic energy  EATOM  =       996.36613177
  Solvation  Ediel_sol  =         0.00000000
  ---------------------------------------------------
  free energy    TOTEN  =        53.19007720 eV

  energy without entropy =       53.19179369  energy(sigma->0) =       53.19093545


--------------------------------------------------------------------------------------------------------




--------------------------------------- Iteration      1(   2)  ---------------------------------------


     EDDAV:  cpu time      3.5021: real time      3.5268
       DOS:  cpu time      0.0007: real time      0.0007
    --------------------------------------------
      LOOP:  cpu time      3.5028: real time      3.5275

 eigenvalue-minimisations  : 12744
 total energy-change (2. order) :-0.1461156E+03  (-0.1376232E+03)
 number of electron      42.0000000 magnetization 
 augmentation part       42.0000000 magnetization 

 Free energy of the ion-electron system (eV)
  ---------------------------------------------------
  alpha Z        PSCENC =        94.24357992
  Ewald energy   TEWEN  =      -795.76658092
  -Hartree energ DENC   =      -271.33601302
  -exchange      EXHF   =         0.00000000
  -V(xc)+E(xc)   XCENC  =        97.50108136
  PAW double counting   =       608.99811708     -597.02363782
  entropy T*S    EENTRO =        -0.00585513
  eigenvalues    EBANDS =      -225.90236449
  atomic energy  EATOM  =       996.36613177
  Solvation  Ediel_sol  =         0.00000000
  ---------------------------------------------------
  free energy    TOTEN  =       -92.92554125 eV

  energy without entropy =      -92.91968612  energy(sigma->0) =      -92.92261369


--------------------------------------------------------------------------------------------------------




--------------------------------------- Iteration      1(   3)  ---------------------------------------


     EDDAV:  cpu time      3.9677: real time      3.9912
       DOS:  cpu time      0.0011: real time      0.0025
    --------------------------------------------
      LOOP:  cpu time      3.9688: real time      3.9937

 eigenvalue-minimisations  : 13512
 total energy-change (2. order) :-0.4644146E+01  (-0.4621029E+01)
 number of electron      42.0000000 magnetization 
 augmentation part       42.0000000 magnetization 

 Free energy of the ion-electron system (eV)
  ---------------------------------------------------
  alpha Z        PSCENC =        94.24357992
  Ewald energy   TEWEN  =      -795.76658092
  -Hartree energ DENC   =      -271.33601302
  -exchange      EXHF   =         0.00000000
  -V(xc)+E(xc)   XCENC  =        97.50108136
  PAW double counting   =       608.99811708     -597.02363782
  entropy T*S    EENTRO =        -0.00783698
  eigenvalues    EBANDS =      -230.54452890
  atomic energy  EATOM  =       996.36613177
  Solvation  Ediel_sol  =         0.00000000
  ---------------------------------------------------
  free energy    TOTEN  =       -97.56968751 eV

  energy without entropy =      -97.56185053  energy(sigma->0) =      -97.56576902


--------------------------------------------------------------------------------------------------------




--------------------------------------- Iteration      1(   4)  ---------------------------------------


     EDDAV:  cpu time      3.2081: real time      3.2295
       DOS:  cpu time      0.0009: real time      0.0009
    --------------------------------------------
      LOOP:  cpu time      3.2090: real time      3.2304

 eigenvalue-minimisations  : 11376
 total energy-change (2. order) :-0.2691539E-01  (-0.2691373E-01)
 number of electron      42.0000000 magnetization 
 augmentation part       42.0000000 magnetization 

 Free energy of the ion-electron system (eV)
  ---------------------------------------------------
  alpha Z        PSCENC =        94.24357992
  Ewald energy   TEWEN  =      -795.76658092
  -Hartree energ DENC   =      -271.33601302
  -exchange      EXHF   =         0.00000000
  -V(xc)+E(xc)   XCENC  =        97.50108136
  PAW double counting   =       608.99811708     -597.02363782
  entropy T*S    EENTRO =        -0.00783188
  eigenvalues    EBANDS =      -230.57144939
  atomic energy  EATOM  =       996.36613177
  Solvation  Ediel_sol  =         0.00000000
  ---------------------------------------------------
  free energy    TOTEN  =       -97.59660290 eV

  energy without entropy =      -97.58877102  energy(sigma->0) =      -97.59268696


--------------------------------------------------------------------------------------------------------




--------------------------------------- Iteration      1(   5)  ---------------------------------------


     EDDAV:  cpu time      3.7276: real time      3.7457
       DOS:  cpu time      0.0008: real time      0.0008
    CHARGE:  cpu time      0.0527: real time      0.0553
    MIXING:  cpu time      0.0016: real time      0.0016
    --------------------------------------------
      LOOP:  cpu time      3.7827: real time      3.8033

 eigenvalue-minimisations  : 13344
 total energy-change (2. order) :-0.3062286E-03  (-0.3062227E-03)
 number of electron      41.9999999 magnetization 
 augmentation part       -0.1243175 magnetization 

 Broyden mixing:
  rms(total) = 0.12313E+01    rms(broyden)= 0.12313E+01
  rms(prec ) = 0.22644E+01
  weight for this iteration     100.00

 Free energy of the ion-electron system (eV)
  ---------------------------------------------------
  alpha Z        PSCENC =        94.24357992
  Ewald energy   TEWEN  =      -795.76658092
  -Hartree energ DENC   =      -271.33601302
  -exchange      EXHF   =         0.00000000
  -V(xc)+E(xc)   XCENC  =        97.50108136
  PAW double counting   =       608.99811708     -597.02363782
  entropy T*S    EENTRO =        -0.00783178
  eigenvalues    EBANDS =      -230.57175572
  atomic energy  EATOM  =       996.36613177
  Solvation  Ediel_sol  =         0.00000000
  ---------------------------------------------------
  free energy    TOTEN  =       -97.59690913 eV

  energy without entropy =      -97.58907735  energy(sigma->0) =      -97.59299324


--------------------------------------------------------------------------------------------------------




--------------------------------------- Iteration      1(   6)  ---------------------------------------


    POTLOK:  cpu time      0.0101: real time      0.0110
    SETDIJ:  cpu time      0.0014: real time      0.0014
     EDDAV:  cpu time      3.7070: real time      3.7310
       DOS:  cpu time      0.0007: real time      0.0007
    CHARGE:  cpu time      0.0507: real time      0.0561
    MIXING:  cpu time      0.0008: real time      0.0010
    --------------------------------------------
      LOOP:  cpu time      3.7708: real time      3.8012

 eigenvalue-minimisations  : 13344
 total energy-change (2. order) : 0.5405297E+01  (-0.3963749E+00)
 number of electron      41.9999999 magnetization 
 augmentation part       -0.1501992 magnetization 

 Broyden mixing:
  rms(total) = 0.67869E+00    rms(broyden)= 0.67869E+00
  rms(prec ) = 0.11660E+01
  weight for this iteration     100.00

 eigenvalues of (default mixing * dielectric matrix)
  average eigenvalue GAMMA=   2.0726
  2.0726

 Free energy of the ion-electron system (eV)
  ---------------------------------------------------
  alpha Z        PSCENC =        94.24357992
  Ewald energy   TEWEN  =      -795.76658092
  -Hartree energ DENC   =      -306.18047478
  -exchange      EXHF   =         0.00000000
  -V(xc)+E(xc)   XCENC  =        99.13499530
  PAW double counting   =      1502.54300827    -1491.19284310
  entropy T*S    EENTRO =        -0.00502797
  eigenvalues    EBANDS =      -191.33440079
  atomic energy  EATOM  =       996.36613177
  Solvation  Ediel_sol  =         0.00000000
  ---------------------------------------------------
  free energy    TOTEN  =       -92.19161230 eV

  energy without entropy =      -92.18658433  energy(sigma->0) =      -92.18909832


--------------------------------------------------------------------------------------------------------




--------------------------------------- Iteration      1(   7)  ---------------------------------------


    POTLOK:  cpu time      0.0096: real time      0.0111
    SETDIJ:  cpu time      0.0011: real time      0.0012
     EDDAV:  cpu time      3.8961: real time      3.9224
       DOS:  cpu time      0.0011: real time      0.0022
    CHARGE:  cpu time      0.0522: real time      0.0532
    MIXING:  cpu time      0.0008: real time      0.0008
    --------------------------------------------
      LOOP:  cpu time      3.9610: real time      3.9910

 eigenvalue-minimisations  : 13800
 total energy-change (2. order) : 0.1651516E+01  (-0.3240246E+00)
 number of electron      41.9999999 magnetization 
 augmentation part       -0.1695488 magnetization 

 Broyden mixing:
  rms(total) = 0.17299E+00    rms(broyden)= 0.17299E+00
  rms(prec ) = 0.25578E+00
  weight for this iteration     100.00

 eigenvalues of (default mixing * dielectric matrix)
  average eigenvalue GAMMA=   1.7736
  1.3295  2.2177

 Free energy of the ion-electron system (eV)
  ---------------------------------------------------
  alpha Z        PSCENC =        94.24357992
  Ewald energy   TEWEN  =      -795.76658092
  -Hartree energ DENC   =      -342.73266844
  -exchange      EXHF   =         0.00000000
  -V(xc)+E(xc)   XCENC  =       101.07541398
  PAW double counting   =      3067.24166143    -3056.44832088
  entropy T*S    EENTRO =        -0.00466234
  eigenvalues    EBANDS =      -154.51465079
  atomic energy  EATOM  =       996.36613177
  Solvation  Ediel_sol  =         0.00000000
  ---------------------------------------------------
  free energy    TOTEN  =       -90.54009627 eV

  energy without entropy =      -90.53543393  energy(sigma->0) =      -90.53776510


--------------------------------------------------------------------------------------------------------




--------------------------------------- Iteration      1(   8)  ---------------------------------------


    POTLOK:  cpu time      0.0100: real time      0.0109
    SETDIJ:  cpu time      0.0011: real time      0.0011
     EDDAV:  cpu time      2.8783: real time      2.8976
       DOS:  cpu time      0.0008: real time      0.0008
    CHARGE:  cpu time      0.0503: real time      0.0513
    MIXING:  cpu time      0.0007: real time      0.0016
    --------------------------------------------
      LOOP:  cpu time      2.9412: real time      2.9633

 eigenvalue-minimisations  : 10320
 total energy-change (2. order) :-0.6662613E-02  (-0.2266289E-01)
 number of electron      41.9999999 magnetization 
 augmentation part       -0.1754269 magnetization 

 Broyden mixing:
  rms(total) = 0.83967E-01    rms(broyden)= 0.83966E-01
  rms(prec ) = 0.12443E+00
  weight for this iteration     100.00

 eigenvalues of (default mixing * dielectric matrix)
  average eigenvalue GAMMA=   1.6955
  0.8889  2.3765  1.8212

 Free energy of the ion-electron system (eV)
  ---------------------------------------------------
  alpha Z        PSCENC =        94.24357992
  Ewald energy   TEWEN  =      -795.76658092
  -Hartree energ DENC   =      -346.05431347
  -exchange      EXHF   =         0.00000000
  -V(xc)+E(xc)   XCENC  =       101.33981129
  PAW double counting   =      3441.74370883    -3430.97025002
  entropy T*S    EENTRO =        -0.00474300
  eigenvalues    EBANDS =      -151.44410328
  atomic energy  EATOM  =       996.36613177
  Solvation  Ediel_sol  =         0.00000000
  ---------------------------------------------------
  free energy    TOTEN  =       -90.54675888 eV

  energy without entropy =      -90.54201588  energy(sigma->0) =      -90.54438738


--------------------------------------------------------------------------------------------------------




--------------------------------------- Iteration      1(   9)  ---------------------------------------


    POTLOK:  cpu time      0.0095: real time      0.0112
    SETDIJ:  cpu time      0.0012: real time      0.0012
     EDDAV:  cpu time      3.6951: real time      3.7157
       DOS:  cpu time      0.0008: real time      0.0025
    CHARGE:  cpu time      0.0500: real time      0.0503
    MIXING:  cpu time      0.0007: real time      0.0007
    --------------------------------------------
      LOOP:  cpu time      3.7573: real time      3.7815

 eigenvalue-minimisations  : 13056
 total energy-change (2. order) :-0.1496441E-01  (-0.2205122E-02)
 number of electron      41.9999999 magnetization 
 augmentation part       -0.1751546 magnetization 

 Broyden mixing:
  rms(total) = 0.23001E-01    rms(broyden)= 0.23000E-01
  rms(prec ) = 0.41107E-01
  weight for this iteration     100.00

 eigenvalues of (default mixing * dielectric matrix)
  average eigenvalue GAMMA=   1.6421
  2.4104  1.9597  0.9433  1.2551

 Free energy of the ion-electron system (eV)
  ---------------------------------------------------
  alpha Z        PSCENC =        94.24357992
  Ewald energy   TEWEN  =      -795.76658092
  -Hartree energ DENC   =      -348.00778375
  -exchange      EXHF   =         0.00000000
  -V(xc)+E(xc)   XCENC  =       101.51567174
  PAW double counting   =      3700.18076347    -3689.39435255
  entropy T*S    EENTRO =        -0.00483873
  eigenvalues    EBANDS =      -149.69431424
  atomic energy  EATOM  =       996.36613177
  Solvation  Ediel_sol  =         0.00000000
  ---------------------------------------------------
  free energy    TOTEN  =       -90.56172329 eV

  energy without entropy =      -90.55688457  energy(sigma->0) =      -90.55930393


--------------------------------------------------------------------------------------------------------




--------------------------------------- Iteration      1(  10)  ---------------------------------------


    POTLOK:  cpu time      0.0096: real time      0.0107
    SETDIJ:  cpu time      0.0011: real time      0.0011
     EDDAV:  cpu time      2.9987: real time      3.0134
       DOS:  cpu time      0.0017: real time      0.0040
    CHARGE:  cpu time      0.0493: real time      0.0498
    MIXING:  cpu time      0.0007: real time      0.0007
    --------------------------------------------
      LOOP:  cpu time      3.0610: real time      3.0797

 eigenvalue-minimisations  : 10248
 total energy-change (2. order) :-0.4897789E-02  (-0.3646943E-03)
 number of electron      41.9999999 magnetization 
 augmentation part       -0.1746166 magnetization 

 Broyden mixing:
  rms(total) = 0.83958E-02    rms(broyden)= 0.83958E-02
  rms(prec ) = 0.15988E-01
  weight for this iteration     100.00

 eigenvalues of (default mixing * dielectric matrix)
  average eigenvalue GAMMA=   1.6772
  2.4503  2.4503  1.0104  1.0104  1.4648

 Free energy of the ion-electron system (eV)
  ---------------------------------------------------
  alpha Z        PSCENC =        94.24357992
  Ewald energy   TEWEN  =      -795.76658092
  -Hartree energ DENC   =      -348.73427849
  -exchange      EXHF   =         0.00000000
  -V(xc)+E(xc)   XCENC  =       101.56330130
  PAW double counting   =      3733.93610091    -3723.13675339
  entropy T*S    EENTRO =        -0.00484094
  eigenvalues    EBANDS =      -149.03328125
  atomic energy  EATOM  =       996.36613177
  Solvation  Ediel_sol  =         0.00000000
  ---------------------------------------------------
  free energy    TOTEN  =       -90.56662108 eV

  energy without entropy =      -90.56178015  energy(sigma->0) =      -90.56420061


--------------------------------------------------------------------------------------------------------




--------------------------------------- Iteration      1(  11)  ---------------------------------------


    POTLOK:  cpu time      0.0094: real time      0.0106
    SETDIJ:  cpu time      0.0012: real time      0.0011
     EDDAV:  cpu time      3.2845: real time      3.3038
       DOS:  cpu time      0.0008: real time      0.0008
    CHARGE:  cpu time      0.0495: real time      0.0500
    MIXING:  cpu time      0.0007: real time      0.0007
    --------------------------------------------
      LOOP:  cpu time      3.3461: real time      3.3671

 eigenvalue-minimisations  : 11736
 total energy-change (2. order) :-0.1519910E-02  (-0.8935445E-04)
 number of electron      41.9999999 magnetization 
 augmentation part       -0.1744837 magnetization 

 Broyden mixing:
  rms(total) = 0.35506E-02    rms(broyden)= 0.35506E-02
  rms(prec ) = 0.50886E-02
  weight for this iteration     100.00

 eigenvalues of (default mixing * dielectric matrix)
  average eigenvalue GAMMA=   1.7389
  2.7194  2.4881  1.6532  1.6532  0.9597  0.9597

 Free energy of the ion-electron system (eV)
  ---------------------------------------------------
  alpha Z        PSCENC =        94.24357992
  Ewald energy   TEWEN  =      -795.76658092
  -Hartree energ DENC   =      -349.02363125
  -exchange      EXHF   =         0.00000000
  -V(xc)+E(xc)   XCENC  =       101.58535584
  PAW double counting   =      3735.75285522    -3724.94470908
  entropy T*S    EENTRO =        -0.00482414
  eigenvalues    EBANDS =      -148.77631837
  atomic energy  EATOM  =       996.36613177
  Solvation  Ediel_sol  =         0.00000000
  ---------------------------------------------------
  free energy    TOTEN  =       -90.56814099 eV

  energy without entropy =      -90.56331686  energy(sigma->0) =      -90.56572892


--------------------------------------------------------------------------------------------------------




--------------------------------------- Iteration      1(  12)  ---------------------------------------


    POTLOK:  cpu time      0.0096: real time      0.0105
    SETDIJ:  cpu time      0.0011: real time      0.0011
     EDDAV:  cpu time      3.4123: real time      3.4278
       DOS:  cpu time      0.0008: real time      0.0008
    CHARGE:  cpu time      0.0496: real time      0.0496
    MIXING:  cpu time      0.0007: real time      0.0007
    --------------------------------------------
      LOOP:  cpu time      3.4741: real time      3.4906

 eigenvalue-minimisations  : 12312
 total energy-change (2. order) :-0.1101751E-03  (-0.6778220E-05)
 number of electron      41.9999999 magnetization 
 augmentation part       -0.1745046 magnetization 

 Broyden mixing:
  rms(total) = 0.10099E-02    rms(broyden)= 0.10099E-02
  rms(prec ) = 0.17871E-02
  weight for this iteration     100.00

 eigenvalues of (default mixing * dielectric matrix)
  average eigenvalue GAMMA=   1.7644
  3.2249  2.5131  1.9910  0.9756  0.9756  1.4583  1.2125

 Free energy of the ion-electron system (eV)
  ---------------------------------------------------
  alpha Z        PSCENC =        94.24357992
  Ewald energy   TEWEN  =      -795.76658092
  -Hartree energ DENC   =      -349.08817098
  -exchange      EXHF   =         0.00000000
  -V(xc)+E(xc)   XCENC  =       101.58900165
  PAW double counting   =      3726.26264116    -3715.45490291
  entropy T*S    EENTRO =        -0.00482911
  eigenvalues    EBANDS =      -148.71512176
  atomic energy  EATOM  =       996.36613177
  Solvation  Ediel_sol  =         0.00000000
  ---------------------------------------------------
  free energy    TOTEN  =       -90.56825117 eV

  energy without entropy =      -90.56342206  energy(sigma->0) =      -90.56583661


--------------------------------------------------------------------------------------------------------




--------------------------------------- Iteration      1(  13)  ---------------------------------------


    POTLOK:  cpu time      0.0092: real time      0.0104
    SETDIJ:  cpu time      0.0011: real time      0.0011
     EDDAV:  cpu time      3.2942: real time      3.3097
       DOS:  cpu time      0.0011: real time      0.0011
    CHARGE:  cpu time      0.0498: real time      0.0502
    MIXING:  cpu time      0.0007: real time      0.0007
    --------------------------------------------
      LOOP:  cpu time      3.3561: real time      3.3731

 eigenvalue-minimisations  : 11400
 total energy-change (2. order) :-0.2582145E-04  (-0.2135041E-05)
 number of electron      41.9999999 magnetization 
 augmentation part       -0.1745137 magnetization 

 Broyden mixing:
  rms(total) = 0.22606E-03    rms(broyden)= 0.22605E-03
  rms(prec ) = 0.38402E-03
  weight for this iteration     100.00

 eigenvalues of (default mixing * dielectric matrix)
  average eigenvalue GAMMA=   1.7463
  3.2721  2.4896  1.8623  1.8623  1.4513  0.9851  1.0241  1.0241

 Free energy of the ion-electron system (eV)
  ---------------------------------------------------
  alpha Z        PSCENC =        94.24357992
  Ewald energy   TEWEN  =      -795.76658092
  -Hartree energ DENC   =      -349.14184380
  -exchange      EXHF   =         0.00000000
  -V(xc)+E(xc)   XCENC  =       101.59240753
  PAW double counting   =      3723.41544338    -3712.60775108
  entropy T*S    EENTRO =        -0.00483220
  eigenvalues    EBANDS =      -148.66483159
  atomic energy  EATOM  =       996.36613177
  Solvation  Ediel_sol  =         0.00000000
  ---------------------------------------------------
  free energy    TOTEN  =       -90.56827699 eV

  energy without entropy =      -90.56344479  energy(sigma->0) =      -90.56586089


--------------------------------------------------------------------------------------------------------




--------------------------------------- Iteration      1(  14)  ---------------------------------------


    POTLOK:  cpu time      0.0099: real time      0.0106
    SETDIJ:  cpu time      0.0011: real time      0.0011
     EDDAV:  cpu time      3.6867: real time      3.7037
       DOS:  cpu time      0.0008: real time      0.0008
    --------------------------------------------
      LOOP:  cpu time      3.6984: real time      3.7162

 eigenvalue-minimisations  : 12696
 total energy-change (2. order) :-0.9379453E-06  (-0.8100665E-07)
 number of electron      41.9999999 magnetization 
 augmentation part       -0.1745137 magnetization 

 Free energy of the ion-electron system (eV)
  ---------------------------------------------------
  alpha Z        PSCENC =        94.24357992
  Ewald energy   TEWEN  =      -795.76658092
  -Hartree energ DENC   =      -349.13819542
  -exchange      EXHF   =         0.00000000
  -V(xc)+E(xc)   XCENC  =       101.59221856
  PAW double counting   =      3723.30750878    -3712.49988735
  entropy T*S    EENTRO =        -0.00483158
  eigenvalues    EBANDS =      -148.66822169
  atomic energy  EATOM  =       996.36613177
  Solvation  Ediel_sol  =         0.00000000
  ---------------------------------------------------
  free energy    TOTEN  =       -90.56827793 eV

  energy without entropy =      -90.56344635  energy(sigma->0) =      -90.56586214


--------------------------------------------------------------------------------------------------------




 average (electrostatic) potential at core
  the test charge radii are     0.7672
  (the norm of the test charge is              1.0000)
       1 -29.9798       2 -29.9798       3 -29.9798       4 -29.9798       5 -28.9331
       6 -28.9331       7 -28.9331       8 -28.9331       9 -29.3471      10 -29.3471
      11 -29.3471      12 -29.3471      13 -29.9127      14 -29.9127
 
 
 
 E-fermi :   1.8584     XC(G=0):  -9.4406     alpha+bet :-10.8605

 val. band max:        1.8438984397   @ k =   0.3125   0.2727   0.1429
 cond. band min:       1.8620134645   @ k =   0.0625   0.0000   0.1429
 fundamental gap:      0.0181150248
 Fermi energy:         1.8584445810

 k-point     1 :       0.0625    0.0000    0.0000
  band No.  band energies     occupation 
      1     -12.7249      2.00000
      2     -11.5911      2.00000
      3      -8.6586      2.00000
      4      -8.4216      2.00000
      5      -6.0585      2.00000
      6      -5.1696      2.00000
      7      -4.6808      2.00000
      8      -4.2164      2.00000
      9      -3.9621      2.00000
     10      -3.5140      2.00000
     11      -2.4126      2.00000
     12      -2.2389      2.00000
     13      -2.2116      2.00000
     14      -1.1161      2.00000
     15      -0.0281      2.00000
     16       0.0102      2.00000
     17       0.1482      2.00000
     18       0.1618      2.00000
     19       0.5474      2.00000
     20       2.0622      0.00000
     21       2.1095      0.00000
     22       2.1944      0.00000
     23       5.4332      0.00000
     24       5.7930      0.00000
     25       5.7963      0.00000
     26       6.0189      0.00000
     27       6.7695      0.00000
     28       7.4617      0.00000
     29       7.8740      0.00000
     30       8.6637      0.00000
     31       8.8327      0.00000
     32       8.9061      0.00000
     33       9.0454      0.00000
     34      10.0562      0.00000
     35      11.1587      0.00000
     36      11.3159      0.00000
     37      11.6260      0.00000
     38      11.7569      0.00000
     39      11.9471      0.00000
     40      12.3715      0.00000
     41      12.9020      0.00000
     42      13.4948      0.00000
     43      13.5468      0.00000
     44      15.3087      0.00000
     45      15.6174      0.00000
     46      16.1171      0.00000
     47      16.2971      0.00000
     48      16.3823      0.00000

 k-point     2 :       0.1875    0.0000    0.0000
  band No.  band energies     occupation 
      1     -12.6569      2.00000
      2     -11.7036      2.00000
      3      -8.6250      2.00000
      4      -8.4051      2.00000
      5      -5.9764      2.00000
      6      -5.6043      2.00000
      7      -4.8028      2.00000
      8      -3.8665      2.00000
      9      -3.6208      2.00000
     10      -3.0365      2.00000
     11      -2.4140      2.00000
     12      -2.3818      2.00000
     13      -2.2576      2.00000
     14      -1.5742      2.00000
     15      -0.0532      2.00000
     16       0.0378      2.00000
     17       0.1078      2.00000
     18       0.1958      2.00000
     19       0.4236      2.00000
     20       1.9310      0.04013
     21       1.9921      0.00016
     22       2.0087      0.00002
     23       5.5586      0.00000
     24       5.7264      0.00000
     25       5.9736      0.00000
     26       6.5081      0.00000
     27       6.6442      0.00000
     28       7.0201      0.00000
     29       8.1159      0.00000
     30       8.8508      0.00000
     31       9.0162      0.00000
     32       9.2921      0.00000
     33       9.3036      0.00000
     34      10.2855      0.00000
     35      10.7331      0.00000
     36      10.9104      0.00000
     37      11.2749      0.00000
     38      11.6962      0.00000
     39      12.2508      0.00000
     40      12.5321      0.00000
     41      12.9697      0.00000
     42      13.1310      0.00000
     43      14.3244      0.00000
     44      14.7568      0.00000
     45      15.5827      0.00000
     46      15.9122      0.00000
     47      16.2893      0.00000
     48      16.6026      0.00000

 k-point     3 :       0.3125    0.0000    0.0000
  band No.  band energies     occupation 
      1     -12.5255      2.00000
      2     -11.8957      2.00000
      3      -8.5577      2.00000
      4      -8.3918      2.00000
      5      -6.0200      2.00000
      6      -5.9589      2.00000
      7      -4.5650      2.00000
      8      -3.6801      2.00000
      9      -3.0130      2.00000
     10      -2.7348      2.00000
     11      -2.4450      2.00000
     12      -2.3608      2.00000
     13      -2.2806      2.00000
     14      -2.1981      2.00000
     15      -0.4032      2.00000
     16      -0.0982      2.00000
     17       0.1519      2.00000
     18       0.2362      2.00000
     19       0.5382      2.00000
     20       1.6610      2.00000
     21       1.7429      1.99892
     22       1.8106      1.82421
     23       5.6770      0.00000
     24       5.6947      0.00000
     25       6.4923      0.00000
     26       6.5075      0.00000
     27       6.7058      0.00000
     28       7.1970      0.00000
     29       8.2891      0.00000
     30       8.8487      0.00000
     31       8.8799      0.00000
     32       9.8445      0.00000
     33       9.8702      0.00000
     34       9.9213      0.00000
     35      10.4008      0.00000
     36      10.8774      0.00000
     37      11.4040      0.00000
     38      12.0114      0.00000
     39      12.2169      0.00000
     40      12.4527      0.00000
     41      12.5276      0.00000
     42      13.0680      0.00000
     43      14.8593      0.00000
     44      14.9495      0.00000
     45      15.2226      0.00000
     46      15.6361      0.00000
     47      15.6804      0.00000
     48      16.2818      0.00000

 k-point     4 :       0.4375    0.0000    0.0000
  band No.  band energies     occupation 
      1     -12.3410      2.00000
      2     -12.1216      2.00000
      3      -8.4746      2.00000
      4      -8.4112      2.00000
      5      -6.1394      2.00000
      6      -6.1350      2.00000
      7      -3.9690      2.00000
      8      -3.4138      2.00000
      9      -3.2267      2.00000
     10      -3.0873      2.00000
     11      -2.4790      2.00000
     12      -2.3709      2.00000
     13      -2.0139      2.00000
     14      -1.9334      2.00000
     15      -0.7268      2.00000
     16      -0.5599      2.00000
     17       0.2683      2.00000
     18       0.3093      2.00000
     19       0.8417      2.00000
     20       1.2377      2.00000
     21       1.6196      2.00000
     22       1.6529      2.00000
     23       5.6961      0.00000
     24       5.7363      0.00000
     25       6.4356      0.00000
     26       6.5157      0.00000
     27       7.3060      0.00000
     28       8.0096      0.00000
     29       8.2145      0.00000
     30       8.4392      0.00000
     31       8.6217      0.00000
     32       8.9025      0.00000
     33      10.4671      0.00000
     34      10.4773      0.00000
     35      10.7106      0.00000
     36      11.3180      0.00000
     37      11.4181      0.00000
     38      11.6638      0.00000
     39      11.8326      0.00000
     40      12.4873      0.00000
     41      12.6035      0.00000
     42      13.2678      0.00000
     43      14.5547      0.00000
     44      14.7653      0.00000
     45      14.9406      0.00000
     46      14.9443      0.00000
     47      16.0274      0.00000
     48      16.4647      0.00000

 k-point     5 :       0.0625    0.0909    0.0000
  band No.  band energies     occupation 
      1     -12.7053      2.00000
      2     -11.5734      2.00000
      3      -8.6432      2.00000
      4      -8.4026      2.00000
      5      -6.0364      2.00000
      6      -5.1425      2.00000
      7      -4.6629      2.00000
      8      -4.4513      2.00000
      9      -4.1327      2.00000
     10      -3.4948      2.00000
[...]
     43      13.9416      0.00000
     44      13.9639      0.00000
     45      14.4936      0.00000
     46      15.1519      0.00000
     47      15.2243      0.00000
     48      15.8378      0.00000

 k-point    91 :       0.3125    0.3636    0.4286
  band No.  band energies     occupation 
      1     -12.2383      2.00000
      2     -11.7432      2.00000
      3      -8.6359      2.00000
      4      -8.2533      2.00000
      5      -5.8325      2.00000
      6      -5.6808      2.00000
      7      -5.4333      2.00000
      8      -5.0157      2.00000
      9      -4.0880      2.00000
     10      -3.1732      2.00000
     11      -2.4489      2.00000
     12      -1.8666      2.00000
     13      -1.6970      2.00000
     14      -1.3945      2.00000
     15      -0.9111      2.00000
     16      -0.3580      2.00000
     17       0.2536      2.00000
     18       0.4595      2.00000
     19       0.5865      2.00000
     20       1.1803      2.00000
     21       1.4897      2.00000
     22       1.8695      0.75365
     23       5.5116      0.00000
     24       6.2137      0.00000
     25       6.8297      0.00000
     26       7.0566      0.00000
     27       7.7979      0.00000
     28       8.4874      0.00000
     29       8.6231      0.00000
     30       9.0614      0.00000
     31       9.3502      0.00000
     32       9.9675      0.00000
     33      10.3090      0.00000
     34      10.5675      0.00000
     35      11.1196      0.00000
     36      11.7939      0.00000
     37      11.9091      0.00000
     38      11.9726      0.00000
     39      12.3428      0.00000
     40      12.9192      0.00000
     41      13.1029      0.00000
     42      13.5951      0.00000
     43      13.7643      0.00000
     44      14.2540      0.00000
     45      14.5500      0.00000
     46      14.8822      0.00000
     47      15.2723      0.00000
     48      15.5598      0.00000

 k-point    92 :       0.4375    0.3636    0.4286
  band No.  band energies     occupation 
      1     -12.0833      2.00000
      2     -11.9086      2.00000
      3      -8.5953      2.00000
      4      -8.4548      2.00000
      5      -5.6951      2.00000
      6      -5.5622      2.00000
      7      -5.0520      2.00000
      8      -4.6542      2.00000
      9      -4.4583      2.00000
     10      -3.8980      2.00000
     11      -2.1521      2.00000
     12      -1.9332      2.00000
     13      -1.9189      2.00000
     14      -1.7225      2.00000
     15      -0.2885      2.00000
     16      -0.0643      2.00000
     17       0.4906      2.00000
     18       0.5784      2.00000
     19       0.7352      2.00000
     20       0.9317      2.00000
     21       1.1711      2.00000
     22       1.3274      2.00000
     23       5.9437      0.00000
     24       6.1423      0.00000
     25       6.9374      0.00000
     26       7.3473      0.00000
     27       7.5747      0.00000
     28       7.7293      0.00000
     29       8.8160      0.00000
     30       8.9800      0.00000
     31       9.8540      0.00000
     32      10.0360      0.00000
     33      10.1865      0.00000
     34      10.4824      0.00000
     35      11.1822      0.00000
     36      11.4835      0.00000
     37      12.0086      0.00000
     38      12.0581      0.00000
     39      12.9507      0.00000
     40      13.2029      0.00000
     41      13.3042      0.00000
     42      13.6571      0.00000
     43      13.9721      0.00000
     44      14.1893      0.00000
     45      14.4962      0.00000
     46      14.6364      0.00000
     47      14.8379      0.00000
     48      15.2317      0.00000

 k-point    93 :       0.0625    0.4545    0.4286
  band No.  band energies     occupation 
      1     -12.3690      2.00000
      2     -11.5067      2.00000
      3      -8.4398      2.00000
      4      -7.8930      2.00000
      5      -6.5556      2.00000
      6      -6.2368      2.00000
      7      -5.5941      2.00000
      8      -5.3578      2.00000
      9      -3.2922      2.00000
     10      -2.8160      2.00000
     11      -2.0527      2.00000
     12      -1.5673      2.00000
     13      -1.5321      2.00000
     14      -1.3823      2.00000
     15      -1.3097      2.00000
     16      -0.7981      2.00000
     17      -0.6421      2.00000
     18      -0.3774      2.00000
     19       0.4375      2.00000
     20       1.7073      1.99998
     21       2.1248      0.00000
     22       3.8169      0.00000
     23       4.6382      0.00000
     24       5.8202      0.00000
     25       6.3546      0.00000
     26       7.3269      0.00000
     27       7.3772      0.00000
     28       7.8971      0.00000
     29       9.1313      0.00000
     30       9.3602      0.00000
     31       9.5057      0.00000
     32      10.1536      0.00000
     33      11.0307      0.00000
     34      11.3580      0.00000
     35      11.4793      0.00000
     36      11.7437      0.00000
     37      11.8077      0.00000
     38      11.9051      0.00000
     39      12.2699      0.00000
     40      12.6475      0.00000
     41      12.7501      0.00000
     42      12.9675      0.00000
     43      13.3544      0.00000
     44      13.4763      0.00000
     45      14.1831      0.00000
     46      15.3460      0.00000
     47      15.3569      0.00000
     48      15.5947      0.00000

 k-point    94 :       0.1875    0.4545    0.4286
  band No.  band energies     occupation 
      1     -12.3092      2.00000
      2     -11.5741      2.00000
      3      -8.5361      2.00000
      4      -8.0146      2.00000
      5      -6.1952      2.00000
      6      -6.1758      2.00000
      7      -5.6225      2.00000
      8      -5.2164      2.00000
      9      -3.6052      2.00000
     10      -2.6943      2.00000
     11      -2.4193      2.00000
     12      -1.8563      2.00000
     13      -1.5712      2.00000
     14      -1.4210      2.00000
     15      -1.2209      2.00000
     16      -0.6140      2.00000
     17      -0.3492      2.00000
     18       0.0012      2.00000
     19       0.4409      2.00000
     20       1.6613      2.00000
     21       2.0532      0.00000
     22       2.9298      0.00000
     23       4.8895      0.00000
     24       6.2243      0.00000
     25       6.5077      0.00000
     26       7.0572      0.00000
     27       7.7743      0.00000
     28       8.2806      0.00000
     29       8.7110      0.00000
     30       9.1573      0.00000
     31       9.5836      0.00000
     32      10.2642      0.00000
     33      10.7740      0.00000
     34      11.2481      0.00000
     35      11.3558      0.00000
     36      11.4718      0.00000
     37      11.6864      0.00000
     38      12.0973      0.00000
     39      12.4986      0.00000
     40      12.6672      0.00000
     41      12.8480      0.00000
     42      13.2129      0.00000
     43      13.6629      0.00000
     44      13.8537      0.00000
     45      14.4698      0.00000
     46      14.7115      0.00000
     47      15.3621      0.00000
     48      15.5624      0.00000

 k-point    95 :       0.3125    0.4545    0.4286
  band No.  band energies     occupation 
      1     -12.1955      2.00000
      2     -11.7008      2.00000
      3      -8.5957      2.00000
      4      -8.2129      2.00000
      5      -6.0687      2.00000
      6      -5.6954      2.00000
      7      -5.6090      2.00000
      8      -4.9514      2.00000
      9      -4.0301      2.00000
     10      -3.1245      2.00000
     11      -2.4078      2.00000
     12      -2.0953      2.00000
     13      -1.8797      2.00000
     14      -1.4023      2.00000
     15      -0.8855      2.00000
     16      -0.3204      2.00000
     17       0.0351      2.00000
     18       0.3417      2.00000
     19       0.5027      2.00000
     20       1.5986      2.00000
     21       1.8970      0.27523
     22       1.9145      0.11258
     23       5.3568      0.00000
     24       6.1314      0.00000
     25       6.7554      0.00000
     26       7.0790      0.00000
     27       7.9015      0.00000
     28       8.4625      0.00000
     29       8.7994      0.00000
     30       8.9456      0.00000
     31       9.7116      0.00000
     32       9.9764      0.00000
     33      10.6216      0.00000
     34      11.0178      0.00000
     35      11.2814      0.00000
     36      11.4973      0.00000
     37      11.5650      0.00000
     38      12.1343      0.00000
     39      12.7130      0.00000
     40      12.9238      0.00000
     41      13.3789      0.00000
     42      13.5573      0.00000
     43      13.7016      0.00000
     44      14.0921      0.00000
     45      14.4599      0.00000
     46      15.0466      0.00000
     47      15.0941      0.00000
     48      15.4695      0.00000

 k-point    96 :       0.4375    0.4545    0.4286
  band No.  band energies     occupation 
      1     -12.0409      2.00000
      2     -11.8664      2.00000
      3      -8.5533      2.00000
      4      -8.4129      2.00000
      5      -5.9321      2.00000
      6      -5.7968      2.00000
      7      -4.9992      2.00000
      8      -4.5826      2.00000
      9      -4.4195      2.00000
     10      -3.8537      2.00000
     11      -2.1887      2.00000
     12      -2.1025      2.00000
     13      -2.0864      2.00000
     14      -1.7301      2.00000
     15      -0.2633      2.00000
     16      -0.0300      2.00000
     17       0.3490      2.00000
     18       0.4817      2.00000
     19       0.5383      2.00000
     20       0.9606      2.00000
     21       1.6050      2.00000
     22       1.7375      1.99937
     23       5.8339      0.00000
     24       6.0619      0.00000
     25       6.8301      0.00000
     26       7.3742      0.00000
     27       7.5555      0.00000
     28       7.6262      0.00000
     29       9.3245      0.00000
     30       9.4904      0.00000
     31       9.7785      0.00000
     32       9.9613      0.00000
     33      10.4497      0.00000
     34      10.8679      0.00000
     35      11.2228      0.00000
     36      11.5308      0.00000
     37      11.5491      0.00000
     38      11.6892      0.00000
     39      13.0521      0.00000
     40      13.1865      0.00000
     41      13.5961      0.00000
     42      13.9619      0.00000
     43      14.1210      0.00000
     44      14.3133      0.00000
     45      14.5239      0.00000
     46      14.7504      0.00000
     47      14.9109      0.00000
     48      15.0858      0.00000


--------------------------------------------------------------------------------------------------------


 soft charge-density along one line, spin component           1
         0         1         2         3         4         5         6         7         8         9
 total charge-density along one line
 
 pseudopotential strength for first ion, spin component:           1
  6.446   9.815   0.000  -0.009   0.005   0.000  -0.014   0.008
  9.815  14.939   0.000  -0.013   0.008   0.000  -0.021   0.011
  0.000   0.000  -2.174   0.000   0.000  -3.695   0.000   0.000
 -0.009  -0.013   0.000  -2.178  -0.001   0.000  -3.705  -0.002
  0.005   0.008   0.000  -0.001  -2.177   0.000  -0.002  -3.703
  0.000   0.000  -3.695   0.000   0.000  -6.081   0.000   0.000
 -0.014  -0.021   0.000  -3.705  -0.002   0.000  -6.102  -0.004
  0.008   0.011   0.000  -0.002  -3.703   0.000  -0.004  -6.098
 total augmentation occupancy for first ion, spin component:           1
  3.643  -0.977   0.000  -0.245   0.416   0.000   0.124  -0.176
 -0.977   0.286   0.000   0.161  -0.197   0.000  -0.056   0.073
  0.000   0.000   2.273   0.000   0.000  -0.542   0.000   0.000
 -0.245   0.161   0.000   3.777   0.326   0.000  -1.053  -0.120
  0.416  -0.197  -0.000   0.326   3.602   0.000  -0.120  -0.979
 -0.000   0.000  -0.542   0.000   0.000   0.134   0.000   0.000
  0.124  -0.056   0.000  -1.053  -0.120   0.000   0.303   0.043
 -0.176   0.073   0.000  -0.120  -0.979   0.000   0.043   0.276


------------------------ aborting loop because EDIFF is reached ----------------------------------------


    CHARGE:  cpu time      0.0498: real time      0.0501
    FORLOC:  cpu time      0.0011: real time      0.0011
    FORNL :  cpu time      0.3280: real time      0.3295
    STRESS:  cpu time      1.5515: real time      1.5577
    FORCOR:  cpu time      0.0095: real time      0.0098
    FORHAR:  cpu time      0.0029: real time      0.0029
    MIXING:  cpu time      0.0007: real time      0.0007
    OFIELD:  cpu time      0.0000: real time      0.0000

  FORCE on cell =-STRESS in cart. coord.  units (eV):
  Direction    XX          YY          ZZ          XY          YZ          ZX
  --------------------------------------------------------------------------------------
  Alpha Z    94.24358    94.24358    94.24358
  Ewald     -90.05465  -558.27634  -147.43815    -0.00000    -0.00000     0.00000
  Hartree   187.08352     5.79262   156.26497    -0.00000    -0.00000    -0.00000
  E(xc)    -134.91325  -135.88234  -134.87746    -0.00000    -0.00000    -0.00000
  Local    -494.01478   126.38380  -406.11116    -0.00000     0.00000     0.00000
  n-local    -8.87626   -10.83596    -9.29525    -0.00423    -0.00583     0.05563
  augment     1.32055     1.36801     1.34834     0.00000    -0.00000    -0.00000
  Kinetic   446.52084   477.31170   445.44443     0.23790     0.05969    -1.00071
  Fock        0.00000     0.00000     0.00000     0.00000     0.00000     0.00000
  -------------------------------------------------------------------------------------
  Total       1.30955     0.10508    -0.42071     0.00000     0.00000    -0.00000
  in kB      14.66463     1.17667    -4.71115     0.00000     0.00000    -0.00000
  external pressure =        3.71 kB  Pullay stress =        0.00 kB


 VOLUME and BASIS-vectors are now :
 -----------------------------------------------------------------------------
  energy-cutoff  :      480.00
  volume of cell :      143.07
      direct lattice vectors                 reciprocal lattice vectors
     5.697000000  0.000000000  0.000000000     0.175530981  0.000000000  0.000000000
     0.000000000  4.047900000  0.000000000     0.000000000  0.247041676  0.000000000
     0.000000000  0.000000000  6.204200000     0.000000000  0.000000000  0.161181135

  length of vectors
     5.697000000  4.047900000  6.204200000     0.175530981  0.247041676  0.161181135


 FORCES acting on ions
    electron-ion (+dipol)            ewald-force                    non-local-force                 convergence-correction
 -----------------------------------------------------------------------------------------------
   0.496E+02 -.316E-12 -.250E+02   -.515E+02 0.211E-14 0.284E+02   0.182E+01 -.239E-18 -.331E+01   0.807E-05 0.437E-14 0.138E-03
   -.496E+02 -.315E-12 0.250E+02   0.515E+02 0.448E-16 -.284E+02   -.182E+01 0.121E-18 0.331E+01   -.807E-05 0.458E-14 -.138E-03
   -.496E+02 -.280E-12 -.250E+02   0.515E+02 0.587E-14 0.284E+02   -.182E+01 0.164E-18 -.331E+01   -.807E-05 0.447E-14 0.138E-03
   0.496E+02 -.225E-14 0.250E+02   -.515E+02 0.181E-14 -.284E+02   0.182E+01 0.198E-18 0.331E+01   0.807E-05 0.450E-14 -.138E-03
   0.313E+02 0.809E-12 -.527E+02   -.341E+02 0.342E-14 0.571E+02   0.195E+01 -.349E-19 -.409E+01   0.231E-04 0.398E-14 -.877E-04
   -.313E+02 0.254E-12 0.527E+02   0.341E+02 0.354E-14 -.571E+02   -.195E+01 0.357E-19 0.409E+01   -.231E-04 0.370E-14 0.877E-04
   -.313E+02 0.839E-12 -.527E+02   0.341E+02 0.299E-14 0.571E+02   -.195E+01 0.290E-19 -.409E+01   -.231E-04 0.401E-14 -.877E-04
   0.313E+02 0.125E-13 0.527E+02   -.341E+02 0.353E-14 -.571E+02   0.195E+01 -.241E-19 0.409E+01   0.231E-04 0.413E-14 0.877E-04
   -.176E-13 -.558E+02 -.155E+02   -.720E-14 0.613E+02 0.166E+02   -.108E-17 -.537E+01 -.113E+01   -.180E-14 0.624E-03 0.118E-03
   -.359E-13 0.558E+02 0.155E+02   0.108E-13 -.613E+02 -.166E+02   -.116E-17 0.537E+01 0.113E+01   0.203E-13 -.624E-03 -.118E-03
   -.181E-13 0.558E+02 -.155E+02   0.393E-14 -.613E+02 0.166E+02   -.248E-17 0.537E+01 -.113E+01   -.172E-14 -.624E-03 0.118E-03
   -.357E-13 -.558E+02 0.155E+02   0.643E-14 0.613E+02 -.166E+02   -.178E-17 -.537E+01 0.113E+01   0.201E-13 0.624E-03 -.118E-03
   -.185E-13 0.148E-13 -.622E+02   0.123E-13 0.532E-14 0.649E+02   -.242E-18 0.195E-19 -.259E+01   0.890E-14 0.481E-14 0.278E-05
   -.106E-13 0.649E-12 0.622E+02   0.173E-13 0.235E-14 -.649E+02   0.244E-18 0.344E-18 0.259E+01   -.969E-14 0.430E-14 -.278E-05
 -----------------------------------------------------------------------------------------------
   -.527E-13 0.122E-11 -.149E-11   0.152E-13 0.767E-14 -.284E-13   -.650E-17 -.888E-15 0.444E-15   0.465E-13 0.382E-13 -.250E-13
 
 
 POSITION                                       TOTAL-FORCE (eV/Angst)
 -----------------------------------------------------------------------------------
      2.96945      2.02395      3.95803        -0.022045     -0.000000      0.068834
      2.72755      2.02395      2.24617         0.022045     -0.000000     -0.068834
      5.57605      2.02395      3.95803         0.022045     -0.000000      0.068834
      0.12095      2.02395      2.24617        -0.022045     -0.000000     -0.068834
      3.42333      2.02395      5.58322        -0.814517     -0.000000      0.293286
      2.27367      2.02395      0.62098         0.814517     -0.000000     -0.293286
      5.12217      2.02395      5.58322         0.814517     -0.000000      0.293286
      0.57483      2.02395      0.62098        -0.814517     -0.000000     -0.293286
      4.27275      3.20476      4.52739         0.000000      0.105590     -0.080967
      1.42425      0.84314      1.67681         0.000000     -0.105590      0.080967
      4.27275      0.84314      4.52739         0.000000     -0.105590     -0.080967
      1.42425      3.20476      1.67681         0.000000      0.105590      0.080967
      1.42425      2.02395      3.24895         0.000000     -0.000000      0.075948
      4.27275      2.02395      2.95525         0.000000     -0.000000     -0.075948
 -----------------------------------------------------------------------------------
    total drift:                                0.000000      0.000000     -0.000000


--------------------------------------------------------------------------------------------------------



  FREE ENERGIE OF THE ION-ELECTRON SYSTEM (eV)
  ---------------------------------------------------
  free  energy   TOTEN  =       -90.56827793 eV

  energy  without entropy=      -90.56344635  energy(sigma->0) =      -90.56586214
 


--------------------------------------------------------------------------------------------------------


    POTLOK:  cpu time      0.0116: real time      0.0117


--------------------------------------------------------------------------------------------------------


     LOOP+:  cpu time     50.5826: real time     50.9862
    4ORBIT:  cpu time      0.0000: real time      0.0000

 total amount of memory used by VASP MPI-rank0    67614. kBytes
=======================================================================

   base      :      30000. kBytes
   nonl-proj :      22007. kBytes
   fftplans  :       1019. kBytes
   grid      :       3560. kBytes
   one-center:         43. kBytes
   wavefun   :      10985. kBytes
 
  
  
 General timing and accounting informations for this job:
 ========================================================
  
                  Total CPU time used (sec):       53.461
                            User time (sec):       52.422
                          System time (sec):        1.039
                         Elapsed time (sec):       56.353
  
                   Maximum memory used (kb):      389900.
                   Average memory used (kb):          N/A
  
                          Minor page faults:       180667
                          Major page faults:         1615
                 Voluntary context switches:         7148
