       N       E                     dE             d eps       ncg     rms          rms(c)
DAV:   1     0.157825574347E+03    0.15783E+03   -0.27405E+04 16800   0.135E+03
DAV:   2    -0.879084205060E+02   -0.24573E+03   -0.22711E+03 22272   0.214E+02
DAV:   3    -0.975971254780E+02   -0.96887E+01   -0.96014E+01 25104   0.372E+01
DAV:   4    -0.976580381526E+02   -0.60913E-01   -0.60908E-01 18696   0.338E+00
DAV:   5    -0.976586510489E+02   -0.61290E-03   -0.61288E-03 25152   0.322E-01    0.123E+01
DAV:   6    -0.922422874343E+02    0.54164E+01   -0.39482E+00 24216   0.659E+00    0.680E+00
DAV:   7    -0.905906896546E+02    0.16516E+01   -0.32214E+00 25176   0.587E+00    0.171E+00
DAV:   8    -0.906031334731E+02   -0.12444E-01   -0.23547E-01 18648   0.169E+00    0.704E-01
DAV:   9    -0.906173016398E+02   -0.14168E-01   -0.16957E-02 23304   0.442E-01    0.198E-01
DAV:  10    -0.906213571400E+02   -0.40555E-02   -0.21029E-03 19104   0.163E-01    0.610E-02
DAV:  11    -0.906224279530E+02   -0.10708E-02   -0.63152E-04 21744   0.890E-02    0.321E-02
DAV:  12    -0.906225435660E+02   -0.11561E-03   -0.93363E-05 20424   0.388E-02    0.429E-03
DAV:  13    -0.906225484617E+02   -0.48957E-05   -0.41763E-06 23592   0.945E-03    0.182E-03
DAV:  14    -0.906225491577E+02   -0.69595E-06   -0.29680E-07 20280   0.254E-03
   1 F= -.90622549E+02 E0= -.90620942E+02  d E =-.321358E-02
