  14  14   0   0
  0.1021960E+02  0.5697000E-09  0.4047900E-09  0.6204200E-09  0.5000000E-15
  1.000000000000000E-004
  CAR 
 Kpoints                                 
     18.05682508    -14.19471667  301      1.86360164      1.00000000
    -14.195  0.0000E+00  0.0000E+00
    -14.087  0.0000E+00  0.0000E+00
    -13.980  0.0000E+00  0.0000E+00
    -13.872  0.0000E+00  0.0000E+00
    -13.765  0.0000E+00  0.0000E+00
    -13.657  0.0000E+00  0.0000E+00
    -13.550  0.0000E+00  0.0000E+00
    -13.442  0.0000E+00  0.0000E+00
    -13.335  0.0000E+00  0.0000E+00
    -13.227  0.0000E+00  0.0000E+00
    -13.120  0.0000E+00  0.0000E+00
    -13.012  0.1929E-16  0.2074E-17
    -12.905  0.1599E-07  0.1719E-08
    -12.797  0.2722E-02  0.2926E-03
    -12.690  0.4559E+00  0.4930E-01
    -12.582  0.2323E+01  0.2990E+00
    -12.475  0.3547E+01  0.6803E+00
    -12.367  0.4347E+01  0.1148E+01
    -12.260  0.3535E+01  0.1528E+01
    -12.152  0.2848E+01  0.1834E+01
    -12.045  0.2617E+01  0.2115E+01
    -11.937  0.2587E+01  0.2393E+01
    -11.830  0.2756E+01  0.2690E+01
    -11.722  0.3358E+01  0.3051E+01
    -11.615  0.3627E+01  0.3441E+01
    -11.507  0.3091E+01  0.3773E+01
    -11.400  0.1676E+01  0.3953E+01
    -11.292  0.4286E+00  0.3999E+01
    -11.185  0.7324E-02  0.4000E+01
    -11.077  0.2179E-06  0.4000E+01
    -10.970  0.1466E-14  0.4000E+01
    -10.862  0.0000E+00  0.4000E+01
    -10.755  0.0000E+00  0.4000E+01
    -10.647  0.0000E+00  0.4000E+01
    -10.540  0.0000E+00  0.4000E+01
    -10.432  0.0000E+00  0.4000E+01
    -10.325  0.0000E+00  0.4000E+01
    -10.217  0.0000E+00  0.4000E+01
    -10.110  0.0000E+00  0.4000E+01
    -10.002  0.0000E+00  0.4000E+01
     -9.895  0.0000E+00  0.4000E+01
     -9.787  0.0000E+00  0.4000E+01
     -9.680  0.0000E+00  0.4000E+01
     -9.572  0.0000E+00  0.4000E+01
     -9.464  0.0000E+00  0.4000E+01
     -9.357  0.0000E+00  0.4000E+01
     -9.249  0.0000E+00  0.4000E+01
     -9.142  0.0000E+00  0.4000E+01
     -9.034  0.1404E-08  0.4000E+01
     -8.927  0.8343E-03  0.4000E+01
     -8.819  0.3198E+00  0.4034E+01
     -8.712  0.2209E+01  0.4272E+01
     -8.604  0.5475E+01  0.4861E+01
     -8.497  0.7005E+01  0.5614E+01
     -8.389  0.6209E+01  0.6281E+01
     -8.282  0.5297E+01  0.6851E+01
     -8.174  0.4862E+01  0.7373E+01
     -8.067  0.3685E+01  0.7769E+01
     -7.959  0.1584E+01  0.7940E+01
     -7.852  0.5236E+00  0.7996E+01
     -7.744  0.3669E-01  0.8000E+01
     -7.637  0.1796E-04  0.8000E+01
     -7.529  0.2631E-11  0.8000E+01
     -7.422  0.0000E+00  0.8000E+01
     -7.314  0.0000E+00  0.8000E+01
     -7.207  0.4494E-15  0.8000E+01
     -7.099  0.9735E-07  0.8000E+01
     -6.992  0.3591E-02  0.8000E+01
     -6.884  0.1141E+00  0.8013E+01
     -6.777  0.2892E+00  0.8044E+01
     -6.669  0.4960E+00  0.8097E+01
     -6.562  0.6493E+00  0.8167E+01
     -6.454  0.1022E+01  0.8277E+01
     -6.347  0.1469E+01  0.8435E+01
     -6.239  0.2121E+01  0.8663E+01
     -6.132  0.3161E+01  0.9003E+01
     -6.024  0.3838E+01  0.9415E+01
     -5.917  0.4119E+01  0.9858E+01
     -5.809  0.3913E+01  0.1028E+02
     -5.702  0.4157E+01  0.1073E+02
     -5.594  0.4106E+01  0.1117E+02
     -5.487  0.4063E+01  0.1160E+02
     -5.379  0.4446E+01  0.1208E+02
     -5.272  0.4875E+01  0.1261E+02
     -5.164  0.4236E+01  0.1306E+02
     -5.057  0.3943E+01  0.1348E+02
     -4.949  0.3204E+01  0.1383E+02
     -4.842  0.2554E+01  0.1410E+02
     -4.734  0.2369E+01  0.1436E+02
     -4.627  0.2959E+01  0.1468E+02
     -4.519  0.3711E+01  0.1508E+02
     -4.412  0.3577E+01  0.1546E+02
     -4.304  0.2695E+01  0.1575E+02
     -4.197  0.3299E+01  0.1610E+02
     -4.089  0.2805E+01  0.1641E+02
     -3.982  0.2973E+01  0.1673E+02
     -3.874  0.2817E+01  0.1703E+02
     -3.767  0.3214E+01  0.1737E+02
     -3.659  0.2960E+01  0.1769E+02
     -3.552  0.2619E+01  0.1797E+02
     -3.444  0.2722E+01  0.1827E+02
     -3.337  0.2888E+01  0.1858E+02
     -3.229  0.2949E+01  0.1889E+02
     -3.122  0.2439E+01  0.1916E+02
     -3.014  0.2995E+01  0.1948E+02
     -2.907  0.3156E+01  0.1982E+02
     -2.799  0.2811E+01  0.2012E+02
     -2.692  0.2305E+01  0.2037E+02
     -2.584  0.2674E+01  0.2066E+02
     -2.477  0.3026E+01  0.2098E+02
     -2.369  0.3192E+01  0.2132E+02
     -2.262  0.3847E+01  0.2174E+02
     -2.154  0.3430E+01  0.2211E+02
     -2.047  0.3234E+01  0.2245E+02
     -1.939  0.4300E+01  0.2292E+02
     -1.832  0.4928E+01  0.2345E+02
     -1.724  0.5804E+01  0.2407E+02
     -1.617  0.5275E+01  0.2464E+02
     -1.509  0.6561E+01  0.2534E+02
     -1.402  0.6309E+01  0.2602E+02
     -1.294  0.5109E+01  0.2657E+02
     -1.187  0.5173E+01  0.2713E+02
     -1.079  0.5377E+01  0.2770E+02
     -0.972  0.3857E+01  0.2812E+02
     -0.864  0.2626E+01  0.2840E+02
     -0.757  0.2177E+01  0.2863E+02
     -0.649  0.3483E+01  0.2901E+02
     -0.542  0.5498E+01  0.2960E+02
     -0.434  0.6080E+01  0.3025E+02
     -0.327  0.6303E+01  0.3093E+02
     -0.219  0.5932E+01  0.3157E+02
     -0.112  0.7195E+01  0.3234E+02
     -0.004  0.7021E+01  0.3310E+02
      0.103  0.5996E+01  0.3374E+02
      0.211  0.7029E+01  0.3450E+02
      0.318  0.8458E+01  0.3541E+02
      0.426  0.8647E+01  0.3634E+02
      0.533  0.8156E+01  0.3721E+02
      0.641  0.4084E+01  0.3765E+02
      0.748  0.2850E+01  0.3796E+02
      0.856  0.3237E+01  0.3831E+02
      0.964  0.3419E+01  0.3867E+02
      1.071  0.3568E+01  0.3906E+02
      1.179  0.3428E+01  0.3943E+02
      1.286  0.3802E+01  0.3984E+02
      1.394  0.3977E+01  0.4026E+02
      1.501  0.4076E+01  0.4070E+02
      1.609  0.3279E+01  0.4105E+02
      1.716  0.3654E+01  0.4145E+02
      1.824  0.3917E+01  0.4187E+02
      1.931  0.2768E+01  0.4216E+02
      2.039  0.2300E+01  0.4241E+02
      2.146  0.2359E+01  0.4267E+02
      2.254  0.2420E+01  0.4293E+02
      2.361  0.2166E+01  0.4316E+02
      2.469  0.1423E+01  0.4331E+02
      2.576  0.6697E+00  0.4338E+02
      2.684  0.4222E+00  0.4343E+02
      2.791  0.7178E+00  0.4351E+02
      2.899  0.7790E+00  0.4359E+02
      3.006  0.6478E+00  0.4366E+02
      3.114  0.3571E+00  0.4370E+02
      3.221  0.3210E+00  0.4373E+02
      3.329  0.4334E+00  0.4378E+02
      3.436  0.4062E+00  0.4382E+02
      3.544  0.5247E+00  0.4388E+02
      3.651  0.3024E+00  0.4391E+02
      3.759  0.1608E+00  0.4393E+02
      3.866  0.3269E+00  0.4396E+02
      3.974  0.2742E+00  0.4399E+02
      4.081  0.5866E-01  0.4400E+02
      4.189  0.1282E-02  0.4400E+02
      4.296  0.8425E-01  0.4401E+02
      4.404  0.2674E+00  0.4404E+02
      4.511  0.4010E+00  0.4408E+02
      4.619  0.5513E+00  0.4414E+02
      4.726  0.7618E+00  0.4422E+02
      4.834  0.8219E+00  0.4431E+02
      4.941  0.9364E+00  0.4441E+02
      5.049  0.9284E+00  0.4451E+02
      5.156  0.1261E+01  0.4465E+02
      5.264  0.1378E+01  0.4479E+02
      5.371  0.1810E+01  0.4499E+02
      5.479  0.2258E+01  0.4523E+02
      5.586  0.2591E+01  0.4551E+02
      5.694  0.3068E+01  0.4584E+02
      5.801  0.3518E+01  0.4622E+02
      5.909  0.3567E+01  0.4660E+02
      6.016  0.4141E+01  0.4705E+02
      6.124  0.4982E+01  0.4758E+02
      6.231  0.4193E+01  0.4803E+02
      6.339  0.4208E+01  0.4849E+02
      6.446  0.4180E+01  0.4894E+02
      6.554  0.4410E+01  0.4941E+02
      6.661  0.3792E+01  0.4982E+02
      6.769  0.3702E+01  0.5022E+02
      6.876  0.3768E+01  0.5062E+02
      6.984  0.4919E+01  0.5115E+02
      7.091  0.4707E+01  0.5166E+02
      7.199  0.4945E+01  0.5219E+02
      7.306  0.5208E+01  0.5275E+02
      7.414  0.4508E+01  0.5323E+02
      7.521  0.4243E+01  0.5369E+02
      7.629  0.4093E+01  0.5413E+02
      7.736  0.3275E+01  0.5448E+02
      7.844  0.3229E+01  0.5483E+02
      7.951  0.3161E+01  0.5517E+02
      8.059  0.3114E+01  0.5550E+02
      8.166  0.4139E+01  0.5595E+02
      8.274  0.3629E+01  0.5634E+02
      8.381  0.4189E+01  0.5679E+02
      8.489  0.4072E+01  0.5722E+02
      8.596  0.3968E+01  0.5765E+02
      8.704  0.4358E+01  0.5812E+02
      8.811  0.5347E+01  0.5869E+02
      8.919  0.4693E+01  0.5920E+02
      9.026  0.5215E+01  0.5976E+02
      9.134  0.5229E+01  0.6032E+02
      9.241  0.4738E+01  0.6083E+02
      9.349  0.5238E+01  0.6139E+02
      9.456  0.4823E+01  0.6191E+02
      9.564  0.4318E+01  0.6238E+02
      9.671  0.4892E+01  0.6290E+02
      9.779  0.5066E+01  0.6345E+02
      9.886  0.5388E+01  0.6403E+02
      9.994  0.4574E+01  0.6452E+02
     10.101  0.3733E+01  0.6492E+02
     10.209  0.4590E+01  0.6541E+02
     10.316  0.4288E+01  0.6587E+02
     10.424  0.5340E+01  0.6645E+02
     10.531  0.5562E+01  0.6705E+02
     10.639  0.4694E+01  0.6755E+02
     10.746  0.4096E+01  0.6799E+02
     10.854  0.4009E+01  0.6842E+02
     10.961  0.3757E+01  0.6883E+02
     11.069  0.4820E+01  0.6934E+02
     11.176  0.5684E+01  0.6996E+02
     11.284  0.6154E+01  0.7062E+02
     11.392  0.5573E+01  0.7122E+02
     11.499  0.5031E+01  0.7176E+02
     11.607  0.4605E+01  0.7225E+02
     11.714  0.4670E+01  0.7275E+02
     11.822  0.4744E+01  0.7326E+02
     11.929  0.5452E+01  0.7385E+02
     12.037  0.6319E+01  0.7453E+02
     12.144  0.5575E+01  0.7513E+02
     12.252  0.5617E+01  0.7573E+02
     12.359  0.5236E+01  0.7630E+02
     12.467  0.5747E+01  0.7691E+02
     12.574  0.5959E+01  0.7755E+02
     12.682  0.5902E+01  0.7819E+02
     12.789  0.5820E+01  0.7881E+02
     12.897  0.5656E+01  0.7942E+02
     13.004  0.6404E+01  0.8011E+02
     13.112  0.5745E+01  0.8073E+02
     13.219  0.6207E+01  0.8140E+02
     13.327  0.6130E+01  0.8205E+02
     13.434  0.5345E+01  0.8263E+02
     13.542  0.5433E+01  0.8321E+02
     13.649  0.5308E+01  0.8378E+02
     13.757  0.5654E+01  0.8439E+02
     13.864  0.5524E+01  0.8499E+02
     13.972  0.5410E+01  0.8557E+02
     14.079  0.5545E+01  0.8616E+02
     14.187  0.5511E+01  0.8676E+02
     14.294  0.4608E+01  0.8725E+02
     14.402  0.4509E+01  0.8774E+02
     14.509  0.5067E+01  0.8828E+02
     14.617  0.5728E+01  0.8890E+02
     14.724  0.4794E+01  0.8941E+02
     14.832  0.4291E+01  0.8987E+02
     14.939  0.4583E+01  0.9037E+02
     15.047  0.5956E+01  0.9101E+02
     15.154  0.6050E+01  0.9166E+02
     15.262  0.5599E+01  0.9226E+02
     15.369  0.5981E+01  0.9290E+02
     15.477  0.6023E+01  0.9355E+02
     15.584  0.5794E+01  0.9417E+02
     15.692  0.4706E+01  0.9468E+02
     15.799  0.3372E+01  0.9504E+02
     15.907  0.2734E+01  0.9533E+02
     16.014  0.1896E+01  0.9554E+02
     16.122  0.1165E+01  0.9566E+02
     16.229  0.1118E+01  0.9578E+02
     16.337  0.9567E+00  0.9589E+02
     16.444  0.7189E+00  0.9596E+02
     16.552  0.2985E+00  0.9600E+02
     16.659  0.3840E-01  0.9600E+02
     16.767  0.5831E-03  0.9600E+02
     16.874  0.6677E-08  0.9600E+02
     16.982  0.1135E-16  0.9600E+02
     17.089  0.0000E+00  0.9600E+02
     17.197  0.0000E+00  0.9600E+02
     17.304  0.0000E+00  0.9600E+02
     17.412  0.0000E+00  0.9600E+02
     17.519  0.0000E+00  0.9600E+02
     17.627  0.0000E+00  0.9600E+02
     17.734  0.0000E+00  0.9600E+02
     17.842  0.0000E+00  0.9600E+02
     17.949  0.0000E+00  0.9600E+02
     18.057  0.0000E+00  0.9600E+02
