   14   14    1    1
  0.1021960E+02  0.5697000E-09  0.4047900E-09  0.6204200E-09  0.5000000E-15
  1.000000000000000E-004
  CAR 
 Kpoints                                 
     42    490     48
 
  0.3571429E-01  0.2500000E-01  0.0000000E+00  0.1098901E-02
      1        -12.728738   1.000000
      2        -11.579767   1.000000
      3         -8.658350   1.000000
      4         -8.421462   1.000000
      5         -6.067900   1.000000
      6         -5.096080   1.000000
      7         -4.650117   1.000000
      8         -4.304341   1.000000
      9         -4.005628   1.000000
     10         -3.566289   1.000000
     11         -2.484267   1.000000
     12         -2.378108   1.000000
     13         -1.949233   1.000000
     14         -1.070425   1.000000
     15         -0.053011   1.000000
     16         -0.021698   1.000000
     17          0.157591   1.000000
     18          0.178610   1.000000
     19          0.568465   1.000000
     20          2.048393   0.000000
     21          2.103622   0.000000
     22          2.221635   0.000000
     23          5.434964   0.000000
     24          5.771077   0.000000
     25          5.832895   0.000000
     26          5.941608   0.000000
     27          6.799800   0.000000
     28          7.580054   0.000000
     29          7.818683   0.000000
     30          8.580111   0.000000
     31          8.781709   0.000000
     32          8.909172   0.000000
     33          9.048099   0.000000
     34         10.077321   0.000000
     35         11.165669   0.000000
     36         11.368321   0.000000
     37         11.716664   0.000000
     38         11.793694   0.000000
     39         11.923326   0.000000
     40         12.378224   0.000000
     41         12.841733   0.000000
     42         13.425755   0.000000
     43         13.524949   0.000000
     44         15.455205   0.000000
     45         15.571899   0.000000
     46         16.020672   0.000000
     47         16.356171   0.000000
     48         16.415234   0.000000
 
  0.1071429E+00  0.2500000E-01  0.0000000E+00  0.1098901E-02
      1        -12.706322   1.000000
      2        -11.618220   1.000000
      3         -8.647748   1.000000
      4         -8.415139   1.000000
      5         -6.026372   1.000000
      6         -5.316763   1.000000
      7         -4.737768   1.000000
      8         -4.050702   1.000000
      9         -3.953444   1.000000
     10         -3.373701   1.000000
     11         -2.519826   1.000000
     12         -2.368082   1.000000
     13         -1.991799   1.000000
     14         -1.234067   1.000000
     15         -0.031278   1.000000
     16          0.006528   1.000000
     17          0.118690   1.000000
     18          0.182089   1.000000
     19          0.517560   1.000000
     20          2.002494   0.000043
     21          2.062592   0.000000
     22          2.160256   0.000000
     23          5.483349   0.000000
     24          5.767230   0.000000
     25          5.823007   0.000000
     26          6.150944   0.000000
     27          6.753386   0.000000
     28          7.313978   0.000000
     29          7.991041   0.000000
     30          8.653987   0.000000
     31          8.967977   0.000000
     32          9.040205   0.000000
     33          9.056840   0.000000
     34         10.139928   0.000000
     35         11.157518   0.000000
     36         11.203543   0.000000
     37         11.395930   0.000000
     38         11.711944   0.000000
     39         12.040650   0.000000
     40         12.422417   0.000000
     41         13.034048   0.000000
     42         13.328485   0.000000
     43         13.761428   0.000000
     44         15.057867   0.000000
     45         15.685310   0.000000
     46         16.051306   0.000000
     47         16.222073   0.000000
     48         16.431118   0.000000
 
  0.1785714E+00  0.2500000E-01  0.0000000E+00  0.1098901E-02
      1        -12.661972   1.000000
      2        -11.691043   1.000000
      3         -8.625805   1.000000
      4         -8.404697   1.000000
      5         -5.977848   1.000000
      6         -5.570852   1.000000
      7         -4.799574   1.000000
      8         -3.928551   1.000000
      9         -3.655044   1.000000
     10         -3.076585   1.000000
     11         -2.595213   1.000000
     12         -2.347458   1.000000
     13         -2.059217   1.000000
     14         -1.528357   1.000000
     15         -0.040898   1.000000
     16          0.008990   1.000000
     17          0.098559   1.000000
     18          0.205064   1.000000
     19          0.437475   1.000000
     20          1.918203   0.061250
     21          1.986863   0.000245
     22          2.038592   0.000000
     23          5.563104   0.000000
     24          5.740683   0.000000
     25          5.940154   0.000000
     26          6.450072   0.000000
     27          6.673653   0.000000
     28          7.070284   0.000000
     29          8.117333   0.000000
     30          8.774814   0.000000
     31          9.041724   0.000000
     32          9.255305   0.000000
     33          9.294061   0.000000
     34         10.277647   0.000000
     35         10.784792   0.000000
     36         10.960964   0.000000
     37         11.278297   0.000000
     38         11.700718   0.000000
     39         12.235337   0.000000
     40         12.526984   0.000000
     41         12.996238   0.000000
     42         13.142030   0.000000
     43         14.229033   0.000000
     44         14.787807   0.000000
     45         15.636465   0.000000
     46         15.868500   0.000000
     47         16.257627   0.000000
     48         16.590846   0.000000
 
  0.2500000E+00  0.2500000E-01  0.0000000E+00  0.1098901E-02
      1        -12.596678   1.000000
      2        -11.791087   1.000000
      3         -8.592399   1.000000
      4         -8.394381   1.000000
      5         -5.973740   1.000000
      6         -5.797149   1.000000
      7         -4.738551   1.000000
      8         -3.834912   1.000000
      9         -3.286758   1.000000
     10         -2.763288   1.000000
     11         -2.686650   1.000000
     12         -2.316118   1.000000
     13         -2.129577   1.000000
     14         -1.902729   1.000000
     15         -0.215210   1.000000
     16          0.041939   1.000000
     17          0.132924   1.000000
     18          0.165639   1.000000
     19          0.444466   1.000000
     20          1.807539   0.943596
     21          1.865741   0.475880
     22          1.887900   0.245960
     23          5.649111   0.000000
     24          5.705371   0.000000
     25          6.189998   0.000000
     26          6.581864   0.000000
     27          6.786729   0.000000
     28          6.899528   0.000000
     29          8.222689   0.000000
     30          8.864790   0.000000
     31          8.988014   0.000000
     32          9.577136   0.000000
     33          9.627581   0.000000
     34         10.296004   0.000000
     35         10.503241   0.000000
     36         10.605198   0.000000
     37         11.368223   0.000000
     38         11.823649   0.000000
     39         12.384134   0.000000
     40         12.585857   0.000000
     41         12.778406   0.000000
     42         12.919957   0.000000
     43         14.683717   0.000000
     44         14.883457   0.000000
     45         15.215392   0.000000
     46         16.021962   0.000000
     47         16.031132   0.000000
     48         16.263671   0.000000
 
  0.3214286E+00  0.2500000E-01  0.0000000E+00  0.1098901E-02
      1        -12.512012   1.000000
      2        -11.909708   1.000000
      3         -8.549481   1.000000
      4         -8.389926   1.000000
      5         -6.025942   1.000000
      6         -5.975140   1.000000
      7         -4.528974   1.000000
      8         -3.716739   1.000000
      9         -2.968607   1.000000
     10         -2.877830   1.000000
     11         -2.384986   1.000000
     12         -2.360258   1.000000
     13         -2.195077   1.000000
     14         -2.188252   1.000000
     15         -0.428960   1.000000
     16         -0.134979   1.000000
     17          0.154814   1.000000
     18          0.235091   1.000000
     19          0.558320   1.000000
     20          1.630749   1.000000
     21          1.716735   0.999984
     22          1.780790   0.990417
     23          5.688173   0.000000
     24          5.717236   0.000000
     25          6.502479   0.000000
     26          6.546596   0.000000
     27          6.702754   0.000000
     28          7.245483   0.000000
     29          8.314581   0.000000
     30          8.799786   0.000000
     31          8.872419   0.000000
     32          9.763647   0.000000
     33          9.916770   0.000000
     34          9.983902   0.000000
     35         10.383714   0.000000
     36         10.947232   0.000000
     37         11.413116   0.000000
     38         12.066207   0.000000
     39         12.141672   0.000000
     40         12.469778   0.000000
     41         12.476855   0.000000
     42         13.123595   0.000000
     43         14.825728   0.000000
     44         14.941849   0.000000
     45         15.292445   0.000000
     46         15.535137   0.000000
     47         15.632932   0.000000
     48         16.310968   0.000000
 
  0.3928571E+00  0.2500000E-01  0.0000000E+00  0.1098901E-02
      1        -12.410212   1.000000
      2        -12.038167   1.000000
      3         -8.501703   1.000000
      4         -8.397069   1.000000
      5         -6.096782   1.000000
      6         -6.094185   1.000000
      7         -4.206288   1.000000
      8         -3.574854   1.000000
      9         -3.053657   1.000000
     10         -2.985944   1.000000
     11         -2.494731   1.000000
     12         -2.264312   1.000000
     13         -2.105647   1.000000
     14         -2.060409   1.000000
     15         -0.636968   1.000000
     16         -0.399387   1.000000
     17          0.221266   1.000000
     18          0.284984   1.000000
     19          0.722584   1.000000
     20          1.392222   1.000000
     21          1.631819   1.000000
     22          1.683415   1.000000
     23          5.695109   0.000000
     24          5.750161   0.000000
     25          6.458337   0.000000
     26          6.588679   0.000000
     27          6.987774   0.000000
     28          7.699483   0.000000
     29          8.398926   0.000000
     30          8.495656   0.000000
     31          8.711549   0.000000
     32          9.224709   0.000000
     33         10.269102   0.000000
     34         10.298898   0.000000
     35         10.524097   0.000000
     36         11.361002   0.000000
     37         11.473888   0.000000
     38         11.691859   0.000000
     39         11.968124   0.000000
     40         12.393783   0.000000
     41         12.535794   0.000000
     42         13.346055   0.000000
     43         14.572869   0.000000
     44         14.956469   0.000000
     45         15.003943   0.000000
     46         15.179378   0.000000
     47         15.774624   0.000000
     48         16.449944   0.000000
 
  0.4642857E+00  0.2500000E-01  0.0000000E+00  0.1098901E-02
      1        -12.294383   1.000000
      2        -12.168600   1.000000
      3         -8.455892   1.000000
      4         -8.419329   1.000000
      5         -6.150111   1.000000
      6         -6.146562   1.000000
      7         -3.812906   1.000000
      8         -3.416556   1.000000
      9         -3.379870   1.000000
     10         -3.235926   1.000000
     11         -2.396408   1.000000
     12         -2.320634   1.000000
     13         -1.943109   1.000000
     14         -1.890829   1.000000
     15         -0.743398   1.000000
     16         -0.641437   1.000000
     17          0.275809   1.000000
     18          0.300171   1.000000
     19          0.922553   1.000000
     20          1.149734   1.000000
     21          1.595768   1.000000
     22          1.615645   1.000000
     23          5.719723   0.000000
     24          5.745557   0.000000
     25          6.461231   0.000000
     26          6.507330   0.000000
     27          7.487170   0.000000
     28          8.009943   0.000000
     29          8.184956   0.000000
     30          8.487061   0.000000
     31          8.587598   0.000000
     32          8.697088   0.000000
     33         10.552406   0.000000
     34         10.561545   0.000000
     35         10.835570   0.000000
     36         11.200548   0.000000
     37         11.352022   0.000000
     38         11.523821   0.000000
     39         12.036178   0.000000
     40         12.429326   0.000000
     41         12.772031   0.000000
     42         13.169173   0.000000
     43         14.608277   0.000000
     44         14.733747   0.000000
     45         14.815433   0.000000
     46         14.884001   0.000000
     47         16.169475   0.000000
     48         16.424892   0.000000
 
  0.3571429E-01  0.7500000E-01  0.0000000E+00  0.1098901E-02
      1        -12.716766   1.000000
      2        -11.569015   1.000000
      3         -8.648974   1.000000
      4         -8.409910   1.000000
      5         -6.054601   1.000000
      6         -5.078455   1.000000
      7         -4.639130   1.000000
      8         -4.396534   1.000000
      9         -4.172916   1.000000
     10         -3.554136   1.000000
     11         -2.985346   1.000000
     12         -2.073558   1.000000
     13         -1.394649   1.000000
     14         -1.068137   1.000000
     15         -0.183200   1.000000
     16         -0.159141   1.000000
     17          0.165059   1.000000
     18          0.229131   1.000000
     19          0.616093   1.000000
     20          1.897236   0.170717
     21          1.973608   0.000931
     22          2.261577   0.000000
     23          5.562322   0.000000
     24          5.677220   0.000000
     25          5.818752   0.000000
     26          5.937824   0.000000
     27          6.948730   0.000000
     28          7.726934   0.000000
     29          7.970916   0.000000
     30          8.284903   0.000000
     31          8.782100   0.000000
     32          9.032112   0.000000
     33          9.082281   0.000000
     34         10.343446   0.000000
     35         11.280709   0.000000
     36         11.328993   0.000000
     37         11.682338   0.000000
     38         11.843417   0.000000
     39         11.976112   0.000000
     40         12.520433   0.000000
     41         12.845044   0.000000
     42         13.278646   0.000000
     43         13.366596   0.000000
     44         15.453591   0.000000
     45         15.462531   0.000000
     46         15.982900   0.000000
     47         16.155730   0.000000
     48         16.282494   0.000000
 
  0.1071429E+00  0.7500000E-01  0.0000000E+00  0.1098901E-02
      1        -12.694379   1.000000
      2        -11.607435   1.000000
      3         -8.638329   1.000000
      4         -8.403686   1.000000
      5         -6.012634   1.000000
      6         -5.301253   1.000000
      7         -4.727254   1.000000
      8         -4.297889   1.000000
      9         -3.964816   1.000000
     10         -3.363327   1.000000
     11         -3.018041   1.000000
     12         -2.062637   1.000000
     13         -1.446082   1.000000
     14         -1.231643   1.000000
     15         -0.162465   1.000000
     16         -0.126993   1.000000
     17          0.172148   1.000000
     18          0.191671   1.000000
     19          0.563816   1.000000
     20          1.853778   0.609439
     21          1.932826   0.025118
     22          2.196558   0.000000
     23          5.613692   0.000000
     24          5.687853   0.000000
     25          5.884028   0.000000
     26          6.054563   0.000000
     27          6.902807   0.000000
     28          7.472225   0.000000
     29          8.131002   0.000000
     30          8.361338   0.000000
     31          8.976238   0.000000
     32          9.084889   0.000000
     33          9.182617   0.000000
     34         10.360194   0.000000
     35         11.118583   0.000000
     36         11.313859   0.000000
     37         11.357163   0.000000
     38         11.775998   0.000000
     39         12.094155   0.000000
     40         12.562070   0.000000
     41         13.042185   0.000000
     42         13.173584   0.000000
     43         13.612311   0.000000
     44         15.097463   0.000000
     45         15.553507   0.000000
     46         15.964333   0.000000
     47         16.027812   0.000000
     48         16.416376   0.000000
 
  0.1785714E+00  0.7500000E-01  0.0000000E+00  0.1098901E-02
      1        -12.650072   1.000000
      2        -11.680182   1.000000
      3         -8.616315   1.000000
      4         -8.393424   1.000000
      5         -5.963208   1.000000
      6         -5.555766   1.000000
      7         -4.790092   1.000000
      8         -4.223592   1.000000
      9         -3.619993   1.000000
     10         -3.123908   1.000000
     11         -3.027371   1.000000
     12         -2.040741   1.000000
     13         -1.532531   1.000000
     14         -1.525366   1.000000
     15         -0.127469   1.000000
     16         -0.109448   1.000000
     17          0.096156   1.000000
     18          0.227332   1.000000
     19          0.475778   1.000000
     20          1.773626   0.994534
     21          1.857627   0.567102
     22          2.068648   0.000000
     23          5.697608   0.000000
     24          5.777594   0.000000
     25          5.892589   0.000000
     26          6.338793   0.000000
     27          6.824033   0.000000
     28          7.244981   0.000000
     29          8.248710   0.000000
     30          8.492240   0.000000
     31          9.095501   0.000000
     32          9.270014   0.000000
     33          9.436029   0.000000
     34         10.391576   0.000000
     35         10.750713   0.000000
     36         10.934269   0.000000
     37         11.378559   0.000000
     38         11.799649   0.000000
     39         12.293698   0.000000
     40         12.653576   0.000000
     41         12.852823   0.000000
     42         13.157819   0.000000
     43         14.045867   0.000000
     44         14.874934   0.000000
     45         15.560245   0.000000
     46         15.789718   0.000000
     47         15.992142   0.000000
     48         16.557175   0.000000
 
  0.2500000E+00  0.7500000E-01  0.0000000E+00  0.1098901E-02
      1        -12.584856   1.000000
      2        -11.780127   1.000000
      3         -8.582831   1.000000
      4         -8.383374   1.000000
      5         -5.958132   1.000000
      6         -5.781946   1.000000
      7         -4.730266   1.000000
      8         -4.136730   1.000000
      9         -3.246208   1.000000
     10         -3.197317   1.000000
     11         -2.710055   1.000000
     12         -2.011859   1.000000
     13         -1.896255   1.000000
     14         -1.634449   1.000000
     15         -0.218576   1.000000
     16         -0.101119   1.000000
     17          0.105580   1.000000
     18          0.185864   1.000000
     19          0.458413   1.000000
     20          1.670347   1.000000
     21          1.759421   0.998394
     22          1.885903   0.264097
     23          5.786067   0.000000
     24          5.786683   0.000000
     25          6.101729   0.000000
     26          6.665309   0.000000
     27          6.733948   0.000000
     28          7.092082   0.000000
     29          8.348216   0.000000
     30          8.620329   0.000000
     31          9.052638   0.000000
     32          9.594771   0.000000
     33          9.768830   0.000000
     34         10.205251   0.000000
     35         10.421381   0.000000
     36         10.730547   0.000000
     37         11.448375   0.000000
     38         11.958694   0.000000
     39         12.432396   0.000000
     40         12.475804   0.000000
     41         12.893357   0.000000
     42         12.939465   0.000000
     43         14.457071   0.000000
     44         15.030107   0.000000
     45         15.240679   0.000000
     46         15.812523   0.000000
     47         15.849672   0.000000
     48         16.380476   0.000000
 
  0.3214286E+00  0.7500000E-01  0.0000000E+00  0.1098901E-02
      1        -12.500279   1.000000
      2        -11.898627   1.000000
      3         -8.539837   1.000000
      4         -8.379237   1.000000
      5         -6.009836   1.000000
      6         -5.959663   1.000000
      7         -4.521507   1.000000
      8         -4.029705   1.000000
      9         -3.320669   1.000000
     10         -2.919896   1.000000
     11         -2.360992   1.000000
     12         -2.289464   1.000000
     13         -1.953063   1.000000
     14         -1.738732   1.000000
     15         -0.415848   1.000000
     16         -0.182954   1.000000
     17          0.120971   1.000000
     18          0.163391   1.000000
     19          0.564733   1.000000
     20          1.559076   1.000000
     21          1.653140   1.000000
     22          1.669074   1.000000
     23          5.779192   0.000000
     24          5.852182   0.000000
     25          6.453772   0.000000
     26          6.657636   0.000000
     27          6.804551   0.000000
     28          7.221726   0.000000
     29          8.434202   0.000000
     30          8.628218   0.000000
     31          8.933217   0.000000
     32          9.672569   0.000000
     33          9.936563   0.000000
     34         10.073203   0.000000
     35         10.311992   0.000000
     36         11.009561   0.000000
     37         11.449579   0.000000
     38         12.029359   0.000000
     39         12.222021   0.000000
     40         12.495851   0.000000
     41         12.576614   0.000000
     42         13.226701   0.000000
     43         14.792408   0.000000
     44         14.893713   0.000000
     45         15.345623   0.000000
     46         15.425306   0.000000
     47         15.621487   0.000000
     48         16.343130   0.000000
 
  0.3928571E+00  0.7500000E-01  0.0000000E+00  0.1098901E-02
      1        -12.398586   1.000000
      2        -12.026941   1.000000
      3         -8.491959   1.000000
      4         -8.386704   1.000000
      5         -6.080545   1.000000
      6         -6.078408   1.000000
      7         -4.199397   1.000000
      8         -3.903854   1.000000
      9         -3.462589   1.000000
     10         -2.970988   1.000000
     11         -2.351998   1.000000
     12         -2.051039   1.000000
     13         -1.887798   1.000000
     14         -1.838179   1.000000
     15         -0.618473   1.000000
     16         -0.408242   1.000000
     17          0.152566   1.000000
     18          0.209722   1.000000
     19          0.727532   1.000000
     20          1.390881   1.000000
     21          1.512176   1.000000
     22          1.556388   1.000000
     23          5.794056   0.000000
     24          5.877829   0.000000
     25          6.617648   0.000000
     26          6.735345   0.000000
     27          6.893642   0.000000
     28          7.635191   0.000000
     29          8.371340   0.000000
     30          8.510884   0.000000
     31          8.786265   0.000000
     32          9.141626   0.000000
     33         10.227787   0.000000
     34         10.292861   0.000000
     35         10.556568   0.000000
     36         11.293390   0.000000
     37         11.505296   0.000000
     38         11.671606   0.000000
     39         11.992457   0.000000
     40         12.566981   0.000000
     41         12.639477   0.000000
     42         13.455328   0.000000
     43         14.650219   0.000000
     44         14.903108   0.000000
     45         14.940761   0.000000
     46         15.161029   0.000000
     47         15.848962   0.000000
     48         16.443493   0.000000
 
  0.4642857E+00  0.7500000E-01  0.0000000E+00  0.1098901E-02
      1        -12.282883   1.000000
      2        -12.157235   1.000000
      3         -8.446015   1.000000
      4         -8.409240   1.000000
      5         -6.134080   1.000000
      6         -6.130370   1.000000
      7         -3.807255   1.000000
      8         -3.763569   1.000000
      9         -3.611902   1.000000
     10         -3.375885   1.000000
     11         -2.139490   1.000000
     12         -1.983372   1.000000
     13         -1.822926   1.000000
     14         -1.815016   1.000000
     15         -0.727434   1.000000
     16         -0.635952   1.000000
     17          0.199478   1.000000
     18          0.223182   1.000000
     19          0.927261   1.000000
     20          1.154203   1.000000
     21          1.469480   1.000000
     22          1.488857   1.000000
     23          5.827430   0.000000
     24          5.863156   0.000000
     25          6.622908   0.000000
     26          6.666106   0.000000
     27          7.391352   0.000000
     28          7.908159   0.000000
     29          8.108860   0.000000
     30          8.589538   0.000000
     31          8.600554   0.000000
     32          8.692093   0.000000
     33         10.487602   0.000000
     34         10.586280   0.000000
     35         10.810009   0.000000
     36         11.007056   0.000000
     37         11.457418   0.000000
     38         11.563838   0.000000
     39         12.081163   0.000000
     40         12.510996   0.000000
     41         12.934835   0.000000
     42         13.300784   0.000000
     43         14.609898   0.000000
     44         14.766318   0.000000
     45         14.773529   0.000000
     46         14.950199   0.000000
     47         16.185417   0.000000
     48         16.414425   0.000000
 
  0.3571429E-01  0.1250000E+00  0.0000000E+00  0.1098901E-02
      1        -12.693691   1.000000
      2        -11.548316   1.000000
      3         -8.630993   1.000000
      4         -8.387673   1.000000
      5         -6.028972   1.000000
      6         -5.045443   1.000000
      7         -4.712661   1.000000
      8         -4.617679   1.000000
      9         -4.210891   1.000000
     10         -3.537390   1.000000
     11         -3.444211   1.000000
     12         -1.640535   1.000000
     13         -1.063782   1.000000
     14         -0.828164   1.000000
     15         -0.378799   1.000000
     16         -0.357386   1.000000
     17          0.176692   1.000000
     18          0.273791   1.000000
     19          0.675719   1.000000
     20          1.667618   1.000000
     21          1.743977   0.999642
     22          2.293515   0.000000
     23          5.524072   0.000000
     24          5.641438   0.000000
     25          5.794126   0.000000
     26          6.060398   0.000000
     27          7.208539   0.000000
     28          7.948215   0.000000
     29          7.979060   0.000000
     30          8.287636   0.000000
     31          8.783951   0.000000
     32          9.131360   0.000000
     33          9.179067   0.000000
     34         10.709303   0.000000
     35         11.280188   0.000000
     36         11.471440   0.000000
     37         11.623501   0.000000
     38         11.941151   0.000000
     39         12.086391   0.000000
     40         12.781944   0.000000
     41         12.826911   0.000000
     42         13.077877   0.000000
     43         13.119264   0.000000
     44         15.207291   0.000000
     45         15.416458   0.000000
     46         15.713221   0.000000
     47         15.766503   0.000000
     48         16.143989   0.000000
 
  0.1071429E+00  0.1250000E+00  0.0000000E+00  0.1098901E-02
      1        -12.671350   1.000000
      2        -11.586661   1.000000
      3         -8.620259   1.000000
      4         -8.381631   1.000000
      5         -5.986140   1.000000
      6         -5.272613   1.000000
      7         -4.706776   1.000000
      8         -4.664064   1.000000
      9         -3.949158   1.000000
     10         -3.496263   1.000000
     11         -3.326628   1.000000
     12         -1.629470   1.000000
     13         -1.227007   1.000000
     14         -0.914939   1.000000
     15         -0.356820   1.000000
     16         -0.286538   1.000000
     17          0.204662   1.000000
     18          0.211273   1.000000
     19          0.620419   1.000000
     20          1.625518   1.000000
     21          1.704204   0.999997
     22          2.225490   0.000000
     23          5.529840   0.000000
     24          5.848392   0.000000
     25          5.850873   0.000000
     26          6.037739   0.000000
     27          7.163634   0.000000
     28          7.755514   0.000000
     29          8.027314   0.000000
     30          8.404298   0.000000
     31          9.000294   0.000000
     32          9.143234   0.000000
     33          9.328088   0.000000
     34         10.635643   0.000000
     35         11.064931   0.000000
     36         11.314785   0.000000
     37         11.496264   0.000000
     38         11.907390   0.000000
     39         12.204272   0.000000
     40         12.798412   0.000000
     41         12.952277   0.000000
     42         13.046010   0.000000
     43         13.404258   0.000000
     44         15.116067   0.000000
     45         15.248402   0.000000
     46         15.691905   0.000000
     47         15.702575   0.000000
     48         16.228808   0.000000
 
  0.1785714E+00  0.1250000E+00  0.0000000E+00  0.1098901E-02
      1        -12.627153   1.000000
      2        -11.659272   1.000000
      3         -8.598113   1.000000
      4         -8.371737   1.000000
      5         -5.934948   1.000000
      6         -5.527244   1.000000
      7         -4.771684   1.000000
      8         -4.604494   1.000000