 vasp.6.4.3 19Mar24 (build May 31 2024 16:31:43) complex                        
  
 executed on             LinuxIFC date 2024.10.29  15:50:33
 running   24 mpi-ranks, with    1 threads/rank, on    1 nodes
 distrk:  each k-point on   24 cores,    1 groups
 distr:  one band on NCORE=   1 cores,   24 groups


--------------------------------------------------------------------------------------------------------


 INCAR:
   SYSTEM = Kpoints
   ISTART = 0
   ICHARG = 2
   PREC = Accurate
   ENCUT = 450
   LCHARG = .FALSE.
   LWAVE = .FALSE.
   ALGO = Normal
   NELM = 100
   EDIFF = 1E-6
   EDIFFG = -1E-3
   SIGMA = 0.05
   ISMEAR = 0
   ISPIN = 1
   NSW = 0
   IBRION = -1
   POTIM = .5
   ISIF = 2
   GGA = PE

 POTCAR:    PAW_PBE B 06Sep2000                   
 POTCAR:    PAW_PBE B 06Sep2000                   
   SHA256 =  a32ced30f5ae56fd4d10b4325ff17eb3e4e38ee0f4288bc219fb012fddfa6e97 B/POTCAR              
   COPYR  = (c) Copyright 06Sep2000 Georg Kresse                                                    
   COPYR  = This file is part of the software VASP. Any use, copying, and all other rights are regul
   COPYR  = If you do not have a valid VASP license, you may not use, copy or distribute this file. 
   VRHFIN =B: s2p1                                                                                  
   LEXCH  = PE                                                                                      
   EATOM  =    71.1703 eV,    5.2309 Ry                                                             
                                                                                                    
   TITEL  = PAW_PBE B 06Sep2000                                                                     
   LULTRA =        F    use ultrasoft PP ?                                                          
   IUNSCR =        1    unscreen: 0-lin 1-nonlin 2-no                                               
   RPACOR =    1.200    partial core radius                                                         
   POMASS =   10.811; ZVAL   =    3.000    mass and valenz                                          
   RCORE  =    1.700    outmost cutoff radius                                                       
   RWIGS  =    1.710; RWIGS  =    0.905    wigner-seitz radius (au A)                               
   ENMAX  =  318.614; ENMIN  =  238.960 eV                                                          
   ICORE  =        2    local potential                                                             
   LCOR   =        T    correct aug charges                                                         
   LPAW   =        T    paw PP                                                                      
   EAUG   =  535.514                                                                                
   DEXC   =    0.000                                                                                
   RMAX   =    1.732    core radius for proj-oper                                                   
   RAUG   =    1.300    factor for augmentation sphere                                              
   RDEP   =    1.757    radius for radial grids                                                     
   RDEPT  =    1.436    core radius for aug-charge                                                  
                                                                                                    
   Atomic configuration                                                                             
    4 entries                                                                                       
     n  l   j            E        occ.                                                              
     1  0  0.50      -180.5896   2.0000                                                             
     2  0  0.50        -9.4431   2.0000                                                             
     2  1  0.50        -3.6068   1.0000                                                             
     3  2  1.50        -4.0817   0.0000                                                             
   Description                                                                                      
     l       E           TYP  RCUT    TYP  RCUT                                                     
     0     -9.4430752     23  1.500                                                                 
     0      0.8675899     23  1.500                                                                 
     1     -3.6067955     23  1.700                                                                 
     1      6.1086146     23  1.700                                                                 
     2     -4.0817478      7  1.700                                                                 
  local pseudopotential read in
  partial core-charges read in
  partial kinetic energy density read in
  atomic valenz-charges read in
  non local Contribution for L=           0  read in
    real space projection operators read in
  non local Contribution for L=           0  read in
    real space projection operators read in
  non local Contribution for L=           1  read in
    real space projection operators read in
  non local Contribution for L=           1  read in
    real space projection operators read in
    PAW grid and wavefunctions read in
 
   number of l-projection  operators is LMAX  =           4
   number of lm-projection operators is LMMAX =           8
 
  PAW_PBE B 06Sep2000                   :
 energy of atom  1       EATOM=  -71.1703
 kinetic energy error for atom=    0.0015 (will be added to EATOM!!)
 
 
 POSCAR: o-B14
  positions in direct lattice
  No initial velocities read in


 exchange-correlation table for PE
   RHO(1)=    0.500       N(1)  =     2000
   RHO(2)=  100.500       N(2)  =     4000
 


--------------------------------------------------------------------------------------------------------


 ion  position               nearest neighbor table
   1  0.521  0.500  0.638-  14 1.64   5 1.69  13 1.70   2 1.73   9 1.85  11 1.85
   2  0.479  0.500  0.362-  13 1.64   6 1.69  14 1.70   1 1.73  10 1.85  12 1.85
   3  0.979  0.500  0.638-  14 1.64   7 1.69  13 1.70   4 1.73   9 1.85  11 1.85
   4  0.021  0.500  0.362-  13 1.64   8 1.69  14 1.70   3 1.73  10 1.85  12 1.85
   5  0.601  0.500  0.900-   1 1.69   6 1.69   7 1.70   9 1.80  11 1.80
   6  0.399  0.500  0.100-   2 1.69   5 1.69   8 1.70  10 1.80  12 1.80
   7  0.899  0.500  0.900-   3 1.69   8 1.69   5 1.70   9 1.80  11 1.80
   8  0.101  0.500  0.100-   4 1.69   7 1.69   6 1.70  10 1.80  12 1.80
   9  0.750  0.792  0.730-  11 1.69   7 1.80   5 1.80   3 1.85   1 1.85  14 1.97
  10  0.250  0.208  0.270-  12 1.69   8 1.80   6 1.80   4 1.85   2 1.85  13 1.97
  11  0.750  0.208  0.730-   9 1.69   7 1.80   5 1.80   3 1.85   1 1.85  14 1.97
  12  0.250  0.792  0.270-  10 1.69   8 1.80   6 1.80   4 1.85   2 1.85  13 1.97
  13  0.250  0.500  0.524-   2 1.64   4 1.64   3 1.70   1 1.70  10 1.97  12 1.97
  14  0.750  0.500  0.476-   1 1.64   3 1.64   2 1.70   4 1.70   9 1.97  11 1.97
 
  LATTYP: Found a simple orthorhombic cell.
 ALAT       =     4.0479000000
 B/A-ratio  =     1.4073964278
 C/A-ratio  =     1.5326959658
  
  Lattice vectors:
  
 A1 = (   0.0000000000,  -4.0479000000,   0.0000000000)
 A2 = (   5.6970000000,   0.0000000000,   0.0000000000)
 A3 = (   0.0000000000,   0.0000000000,   6.2042000000)


Analysis of symmetry for initial positions (statically):
=====================================================================
 Subroutine PRICEL returns:
 Original cell was already a primitive cell.
 

 Routine SETGRP: Setting up the symmetry group for a 
 simple orthorhombic supercell.


 Subroutine GETGRP returns: Found  8 space group operations
 (whereof  4 operations were pure point group operations)
 out of a pool of  8 trial point group operations.


The static configuration has the point symmetry C_2h.
 The point group associated with its full space group is D_2h.


Analysis of symmetry for dynamics (positions and initial velocities):
=====================================================================
 Subroutine PRICEL returns:
 Original cell was already a primitive cell.
 

 Routine SETGRP: Setting up the symmetry group for a 
 simple orthorhombic supercell.


 Subroutine GETGRP returns: Found  8 space group operations
 (whereof  4 operations were pure point group operations)
 out of a pool of  8 trial point group operations.


The dynamic configuration has the point symmetry C_2h.
 The point group associated with its full space group is D_2h.


 Subroutine INISYM returns: Found  8 space group operations
 (whereof  4 operations are pure point group operations),
 and found     1 'primitive' translations


----------------------------------------------------------------------------------------

                                     Primitive cell                                     

  volume of cell :     143.0744

  direct lattice vectors                    reciprocal lattice vectors
     5.697000000  0.000000000  0.000000000     0.175530981  0.000000000  0.000000000
     0.000000000  4.047900000  0.000000000     0.000000000  0.247041676  0.000000000
     0.000000000  0.000000000  6.204200000     0.000000000  0.000000000  0.161181135

  length of vectors
     5.697000000  4.047900000  6.204200000     0.175530981  0.247041676  0.161181135

  position of ions in fractional coordinates (direct lattice)
     0.521230000  0.500000000  0.637960000
     0.478770000  0.500000000  0.362040000
     0.978770000  0.500000000  0.637960000
     0.021230000  0.500000000  0.362040000
     0.600900000  0.500000000  0.899910000
     0.399100000  0.500000000  0.100090000
     0.899100000  0.500000000  0.899910000
     0.100900000  0.500000000  0.100090000
     0.750000000  0.791710000  0.729730000
     0.250000000  0.208290000  0.270270000
     0.750000000  0.208290000  0.729730000
     0.250000000  0.791710000  0.270270000
     0.250000000  0.500000000  0.523670000
     0.750000000  0.500000000  0.476330000

  ion indices of the primitive-cell ions
   primitive index   ion index
                 1           1
                 2           2
                 3           3
                 4           4
                 5           5
                 6           6
                 7           7
                 8           8
                 9           9
                10          10
                11          11
                12          12
                13          13
                14          14

----------------------------------------------------------------------------------------

 
 
 KPOINTS: k-points                                

Automatic generation of k-mesh.
 Grid dimensions read from file:
 generate k-points for:   14   20   13

 Generating k-lattice:

  Cartesian coordinates                     Fractional coordinates (reciprocal lattice)
     0.012537927  0.000000000  0.000000000     0.071428571  0.000000000  0.000000000
     0.000000000  0.012352084  0.000000000     0.000000000  0.050000000  0.000000000
     0.000000000  0.000000000  0.012398549     0.000000000  0.000000000  0.076923077

  Length of vectors
     0.012537927  0.012352084  0.012398549

  Shift w.r.t. Gamma in fractional coordinates (k-lattice)
     0.500000000  0.500000000  0.000000000

 
 Subroutine IBZKPT returns following result:
 ===========================================
 
 Found    490 irreducible k-points:
 
 Following reciprocal coordinates:
            Coordinates               Weight
  0.035714  0.025000  0.000000      4.000000
  0.107143  0.025000  0.000000      4.000000
  0.178571  0.025000  0.000000      4.000000
  0.250000  0.025000  0.000000      4.000000
  0.321429  0.025000  0.000000      4.000000
  0.392857  0.025000  0.000000      4.000000
  0.464286  0.025000  0.000000      4.000000
  0.035714  0.075000  0.000000      4.000000
  0.107143  0.075000  0.000000      4.000000
  0.178571  0.075000  0.000000      4.000000
  0.250000  0.075000  0.000000      4.000000
  0.321429  0.075000  0.000000      4.000000
  0.392857  0.075000  0.000000      4.000000
  0.464286  0.075000  0.000000      4.000000
  0.035714  0.125000  0.000000      4.000000
  0.107143  0.125000  0.000000      4.000000
  0.178571  0.125000  0.000000      4.000000
  0.250000  0.125000  0.000000      4.000000
  0.321429  0.125000  0.000000      4.000000
  0.392857  0.125000  0.000000      4.000000
  0.464286  0.125000  0.000000      4.000000
  0.035714  0.175000  0.000000      4.000000
  0.107143  0.175000  0.000000      4.000000
  0.178571  0.175000  0.000000      4.000000
  0.250000  0.175000  0.000000      4.000000
  0.321429  0.175000  0.000000      4.000000
  0.392857  0.175000  0.000000      4.000000
  0.464286  0.175000  0.000000      4.000000
  0.035714  0.225000  0.000000      4.000000
  0.107143  0.225000  0.000000      4.000000
  0.178571  0.225000  0.000000      4.000000
  0.250000  0.225000  0.000000      4.000000
  0.321429  0.225000  0.000000      4.000000
  0.392857  0.225000  0.000000      4.000000
  0.464286  0.225000  0.000000      4.000000
  0.035714  0.275000  0.000000      4.000000
  0.107143  0.275000  0.000000      4.000000
  0.178571  0.275000  0.000000      4.000000
  0.250000  0.275000  0.000000      4.000000
  0.321429  0.275000  0.000000      4.000000
  0.392857  0.275000  0.000000      4.000000
  0.464286  0.275000  0.000000      4.000000
  0.035714  0.325000  0.000000      4.000000
  0.107143  0.325000  0.000000      4.000000
  0.178571  0.325000  0.000000      4.000000
  0.250000  0.325000  0.000000      4.000000
  0.321429  0.325000  0.000000      4.000000
  0.392857  0.325000  0.000000      4.000000
  0.464286  0.325000  0.000000      4.000000
  0.035714  0.375000  0.000000      4.000000
  0.107143  0.375000  0.000000      4.000000
  0.178571  0.375000  0.000000      4.000000
  0.250000  0.375000  0.000000      4.000000
  0.321429  0.375000  0.000000      4.000000
  0.392857  0.375000  0.000000      4.000000
  0.464286  0.375000  0.000000      4.000000
  0.035714  0.425000  0.000000      4.000000
  0.107143  0.425000  0.000000      4.000000
  0.178571  0.425000  0.000000      4.000000
  0.250000  0.425000  0.000000      4.000000
  0.321429  0.425000  0.000000      4.000000
  0.392857  0.425000  0.000000      4.000000
  0.464286  0.425000  0.000000      4.000000
  0.035714  0.475000  0.000000      4.000000
  0.107143  0.475000  0.000000      4.000000
  0.178571  0.475000  0.000000      4.000000
  0.250000  0.475000  0.000000      4.000000
  0.321429  0.475000  0.000000      4.000000
  0.392857  0.475000  0.000000      4.000000
  0.464286  0.475000  0.000000      4.000000
  0.035714  0.025000  0.076923      8.000000
  0.107143  0.025000  0.076923      8.000000
  0.178571  0.025000  0.076923      8.000000
  0.250000  0.025000  0.076923      8.000000
  0.321429  0.025000  0.076923      8.000000
  0.392857  0.025000  0.076923      8.000000
  0.464286  0.025000  0.076923      8.000000
  0.035714  0.075000  0.076923      8.000000
  0.107143  0.075000  0.076923      8.000000
  0.178571  0.075000  0.076923      8.000000
  0.250000  0.075000  0.076923      8.000000
  0.321429  0.075000  0.076923      8.000000
  0.392857  0.075000  0.076923      8.000000
  0.464286  0.075000  0.076923      8.000000
  0.035714  0.125000  0.076923      8.000000
  0.107143  0.125000  0.076923      8.000000
  0.178571  0.125000  0.076923      8.000000
  0.250000  0.125000  0.076923      8.000000
  0.321429  0.125000  0.076923      8.000000
  0.392857  0.125000  0.076923      8.000000
  0.464286  0.125000  0.076923      8.000000
  0.035714  0.175000  0.076923      8.000000
  0.107143  0.175000  0.076923      8.000000
  0.178571  0.175000  0.076923      8.000000
  0.250000  0.175000  0.076923      8.000000
  0.321429  0.175000  0.076923      8.000000
  0.392857  0.175000  0.076923      8.000000
  0.464286  0.175000  0.076923      8.000000
  0.035714  0.225000  0.076923      8.000000
  0.107143  0.225000  0.076923      8.000000
  0.178571  0.225000  0.076923      8.000000
  0.250000  0.225000  0.076923      8.000000
  0.321429  0.225000  0.076923      8.000000
  0.392857  0.225000  0.076923      8.000000
  0.464286  0.225000  0.076923      8.000000
  0.035714  0.275000  0.076923      8.000000
  0.107143  0.275000  0.076923      8.000000
  0.178571  0.275000  0.076923      8.000000
  0.250000  0.275000  0.076923      8.000000
  0.321429  0.275000  0.076923      8.000000
  0.392857  0.275000  0.076923      8.000000
  0.464286  0.275000  0.076923      8.000000
  0.035714  0.325000  0.076923      8.000000
  0.107143  0.325000  0.076923      8.000000
  0.178571  0.325000  0.076923      8.000000
  0.250000  0.325000  0.076923      8.000000
  0.321429  0.325000  0.076923      8.000000
  0.392857  0.325000  0.076923      8.000000
  0.464286  0.325000  0.076923      8.000000
  0.035714  0.375000  0.076923      8.000000
  0.107143  0.375000  0.076923      8.000000
  0.178571  0.375000  0.076923      8.000000
  0.250000  0.375000  0.076923      8.000000
  0.321429  0.375000  0.076923      8.000000
  0.392857  0.375000  0.076923      8.000000
  0.464286  0.375000  0.076923      8.000000
  0.035714  0.425000  0.076923      8.000000
  0.107143  0.425000  0.076923      8.000000
  0.178571  0.425000  0.076923      8.000000
  0.250000  0.425000  0.076923      8.000000
  0.321429  0.425000  0.076923      8.000000
  0.392857  0.425000  0.076923      8.000000
  0.464286  0.425000  0.076923      8.000000
  0.035714  0.475000  0.076923      8.000000
  0.107143  0.475000  0.076923      8.000000
  0.178571  0.475000  0.076923      8.000000
  0.250000  0.475000  0.076923      8.000000
  0.321429  0.475000  0.076923      8.000000
  0.392857  0.475000  0.076923      8.000000
  0.464286  0.475000  0.076923      8.000000
  0.035714  0.025000  0.153846      8.000000
  0.107143  0.025000  0.153846      8.000000
  0.178571  0.025000  0.153846      8.000000
  0.250000  0.025000  0.153846      8.000000
  0.321429  0.025000  0.153846      8.000000
  0.392857  0.025000  0.153846      8.000000
  0.464286  0.025000  0.153846      8.000000
  0.035714  0.075000  0.153846      8.000000
  0.107143  0.075000  0.153846      8.000000
  0.178571  0.075000  0.153846      8.000000
  0.250000  0.075000  0.153846      8.000000
  0.321429  0.075000  0.153846      8.000000
  0.392857  0.075000  0.153846      8.000000
  0.464286  0.075000  0.153846      8.000000
  0.035714  0.125000  0.153846      8.000000
  0.107143  0.125000  0.153846      8.000000
  0.178571  0.125000  0.153846      8.000000
  0.250000  0.125000  0.153846      8.000000
  0.321429  0.125000  0.153846      8.000000
  0.392857  0.125000  0.153846      8.000000
  0.464286  0.125000  0.153846      8.000000
  0.035714  0.175000  0.153846      8.000000
  0.107143  0.175000  0.153846      8.000000
  0.178571  0.175000  0.153846      8.000000
  0.250000  0.175000  0.153846      8.000000
  0.321429  0.175000  0.153846      8.000000
  0.392857  0.175000  0.153846      8.000000
  0.464286  0.175000  0.153846      8.000000
  0.035714  0.225000  0.153846      8.000000
  0.107143  0.225000  0.153846      8.000000
  0.178571  0.225000  0.153846      8.000000
  0.250000  0.225000  0.153846      8.000000
  0.321429  0.225000  0.153846      8.000000
  0.392857  0.225000  0.153846      8.000000
  0.464286  0.225000  0.153846      8.000000
  0.035714  0.275000  0.153846      8.000000
  0.107143  0.275000  0.153846      8.000000
  0.178571  0.275000  0.153846      8.000000
  0.250000  0.275000  0.153846      8.000000
  0.321429  0.275000  0.153846      8.000000
  0.392857  0.275000  0.153846      8.000000
  0.464286  0.275000  0.153846      8.000000
  0.035714  0.325000  0.153846      8.000000
  0.107143  0.325000  0.153846      8.000000
  0.178571  0.325000  0.153846      8.000000
  0.250000  0.325000  0.153846      8.000000
  0.321429  0.325000  0.153846      8.000000
  0.392857  0.325000  0.153846      8.000000
  0.464286  0.325000  0.153846      8.000000
  0.035714  0.375000  0.153846      8.000000
  0.107143  0.375000  0.153846      8.000000
  0.178571  0.375000  0.153846      8.000000
  0.250000  0.375000  0.153846      8.000000
  0.321429  0.375000  0.153846      8.000000
  0.392857  0.375000  0.153846      8.000000
  0.464286  0.375000  0.153846      8.000000
  0.035714  0.425000  0.153846      8.000000
  0.107143  0.425000  0.153846      8.000000
  0.178571  0.425000  0.153846      8.000000
  0.250000  0.425000  0.153846      8.000000
  0.321429  0.425000  0.153846      8.000000
  0.392857  0.425000  0.153846      8.000000
  0.464286  0.425000  0.153846      8.000000
  0.035714  0.475000  0.153846      8.000000
  0.107143  0.475000  0.153846      8.000000
  0.178571  0.475000  0.153846      8.000000
  0.250000  0.475000  0.153846      8.000000
  0.321429  0.475000  0.153846      8.000000
  0.392857  0.475000  0.153846      8.000000
  0.464286  0.475000  0.153846      8.000000
  0.035714  0.025000  0.230769      8.000000
  0.107143  0.025000  0.230769      8.000000
  0.178571  0.025000  0.230769      8.000000
  0.250000  0.025000  0.230769      8.000000
  0.321429  0.025000  0.230769      8.000000
  0.392857  0.025000  0.230769      8.000000
  0.464286  0.025000  0.230769      8.000000
  0.035714  0.075000  0.230769      8.000000
  0.107143  0.075000  0.230769      8.000000
  0.178571  0.075000  0.230769      8.000000
  0.250000  0.075000  0.230769      8.000000
  0.321429  0.075000  0.230769      8.000000
  0.392857  0.075000  0.230769      8.000000
  0.464286  0.075000  0.230769      8.000000
  0.035714  0.125000  0.230769      8.000000
  0.107143  0.125000  0.230769      8.000000
  0.178571  0.125000  0.230769      8.000000
  0.250000  0.125000  0.230769      8.000000
  0.321429  0.125000  0.230769      8.000000
  0.392857  0.125000  0.230769      8.000000
  0.464286  0.125000  0.230769      8.000000
  0.035714  0.175000  0.230769      8.000000
  0.107143  0.175000  0.230769      8.000000
  0.178571  0.175000  0.230769      8.000000
  0.250000  0.175000  0.230769      8.000000
  0.321429  0.175000  0.230769      8.000000
  0.392857  0.175000  0.230769      8.000000
  0.464286  0.175000  0.230769      8.000000
  0.035714  0.225000  0.230769      8.000000
  0.107143  0.225000  0.230769      8.000000
  0.178571  0.225000  0.230769      8.000000
  0.250000  0.225000  0.230769      8.000000
  0.321429  0.225000  0.230769      8.000000
  0.392857  0.225000  0.230769      8.000000
  0.464286  0.225000  0.230769      8.000000
  0.035714  0.275000  0.230769      8.000000
  0.107143  0.275000  0.230769      8.000000
  0.178571  0.275000  0.230769      8.000000
  0.250000  0.275000  0.230769      8.000000
  0.321429  0.275000  0.230769      8.000000
  0.392857  0.275000  0.230769      8.000000
  0.464286  0.275000  0.230769      8.000000
  0.035714  0.325000  0.230769      8.000000
  0.107143  0.325000  0.230769      8.000000
  0.178571  0.325000  0.230769      8.000000
  0.250000  0.325000  0.230769      8.000000
  0.321429  0.325000  0.230769      8.000000
  0.392857  0.325000  0.230769      8.000000
  0.464286  0.325000  0.230769      8.000000
  0.035714  0.375000  0.230769      8.000000
  0.107143  0.375000  0.230769      8.000000
  0.178571  0.375000  0.230769      8.000000
  0.250000  0.375000  0.230769      8.000000
  0.321429  0.375000  0.230769      8.000000
  0.392857  0.375000  0.230769      8.000000
  0.464286  0.375000  0.230769      8.000000
  0.035714  0.425000  0.230769      8.000000
  0.107143  0.425000  0.230769      8.000000
  0.178571  0.425000  0.230769      8.000000
  0.250000  0.425000  0.230769      8.000000
  0.321429  0.425000  0.230769      8.000000
  0.392857  0.425000  0.230769      8.000000
  0.464286  0.425000  0.230769      8.000000
  0.035714  0.475000  0.230769      8.000000
  0.107143  0.475000  0.230769      8.000000
  0.178571  0.475000  0.230769      8.000000
  0.250000  0.475000  0.230769      8.000000
  0.321429  0.475000  0.230769      8.000000
  0.392857  0.475000  0.230769      8.000000
  0.464286  0.475000  0.230769      8.000000
  0.035714  0.025000  0.307692      8.000000
  0.107143  0.025000  0.307692      8.000000
  0.178571  0.025000  0.307692      8.000000
  0.250000  0.025000  0.307692      8.000000
  0.321429  0.025000  0.307692      8.000000
  0.392857  0.025000  0.307692      8.000000
  0.464286  0.025000  0.307692      8.000000
  0.035714  0.075000  0.307692      8.000000
  0.107143  0.075000  0.307692      8.000000
  0.178571  0.075000  0.307692      8.000000
  0.250000  0.075000  0.307692      8.000000
  0.321429  0.075000  0.307692      8.000000
  0.392857  0.075000  0.307692      8.000000
  0.464286  0.075000  0.307692      8.000000
  0.035714  0.125000  0.307692      8.000000
  0.107143  0.125000  0.307692      8.000000
  0.178571  0.125000  0.307692      8.000000
  0.250000  0.125000  0.307692      8.000000
  0.321429  0.125000  0.307692      8.000000
  0.392857  0.125000  0.307692      8.000000
  0.464286  0.125000  0.307692      8.000000
  0.035714  0.175000  0.307692      8.000000
  0.107143  0.175000  0.307692      8.000000
  0.178571  0.175000  0.307692      8.000000
  0.250000  0.175000  0.307692      8.000000
  0.321429  0.175000  0.307692      8.000000
  0.392857  0.175000  0.307692      8.000000
  0.464286  0.175000  0.307692      8.000000
  0.035714  0.225000  0.307692      8.000000
  0.107143  0.225000  0.307692      8.000000
  0.178571  0.225000  0.307692      8.000000
  0.250000  0.225000  0.307692      8.000000
  0.321429  0.225000  0.307692      8.000000
  0.392857  0.225000  0.307692      8.000000
  0.464286  0.225000  0.307692      8.000000
  0.035714  0.275000  0.307692      8.000000
  0.107143  0.275000  0.307692      8.000000
  0.178571  0.275000  0.307692      8.000000
  0.250000  0.275000  0.307692      8.000000
  0.321429  0.275000  0.307692      8.000000
  0.392857  0.275000  0.307692      8.000000
  0.464286  0.275000  0.307692      8.000000
  0.035714  0.325000  0.307692      8.000000
  0.107143  0.325000  0.307692      8.000000
  0.178571  0.325000  0.307692      8.000000
  0.250000  0.325000  0.307692      8.000000
  0.321429  0.325000  0.307692      8.000000
  0.392857  0.325000  0.307692      8.000000
  0.464286  0.325000  0.307692      8.000000
  0.035714  0.375000  0.307692      8.000000
  0.107143  0.375000  0.307692      8.000000
  0.178571  0.375000  0.307692      8.000000
  0.250000  0.375000  0.307692      8.000000
  0.321429  0.375000  0.307692      8.000000
  0.392857  0.375000  0.307692      8.000000
  0.464286  0.375000  0.307692      8.000000
  0.035714  0.425000  0.307692      8.000000
  0.107143  0.425000  0.307692      8.000000
  0.178571  0.425000  0.307692      8.000000
  0.250000  0.425000  0.307692      8.000000
  0.321429  0.425000  0.307692      8.000000
  0.392857  0.425000  0.307692      8.000000
  0.464286  0.425000  0.307692      8.000000
  0.035714  0.475000  0.307692      8.000000
  0.107143  0.475000  0.307692      8.000000
  0.178571  0.475000  0.307692      8.000000
  0.250000  0.475000  0.307692      8.000000
  0.321429  0.475000  0.307692      8.000000
  0.392857  0.475000  0.307692      8.000000
  0.464286  0.475000  0.307692      8.000000
  0.035714  0.025000  0.384615      8.000000
  0.107143  0.025000  0.384615      8.000000
  0.178571  0.025000  0.384615      8.000000
  0.250000  0.025000  0.384615      8.000000
  0.321429  0.025000  0.384615      8.000000
  0.392857  0.025000  0.384615      8.000000
  0.464286  0.025000  0.384615      8.000000
  0.035714  0.075000  0.384615      8.000000
  0.107143  0.075000  0.384615      8.000000
  0.178571  0.075000  0.384615      8.000000
  0.250000  0.075000  0.384615      8.000000
  0.321429  0.075000  0.384615      8.000000
  0.392857  0.075000  0.384615      8.000000
  0.464286  0.075000  0.384615      8.000000
  0.035714  0.125000  0.384615      8.000000
  0.107143  0.125000  0.384615      8.000000
  0.178571  0.125000  0.384615      8.000000
  0.250000  0.125000  0.384615      8.000000
  0.321429  0.125000  0.384615      8.000000
  0.392857  0.125000  0.384615      8.000000
  0.464286  0.125000  0.384615      8.000000
  0.035714  0.175000  0.384615      8.000000
  0.107143  0.175000  0.384615      8.000000
  0.178571  0.175000  0.384615      8.000000
  0.250000  0.175000  0.384615      8.000000
  0.321429  0.175000  0.384615      8.000000
  0.392857  0.175000  0.384615      8.000000
  0.464286  0.175000  0.384615      8.000000
  0.035714  0.225000  0.384615      8.000000
  0.107143  0.225000  0.384615      8.000000
  0.178571  0.225000  0.384615      8.000000
  0.250000  0.225000  0.384615      8.000000
  0.321429  0.225000  0.384615      8.000000
  0.392857  0.225000  0.384615      8.000000
  0.464286  0.225000  0.384615      8.000000
  0.035714  0.275000  0.384615      8.000000
  0.107143  0.275000  0.384615      8.000000
  0.178571  0.275000  0.384615      8.000000
  0.250000  0.275000  0.384615      8.000000
  0.321429  0.275000  0.384615      8.000000
  0.392857  0.275000  0.384615      8.000000
  0.464286  0.275000  0.384615      8.000000
  0.035714  0.325000  0.384615      8.000000
  0.107143  0.325000  0.384615      8.000000
  0.178571  0.325000  0.384615      8.000000
  0.250000  0.325000  0.384615      8.000000
  0.321429  0.325000  0.384615      8.000000
  0.392857  0.325000  0.384615      8.000000
  0.464286  0.325000  0.384615      8.000000
  0.035714  0.375000  0.384615      8.000000
  0.107143  0.375000  0.384615      8.000000
  0.178571  0.375000  0.384615      8.000000
  0.250000  0.375000  0.384615      8.000000
  0.321429  0.375000  0.384615      8.000000
  0.392857  0.375000  0.384615      8.000000
  0.464286  0.375000  0.384615      8.000000
  0.035714  0.425000  0.384615      8.000000
  0.107143  0.425000  0.384615      8.000000
  0.178571  0.425000  0.384615      8.000000
  0.250000  0.425000  0.384615      8.000000
  0.321429  0.425000  0.384615      8.000000
  0.392857  0.425000  0.384615      8.000000
  0.464286  0.425000  0.384615      8.000000
  0.035714  0.475000  0.384615      8.000000
  0.107143  0.475000  0.384615      8.000000
  0.178571  0.475000  0.384615      8.000000
  0.250000  0.475000  0.384615      8.000000
  0.321429  0.475000  0.384615      8.000000
  0.392857  0.475000  0.384615      8.000000
  0.464286  0.475000  0.384615      8.000000
  0.035714  0.025000  0.461538      8.000000
  0.107143  0.025000  0.461538      8.000000
  0.178571  0.025000  0.461538      8.000000
  0.250000  0.025000  0.461538      8.000000
  0.321429  0.025000  0.461538      8.000000
  0.392857  0.025000  0.461538      8.000000
  0.464286  0.025000  0.461538      8.000000
  0.035714  0.075000  0.461538      8.000000
  0.107143  0.075000  0.461538      8.000000
  0.178571  0.075000  0.461538      8.000000
  0.250000  0.075000  0.461538      8.000000
  0.321429  0.075000  0.461538      8.000000
  0.392857  0.075000  0.461538      8.000000
  0.464286  0.075000  0.461538      8.000000
  0.035714  0.125000  0.461538      8.000000
  0.107143  0.125000  0.461538      8.000000
  0.178571  0.125000  0.461538      8.000000
  0.250000  0.125000  0.461538      8.000000
  0.321429  0.125000  0.461538      8.000000
  0.392857  0.125000  0.461538      8.000000
  0.464286  0.125000  0.461538      8.000000
  0.035714  0.175000  0.461538      8.000000
  0.107143  0.175000  0.461538      8.000000
  0.178571  0.175000  0.461538      8.000000
  0.250000  0.175000  0.461538      8.000000
  0.321429  0.175000  0.461538      8.000000
  0.392857  0.175000  0.461538      8.000000
  0.464286  0.175000  0.461538      8.000000
  0.035714  0.225000  0.461538      8.000000
  0.107143  0.225000  0.461538      8.000000
  0.178571  0.225000  0.461538      8.000000
  0.250000  0.225000  0.461538      8.000000
  0.321429  0.225000  0.461538      8.000000
  0.392857  0.225000  0.461538      8.000000
  0.464286  0.225000  0.461538      8.000000
  0.035714  0.275000  0.461538      8.000000
  0.107143  0.275000  0.461538      8.000000
  0.178571  0.275000  0.461538      8.000000
  0.250000  0.275000  0.461538      8.000000
  0.321429  0.275000  0.461538      8.000000
  0.392857  0.275000  0.461538      8.000000
  0.464286  0.275000  0.461538      8.000000
  0.035714  0.325000  0.461538      8.000000
  0.107143  0.325000  0.461538      8.000000
  0.178571  0.325000  0.461538      8.000000
  0.250000  0.325000  0.461538      8.000000
  0.321429  0.325000  0.461538      8.000000
  0.392857  0.325000  0.461538      8.000000
  0.464286  0.325000  0.461538      8.000000
  0.035714  0.375000  0.461538      8.000000
  0.107143  0.375000  0.461538      8.000000
  0.178571  0.375000  0.461538      8.000000
  0.250000  0.375000  0.461538      8.000000
  0.321429  0.375000  0.461538      8.000000
  0.392857  0.375000  0.461538      8.000000
  0.464286  0.375000  0.461538      8.000000
  0.035714  0.425000  0.461538      8.000000
  0.107143  0.425000  0.461538      8.000000
  0.178571  0.425000  0.461538      8.000000
  0.250000  0.425000  0.461538      8.000000
  0.321429  0.425000  0.461538      8.000000
  0.392857  0.425000  0.461538      8.000000
  0.464286  0.425000  0.461538      8.000000
  0.035714  0.475000  0.461538      8.000000
  0.107143  0.475000  0.461538      8.000000
  0.178571  0.475000  0.461538      8.000000
  0.250000  0.475000  0.461538      8.000000
  0.321429  0.475000  0.461538      8.000000
  0.392857  0.475000  0.461538      8.000000
  0.464286  0.475000  0.461538      8.000000
 
 Following cartesian coordinates:
            Coordinates               Weight
  0.006269  0.006176  0.000000      4.000000
  0.018807  0.006176  0.000000      4.000000
  0.031345  0.006176  0.000000      4.000000
  0.043883  0.006176  0.000000      4.000000
  0.056421  0.006176  0.000000      4.000000
  0.068959  0.006176  0.000000      4.000000
  0.081497  0.006176  0.000000      4.000000
  0.006269  0.018528  0.000000      4.000000
  0.018807  0.018528  0.000000      4.000000
  0.031345  0.018528  0.000000      4.000000
  0.043883  0.018528  0.000000      4.000000
  0.056421  0.018528  0.000000      4.000000
  0.068959  0.018528  0.000000      4.000000
  0.081497  0.018528  0.000000      4.000000
  0.006269  0.030880  0.000000      4.000000
  0.018807  0.030880  0.000000      4.000000
  0.031345  0.030880  0.000000      4.000000
  0.043883  0.030880  0.000000      4.000000
  0.056421  0.030880  0.000000      4.000000
  0.068959  0.030880  0.000000      4.000000
  0.081497  0.030880  0.000000      4.000000
  0.006269  0.043232  0.000000      4.000000
  0.018807  0.043232  0.000000      4.000000
  0.031345  0.043232  0.000000      4.000000
  0.043883  0.043232  0.000000      4.000000
  0.056421  0.043232  0.000000      4.000000
  0.068959  0.043232  0.000000      4.000000
  0.081497  0.043232  0.000000      4.000000
  0.006269  0.055584  0.000000      4.000000
  0.018807  0.055584  0.000000      4.000000
  0.031345  0.055584  0.000000      4.000000
  0.043883  0.055584  0.000000      4.000000
  0.056421  0.055584  0.000000      4.000000
  0.068959  0.055584  0.000000      4.000000
  0.081497  0.055584  0.000000      4.000000
  0.006269  0.067936  0.000000      4.000000
  0.018807  0.067936  0.000000      4.000000
  0.031345  0.067936  0.000000      4.000000
  0.043883  0.067936  0.000000      4.000000
  0.056421  0.067936  0.000000      4.000000
  0.068959  0.067936  0.000000      4.000000
  0.081497  0.067936  0.000000      4.000000
  0.006269  0.080289  0.000000      4.000000
  0.018807  0.080289  0.000000      4.000000
  0.031345  0.080289  0.000000      4.000000
  0.043883  0.080289  0.000000      4.000000
  0.056421  0.080289  0.000000      4.000000
  0.068959  0.080289  0.000000      4.000000
  0.081497  0.080289  0.000000      4.000000
  0.006269  0.092641  0.000000      4.000000
  0.018807  0.092641  0.000000      4.000000
  0.031345  0.092641  0.000000      4.000000
  0.043883  0.092641  0.000000      4.000000
  0.056421  0.092641  0.000000      4.000000
  0.068959  0.092641  0.000000      4.000000
  0.081497  0.092641  0.000000      4.000000
  0.006269  0.104993  0.000000      4.000000
  0.018807  0.104993  0.000000      4.000000
  0.031345  0.104993  0.000000      4.000000
  0.043883  0.104993  0.000000      4.000000
  0.056421  0.104993  0.000000      4.000000
  0.068959  0.104993  0.000000      4.000000
  0.081497  0.104993  0.000000      4.000000
  0.006269  0.117345  0.000000      4.000000
  0.018807  0.117345  0.000000      4.000000
  0.031345  0.117345  0.000000      4.000000
  0.043883  0.117345  0.000000      4.000000
  0.056421  0.117345  0.000000      4.000000
  0.068959  0.117345  0.000000      4.000000
  0.081497  0.117345  0.000000      4.000000
  0.006269  0.006176  0.012399      8.000000
  0.018807  0.006176  0.012399      8.000000
  0.031345  0.006176  0.012399      8.000000
  0.043883  0.006176  0.012399      8.000000
  0.056421  0.006176  0.012399      8.000000
  0.068959  0.006176  0.012399      8.000000
  0.081497  0.006176  0.012399      8.000000
  0.006269  0.018528  0.012399      8.000000
  0.018807  0.018528  0.012399      8.000000
  0.031345  0.018528  0.012399      8.000000
  0.043883  0.018528  0.012399      8.000000
  0.056421  0.018528  0.012399      8.000000
  0.068959  0.018528  0.012399      8.000000
  0.081497  0.018528  0.012399      8.000000
  0.006269  0.030880  0.012399      8.000000
  0.018807  0.030880  0.012399      8.000000
  0.031345  0.030880  0.012399      8.000000
  0.043883  0.030880  0.012399      8.000000
  0.056421  0.030880  0.012399      8.000000
  0.068959  0.030880  0.012399      8.000000
  0.081497  0.030880  0.012399      8.000000
  0.006269  0.043232  0.012399      8.000000
  0.018807  0.043232  0.012399      8.000000
  0.031345  0.043232  0.012399      8.000000
  0.043883  0.043232  0.012399      8.000000
  0.056421  0.043232  0.012399      8.000000
  0.068959  0.043232  0.012399      8.000000
  0.081497  0.043232  0.012399      8.000000
  0.006269  0.055584  0.012399      8.000000
  0.018807  0.055584  0.012399      8.000000
  0.031345  0.055584  0.012399      8.000000
  0.043883  0.055584  0.012399      8.000000
  0.056421  0.055584  0.012399      8.000000
  0.068959  0.055584  0.012399      8.000000
  0.081497  0.055584  0.012399      8.000000
  0.006269  0.067936  0.012399      8.000000
  0.018807  0.067936  0.012399      8.000000
  0.031345  0.067936  0.012399      8.000000
  0.043883  0.067936  0.012399      8.000000
  0.056421  0.067936  0.012399      8.000000
  0.068959  0.067936  0.012399      8.000000
  0.081497  0.067936  0.012399      8.000000
  0.006269  0.080289  0.012399      8.000000
  0.018807  0.080289  0.012399      8.000000
  0.031345  0.080289  0.012399      8.000000
  0.043883  0.080289  0.012399      8.000000
  0.056421  0.080289  0.012399      8.000000
  0.068959  0.080289  0.012399      8.000000
  0.081497  0.080289  0.012399      8.000000
  0.006269  0.092641  0.012399      8.000000
  0.018807  0.092641  0.012399      8.000000
  0.031345  0.092641  0.012399      8.000000
  0.043883  0.092641  0.012399      8.000000
  0.056421  0.092641  0.012399      8.000000
  0.068959  0.092641  0.012399      8.000000
  0.081497  0.092641  0.012399      8.000000
  0.006269  0.104993  0.012399      8.000000
  0.018807  0.104993  0.012399      8.000000
  0.031345  0.104993  0.012399      8.000000
  0.043883  0.104993  0.012399      8.000000
  0.056421  0.104993  0.012399      8.000000
  0.068959  0.104993  0.012399      8.000000
  0.081497  0.104993  0.012399      8.000000
  0.006269  0.117345  0.012399      8.000000
  0.018807  0.117345  0.012399      8.000000
  0.031345  0.117345  0.012399      8.000000
  0.043883  0.117345  0.012399      8.000000
  0.056421  0.117345  0.012399      8.000000
  0.068959  0.117345  0.012399      8.000000
  0.081497  0.117345  0.012399      8.000000
  0.006269  0.006176  0.024797      8.000000
  0.018807  0.006176  0.024797      8.000000
  0.031345  0.006176  0.024797      8.000000
  0.043883  0.006176  0.024797      8.000000
  0.056421  0.006176  0.024797      8.000000
  0.068959  0.006176  0.024797      8.000000
  0.081497  0.006176  0.024797      8.000000
  0.006269  0.018528  0.024797      8.000000
  0.018807  0.018528  0.024797      8.000000
  0.031345  0.018528  0.024797      8.000000
  0.043883  0.018528  0.024797      8.000000
  0.056421  0.018528  0.024797      8.000000
  0.068959  0.018528  0.024797      8.000000
  0.081497  0.018528  0.024797      8.000000
  0.006269  0.030880  0.024797      8.000000
  0.018807  0.030880  0.024797      8.000000
  0.031345  0.030880  0.024797      8.000000
  0.043883  0.030880  0.024797      8.000000
  0.056421  0.030880  0.024797      8.000000
  0.068959  0.030880  0.024797      8.000000
  0.081497  0.030880  0.024797      8.000000
  0.006269  0.043232  0.024797      8.000000
  0.018807  0.043232  0.024797      8.000000
  0.031345  0.043232  0.024797      8.000000
  0.043883  0.043232  0.024797      8.000000
  0.056421  0.043232  0.024797      8.000000
  0.068959  0.043232  0.024797      8.000000
  0.081497  0.043232  0.024797      8.000000
  0.006269  0.055584  0.024797      8.000000
  0.018807  0.055584  0.024797      8.000000
  0.031345  0.055584  0.024797      8.000000
  0.043883  0.055584  0.024797      8.000000
  0.056421  0.055584  0.024797      8.000000
  0.068959  0.055584  0.024797      8.000000
  0.081497  0.055584  0.024797      8.000000
  0.006269  0.067936  0.024797      8.000000
  0.018807  0.067936  0.024797      8.000000
  0.031345  0.067936  0.024797      8.000000
  0.043883  0.067936  0.024797      8.000000
  0.056421  0.067936  0.024797      8.000000
  0.068959  0.067936  0.024797      8.000000
  0.081497  0.067936  0.024797      8.000000
  0.006269  0.080289  0.024797      8.000000
  0.018807  0.080289  0.024797      8.000000
  0.031345  0.080289  0.024797      8.000000
  0.043883  0.080289  0.024797      8.000000
  0.056421  0.080289  0.024797      8.000000
  0.068959  0.080289  0.024797      8.000000
  0.081497  0.080289  0.024797      8.000000
  0.006269  0.092641  0.024797      8.000000
  0.018807  0.092641  0.024797      8.000000
  0.031345  0.092641  0.024797      8.000000
  0.043883  0.092641  0.024797      8.000000
  0.056421  0.092641  0.024797      8.000000
  0.068959  0.092641  0.024797      8.000000
  0.081497  0.092641  0.024797      8.000000
  0.006269  0.104993  0.024797      8.000000
  0.018807  0.104993  0.024797      8.000000
  0.031345  0.104993  0.024797      8.000000
  0.043883  0.104993  0.024797      8.000000
  0.056421  0.104993  0.024797      8.000000
  0.068959  0.104993  0.024797      8.000000
  0.081497  0.104993  0.024797      8.000000
  0.006269  0.117345  0.024797      8.000000
  0.018807  0.117345  0.024797      8.000000
  0.031345  0.117345  0.024797      8.000000
  0.043883  0.117345  0.024797      8.000000
  0.056421  0.117345  0.024797      8.000000
  0.068959  0.117345  0.024797      8.000000
  0.081497  0.117345  0.024797      8.000000
  0.006269  0.006176  0.037196      8.000000
  0.018807  0.006176  0.037196      8.000000
  0.031345  0.006176  0.037196      8.000000
  0.043883  0.006176  0.037196      8.000000
  0.056421  0.006176  0.037196      8.000000
  0.068959  0.006176  0.037196      8.000000
  0.081497  0.006176  0.037196      8.000000
  0.006269  0.018528  0.037196      8.000000
  0.018807  0.018528  0.037196      8.000000
  0.031345  0.018528  0.037196      8.000000
  0.043883  0.018528  0.037196      8.000000
  0.056421  0.018528  0.037196      8.000000
  0.068959  0.018528  0.037196      8.000000
  0.081497  0.018528  0.037196      8.000000
  0.006269  0.030880  0.037196      8.000000
  0.018807  0.030880  0.037196      8.000000
  0.031345  0.030880  0.037196      8.000000
  0.043883  0.030880  0.037196      8.000000
  0.056421  0.030880  0.037196      8.000000
  0.068959  0.030880  0.037196      8.000000
  0.081497  0.030880  0.037196      8.000000
  0.006269  0.043232  0.037196      8.000000
  0.018807  0.043232  0.037196      8.000000
  0.031345  0.043232  0.037196      8.000000
  0.043883  0.043232  0.037196      8.000000
  0.056421  0.043232  0.037196      8.000000
  0.068959  0.043232  0.037196      8.000000
  0.081497  0.043232  0.037196      8.000000
  0.006269  0.055584  0.037196      8.000000
  0.018807  0.055584  0.037196      8.000000
  0.031345  0.055584  0.037196      8.000000
  0.043883  0.055584  0.037196      8.000000
  0.056421  0.055584  0.037196      8.000000
  0.068959  0.055584  0.037196      8.000000
  0.081497  0.055584  0.037196      8.000000
  0.006269  0.067936  0.037196      8.000000
  0.018807  0.067936  0.037196      8.000000
  0.031345  0.067936  0.037196      8.000000
  0.043883  0.067936  0.037196      8.000000
  0.056421  0.067936  0.037196      8.000000
  0.068959  0.067936  0.037196      8.000000
  0.081497  0.067936  0.037196      8.000000
  0.006269  0.080289  0.037196      8.000000
  0.018807  0.080289  0.037196      8.000000
  0.031345  0.080289  0.037196      8.000000
  0.043883  0.080289  0.037196      8.000000
  0.056421  0.080289  0.037196      8.000000
  0.068959  0.080289  0.037196      8.000000
  0.081497  0.080289  0.037196      8.000000
  0.006269  0.092641  0.037196      8.000000
  0.018807  0.092641  0.037196      8.000000
  0.031345  0.092641  0.037196      8.000000
  0.043883  0.092641  0.037196      8.000000
  0.056421  0.092641  0.037196      8.000000
  0.068959  0.092641  0.037196      8.000000
  0.081497  0.092641  0.037196      8.000000
  0.006269  0.104993  0.037196      8.000000
  0.018807  0.104993  0.037196      8.000000
  0.031345  0.104993  0.037196      8.000000
  0.043883  0.104993  0.037196      8.000000
  0.056421  0.104993  0.037196      8.000000
  0.068959  0.104993  0.037196      8.000000
  0.081497  0.104993  0.037196      8.000000
  0.006269  0.117345  0.037196      8.000000
  0.018807  0.117345  0.037196      8.000000
  0.031345  0.117345  0.037196      8.000000
  0.043883  0.117345  0.037196      8.000000
  0.056421  0.117345  0.037196      8.000000
  0.068959  0.117345  0.037196      8.000000
  0.081497  0.117345  0.037196      8.000000
  0.006269  0.006176  0.049594      8.000000
  0.018807  0.006176  0.049594      8.000000
  0.031345  0.006176  0.049594      8.000000
  0.043883  0.006176  0.049594      8.000000
  0.056421  0.006176  0.049594      8.000000
  0.068959  0.006176  0.049594      8.000000
  0.081497  0.006176  0.049594      8.000000
  0.006269  0.018528  0.049594      8.000000
  0.018807  0.018528  0.049594      8.000000
  0.031345  0.018528  0.049594      8.000000
  0.043883  0.018528  0.049594      8.000000
  0.056421  0.018528  0.049594      8.000000
  0.068959  0.018528  0.049594      8.000000
  0.081497  0.018528  0.049594      8.000000
  0.006269  0.030880  0.049594      8.000000
  0.018807  0.030880  0.049594      8.000000
  0.031345  0.030880  0.049594      8.000000
  0.043883  0.030880  0.049594      8.000000
  0.056421  0.030880  0.049594      8.000000
  0.068959  0.030880  0.049594      8.000000
  0.081497  0.030880  0.049594      8.000000
  0.006269  0.043232  0.049594      8.000000
  0.018807  0.043232  0.049594      8.000000
  0.031345  0.043232  0.049594      8.000000
  0.043883  0.043232  0.049594      8.000000
  0.056421  0.043232  0.049594      8.000000
  0.068959  0.043232  0.049594      8.000000
  0.081497  0.043232  0.049594      8.000000
  0.006269  0.055584  0.049594      8.000000
  0.018807  0.055584  0.049594      8.000000
  0.031345  0.055584  0.049594      8.000000
  0.043883  0.055584  0.049594      8.000000
  0.056421  0.055584  0.049594      8.000000
  0.068959  0.055584  0.049594      8.000000
  0.081497  0.055584  0.049594      8.000000
  0.006269  0.067936  0.049594      8.000000
  0.018807  0.067936  0.049594      8.000000
  0.031345  0.067936  0.049594      8.000000
  0.043883  0.067936  0.049594      8.000000
  0.056421  0.067936  0.049594      8.000000
  0.068959  0.067936  0.049594      8.000000
  0.081497  0.067936  0.049594      8.000000
  0.006269  0.080289  0.049594      8.000000
  0.018807  0.080289  0.049594      8.000000
  0.031345  0.080289  0.049594      8.000000
  0.043883  0.080289  0.049594      8.000000
  0.056421  0.080289  0.049594      8.000000
  0.068959  0.080289  0.049594      8.000000
  0.081497  0.080289  0.049594      8.000000
  0.006269  0.092641  0.049594      8.000000
  0.018807  0.092641  0.049594      8.000000
  0.031345  0.092641  0.049594      8.000000
  0.043883  0.092641  0.049594      8.000000
  0.056421  0.092641  0.049594      8.000000
  0.068959  0.092641  0.049594      8.000000
  0.081497  0.092641  0.049594      8.000000
  0.006269  0.104993  0.049594      8.000000
  0.018807  0.104993  0.049594      8.000000
  0.031345  0.104993  0.049594      8.000000
  0.043883  0.104993  0.049594      8.000000
  0.056421  0.104993  0.049594      8.000000
  0.068959  0.104993  0.049594      8.000000
  0.081497  0.104993  0.049594      8.000000
  0.006269  0.117345  0.049594      8.000000
  0.018807  0.117345  0.049594      8.000000
  0.031345  0.117345  0.049594      8.000000
  0.043883  0.117345  0.049594      8.000000
  0.056421  0.117345  0.049594      8.000000
  0.068959  0.117345  0.049594      8.000000
  0.081497  0.117345  0.049594      8.000000
  0.006269  0.006176  0.061993      8.000000
  0.018807  0.006176  0.061993      8.000000
  0.031345  0.006176  0.061993      8.000000
  0.043883  0.006176  0.061993      8.000000
  0.056421  0.006176  0.061993      8.000000
  0.068959  0.006176  0.061993      8.000000
  0.081497  0.006176  0.061993      8.000000
  0.006269  0.018528  0.061993      8.000000
  0.018807  0.018528  0.061993      8.000000
  0.031345  0.018528  0.061993      8.000000
  0.043883  0.018528  0.061993      8.000000
  0.056421  0.018528  0.061993      8.000000
  0.068959  0.018528  0.061993      8.000000
  0.081497  0.018528  0.061993      8.000000
  0.006269  0.030880  0.061993      8.000000
  0.018807  0.030880  0.061993      8.000000
  0.031345  0.030880  0.061993      8.000000
  0.043883  0.030880  0.061993      8.000000
  0.056421  0.030880  0.061993      8.000000
  0.068959  0.030880  0.061993      8.000000
  0.081497  0.030880  0.061993      8.000000
  0.006269  0.043232  0.061993      8.000000
  0.018807  0.043232  0.061993      8.000000
  0.031345  0.043232  0.061993      8.000000
  0.043883  0.043232  0.061993      8.000000
  0.056421  0.043232  0.061993      8.000000
  0.068959  0.043232  0.061993      8.000000
  0.081497  0.043232  0.061993      8.000000
  0.006269  0.055584  0.061993      8.000000
  0.018807  0.055584  0.061993      8.000000
  0.031345  0.055584  0.061993      8.000000
  0.043883  0.055584  0.061993      8.000000
  0.056421  0.055584  0.061993      8.000000
  0.068959  0.055584  0.061993      8.000000
  0.081497  0.055584  0.061993      8.000000
  0.006269  0.067936  0.061993      8.000000
  0.018807  0.067936  0.061993      8.000000
  0.031345  0.067936  0.061993      8.000000
  0.043883  0.067936  0.061993      8.000000
  0.056421  0.067936  0.061993      8.000000
  0.068959  0.067936  0.061993      8.000000
  0.081497  0.067936  0.061993      8.000000
  0.006269  0.080289  0.061993      8.000000
  0.018807  0.080289  0.061993      8.000000
  0.031345  0.080289  0.061993      8.000000
  0.043883  0.080289  0.061993      8.000000
  0.056421  0.080289  0.061993      8.000000
  0.068959  0.080289  0.061993      8.000000
  0.081497  0.080289  0.061993      8.000000
  0.006269  0.092641  0.061993      8.000000
  0.018807  0.092641  0.061993      8.000000
  0.031345  0.092641  0.061993      8.000000
  0.043883  0.092641  0.061993      8.000000
  0.056421  0.092641  0.061993      8.000000
  0.068959  0.092641  0.061993      8.000000
  0.081497  0.092641  0.061993      8.000000
  0.006269  0.104993  0.061993      8.000000
  0.018807  0.104993  0.061993      8.000000
  0.031345  0.104993  0.061993      8.000000
  0.043883  0.104993  0.061993      8.000000
  0.056421  0.104993  0.061993      8.000000
  0.068959  0.104993  0.061993      8.000000
  0.081497  0.104993  0.061993      8.000000
  0.006269  0.117345  0.061993      8.000000
  0.018807  0.117345  0.061993      8.000000
  0.031345  0.117345  0.061993      8.000000
  0.043883  0.117345  0.061993      8.000000
  0.056421  0.117345  0.061993      8.000000
  0.068959  0.117345  0.061993      8.000000
  0.081497  0.117345  0.061993      8.000000
  0.006269  0.006176  0.074391      8.000000
  0.018807  0.006176  0.074391      8.000000
  0.031345  0.006176  0.074391      8.000000
  0.043883  0.006176  0.074391      8.000000
  0.056421  0.006176  0.074391      8.000000
  0.068959  0.006176  0.074391      8.000000
  0.081497  0.006176  0.074391      8.000000
  0.006269  0.018528  0.074391      8.000000
  0.018807  0.018528  0.074391      8.000000
  0.031345  0.018528  0.074391      8.000000
  0.043883  0.018528  0.074391      8.000000
  0.056421  0.018528  0.074391      8.000000
  0.068959  0.018528  0.074391      8.000000
  0.081497  0.018528  0.074391      8.000000
  0.006269  0.030880  0.074391      8.000000
  0.018807  0.030880  0.074391      8.000000
  0.031345  0.030880  0.074391      8.000000
  0.043883  0.030880  0.074391      8.000000
  0.056421  0.030880  0.074391      8.000000
  0.068959  0.030880  0.074391      8.000000
  0.081497  0.030880  0.074391      8.000000
  0.006269  0.043232  0.074391      8.000000
  0.018807  0.043232  0.074391      8.000000
  0.031345  0.043232  0.074391      8.000000
  0.043883  0.043232  0.074391      8.000000
  0.056421  0.043232  0.074391      8.000000
  0.068959  0.043232  0.074391      8.000000
  0.081497  0.043232  0.074391      8.000000
  0.006269  0.055584  0.074391      8.000000
  0.018807  0.055584  0.074391      8.000000
  0.031345  0.055584  0.074391      8.000000
  0.043883  0.055584  0.074391      8.000000
  0.056421  0.055584  0.074391      8.000000
  0.068959  0.055584  0.074391      8.000000
  0.081497  0.055584  0.074391      8.000000
  0.006269  0.067936  0.074391      8.000000
  0.018807  0.067936  0.074391      8.000000
  0.031345  0.067936  0.074391      8.000000
  0.043883  0.067936  0.074391      8.000000
  0.056421  0.067936  0.074391      8.000000
  0.068959  0.067936  0.074391      8.000000
  0.081497  0.067936  0.074391      8.000000
  0.006269  0.080289  0.074391      8.000000
  0.018807  0.080289  0.074391      8.000000
  0.031345  0.080289  0.074391      8.000000
  0.043883  0.080289  0.074391      8.000000
  0.056421  0.080289  0.074391      8.000000
  0.068959  0.080289  0.074391      8.000000
  0.081497  0.080289  0.074391      8.000000
  0.006269  0.092641  0.074391      8.000000
  0.018807  0.092641  0.074391      8.000000
  0.031345  0.092641  0.074391      8.000000
  0.043883  0.092641  0.074391      8.000000
  0.056421  0.092641  0.074391      8.000000
  0.068959  0.092641  0.074391      8.000000
  0.081497  0.092641  0.074391      8.000000
  0.006269  0.104993  0.074391      8.000000
  0.018807  0.104993  0.074391      8.000000
  0.031345  0.104993  0.074391      8.000000
  0.043883  0.104993  0.074391      8.000000
  0.056421  0.104993  0.074391      8.000000
  0.068959  0.104993  0.074391      8.000000
  0.081497  0.104993  0.074391      8.000000
  0.006269  0.117345  0.074391      8.000000
  0.018807  0.117345  0.074391      8.000000
  0.031345  0.117345  0.074391      8.000000
  0.043883  0.117345  0.074391      8.000000
  0.056421  0.117345  0.074391      8.000000
  0.068959  0.117345  0.074391      8.000000
  0.081497  0.117345  0.074391      8.000000
 


--------------------------------------------------------------------------------------------------------




 Dimension of arrays:
   k-points           NKPTS =    490   k-points in BZ     NKDIM =    490   number of bands    NBANDS=     48
   number of dos      NEDOS =    301   number of ions     NIONS =     14
   non local maximal  LDIM  =      4   non local SUM 2l+1 LMDIM =      8
   total plane-waves  NPLWV =  53760
   max r-space proj   IRMAX =      1   max aug-charges    IRDMAX=   6058
   dimension x,y,z NGX =    40 NGY =   28 NGZ =   48
   dimension x,y,z NGXF=    80 NGYF=   56 NGZF=   96
   support grid    NGXF=    80 NGYF=   56 NGZF=   96
   ions per type =              14
   NGX,Y,Z   is equivalent  to a cutoff of  11.67, 11.50, 12.86 a.u.
   NGXF,Y,Z  is equivalent  to a cutoff of  23.35, 23.00, 25.72 a.u.

 SYSTEM =  Kpoints                                 
 POSCAR =  o-B14                                   

 Startparameter for this run:
   NWRITE =      2    write-flag & timer
   PREC   = accura    normal or accurate (medium, high low for compatibility)
   ISTART =      0    job   : 0-new  1-cont  2-samecut
   ICHARG =      2    charge: 1-file 2-atom 10-const
   ISPIN  =      1    spin polarized calculation?
   LNONCOLLINEAR =      F non collinear calculations
   LSORBIT =      F    spin-orbit coupling
   INIWAV =      1    electr: 0-lowe 1-rand  2-diag
   LASPH  =      F    aspherical Exc in radial PAW
 Electronic Relaxation 1
   ENCUT  =  450.0 eV  33.07 Ry    5.75 a.u.   9.85  7.00 10.73*2*pi/ulx,y,z
   ENINI  =  450.0     initial cutoff
   ENAUG  =  535.5 eV  augmentation charge cutoff
   NELM   =    100;   NELMIN=  2; NELMDL= -5     # of ELM steps 
   EDIFF  = 0.1E-05   stopping-criterion for ELM
   LREAL  =      F    real-space projection
   NLSPLINE    = F    spline interpolate recip. space projectors
   LCOMPAT=      F    compatible to vasp.4.4
   GGA_COMPAT  = T    GGA compatible to vasp.4.4-vasp.4.6
   LMAXPAW     = -100 max onsite density
   LMAXMIX     =    2 max onsite mixed and CHGCAR
   VOSKOWN=      0    Vosko Wilk Nusair interpolation
   ROPT   =    0.00000
 Ionic relaxation
   EDIFFG = -.1E-02   stopping-criterion for IOM
   NSW    =      0    number of steps for IOM
   NBLOCK =      1;   KBLOCK =      1    inner block; outer block 
   IBRION =     -1    ionic relax: 0-MD 1-quasi-New 2-CG
   NFREE  =      0    steps in history (QN), initial steepest desc. (CG)
   ISIF   =      2    stress and relaxation
   IWAVPR =     10    prediction:  0-non 1-charg 2-wave 3-comb
   ISYM   =      2    0-nonsym 1-usesym 2-fastsym
   LCORR  =      T    Harris-Foulkes like correction to forces

   POTIM  = 0.5000    time-step for ionic-motion
   TEIN   =    0.0    initial temperature
   TEBEG  =    0.0;   TEEND  =   0.0 temperature during run
   SMASS  =  -3.00    Nose mass-parameter (am)
   estimated Nose-frequenzy (Omega)   =  0.10E-29 period in steps = 0.13E+47 mass=  -0.742E-27a.u.
   SCALEE = 1.0000    scale energy and forces
   NPACO  =    256;   APACO  = 10.0  distance and # of slots for P.C.
   PSTRESS=    0.0 pullay stress

  Mass of Ions in am
   POMASS =  10.81
  Ionic Valenz
   ZVAL   =   3.00
  Atomic Wigner-Seitz radii
   RWIGS  =  -1.00
  virtual crystal weights 
   VCA    =   1.00
   NELECT =      42.0000    total number of electrons
   NUPDOWN=      -1.0000    fix difference up-down

 DOS related values:
   EMIN   =  10.00;   EMAX   =-10.00  energy-range for DOS
   EFERMI =   0.00;   METHOD = LEGACY      
   ISMEAR =     0;   SIGMA  =   0.05  broadening in eV -4-tet -1-fermi 0-gaus

 Electronic relaxation 2 (details)
   IALGO  =     38    algorithm
   LDIAG  =      T    sub-space diagonalisation (order eigenvalues)
   LSUBROT=      F    optimize rotation matrix (better conditioning)
   TURBO    =      0    0=normal 1=particle mesh
   IRESTART =      0    0=no restart 2=restart with 2 vectors
   NREBOOT  =      0    no. of reboots
   NMIN     =      0    reboot dimension
   EREF     =   0.00    reference energy to select bands
   IMIX   =      4    mixing-type and parameters
     AMIX     =   0.40;   BMIX     =  1.00
     AMIX_MAG =   1.60;   BMIX_MAG =  1.00
     AMIN     =   0.10
     WC   =   100.;   INIMIX=   1;  MIXPRE=   1;  MAXMIX= -45

 Intra band minimization:
   WEIMIN = 0.0000     energy-eigenvalue tresh-hold
   EBREAK =  0.52E-08  absolut break condition
   DEPER  =   0.30     relativ break condition  

   TIME   =   0.40     timestep for ELM

  volume/ion in A,a.u.               =      10.22        68.97
  Fermi-wavevector in a.u.,A,eV,Ry     =   1.088021  2.056062 16.106441  1.183790
  Thomas-Fermi vector in A             =   2.224193
 
 Write flags
   LWAVE        =      F    write WAVECAR
   LDOWNSAMPLE  =      F    k-point downsampling of WAVECAR
   LCHARG       =      F    write CHGCAR
   LVTOT        =      F    write LOCPOT, total local potential
   LVHAR        =      F    write LOCPOT, Hartree potential only
   WRT_POTENTIAL= false  ! write potential to hdf5 file
   LELF         =      F    write electronic localiz. function (ELF)
   LORBIT       =      0    0 simple, 1 ext, 2 COOP (PROOUT), +10 PAW based schemes


 Dipole corrections
   LMONO      =      F    monopole corrections only (constant potential shift)
   LDIPOL     =      F    correct potential (dipole corrections)
   IDIPOL     =      0    1-x, 2-y, 3-z, 4-all directions 
   EPSILON    =  1.0000000 bulk dielectric constant
   LVACPOTAV  =      F  vacuum potentials using an averaging scheme for the charge density
   VACPOTFLAT =  0.1000000 required flatness to determine vacuum potential
 Exchange correlation treatment:
   GGA     = PE    functional components
   XC_C    = 1    coefficients multiplying the functional components
   LIBXC   =     F    Libxc                    
   VOSKOWN =     0    Vosko Wilk Nusair interpolation
   LHFCALC =     F    Hartree Fock is set to
   LHFONE  =     F    Hartree Fock one center treatment
   AEXX    =    0.0000 exact exchange contribution

 Parameters of functionals:
   PE:
     No parameter
 
 Van der Waals corrections
   IVDW    =     0    specifies the selected vdW correction

 Linear response parameters
   LEPSILON=     F    determine dielectric tensor
   LRPA    =     F    only Hartree local field effects (RPA)
   LNABLA  =     F    use nabla operator in PAW spheres
   LVEL    =     F    velocity operator in full k-point grid
   CSHIFT  =0.1000    complex shift for real part using Kramers Kronig
   OMEGAMAX=  -1.0    maximum frequency
   DEG_THRESHOLD= 0.2000000E-02 threshold for treating states as degnerate
   RTIME   =   -0.100 relaxation time in fs
  (WPLASMAI=    0.000 imaginary part of plasma frequency in eV, 0.658/RTIME)
   DFIELD  = 0.0000000 0.0000000 0.0000000 field for delta impulse in time
 
  Optional k-point grid parameters
   LKPOINTS_OPT  =     F    use optional k-point grid
   KPOINTS_OPT_MODE=     1    mode for optional k-point grid
 
 Orbital magnetization related:
   ORBITALMAG=     F  switch on orbital magnetization
   LCHIMAG   =     F  perturbation theory with respect to B field
   DQ        =  0.001000  dq finite difference perturbation B field
   LLRAUG    =     F  two centre corrections for induced B field
   LBONE     =     F  B-component reconstruction in AE one-centre
   LVGVCALC  =     T  calculate vGv susceptibility
   LVGVAPPL  =     F  apply vGv susceptibility instead of pGv for G=0

 Random number generation:
   RANDOM_GENERATOR = DEFAULT
   PCG_SEED         = not used


--------------------------------------------------------------------------------------------------------


 Static calculation
 charge density and potential will be updated during run
 non-spin polarized calculation
 Variant of blocked Davidson
 Davidson routine will perform the subspace rotation
 perform sub-space diagonalisation
    after iterative eigenvector-optimisation
 modified Broyden-mixing scheme, WC =      100.0
 initial mixing is a Kerker type mixing with AMIX =  0.4000 and BMIX =      1.0000
 Hartree-type preconditioning will be used
 using additional bands           27
 reciprocal scheme for non local part
 use partial core corrections
 calculate Harris-corrections to forces 
   (improved forces if not selfconsistent)
 use gradient corrections 
 use of overlap-Matrix (Vanderbilt PP)
 Gauss-broadening in eV      SIGMA  =   0.05


--------------------------------------------------------------------------------------------------------


  energy-cutoff  :      450.00
  volume of cell :      143.07
      direct lattice vectors                 reciprocal lattice vectors
     5.697000000  0.000000000  0.000000000     0.175530981  0.000000000  0.000000000
     0.000000000  4.047900000  0.000000000     0.000000000  0.247041676  0.000000000
     0.000000000  0.000000000  6.204200000     0.000000000  0.000000000  0.161181135

  length of vectors
     5.697000000  4.047900000  6.204200000     0.175530981  0.247041676  0.161181135


 
 k-points in units of 2pi/SCALE and weight: k-points                                
   0.00626896  0.00617604  0.00000000       0.001
   0.01880689  0.00617604  0.00000000       0.001
   0.03134482  0.00617604  0.00000000       0.001
   0.04388275  0.00617604  0.00000000       0.001
   0.05642067  0.00617604  0.00000000       0.001
   0.06895860  0.00617604  0.00000000       0.001
   0.08149653  0.00617604  0.00000000       0.001
   0.00626896  0.01852813  0.00000000       0.001
   0.01880689  0.01852813  0.00000000       0.001
   0.03134482  0.01852813  0.00000000       0.001
   0.04388275  0.01852813  0.00000000       0.001
   0.05642067  0.01852813  0.00000000       0.001
   0.06895860  0.01852813  0.00000000       0.001
   0.08149653  0.01852813  0.00000000       0.001
   0.00626896  0.03088021  0.00000000       0.001
   0.01880689  0.03088021  0.00000000       0.001
   0.03134482  0.03088021  0.00000000       0.001
   0.04388275  0.03088021  0.00000000       0.001
   0.05642067  0.03088021  0.00000000       0.001
   0.06895860  0.03088021  0.00000000       0.001
   0.08149653  0.03088021  0.00000000       0.001
   0.00626896  0.04323229  0.00000000       0.001
   0.01880689  0.04323229  0.00000000       0.001
   0.03134482  0.04323229  0.00000000       0.001
   0.04388275  0.04323229  0.00000000       0.001
   0.05642067  0.04323229  0.00000000       0.001
   0.06895860  0.04323229  0.00000000       0.001
   0.08149653  0.04323229  0.00000000       0.001
   0.00626896  0.05558438  0.00000000       0.001
   0.01880689  0.05558438  0.00000000       0.001
   0.03134482  0.05558438  0.00000000       0.001
   0.04388275  0.05558438  0.00000000       0.001
   0.05642067  0.05558438  0.00000000       0.001
   0.06895860  0.05558438  0.00000000       0.001
   0.08149653  0.05558438  0.00000000       0.001
   0.00626896  0.06793646  0.00000000       0.001
   0.01880689  0.06793646  0.00000000       0.001
   0.03134482  0.06793646  0.00000000       0.001
   0.04388275  0.06793646  0.00000000       0.001
   0.05642067  0.06793646  0.00000000       0.001
   0.06895860  0.06793646  0.00000000       0.001
   0.08149653  0.06793646  0.00000000       0.001
   0.00626896  0.08028854  0.00000000       0.001
   0.01880689  0.08028854  0.00000000       0.001
   0.03134482  0.08028854  0.00000000       0.001
   0.04388275  0.08028854  0.00000000       0.001
   0.05642067  0.08028854  0.00000000       0.001
   0.06895860  0.08028854  0.00000000       0.001
   0.08149653  0.08028854  0.00000000       0.001
   0.00626896  0.09264063  0.00000000       0.001
   0.01880689  0.09264063  0.00000000       0.001
   0.03134482  0.09264063  0.00000000       0.001
   0.04388275  0.09264063  0.00000000       0.001
   0.05642067  0.09264063  0.00000000       0.001
   0.06895860  0.09264063  0.00000000       0.001
   0.08149653  0.09264063  0.00000000       0.001
   0.00626896  0.10499271  0.00000000       0.001
   0.01880689  0.10499271  0.00000000       0.001
   0.03134482  0.10499271  0.00000000       0.001
   0.04388275  0.10499271  0.00000000       0.001
   0.05642067  0.10499271  0.00000000       0.001
   0.06895860  0.10499271  0.00000000       0.001
   0.08149653  0.10499271  0.00000000       0.001
   0.00626896  0.11734480  0.00000000       0.001
   0.01880689  0.11734480  0.00000000       0.001
   0.03134482  0.11734480  0.00000000       0.001
   0.04388275  0.11734480  0.00000000       0.001
   0.05642067  0.11734480  0.00000000       0.001
   0.06895860  0.11734480  0.00000000       0.001
   0.08149653  0.11734480  0.00000000       0.001
   0.00626896  0.00617604  0.01239855       0.002
   0.01880689  0.00617604  0.01239855       0.002
   0.03134482  0.00617604  0.01239855       0.002
   0.04388275  0.00617604  0.01239855       0.002
   0.05642067  0.00617604  0.01239855       0.002
   0.06895860  0.00617604  0.01239855       0.002
   0.08149653  0.00617604  0.01239855       0.002
   0.00626896  0.01852813  0.01239855       0.002
   0.01880689  0.01852813  0.01239855       0.002
   0.03134482  0.01852813  0.01239855       0.002
   0.04388275  0.01852813  0.01239855       0.002
   0.05642067  0.01852813  0.01239855       0.002
   0.06895860  0.01852813  0.01239855       0.002
   0.08149653  0.01852813  0.01239855       0.002
   0.00626896  0.03088021  0.01239855       0.002
   0.01880689  0.03088021  0.01239855       0.002
   0.03134482  0.03088021  0.01239855       0.002
   0.04388275  0.03088021  0.01239855       0.002
   0.05642067  0.03088021  0.01239855       0.002
   0.06895860  0.03088021  0.01239855       0.002
   0.08149653  0.03088021  0.01239855       0.002
   0.00626896  0.04323229  0.01239855       0.002
   0.01880689  0.04323229  0.01239855       0.002
   0.03134482  0.04323229  0.01239855       0.002
   0.04388275  0.04323229  0.01239855       0.002
   0.05642067  0.04323229  0.01239855       0.002
   0.06895860  0.04323229  0.01239855       0.002
   0.08149653  0.04323229  0.01239855       0.002
   0.00626896  0.05558438  0.01239855       0.002
   0.01880689  0.05558438  0.01239855       0.002
   0.03134482  0.05558438  0.01239855       0.002
   0.04388275  0.05558438  0.01239855       0.002
   0.05642067  0.05558438  0.01239855       0.002
   0.06895860  0.05558438  0.01239855       0.002
   0.08149653  0.05558438  0.01239855       0.002
   0.00626896  0.06793646  0.01239855       0.002
   0.01880689  0.06793646  0.01239855       0.002
   0.03134482  0.06793646  0.01239855       0.002
   0.04388275  0.06793646  0.01239855       0.002
   0.05642067  0.06793646  0.01239855       0.002
   0.06895860  0.06793646  0.01239855       0.002
   0.08149653  0.06793646  0.01239855       0.002
   0.00626896  0.08028854  0.01239855       0.002
   0.01880689  0.08028854  0.01239855       0.002
   0.03134482  0.08028854  0.01239855       0.002
   0.04388275  0.08028854  0.01239855       0.002
   0.05642067  0.08028854  0.01239855       0.002
   0.06895860  0.08028854  0.01239855       0.002
   0.08149653  0.08028854  0.01239855       0.002
   0.00626896  0.09264063  0.01239855       0.002
   0.01880689  0.09264063  0.01239855       0.002
   0.03134482  0.09264063  0.01239855       0.002
   0.04388275  0.09264063  0.01239855       0.002
   0.05642067  0.09264063  0.01239855       0.002
   0.06895860  0.09264063  0.01239855       0.002
   0.08149653  0.09264063  0.01239855       0.002
   0.00626896  0.10499271  0.01239855       0.002
   0.01880689  0.10499271  0.01239855       0.002
   0.03134482  0.10499271  0.01239855       0.002
   0.04388275  0.10499271  0.01239855       0.002
   0.05642067  0.10499271  0.01239855       0.002
   0.06895860  0.10499271  0.01239855       0.002
   0.08149653  0.10499271  0.01239855       0.002
   0.00626896  0.11734480  0.01239855       0.002
   0.01880689  0.11734480  0.01239855       0.002
   0.03134482  0.11734480  0.01239855       0.002
   0.04388275  0.11734480  0.01239855       0.002
   0.05642067  0.11734480  0.01239855       0.002
   0.06895860  0.11734480  0.01239855       0.002
   0.08149653  0.11734480  0.01239855       0.002
   0.00626896  0.00617604  0.02479710       0.002
   0.01880689  0.00617604  0.02479710       0.002
   0.03134482  0.00617604  0.02479710       0.002
   0.04388275  0.00617604  0.02479710       0.002
   0.05642067  0.00617604  0.02479710       0.002
   0.06895860  0.00617604  0.02479710       0.002
   0.08149653  0.00617604  0.02479710       0.002
   0.00626896  0.01852813  0.02479710       0.002
   0.01880689  0.01852813  0.02479710       0.002
   0.03134482  0.01852813  0.02479710       0.002
   0.04388275  0.01852813  0.02479710       0.002
   0.05642067  0.01852813  0.02479710       0.002
   0.06895860  0.01852813  0.02479710       0.002
   0.08149653  0.01852813  0.02479710       0.002
   0.00626896  0.03088021  0.02479710       0.002
   0.01880689  0.03088021  0.02479710       0.002
   0.03134482  0.03088021  0.02479710       0.002
   0.04388275  0.03088021  0.02479710       0.002
   0.05642067  0.03088021  0.02479710       0.002
   0.06895860  0.03088021  0.02479710       0.002
   0.08149653  0.03088021  0.02479710       0.002
   0.00626896  0.04323229  0.02479710       0.002
   0.01880689  0.04323229  0.02479710       0.002
   0.03134482  0.04323229  0.02479710       0.002
   0.04388275  0.04323229  0.02479710       0.002
   0.05642067  0.04323229  0.02479710       0.002
   0.06895860  0.04323229  0.02479710       0.002
   0.08149653  0.04323229  0.02479710       0.002
   0.00626896  0.05558438  0.02479710       0.002
   0.01880689  0.05558438  0.02479710       0.002
   0.03134482  0.05558438  0.02479710       0.002
   0.04388275  0.05558438  0.02479710       0.002
   0.05642067  0.05558438  0.02479710       0.002
   0.06895860  0.05558438  0.02479710       0.002
   0.08149653  0.05558438  0.02479710       0.002
   0.00626896  0.06793646  0.02479710       0.002
   0.01880689  0.06793646  0.02479710       0.002
   0.03134482  0.06793646  0.02479710       0.002
   0.04388275  0.06793646  0.02479710       0.002
   0.05642067  0.06793646  0.02479710       0.002
   0.06895860  0.06793646  0.02479710       0.002
   0.08149653  0.06793646  0.02479710       0.002
   0.00626896  0.08028854  0.02479710       0.002
   0.01880689  0.08028854  0.02479710       0.002
   0.03134482  0.08028854  0.02479710       0.002
   0.04388275  0.08028854  0.02479710       0.002
   0.05642067  0.08028854  0.02479710       0.002
   0.06895860  0.08028854  0.02479710       0.002
   0.08149653  0.08028854  0.02479710       0.002
   0.00626896  0.09264063  0.02479710       0.002
   0.01880689  0.09264063  0.02479710       0.002
   0.03134482  0.09264063  0.02479710       0.002
   0.04388275  0.09264063  0.02479710       0.002
   0.05642067  0.09264063  0.02479710       0.002
   0.06895860  0.09264063  0.02479710       0.002
   0.08149653  0.09264063  0.02479710       0.002
   0.00626896  0.10499271  0.02479710       0.002
   0.01880689  0.10499271  0.02479710       0.002
   0.03134482  0.10499271  0.02479710       0.002
   0.04388275  0.10499271  0.02479710       0.002
   0.05642067  0.10499271  0.02479710       0.002
   0.06895860  0.10499271  0.02479710       0.002
   0.08149653  0.10499271  0.02479710       0.002
   0.00626896  0.11734480  0.02479710       0.002
   0.01880689  0.11734480  0.02479710       0.002
   0.03134482  0.11734480  0.02479710       0.002
   0.04388275  0.11734480  0.02479710       0.002
   0.05642067  0.11734480  0.02479710       0.002
   0.06895860  0.11734480  0.02479710       0.002
   0.08149653  0.11734480  0.02479710       0.002
   0.00626896  0.00617604  0.03719565       0.002
   0.01880689  0.00617604  0.03719565       0.002
   0.03134482  0.00617604  0.03719565       0.002
   0.04388275  0.00617604  0.03719565       0.002
   0.05642067  0.00617604  0.03719565       0.002
   0.06895860  0.00617604  0.03719565       0.002
   0.08149653  0.00617604  0.03719565       0.002
   0.00626896  0.01852813  0.03719565       0.002
   0.01880689  0.01852813  0.03719565       0.002
   0.03134482  0.01852813  0.03719565       0.002
   0.04388275  0.01852813  0.03719565       0.002
   0.05642067  0.01852813  0.03719565       0.002
   0.06895860  0.01852813  0.03719565       0.002
   0.08149653  0.01852813  0.03719565       0.002
   0.00626896  0.03088021  0.03719565       0.002
   0.01880689  0.03088021  0.03719565       0.002
   0.03134482  0.03088021  0.03719565       0.002
   0.04388275  0.03088021  0.03719565       0.002
   0.05642067  0.03088021  0.03719565       0.002
   0.06895860  0.03088021  0.03719565       0.002
   0.08149653  0.03088021  0.03719565       0.002
   0.00626896  0.04323229  0.03719565       0.002
   0.01880689  0.04323229  0.03719565       0.002
   0.03134482  0.04323229  0.03719565       0.002
   0.04388275  0.04323229  0.03719565       0.002
   0.05642067  0.04323229  0.03719565       0.002
   0.06895860  0.04323229  0.03719565       0.002
   0.08149653  0.04323229  0.03719565       0.002
   0.00626896  0.05558438  0.03719565       0.002
   0.01880689  0.05558438  0.03719565       0.002
   0.03134482  0.05558438  0.03719565       0.002
   0.04388275  0.05558438  0.03719565       0.002
   0.05642067  0.05558438  0.03719565       0.002
   0.06895860  0.05558438  0.03719565       0.002
   0.08149653  0.05558438  0.03719565       0.002
   0.00626896  0.06793646  0.03719565       0.002
   0.01880689  0.06793646  0.03719565       0.002
   0.03134482  0.06793646  0.03719565       0.002
   0.04388275  0.06793646  0.03719565       0.002
   0.05642067  0.06793646  0.03719565       0.002
   0.06895860  0.06793646  0.03719565       0.002
   0.08149653  0.06793646  0.03719565       0.002
   0.00626896  0.08028854  0.03719565       0.002
   0.01880689  0.08028854  0.03719565       0.002
   0.03134482  0.08028854  0.03719565       0.002
   0.04388275  0.08028854  0.03719565       0.002
   0.05642067  0.08028854  0.03719565       0.002
   0.06895860  0.08028854  0.03719565       0.002
   0.08149653  0.08028854  0.03719565       0.002
   0.00626896  0.09264063  0.03719565       0.002
   0.01880689  0.09264063  0.03719565       0.002
   0.03134482  0.09264063  0.03719565       0.002
   0.04388275  0.09264063  0.03719565       0.002
   0.05642067  0.09264063  0.03719565       0.002
   0.06895860  0.09264063  0.03719565       0.002
   0.08149653  0.09264063  0.03719565       0.002
   0.00626896  0.10499271  0.03719565       0.002
   0.01880689  0.10499271  0.03719565       0.002
   0.03134482  0.10499271  0.03719565       0.002
   0.04388275  0.10499271  0.03719565       0.002
   0.05642067  0.10499271  0.03719565       0.002
   0.06895860  0.10499271  0.03719565       0.002
   0.08149653  0.10499271  0.03719565       0.002
   0.00626896  0.11734480  0.03719565       0.002
   0.01880689  0.11734480  0.03719565       0.002
   0.03134482  0.11734480  0.03719565       0.002
   0.04388275  0.11734480  0.03719565       0.002
   0.05642067  0.11734480  0.03719565       0.002
   0.06895860  0.11734480  0.03719565       0.002
   0.08149653  0.11734480  0.03719565       0.002
   0.00626896  0.00617604  0.04959420       0.002
   0.01880689  0.00617604  0.04959420       0.002
   0.03134482  0.00617604  0.04959420       0.002
   0.04388275  0.00617604  0.04959420       0.002
   0.05642067  0.00617604  0.04959420       0.002
   0.06895860  0.00617604  0.04959420       0.002
   0.08149653  0.00617604  0.04959420       0.002
   0.00626896  0.01852813  0.04959420       0.002
   0.01880689  0.01852813  0.04959420       0.002
   0.03134482  0.01852813  0.04959420       0.002
   0.04388275  0.01852813  0.04959420       0.002
   0.05642067  0.01852813  0.04959420       0.002
   0.06895860  0.01852813  0.04959420       0.002
   0.08149653  0.01852813  0.04959420       0.002
   0.00626896  0.03088021  0.04959420       0.002
   0.01880689  0.03088021  0.04959420       0.002
   0.03134482  0.03088021  0.04959420       0.002
   0.04388275  0.03088021  0.04959420       0.002
   0.05642067  0.03088021  0.04959420       0.002
   0.06895860  0.03088021  0.04959420       0.002
   0.08149653  0.03088021  0.04959420       0.002
   0.00626896  0.04323229  0.04959420       0.002
[...]
     43      13.1742      0.00000
     44      13.3162      0.00000
     45      14.0591      0.00000
     46      15.3450      0.00000
     47      15.4425      0.00000
     48      15.5975      0.00000

 k-point   485 :       0.1071    0.4750    0.4615
  band No.  band energies     occupation 
      1     -12.3457      2.00000
      2     -11.5247      2.00000
      3      -8.4645      2.00000
      4      -7.9112      2.00000
      5      -6.4745      2.00000
      6      -6.2358      2.00000
      7      -5.6419      2.00000
      8      -5.3286      2.00000
      9      -3.3248      2.00000
     10      -2.6833      2.00000
     11      -2.1448      2.00000
     12      -1.6373      2.00000
     13      -1.6308      2.00000
     14      -1.4199      2.00000
     15      -1.2518      2.00000
     16      -0.8464      2.00000
     17      -0.5696      2.00000
     18      -0.3302      2.00000
     19       0.4315      2.00000
     20       1.7525      1.99832
     21       2.1322      0.00000
     22       3.5716      0.00000
     23       4.7002      0.00000
     24       6.0564      0.00000
     25       6.5151      0.00000
     26       7.0362      0.00000
     27       7.4664      0.00000
     28       8.0379      0.00000
     29       9.1055      0.00000
     30       9.1862      0.00000
     31       9.4066      0.00000
     32      10.4375      0.00000
     33      10.8283      0.00000
     34      11.3171      0.00000
     35      11.5868      0.00000
     36      11.6385      0.00000
     37      11.9054      0.00000
     38      12.0529      0.00000
     39      12.4539      0.00000
     40      12.5411      0.00000
     41      12.8316      0.00000
     42      12.9180      0.00000
     43      13.2991      0.00000
     44      13.4350      0.00000
     45      14.2319      0.00000
     46      15.2268      0.00000
     47      15.4651      0.00000
     48      15.5673      0.00000

 k-point   486 :       0.1786    0.4750    0.4615
  band No.  band energies     occupation 
      1     -12.3070      2.00000
      2     -11.5675      2.00000
      3      -8.5249      2.00000
      4      -7.9967      2.00000
      5      -6.2295      2.00000
      6      -6.1977      2.00000
      7      -5.6588      2.00000
      8      -5.2382      2.00000
      9      -3.5087      2.00000
     10      -2.6198      2.00000
     11      -2.4303      2.00000
     12      -1.8302      2.00000
     13      -1.5988      2.00000
     14      -1.5094      2.00000
     15      -1.1780      2.00000
     16      -0.6876      2.00000
     17      -0.3441      2.00000
     18      -0.1124      2.00000
     19       0.4336      2.00000
     20       1.7228      1.99993
     21       2.0825      0.00000
     22       3.0156      0.00000
     23       4.8635      0.00000
     24       6.4055      0.00000
     25       6.4904      0.00000
     26       6.8746      0.00000
     27       7.7429      0.00000
     28       8.2789      0.00000
     29       8.7401      0.00000
     30       9.1928      0.00000
     31       9.4667      0.00000
     32      10.3850      0.00000
     33      10.7642      0.00000
     34      11.2856      0.00000
     35      11.3200      0.00000
     36      11.5046      0.00000
     37      11.8750      0.00000
     38      12.1826      0.00000
     39      12.4187      0.00000
     40      12.5499      0.00000
     41      13.0301      0.00000
     42      13.1617      0.00000
     43      13.5635      0.00000
     44      13.6517      0.00000
     45      14.4751      0.00000
     46      14.6690      0.00000
     47      15.4231      0.00000
     48      15.4780      0.00000

 k-point   487 :       0.2500    0.4750    0.4615
  band No.  band energies     occupation 
      1     -12.2504      2.00000
      2     -11.6301      2.00000
      3      -8.5747      2.00000
      4      -8.1080      2.00000
      5      -6.1435      2.00000
      6      -5.9071      2.00000
      7      -5.6865      2.00000
      8      -5.1119      2.00000
      9      -3.7315      2.00000
     10      -2.8316      2.00000
     11      -2.4902      2.00000
     12      -1.9982      2.00000
     13      -1.7835      2.00000
     14      -1.3345      2.00000
     15      -1.1555      2.00000
     16      -0.4853      2.00000
     17      -0.1086      2.00000
     18       0.1054      2.00000
     19       0.4643      2.00000
     20       1.6841      2.00000
     21       2.0088      0.00004
     22       2.4174      0.00000
     23       5.1006      0.00000
     24       6.3031      0.00000
     25       6.7176      0.00000
     26       6.8805      0.00000
     27       7.9308      0.00000
     28       8.5448      0.00000
     29       8.6487      0.00000
     30       8.9368      0.00000
     31       9.6272      0.00000
     32      10.0933      0.00000
     33      10.8117      0.00000
     34      11.0645      0.00000
     35      11.3111      0.00000
     36      11.4449      0.00000
     37      11.7408      0.00000
     38      12.1932      0.00000
     39      12.5163      0.00000
     40      12.6893      0.00000
     41      13.3166      0.00000
     42      13.4718      0.00000
     43      13.7831      0.00000
     44      13.9875      0.00000
     45      14.0719      0.00000
     46      14.8044      0.00000
     47      15.3265      0.00000
     48      15.4380      0.00000

 k-point   488 :       0.3214    0.4750    0.4615
  band No.  band energies     occupation 
      1     -12.1781      2.00000
      2     -11.7094      2.00000
      3      -8.5964      2.00000
      4      -8.2302      2.00000
      5      -6.0766      2.00000
      6      -5.7290      2.00000
      7      -5.5323      2.00000
      8      -4.9541      2.00000
      9      -3.9693      2.00000
     10      -3.2434      2.00000
     11      -2.3602      2.00000
     12      -2.1223      2.00000
     13      -1.9488      2.00000
     14      -1.4142      2.00000
     15      -0.8959      2.00000
     16      -0.2654      2.00000
     17       0.1096      2.00000
     18       0.2927      2.00000
     19       0.5040      2.00000
     20       1.6466      2.00000
     21       1.8217      1.76408
     22       1.9154      0.14319
     23       5.3896      0.00000
     24       6.2107      0.00000
     25       6.6268      0.00000
     26       7.1672      0.00000
     27       7.8219      0.00000
     28       8.4370      0.00000
     29       8.8866      0.00000
     30       8.9965      0.00000
     31       9.7233      0.00000
     32       9.9438      0.00000
     33      10.7033      0.00000
     34      11.0153      0.00000
     35      11.2523      0.00000
     36      11.4393      0.00000
     37      11.6239      0.00000
     38      11.9721      0.00000
     39      12.7426      0.00000
     40      13.0281      0.00000
     41      13.5083      0.00000
     42      13.7155      0.00000
     43      13.7943      0.00000
     44      14.0419      0.00000
     45      14.3023      0.00000
     46      15.0447      0.00000
     47      15.1454      0.00000
     48      15.4357      0.00000

 k-point   489 :       0.3929    0.4750    0.4615
  band No.  band energies     occupation 
      1     -12.0928      2.00000
      2     -11.8009      2.00000
      3      -8.5828      2.00000
      4      -8.3492      2.00000
      5      -6.0015      2.00000
      6      -5.7829      2.00000
      7      -5.1360      2.00000
      8      -4.7628      2.00000
      9      -4.2083      2.00000
     10      -3.6770      2.00000
     11      -2.2099      2.00000
     12      -2.1834      2.00000
     13      -2.0811      2.00000
     14      -1.6030      2.00000
     15      -0.5237      2.00000
     16      -0.0745      2.00000
     17       0.2921      2.00000
     18       0.4218      2.00000
     19       0.5296      2.00000
     20       1.2606      2.00000
     21       1.6283      2.00000
     22       1.8119      1.85627
     23       5.6764      0.00000
     24       6.1210      0.00000
     25       6.6724      0.00000
     26       7.3407      0.00000
     27       7.6601      0.00000
     28       7.9079      0.00000
     29       9.1965      0.00000
     30       9.4383      0.00000
     31       9.7361      0.00000
     32       9.9393      0.00000
     33      10.5402      0.00000
     34      11.0406      0.00000
     35      11.1060      0.00000
     36      11.4613      0.00000
     37      11.5460      0.00000
     38      11.7550      0.00000
     39      12.9510      0.00000
     40      13.2620      0.00000
     41      13.4255      0.00000
     42      13.9826      0.00000
     43      14.1239      0.00000
     44      14.2955      0.00000
     45      14.4437      0.00000
     46      14.8733      0.00000
     47      15.0747      0.00000
     48      15.2532      0.00000

 k-point   490 :       0.4643    0.4750    0.4615
  band No.  band energies     occupation 
      1     -11.9982      2.00000
      2     -11.8991      2.00000
      3      -8.5337      2.00000
      4      -8.4535      2.00000
      5      -5.9238      2.00000
      6      -5.8492      2.00000
      7      -4.7669      2.00000
      8      -4.5537      2.00000
      9      -4.4031      2.00000
     10      -4.1040      2.00000
     11      -2.2106      2.00000
     12      -2.1707      2.00000
     13      -2.0131      2.00000
     14      -1.8110      2.00000
     15      -0.1561      2.00000
     16       0.0128      2.00000
     17       0.4187      2.00000
     18       0.4668      2.00000
     19       0.5691      2.00000
     20       0.7948      2.00000
     21       1.6492      2.00000
     22       1.7157      1.99997
     23       5.8865      0.00000
     24       6.0194      0.00000
     25       6.9315      0.00000
     26       7.3725      0.00000
     27       7.4440      0.00000
     28       7.5384      0.00000
     29       9.4643      0.00000
     30       9.6364      0.00000
     31       9.8354      0.00000
     32       9.9709      0.00000
     33      10.4832      0.00000
     34      10.7352      0.00000
     35      11.2619      0.00000
     36      11.4763      0.00000
     37      11.4912      0.00000
     38      11.5410      0.00000
     39      13.1111      0.00000
     40      13.1831      0.00000
     41      13.8426      0.00000
     42      14.1480      0.00000
     43      14.2385      0.00000
     44      14.2691      0.00000
     45      14.6531      0.00000
     46      14.7510      0.00000
     47      14.8532      0.00000
     48      14.9923      0.00000


--------------------------------------------------------------------------------------------------------


 soft charge-density along one line, spin component           1
         0         1         2         3         4         5         6         7         8         9
 total charge-density along one line
 
 pseudopotential strength for first ion, spin component:           1
  6.445   9.814   0.000  -0.009   0.005   0.000  -0.014   0.008
  9.814  14.938   0.000  -0.014   0.008   0.000  -0.021   0.011
  0.000   0.000  -2.174  -0.000   0.000  -3.695  -0.000   0.000
 -0.009  -0.014  -0.000  -2.178  -0.001  -0.000  -3.705  -0.002
  0.005   0.008   0.000  -0.001  -2.177   0.000  -0.002  -3.703
  0.000   0.000  -3.695  -0.000   0.000  -6.080  -0.000   0.000
 -0.014  -0.021  -0.000  -3.705  -0.002  -0.000  -6.102  -0.004
  0.008   0.011   0.000  -0.002  -3.703   0.000  -0.004  -6.098
 total augmentation occupancy for first ion, spin component:           1
  3.641  -0.977   0.000  -0.244   0.416   0.000   0.123  -0.176
 -0.977   0.286   0.000   0.160  -0.197   0.000  -0.056   0.073
  0.000   0.000   2.271   0.000  -0.000  -0.541   0.000   0.000
 -0.244   0.160   0.000   3.770   0.325   0.000  -1.051  -0.120
  0.416  -0.197  -0.000   0.325   3.598   0.000  -0.120  -0.977
  0.000   0.000  -0.541   0.000   0.000   0.133   0.000   0.000
  0.123  -0.056   0.000  -1.051  -0.120   0.000   0.302   0.042
 -0.176   0.073   0.000  -0.120  -0.977   0.000   0.042   0.275


------------------------ aborting loop because EDIFF is reached ----------------------------------------


    CHARGE:  cpu time      0.1721: real time      0.1777
    FORLOC:  cpu time      0.0010: real time      0.0010
    FORNL :  cpu time      1.5238: real time      1.5296
    STRESS:  cpu time      7.1755: real time      7.2091
    FORCOR:  cpu time      0.0082: real time      0.0082
    FORHAR:  cpu time      0.0025: real time      0.0025
    MIXING:  cpu time      0.0006: real time      0.0006
    OFIELD:  cpu time      0.0000: real time      0.0000

  FORCE on cell =-STRESS in cart. coord.  units (eV):
  Direction    XX          YY          ZZ          XY          YZ          ZX
  --------------------------------------------------------------------------------------
  Alpha Z    94.24358    94.24358    94.24358
  Ewald     -90.05465  -558.27634  -147.43815    -0.00000    -0.00000     0.00000
  Hartree   187.11591     5.70356   156.28932    -0.00000    -0.00000    -0.00000
  E(xc)    -134.90949  -135.87644  -134.87287     0.00000    -0.00000     0.00000
  Local    -494.03472   126.61639  -406.11767     0.00000    -0.00000    -0.00000
  n-local    -8.91647   -10.78906    -9.29856    -0.00603    -0.00639     0.04173
  augment     1.31574     1.36520     1.34396    -0.00000     0.00000    -0.00000
  Kinetic   446.63977   477.05416   445.39944     0.24930     0.06243    -0.94775
  Fock        0.00000     0.00000     0.00000     0.00000     0.00000     0.00000
  -------------------------------------------------------------------------------------
  Total       1.39967     0.04104    -0.45097     0.00000     0.00000     0.00000
  in kB      15.67385     0.45956    -5.05003     0.00000     0.00000     0.00000
  external pressure =        3.69 kB  Pullay stress =        0.00 kB


 VOLUME and BASIS-vectors are now :
 -----------------------------------------------------------------------------
  energy-cutoff  :      450.00
  volume of cell :      143.07
      direct lattice vectors                 reciprocal lattice vectors
     5.697000000  0.000000000  0.000000000     0.175530981  0.000000000  0.000000000
     0.000000000  4.047900000  0.000000000     0.000000000  0.247041676  0.000000000
     0.000000000  0.000000000  6.204200000     0.000000000  0.000000000  0.161181135

  length of vectors
     5.697000000  4.047900000  6.204200000     0.175530981  0.247041676  0.161181135


 FORCES acting on ions
    electron-ion (+dipol)            ewald-force                    non-local-force                 convergence-correction
 -----------------------------------------------------------------------------------------------
   0.496E+02 0.415E-12 -.250E+02   -.515E+02 0.211E-14 0.284E+02   0.183E+01 0.375E-19 -.333E+01   0.432E-04 0.542E-15 -.493E-04
   -.496E+02 -.258E-12 0.250E+02   0.515E+02 0.448E-16 -.284E+02   -.183E+01 -.267E-19 0.333E+01   -.432E-04 -.154E-14 0.493E-04
   -.496E+02 -.378E-12 -.250E+02   0.515E+02 0.587E-14 0.284E+02   -.183E+01 0.136E-19 -.333E+01   -.432E-04 0.793E-15 -.493E-04
   0.496E+02 -.203E-13 0.250E+02   -.515E+02 0.181E-14 -.284E+02   0.183E+01 0.171E-19 0.333E+01   0.432E-04 -.180E-14 0.493E-04
   0.313E+02 -.264E-12 -.527E+02   -.341E+02 0.342E-14 0.571E+02   0.194E+01 -.184E-19 -.410E+01   0.975E-05 0.962E-16 -.497E-04
   -.313E+02 -.294E-12 0.527E+02   0.341E+02 0.354E-14 -.571E+02   -.194E+01 0.319E-19 0.410E+01   -.975E-05 -.753E-15 0.497E-04
   -.313E+02 -.380E-12 -.527E+02   0.341E+02 0.299E-14 0.571E+02   -.194E+01 0.205E-19 -.410E+01   -.975E-05 0.107E-14 -.497E-04
   0.313E+02 0.367E-13 0.527E+02   -.341E+02 0.353E-14 -.571E+02   0.194E+01 -.264E-19 0.410E+01   0.975E-05 -.226E-14 0.497E-04
   -.209E-13 -.558E+02 -.155E+02   -.720E-14 0.613E+02 0.166E+02   -.221E-17 -.538E+01 -.113E+01   -.914E-14 -.167E-03 -.439E-04
   -.343E-13 0.558E+02 0.155E+02   0.108E-13 -.613E+02 -.166E+02   0.670E-18 0.538E+01 0.113E+01   -.296E-14 0.167E-03 0.439E-04
   -.201E-13 0.558E+02 -.155E+02   0.393E-14 -.613E+02 0.166E+02   -.221E-17 0.538E+01 -.113E+01   -.102E-13 0.167E-03 -.439E-04
   -.339E-13 -.558E+02 0.155E+02   0.643E-14 0.613E+02 -.166E+02   -.222E-17 -.538E+01 0.113E+01   -.168E-14 -.167E-03 0.439E-04
   -.178E-13 0.257E-12 -.623E+02   0.123E-13 0.532E-14 0.649E+02   0.222E-19 -.383E-19 -.257E+01   -.345E-14 -.349E-15 -.654E-04
   -.136E-13 0.693E-12 0.623E+02   0.173E-13 0.235E-14 -.649E+02   -.173E-18 -.370E-18 0.257E+01   0.590E-14 -.737E-15 0.654E-04
 -----------------------------------------------------------------------------------------------
   -.106E-11 -.366E-12 -.289E-12   0.152E-13 0.767E-14 -.284E-13   -.612E-17 0.888E-15 -.133E-14   -.318E-13 -.447E-14 -.938E-14
 
 
 POSITION                                       TOTAL-FORCE (eV/Angst)
 -----------------------------------------------------------------------------------
      2.96945      2.02395      3.95803        -0.020004      0.000000      0.067599
      2.72755      2.02395      2.24617         0.020004      0.000000     -0.067599
      5.57605      2.02395      3.95803         0.020004     -0.000000      0.067599
      0.12095      2.02395      2.24617        -0.020004     -0.000000     -0.067599
      3.42333      2.02395      5.58322        -0.830440     -0.000000      0.287244
      2.27367      2.02395      0.62098         0.830440     -0.000000     -0.287244
      5.12217      2.02395      5.58322         0.830440      0.000000      0.287244
      0.57483      2.02395      0.62098        -0.830440      0.000000     -0.287244
      4.27275      3.20476      4.52739        -0.000000      0.046924     -0.081915
      1.42425      0.84314      1.67681         0.000000     -0.046924      0.081915
      4.27275      0.84314      4.52739        -0.000000     -0.046924     -0.081915
      1.42425      3.20476      1.67681         0.000000      0.046924      0.081915
      1.42425      2.02395      3.24895        -0.000000      0.000000      0.087750
      4.27275      2.02395      2.95525         0.000000     -0.000000     -0.087750
 -----------------------------------------------------------------------------------
    total drift:                               -0.000000     -0.000000     -0.000000


--------------------------------------------------------------------------------------------------------



  FREE ENERGIE OF THE ION-ELECTRON SYSTEM (eV)
  ---------------------------------------------------
  free  energy   TOTEN  =       -90.58054813 eV

  energy  without entropy=      -90.57682225  energy(sigma->0) =      -90.57868519
 


--------------------------------------------------------------------------------------------------------


    POTLOK:  cpu time      0.0106: real time      0.0109


--------------------------------------------------------------------------------------------------------


     LOOP+:  cpu time    235.4324: real time    237.3548
    4ORBIT:  cpu time      0.0000: real time      0.0000

 total amount of memory used by VASP MPI-rank0   184666. kBytes
=======================================================================

   base      :      30000. kBytes
   nonl-proj :      99300. kBytes
   fftplans  :        930. kBytes
   grid      :       3214. kBytes
   one-center:         43. kBytes
   wavefun   :      51179. kBytes
 
  
  
 General timing and accounting informations for this job:
 ========================================================
  
                  Total CPU time used (sec):      247.103
                            User time (sec):      243.665
                          System time (sec):        3.438
                         Elapsed time (sec):      261.300
  
                   Maximum memory used (kb):      549952.
                   Average memory used (kb):          N/A
  
                          Minor page faults:       782775
                          Major page faults:         1545
                 Voluntary context switches:        16813
