<?xml version="1.0" encoding="ISO-8859-1"?>
<modeling>
 <generator>
  <i name="program" type="string">vasp </i>
  <i name="version" type="string">6.4.3  </i>
  <i name="subversion" type="string">19Mar24 (build May 31 2024 16:31:43) complex                          parallel </i>
  <i name="platform" type="string">LinuxIFC </i>
  <i name="date" type="string">2024 10 29 </i>
  <i name="time" type="string">15:50:33 </i>
 </generator>
 <incar>
  <i type="string" name="SYSTEM">Kpoints</i>
  <i type="int" name="ISTART">     0</i>
  <i type="string" name="PREC">Accurate</i>
  <i type="string" name="ALGO">Normal</i>
  <i type="int" name="ISPIN">     1</i>
  <i type="int" name="ICHARG">     2</i>
  <i type="int" name="NELM">   100</i>
  <i type="int" name="IBRION">    -1</i>
  <i name="EDIFF">      0.00000100</i>
  <i name="EDIFFG">     -0.00100000</i>
  <i type="int" name="NSW">     0</i>
  <i type="int" name="ISIF">     2</i>
  <i name="ENCUT">    450.00000000</i>
  <i name="POTIM">      0.50000000</i>
  <i type="int" name="ISMEAR">     0</i>
  <i name="SIGMA">      0.05000000</i>
  <i type="logical" name="LWAVE"> F  </i>
  <i type="logical" name="LCHARG"> F  </i>
  <i type="string" name="GGA">PE</i>
 </incar>
 <primitive_cell>
  <structure name="primitive_cell" >
   <crystal>
    <varray name="basis" >
     <v>       5.69700000       0.00000000       0.00000000 </v>
     <v>       0.00000000       4.04790000       0.00000000 </v>
     <v>       0.00000000       0.00000000       6.20420000 </v>
    </varray>
    <i name="volume">    143.07435078 </i>
    <varray name="rec_basis" >
     <v>       0.17553098       0.00000000       0.00000000 </v>
     <v>       0.00000000       0.24704168       0.00000000 </v>
     <v>       0.00000000       0.00000000       0.16118114 </v>
    </varray>
   </crystal>
   <varray name="positions" >
    <v>       0.52123000       0.50000000       0.63796000 </v>
    <v>       0.47877000       0.50000000       0.36204000 </v>
    <v>       0.97877000       0.50000000       0.63796000 </v>
    <v>       0.02123000       0.50000000       0.36204000 </v>
    <v>       0.60090000       0.50000000       0.89991000 </v>
    <v>       0.39910000       0.50000000       0.10009000 </v>
    <v>       0.89910000       0.50000000       0.89991000 </v>
    <v>       0.10090000       0.50000000       0.10009000 </v>
    <v>       0.75000000       0.79171000       0.72973000 </v>
    <v>       0.25000000       0.20829000       0.27027000 </v>
    <v>       0.75000000       0.20829000       0.72973000 </v>
    <v>       0.25000000       0.79171000       0.27027000 </v>
    <v>       0.25000000       0.50000000       0.52367000 </v>
    <v>       0.75000000       0.50000000       0.47633000 </v>
   </varray>
  </structure>
  <varray name="primitive_index" >
   <v type="int" >        1 </v>
   <v type="int" >        2 </v>
   <v type="int" >        3 </v>
   <v type="int" >        4 </v>
   <v type="int" >        5 </v>
   <v type="int" >        6 </v>
   <v type="int" >        7 </v>
   <v type="int" >        8 </v>
   <v type="int" >        9 </v>
   <v type="int" >       10 </v>
   <v type="int" >       11 </v>
   <v type="int" >       12 </v>
   <v type="int" >       13 </v>
   <v type="int" >       14 </v>
  </varray>
 </primitive_cell>
 <kpoints>
  <generation param="Monkhorst-Pack">
   <v type="int" name="divisions">      14       20       13 </v>
   <v name="usershift">      0.00000000       0.00000000       0.00000000 </v>
   <v name="genvec1">      0.07142857       0.00000000       0.00000000 </v>
   <v name="genvec2">      0.00000000       0.05000000       0.00000000 </v>
   <v name="genvec3">      0.00000000       0.00000000       0.07692308 </v>
   <v name="shift">      0.50000000       0.50000000       0.00000000 </v>
  </generation>
  <varray name="kpointlist" >
   <v>       0.03571429       0.02500000       0.00000000 </v>
   <v>       0.10714286       0.02500000       0.00000000 </v>
   <v>       0.17857143       0.02500000       0.00000000 </v>
   <v>       0.25000000       0.02500000       0.00000000 </v>
   <v>       0.32142857       0.02500000       0.00000000 </v>
   <v>       0.39285714       0.02500000       0.00000000 </v>
   <v>       0.46428571       0.02500000       0.00000000 </v>
   <v>       0.03571429       0.07500000       0.00000000 </v>
   <v>       0.10714286       0.07500000       0.00000000 </v>
   <v>       0.17857143       0.07500000       0.00000000 </v>
   <v>       0.25000000       0.07500000       0.00000000 </v>
   <v>       0.32142857       0.07500000       0.00000000 </v>
   <v>       0.39285714       0.07500000       0.00000000 </v>
   <v>       0.46428571       0.07500000       0.00000000 </v>
   <v>       0.03571429       0.12500000       0.00000000 </v>
   <v>       0.10714286       0.12500000       0.00000000 </v>
   <v>       0.17857143       0.12500000       0.00000000 </v>
   <v>       0.25000000       0.12500000       0.00000000 </v>
   <v>       0.32142857       0.12500000       0.00000000 </v>
   <v>       0.39285714       0.12500000       0.00000000 </v>
   <v>       0.46428571       0.12500000       0.00000000 </v>
   <v>       0.03571429       0.17500000       0.00000000 </v>
   <v>       0.10714286       0.17500000       0.00000000 </v>
   <v>       0.17857143       0.17500000       0.00000000 </v>
   <v>       0.25000000       0.17500000       0.00000000 </v>
   <v>       0.32142857       0.17500000       0.00000000 </v>
   <v>       0.39285714       0.17500000       0.00000000 </v>
   <v>       0.46428571       0.17500000       0.00000000 </v>
   <v>       0.03571429       0.22500000       0.00000000 </v>
   <v>       0.10714286       0.22500000       0.00000000 </v>
   <v>       0.17857143       0.22500000       0.00000000 </v>
   <v>       0.25000000       0.22500000       0.00000000 </v>
   <v>       0.32142857       0.22500000       0.00000000 </v>
   <v>       0.39285714       0.22500000       0.00000000 </v>
   <v>       0.46428571       0.22500000       0.00000000 </v>
   <v>       0.03571429       0.27500000       0.00000000 </v>
   <v>       0.10714286       0.27500000       0.00000000 </v>
   <v>       0.17857143       0.27500000       0.00000000 </v>
   <v>       0.25000000       0.27500000       0.00000000 </v>
   <v>       0.32142857       0.27500000       0.00000000 </v>
   <v>       0.39285714       0.27500000       0.00000000 </v>
   <v>       0.46428571       0.27500000       0.00000000 </v>
   <v>       0.03571429       0.32500000       0.00000000 </v>
   <v>       0.10714286       0.32500000       0.00000000 </v>
   <v>       0.17857143       0.32500000       0.00000000 </v>
   <v>       0.25000000       0.32500000       0.00000000 </v>
   <v>       0.32142857       0.32500000       0.00000000 </v>
   <v>       0.39285714       0.32500000       0.00000000 </v>
   <v>       0.46428571       0.32500000       0.00000000 </v>
   <v>       0.03571429       0.37500000       0.00000000 </v>
   <v>       0.10714286       0.37500000       0.00000000 </v>
   <v>       0.17857143       0.37500000       0.00000000 </v>
   <v>       0.25000000       0.37500000       0.00000000 </v>
   <v>       0.32142857       0.37500000       0.00000000 </v>
   <v>       0.39285714       0.37500000       0.00000000 </v>
   <v>       0.46428571       0.37500000       0.00000000 </v>
   <v>       0.03571429       0.42500000       0.00000000 </v>
   <v>       0.10714286       0.42500000       0.00000000 </v>
   <v>       0.17857143       0.42500000       0.00000000 </v>
   <v>       0.25000000       0.42500000       0.00000000 </v>
   <v>       0.32142857       0.42500000       0.00000000 </v>
   <v>       0.39285714       0.42500000       0.00000000 </v>
   <v>       0.46428571       0.42500000       0.00000000 </v>
   <v>       0.03571429       0.47500000       0.00000000 </v>
   <v>       0.10714286       0.47500000       0.00000000 </v>
   <v>       0.17857143       0.47500000       0.00000000 </v>
   <v>       0.25000000       0.47500000       0.00000000 </v>
   <v>       0.32142857       0.47500000       0.00000000 </v>
   <v>       0.39285714       0.47500000       0.00000000 </v>
   <v>       0.46428571       0.47500000       0.00000000 </v>
   <v>       0.03571429       0.02500000       0.07692308 </v>
   <v>       0.10714286       0.02500000       0.07692308 </v>
   <v>       0.17857143       0.02500000       0.07692308 </v>
   <v>       0.25000000       0.02500000       0.07692308 </v>
   <v>       0.32142857       0.02500000       0.07692308 </v>
   <v>       0.39285714       0.02500000       0.07692308 </v>
   <v>       0.46428571       0.02500000       0.07692308 </v>
   <v>       0.03571429       0.07500000       0.07692308 </v>
   <v>       0.10714286       0.07500000       0.07692308 </v>
   <v>       0.17857143       0.07500000       0.07692308 </v>
   <v>       0.25000000       0.07500000       0.07692308 </v>
   <v>       0.32142857       0.07500000       0.07692308 </v>
   <v>       0.39285714       0.07500000       0.07692308 </v>
   <v>       0.46428571       0.07500000       0.07692308 </v>
   <v>       0.03571429       0.12500000       0.07692308 </v>
   <v>       0.10714286       0.12500000       0.07692308 </v>
   <v>       0.17857143       0.12500000       0.07692308 </v>
   <v>       0.25000000       0.12500000       0.07692308 </v>
   <v>       0.32142857       0.12500000       0.07692308 </v>
   <v>       0.39285714       0.12500000       0.07692308 </v>
   <v>       0.46428571       0.12500000       0.07692308 </v>
   <v>       0.03571429       0.17500000       0.07692308 </v>
   <v>       0.10714286       0.17500000       0.07692308 </v>
   <v>       0.17857143       0.17500000       0.07692308 </v>
   <v>       0.25000000       0.17500000       0.07692308 </v>
   <v>       0.32142857       0.17500000       0.07692308 </v>
   <v>       0.39285714       0.17500000       0.07692308 </v>
   <v>       0.46428571       0.17500000       0.07692308 </v>
   <v>       0.03571429       0.22500000       0.07692308 </v>
   <v>       0.10714286       0.22500000       0.07692308 </v>
   <v>       0.17857143       0.22500000       0.07692308 </v>
   <v>       0.25000000       0.22500000       0.07692308 </v>
   <v>       0.32142857       0.22500000       0.07692308 </v>
   <v>       0.39285714       0.22500000       0.07692308 </v>
   <v>       0.46428571       0.22500000       0.07692308 </v>
   <v>       0.03571429       0.27500000       0.07692308 </v>
   <v>       0.10714286       0.27500000       0.07692308 </v>
   <v>       0.17857143       0.27500000       0.07692308 </v>
   <v>       0.25000000       0.27500000       0.07692308 </v>
   <v>       0.32142857       0.27500000       0.07692308 </v>
   <v>       0.39285714       0.27500000       0.07692308 </v>
   <v>       0.46428571       0.27500000       0.07692308 </v>
   <v>       0.03571429       0.32500000       0.07692308 </v>
   <v>       0.10714286       0.32500000       0.07692308 </v>
   <v>       0.17857143       0.32500000       0.07692308 </v>
   <v>       0.25000000       0.32500000       0.07692308 </v>
   <v>       0.32142857       0.32500000       0.07692308 </v>
   <v>       0.39285714       0.32500000       0.07692308 </v>
   <v>       0.46428571       0.32500000       0.07692308 </v>
   <v>       0.03571429       0.37500000       0.07692308 </v>
   <v>       0.10714286       0.37500000       0.07692308 </v>
   <v>       0.17857143       0.37500000       0.07692308 </v>
   <v>       0.25000000       0.37500000       0.07692308 </v>
   <v>       0.32142857       0.37500000       0.07692308 </v>
   <v>       0.39285714       0.37500000       0.07692308 </v>
   <v>       0.46428571       0.37500000       0.07692308 </v>
   <v>       0.03571429       0.42500000       0.07692308 </v>
   <v>       0.10714286       0.42500000       0.07692308 </v>
   <v>       0.17857143       0.42500000       0.07692308 </v>
   <v>       0.25000000       0.42500000       0.07692308 </v>
   <v>       0.32142857       0.42500000       0.07692308 </v>
   <v>       0.39285714       0.42500000       0.07692308 </v>
   <v>       0.46428571       0.42500000       0.07692308 </v>
   <v>       0.03571429       0.47500000       0.07692308 </v>
   <v>       0.10714286       0.47500000       0.07692308 </v>
   <v>       0.17857143       0.47500000       0.07692308 </v>
   <v>       0.25000000       0.47500000       0.07692308 </v>
   <v>       0.32142857       0.47500000       0.07692308 </v>
   <v>       0.39285714       0.47500000       0.07692308 </v>
   <v>       0.46428571       0.47500000       0.07692308 </v>
   <v>       0.03571429       0.02500000       0.15384615 </v>
   <v>       0.10714286       0.02500000       0.15384615 </v>
   <v>       0.17857143       0.02500000       0.15384615 </v>
   <v>       0.25000000       0.02500000       0.15384615 </v>
   <v>       0.32142857       0.02500000       0.15384615 </v>
   <v>       0.39285714       0.02500000       0.15384615 </v>
   <v>       0.46428571       0.02500000       0.15384615 </v>
   <v>       0.03571429       0.07500000       0.15384615 </v>
   <v>       0.10714286       0.07500000       0.15384615 </v>
   <v>       0.17857143       0.07500000       0.15384615 </v>
   <v>       0.25000000       0.07500000       0.15384615 </v>
   <v>       0.32142857       0.07500000       0.15384615 </v>
   <v>       0.39285714       0.07500000       0.15384615 </v>
   <v>       0.46428571       0.07500000       0.15384615 </v>
   <v>       0.03571429       0.12500000       0.15384615 </v>
   <v>       0.10714286       0.12500000       0.15384615 </v>
   <v>       0.17857143       0.12500000       0.15384615 </v>
   <v>       0.25000000       0.12500000       0.15384615 </v>
   <v>       0.32142857       0.12500000       0.15384615 </v>
   <v>       0.39285714       0.12500000       0.15384615 </v>
   <v>       0.46428571       0.12500000       0.15384615 </v>
   <v>       0.03571429       0.17500000       0.15384615 </v>
   <v>       0.10714286       0.17500000       0.15384615 </v>
   <v>       0.17857143       0.17500000       0.15384615 </v>
   <v>       0.25000000       0.17500000       0.15384615 </v>
   <v>       0.32142857       0.17500000       0.15384615 </v>
   <v>       0.39285714       0.17500000       0.15384615 </v>
   <v>       0.46428571       0.17500000       0.15384615 </v>
   <v>       0.03571429       0.22500000       0.15384615 </v>
   <v>       0.10714286       0.22500000       0.15384615 </v>
   <v>       0.17857143       0.22500000       0.15384615 </v>
   <v>       0.25000000       0.22500000       0.15384615 </v>
   <v>       0.32142857       0.22500000       0.15384615 </v>
   <v>       0.39285714       0.22500000       0.15384615 </v>
   <v>       0.46428571       0.22500000       0.15384615 </v>
   <v>       0.03571429       0.27500000       0.15384615 </v>
   <v>       0.10714286       0.27500000       0.15384615 </v>
   <v>       0.17857143       0.27500000       0.15384615 </v>
   <v>       0.25000000       0.27500000       0.15384615 </v>
   <v>       0.32142857       0.27500000       0.15384615 </v>
   <v>       0.39285714       0.27500000       0.15384615 </v>
   <v>       0.46428571       0.27500000       0.15384615 </v>
   <v>       0.03571429       0.32500000       0.15384615 </v>
   <v>       0.10714286       0.32500000       0.15384615 </v>
   <v>       0.17857143       0.32500000       0.15384615 </v>
   <v>       0.25000000       0.32500000       0.15384615 </v>
   <v>       0.32142857       0.32500000       0.15384615 </v>
   <v>       0.39285714       0.32500000       0.15384615 </v>
   <v>       0.46428571       0.32500000       0.15384615 </v>
   <v>       0.03571429       0.37500000       0.15384615 </v>
   <v>       0.10714286       0.37500000       0.15384615 </v>
   <v>       0.17857143       0.37500000       0.15384615 </v>
   <v>       0.25000000       0.37500000       0.15384615 </v>
   <v>       0.32142857       0.37500000       0.15384615 </v>
   <v>       0.39285714       0.37500000       0.15384615 </v>
   <v>       0.46428571       0.37500000       0.15384615 </v>
   <v>       0.03571429       0.42500000       0.15384615 </v>
   <v>       0.10714286       0.42500000       0.15384615 </v>
   <v>       0.17857143       0.42500000       0.15384615 </v>
   <v>       0.25000000       0.42500000       0.15384615 </v>
   <v>       0.32142857       0.42500000       0.15384615 </v>
   <v>       0.39285714       0.42500000       0.15384615 </v>
   <v>       0.46428571       0.42500000       0.15384615 </v>
   <v>       0.03571429       0.47500000       0.15384615 </v>
   <v>       0.10714286       0.47500000       0.15384615 </v>
   <v>       0.17857143       0.47500000       0.15384615 </v>
   <v>       0.25000000       0.47500000       0.15384615 </v>
   <v>       0.32142857       0.47500000       0.15384615 </v>
   <v>       0.39285714       0.47500000       0.15384615 </v>
   <v>       0.46428571       0.47500000       0.15384615 </v>
   <v>       0.03571429       0.02500000       0.23076923 </v>
   <v>       0.10714286       0.02500000       0.23076923 </v>
   <v>       0.17857143       0.02500000       0.23076923 </v>
   <v>       0.25000000       0.02500000       0.23076923 </v>
   <v>       0.32142857       0.02500000       0.23076923 </v>
   <v>       0.39285714       0.02500000       0.23076923 </v>
   <v>       0.46428571       0.02500000       0.23076923 </v>
   <v>       0.03571429       0.07500000       0.23076923 </v>
   <v>       0.10714286       0.07500000       0.23076923 </v>
   <v>       0.17857143       0.07500000       0.23076923 </v>
   <v>       0.25000000       0.07500000       0.23076923 </v>
   <v>       0.32142857       0.07500000       0.23076923 </v>
   <v>       0.39285714       0.07500000       0.23076923 </v>
   <v>       0.46428571       0.07500000       0.23076923 </v>
   <v>       0.03571429       0.12500000       0.23076923 </v>
   <v>       0.10714286       0.12500000       0.23076923 </v>
   <v>       0.17857143       0.12500000       0.23076923 </v>
   <v>       0.25000000       0.12500000       0.23076923 </v>
   <v>       0.32142857       0.12500000       0.23076923 </v>
   <v>       0.39285714       0.12500000       0.23076923 </v>
   <v>       0.46428571       0.12500000       0.23076923 </v>
   <v>       0.03571429       0.17500000       0.23076923 </v>
   <v>       0.10714286       0.17500000       0.23076923 </v>
   <v>       0.17857143       0.17500000       0.23076923 </v>
   <v>       0.25000000       0.17500000       0.23076923 </v>
   <v>       0.32142857       0.17500000       0.23076923 </v>
   <v>       0.39285714       0.17500000       0.23076923 </v>
   <v>       0.46428571       0.17500000       0.23076923 </v>
   <v>       0.03571429       0.22500000       0.23076923 </v>
   <v>       0.10714286       0.22500000       0.23076923 </v>
   <v>       0.17857143       0.22500000       0.23076923 </v>
   <v>       0.25000000       0.22500000       0.23076923 </v>
   <v>       0.32142857       0.22500000       0.23076923 </v>
   <v>       0.39285714       0.22500000       0.23076923 </v>
   <v>       0.46428571       0.22500000       0.23076923 </v>
   <v>       0.03571429       0.27500000       0.23076923 </v>
   <v>       0.10714286       0.27500000       0.23076923 </v>
   <v>       0.17857143       0.27500000       0.23076923 </v>
   <v>       0.25000000       0.27500000       0.23076923 </v>
   <v>       0.32142857       0.27500000       0.23076923 </v>
   <v>       0.39285714       0.27500000       0.23076923 </v>
   <v>       0.46428571       0.27500000       0.23076923 </v>
   <v>       0.03571429       0.32500000       0.23076923 </v>
   <v>       0.10714286       0.32500000       0.23076923 </v>
   <v>       0.17857143       0.32500000       0.23076923 </v>
   <v>       0.25000000       0.32500000       0.23076923 </v>
   <v>       0.32142857       0.32500000       0.23076923 </v>
   <v>       0.39285714       0.32500000       0.23076923 </v>
   <v>       0.46428571       0.32500000       0.23076923 </v>
   <v>       0.03571429       0.37500000       0.23076923 </v>
   <v>       0.10714286       0.37500000       0.23076923 </v>
   <v>       0.17857143       0.37500000       0.23076923 </v>
   <v>       0.25000000       0.37500000       0.23076923 </v>
   <v>       0.32142857       0.37500000       0.23076923 </v>
   <v>       0.39285714       0.37500000       0.23076923 </v>
   <v>       0.46428571       0.37500000       0.23076923 </v>
   <v>       0.03571429       0.42500000       0.23076923 </v>
   <v>       0.10714286       0.42500000       0.23076923 </v>
   <v>       0.17857143       0.42500000       0.23076923 </v>
   <v>       0.25000000       0.42500000       0.23076923 </v>
   <v>       0.32142857       0.42500000       0.23076923 </v>
   <v>       0.39285714       0.42500000       0.23076923 </v>
   <v>       0.46428571       0.42500000       0.23076923 </v>
   <v>       0.03571429       0.47500000       0.23076923 </v>
   <v>       0.10714286       0.47500000       0.23076923 </v>
   <v>       0.17857143       0.47500000       0.23076923 </v>
   <v>       0.25000000       0.47500000       0.23076923 </v>
   <v>       0.32142857       0.47500000       0.23076923 </v>
   <v>       0.39285714       0.47500000       0.23076923 </v>
   <v>       0.46428571       0.47500000       0.23076923 </v>
   <v>       0.03571429       0.02500000       0.30769231 </v>
   <v>       0.10714286       0.02500000       0.30769231 </v>
   <v>       0.17857143       0.02500000       0.30769231 </v>
   <v>       0.25000000       0.02500000       0.30769231 </v>
   <v>       0.32142857       0.02500000       0.30769231 </v>
   <v>       0.39285714       0.02500000       0.30769231 </v>
   <v>       0.46428571       0.02500000       0.30769231 </v>
   <v>       0.03571429       0.07500000       0.30769231 </v>
   <v>       0.10714286       0.07500000       0.30769231 </v>
   <v>       0.17857143       0.07500000       0.30769231 </v>
   <v>       0.25000000       0.07500000       0.30769231 </v>
   <v>       0.32142857       0.07500000       0.30769231 </v>
   <v>       0.39285714       0.07500000       0.30769231 </v>
   <v>       0.46428571       0.07500000       0.30769231 </v>
   <v>       0.03571429       0.12500000       0.30769231 </v>
   <v>       0.10714286       0.12500000       0.30769231 </v>
   <v>       0.17857143       0.12500000       0.30769231 </v>
   <v>       0.25000000       0.12500000       0.30769231 </v>
   <v>       0.32142857       0.12500000       0.30769231 </v>
   <v>       0.39285714       0.12500000       0.30769231 </v>
   <v>       0.46428571       0.12500000       0.30769231 </v>
   <v>       0.03571429       0.17500000       0.30769231 </v>
   <v>       0.10714286       0.17500000       0.30769231 </v>
   <v>       0.17857143       0.17500000       0.30769231 </v>
   <v>       0.25000000       0.17500000       0.30769231 </v>
   <v>       0.32142857       0.17500000       0.30769231 </v>
   <v>       0.39285714       0.17500000       0.30769231 </v>
   <v>       0.46428571       0.17500000       0.30769231 </v>
   <v>       0.03571429       0.22500000       0.30769231 </v>
   <v>       0.10714286       0.22500000       0.30769231 </v>
   <v>       0.17857143       0.22500000       0.30769231 </v>
   <v>       0.25000000       0.22500000       0.30769231 </v>
   <v>       0.32142857       0.22500000       0.30769231 </v>
   <v>       0.39285714       0.22500000       0.30769231 </v>
   <v>       0.46428571       0.22500000       0.30769231 </v>
   <v>       0.03571429       0.27500000       0.30769231 </v>
   <v>       0.10714286       0.27500000       0.30769231 </v>
   <v>       0.17857143       0.27500000       0.30769231 </v>
   <v>       0.25000000       0.27500000       0.30769231 </v>
   <v>       0.32142857       0.27500000       0.30769231 </v>
   <v>       0.39285714       0.27500000       0.30769231 </v>
   <v>       0.46428571       0.27500000       0.30769231 </v>
   <v>       0.03571429       0.32500000       0.30769231 </v>
   <v>       0.10714286       0.32500000       0.30769231 </v>
   <v>       0.17857143       0.32500000       0.30769231 </v>
   <v>       0.25000000       0.32500000       0.30769231 </v>
   <v>       0.32142857       0.32500000       0.30769231 </v>
   <v>       0.39285714       0.32500000       0.30769231 </v>
   <v>       0.46428571       0.32500000       0.30769231 </v>
   <v>       0.03571429       0.37500000       0.30769231 </v>
   <v>       0.10714286       0.37500000       0.30769231 </v>
   <v>       0.17857143       0.37500000       0.30769231 </v>
   <v>       0.25000000       0.37500000       0.30769231 </v>
   <v>       0.32142857       0.37500000       0.30769231 </v>
   <v>       0.39285714       0.37500000       0.30769231 </v>
   <v>       0.46428571       0.37500000       0.30769231 </v>
   <v>       0.03571429       0.42500000       0.30769231 </v>
   <v>       0.10714286       0.42500000       0.30769231 </v>
   <v>       0.17857143       0.42500000       0.30769231 </v>
   <v>       0.25000000       0.42500000       0.30769231 </v>
   <v>       0.32142857       0.42500000       0.30769231 </v>
   <v>       0.39285714       0.42500000       0.30769231 </v>
   <v>       0.46428571       0.42500000       0.30769231 </v>
   <v>       0.03571429       0.47500000       0.30769231 </v>
   <v>       0.10714286       0.47500000       0.30769231 </v>
   <v>       0.17857143       0.47500000       0.30769231 </v>
   <v>       0.25000000       0.47500000       0.30769231 </v>
   <v>       0.32142857       0.47500000       0.30769231 </v>
   <v>       0.39285714       0.47500000       0.30769231 </v>
   <v>       0.46428571       0.47500000       0.30769231 </v>
   <v>       0.03571429       0.02500000       0.38461538 </v>
   <v>       0.10714286       0.02500000       0.38461538 </v>
   <v>       0.17857143       0.02500000       0.38461538 </v>
   <v>       0.25000000       0.02500000       0.38461538 </v>
   <v>       0.32142857       0.02500000       0.38461538 </v>
   <v>       0.39285714       0.02500000       0.38461538 </v>
   <v>       0.46428571       0.02500000       0.38461538 </v>
   <v>       0.03571429       0.07500000       0.38461538 </v>
   <v>       0.10714286       0.07500000       0.38461538 </v>
   <v>       0.17857143       0.07500000       0.38461538 </v>
   <v>       0.25000000       0.07500000       0.38461538 </v>
   <v>       0.32142857       0.07500000       0.38461538 </v>
   <v>       0.39285714       0.07500000       0.38461538 </v>
   <v>       0.46428571       0.07500000       0.38461538 </v>
   <v>       0.03571429       0.12500000       0.38461538 </v>
   <v>       0.10714286       0.12500000       0.38461538 </v>
   <v>       0.17857143       0.12500000       0.38461538 </v>
   <v>       0.25000000       0.12500000       0.38461538 </v>
   <v>       0.32142857       0.12500000       0.38461538 </v>
   <v>       0.39285714       0.12500000       0.38461538 </v>
   <v>       0.46428571       0.12500000       0.38461538 </v>
   <v>       0.03571429       0.17500000       0.38461538 </v>
   <v>       0.10714286       0.17500000       0.38461538 </v>
   <v>       0.17857143       0.17500000       0.38461538 </v>
   <v>       0.25000000       0.17500000       0.38461538 </v>
   <v>       0.32142857       0.17500000       0.38461538 </v>
   <v>       0.39285714       0.17500000       0.38461538 </v>
   <v>       0.46428571       0.17500000       0.38461538 </v>
   <v>       0.03571429       0.22500000       0.38461538 </v>
   <v>       0.10714286       0.22500000       0.38461538 </v>
   <v>       0.17857143       0.22500000       0.38461538 </v>
   <v>       0.25000000       0.22500000       0.38461538 </v>
   <v>       0.32142857       0.22500000       0.38461538 </v>
   <v>       0.39285714       0.22500000       0.38461538 </v>
   <v>       0.46428571       0.22500000       0.38461538 </v>
   <v>       0.03571429       0.27500000       0.38461538 </v>
   <v>       0.10714286       0.27500000       0.38461538 </v>
   <v>       0.17857143       0.27500000       0.38461538 </v>
   <v>       0.25000000       0.27500000       0.38461538 </v>
   <v>       0.32142857       0.27500000       0.38461538 </v>
   <v>       0.39285714       0.27500000       0.38461538 </v>
   <v>       0.46428571       0.27500000       0.38461538 </v>
   <v>       0.03571429       0.32500000       0.38461538 </v>
   <v>       0.10714286       0.32500000       0.38461538 </v>
   <v>       0.17857143       0.32500000       0.38461538 </v>
   <v>       0.25000000       0.32500000       0.38461538 </v>
   <v>       0.32142857       0.32500000       0.38461538 </v>
   <v>       0.39285714       0.32500000       0.38461538 </v>
   <v>       0.46428571       0.32500000       0.38461538 </v>
   <v>       0.03571429       0.37500000       0.38461538 </v>
   <v>       0.10714286       0.37500000       0.38461538 </v>
   <v>       0.17857143       0.37500000       0.38461538 </v>
   <v>       0.25000000       0.37500000       0.38461538 </v>
   <v>       0.32142857       0.37500000       0.38461538 </v>
   <v>       0.39285714       0.37500000       0.38461538 </v>
   <v>       0.46428571       0.37500000       0.38461538 </v>
   <v>       0.03571429       0.42500000       0.38461538 </v>
   <v>       0.10714286       0.42500000       0.38461538 </v>
   <v>       0.17857143       0.42500000       0.38461538 </v>
   <v>       0.25000000       0.42500000       0.38461538 </v>
   <v>       0.32142857       0.42500000       0.38461538 </v>
   <v>       0.39285714       0.42500000       0.38461538 </v>
   <v>       0.46428571       0.42500000       0.38461538 </v>
   <v>       0.03571429       0.47500000       0.38461538 </v>
   <v>       0.10714286       0.47500000       0.38461538 </v>
   <v>       0.17857143       0.47500000       0.38461538 </v>
   <v>       0.25000000       0.47500000       0.38461538 </v>
   <v>       0.32142857       0.47500000       0.38461538 </v>
   <v>       0.39285714       0.47500000       0.38461538 </v>
   <v>       0.46428571       0.47500000       0.38461538 </v>
   <v>       0.03571429       0.02500000       0.46153846 </v>
   <v>       0.10714286       0.02500000       0.46153846 </v>
   <v>       0.17857143       0.02500000       0.46153846 </v>
   <v>       0.25000000       0.02500000       0.46153846 </v>
   <v>       0.32142857       0.02500000       0.46153846 </v>
   <v>       0.39285714       0.02500000       0.46153846 </v>
   <v>       0.46428571       0.02500000       0.46153846 </v>
   <v>       0.03571429       0.07500000       0.46153846 </v>
   <v>       0.10714286       0.07500000       0.46153846 </v>
   <v>       0.17857143       0.07500000       0.46153846 </v>
   <v>       0.25000000       0.07500000       0.46153846 </v>
   <v>       0.32142857       0.07500000       0.46153846 </v>
   <v>       0.39285714       0.07500000       0.46153846 </v>
   <v>       0.46428571       0.07500000       0.46153846 </v>
   <v>       0.03571429       0.12500000       0.46153846 </v>
   <v>       0.10714286       0.12500000       0.46153846 </v>
   <v>       0.17857143       0.12500000       0.46153846 </v>
   <v>       0.25000000       0.12500000       0.46153846 </v>
   <v>       0.32142857       0.12500000       0.46153846 </v>
   <v>       0.39285714       0.12500000       0.46153846 </v>
   <v>       0.46428571       0.12500000       0.46153846 </v>
   <v>       0.03571429       0.17500000       0.46153846 </v>
   <v>       0.10714286       0.17500000       0.46153846 </v>
   <v>       0.17857143       0.17500000       0.46153846 </v>
   <v>       0.25000000       0.17500000       0.46153846 </v>
   <v>       0.32142857       0.17500000       0.46153846 </v>
   <v>       0.39285714       0.17500000       0.46153846 </v>
   <v>       0.46428571       0.17500000       0.46153846 </v>
   <v>       0.03571429       0.22500000       0.46153846 </v>
   <v>       0.10714286       0.22500000       0.46153846 </v>
   <v>       0.17857143       0.22500000       0.46153846 </v>
   <v>       0.25000000       0.22500000       0.46153846 </v>
   <v>       0.32142857       0.22500000       0.46153846 </v>
   <v>       0.39285714       0.22500000       0.46153846 </v>
   <v>       0.46428571       0.22500000       0.46153846 </v>
   <v>       0.03571429       0.27500000       0.46153846 </v>
   <v>       0.10714286       0.27500000       0.46153846 </v>
   <v>       0.17857143       0.27500000       0.46153846 </v>
   <v>       0.25000000       0.27500000       0.46153846 </v>
   <v>       0.32142857       0.27500000       0.46153846 </v>
   <v>       0.39285714       0.27500000       0.46153846 </v>
   <v>       0.46428571       0.27500000       0.46153846 </v>
   <v>       0.03571429       0.32500000       0.46153846 </v>
   <v>       0.10714286       0.32500000       0.46153846 </v>
   <v>       0.17857143       0.32500000       0.46153846 </v>
   <v>       0.25000000       0.32500000       0.46153846 </v>
   <v>       0.32142857       0.32500000       0.46153846 </v>
   <v>       0.39285714       0.32500000       0.46153846 </v>
   <v>       0.46428571       0.32500000       0.46153846 </v>
   <v>       0.03571429       0.37500000       0.46153846 </v>
   <v>       0.10714286       0.37500000       0.46153846 </v>
   <v>       0.17857143       0.37500000       0.46153846 </v>
   <v>       0.25000000       0.37500000       0.46153846 </v>
   <v>       0.32142857       0.37500000       0.46153846 </v>
   <v>       0.39285714       0.37500000       0.46153846 </v>
   <v>       0.46428571       0.37500000       0.46153846 </v>
   <v>       0.03571429       0.42500000       0.46153846 </v>
   <v>       0.10714286       0.42500000       0.46153846 </v>
   <v>       0.17857143       0.42500000       0.46153846 </v>
   <v>       0.25000000       0.42500000       0.46153846 </v>
   <v>       0.32142857       0.42500000       0.46153846 </v>
   <v>       0.39285714       0.42500000       0.46153846 </v>
   <v>       0.46428571       0.42500000       0.46153846 </v>
   <v>       0.03571429       0.47500000       0.46153846 </v>
   <v>       0.10714286       0.47500000       0.46153846 </v>
   <v>       0.17857143       0.47500000       0.46153846 </v>
   <v>       0.25000000       0.47500000       0.46153846 </v>
   <v>       0.32142857       0.47500000       0.46153846 </v>
   <v>       0.39285714       0.47500000       0.46153846 </v>
   <v>       0.46428571       0.47500000       0.46153846 </v>
  </varray>
  <varray name="weights" >
   <v>       0.00109890 </v>
   <v>       0.00109890 </v>
   <v>       0.00109890 </v>
   <v>       0.00109890 </v>
   <v>       0.00109890 </v>
   <v>       0.00109890 </v>
   <v>       0.00109890 </v>
   <v>       0.00109890 </v>
   <v>       0.00109890 </v>
   <v>       0.00109890 </v>
   <v>       0.00109890 </v>
   <v>       0.00109890 </v>
   <v>       0.00109890 </v>
   <v>       0.00109890 </v>
   <v>       0.00109890 </v>
   <v>       0.00109890 </v>
   <v>       0.00109890 </v>
   <v>       0.00109890 </v>
   <v>       0.00109890 </v>
   <v>       0.00109890 </v>
   <v>       0.00109890 </v>
   <v>       0.00109890 </v>
   <v>       0.00109890 </v>
   <v>       0.00109890 </v>
   <v>       0.00109890 </v>
   <v>       0.00109890 </v>
   <v>       0.00109890 </v>
   <v>       0.00109890 </v>
   <v>       0.00109890 </v>
   <v>       0.00109890 </v>
   <v>       0.00109890 </v>
   <v>       0.00109890 </v>
   <v>       0.00109890 </v>
   <v>       0.00109890 </v>
   <v>       0.00109890 </v>
   <v>       0.00109890 </v>
   <v>       0.00109890 </v>
   <v>       0.00109890 </v>
   <v>       0.00109890 </v>
   <v>       0.00109890 </v>
   <v>       0.00109890 </v>
   <v>       0.00109890 </v>
   <v>       0.00109890 </v>
   <v>       0.00109890 </v>
   <v>       0.00109890 </v>
   <v>       0.00109890 </v>
   <v>       0.00109890 </v>
   <v>       0.00109890 </v>
   <v>       0.00109890 </v>
   <v>       0.00109890 </v>
   <v>       0.00109890 </v>
   <v>       0.00109890 </v>
   <v>       0.00109890 </v>
   <v>       0.00109890 </v>
   <v>       0.00109890 </v>
   <v>       0.00109890 </v>
   <v>       0.00109890 </v>
   <v>       0.00109890 </v>
   <v>       0.00109890 </v>
   <v>       0.00109890 </v>
   <v>       0.00109890 </v>
   <v>       0.00109890 </v>
   <v>       0.00109890 </v>
   <v>       0.00109890 </v>
   <v>       0.00109890 </v>
   <v>       0.00109890 </v>
   <v>       0.00109890 </v>
   <v>       0.00109890 </v>
   <v>       0.00109890 </v>
   <v>       0.00109890 </v>
   <v>       0.00219780 </v>
   <v>       0.00219780 </v>
   <v>       0.00219780 </v>
   <v>       0.00219780 </v>
   <v>       0.00219780 </v>
   <v>       0.00219780 </v>
   <v>       0.00219780 </v>
   <v>       0.00219780 </v>
   <v>       0.00219780 </v>
   <v>       0.00219780 </v>
   <v>       0.00219780 </v>
   <v>       0.00219780 </v>
   <v>       0.00219780 </v>
   <v>       0.00219780 </v>
   <v>       0.00219780 </v>
   <v>       0.00219780 </v>
   <v>       0.00219780 </v>
   <v>       0.00219780 </v>
   <v>       0.00219780 </v>
   <v>       0.00219780 </v>
   <v>       0.00219780 </v>
   <v>       0.00219780 </v>
   <v>       0.00219780 </v>
   <v>       0.00219780 </v>
   <v>       0.00219780 </v>
   <v>       0.00219780 </v>
   <v>       0.00219780 </v>
   <v>       0.00219780 </v>
   <v>       0.00219780 </v>
   <v>       0.00219780 </v>
   <v>       0.00219780 </v>
   <v>       0.00219780 </v>
   <v>       0.00219780 </v>
   <v>       0.00219780 </v>
   <v>       0.00219780 </v>
   <v>       0.00219780 </v>
   <v>       0.00219780 </v>
   <v>       0.00219780 </v>
   <v>       0.00219780 </v>
   <v>       0.00219780 </v>
   <v>       0.00219780 </v>
   <v>       0.00219780 </v>
   <v>       0.00219780 </v>
   <v>       0.00219780 </v>
   <v>       0.00219780 </v>
   <v>       0.00219780 </v>
   <v>       0.00219780 </v>
   <v>       0.00219780 </v>
   <v>       0.00219780 </v>
   <v>       0.00219780 </v>
   <v>       0.00219780 </v>
   <v>       0.00219780 </v>
   <v>       0.00219780 </v>
   <v>       0.00219780 </v>
   <v>       0.00219780 </v>
   <v>       0.00219780 </v>
   <v>       0.00219780 </v>
   <v>       0.00219780 </v>
   <v>       0.00219780 </v>
   <v>       0.00219780 </v>
   <v>       0.00219780 </v>
   <v>       0.00219780 </v>
   <v>       0.00219780 </v>
   <v>       0.00219780 </v>
   <v>       0.00219780 </v>
   <v>       0.00219780 </v>
   <v>       0.00219780 </v>
   <v>       0.00219780 </v>
   <v>       0.00219780 </v>
   <v>       0.00219780 </v>
   <v>       0.00219780 </v>
   <v>       0.00219780 </v>
   <v>       0.00219780 </v>
   <v>       0.00219780 </v>
   <v>       0.00219780 </v>
   <v>       0.00219780 </v>
   <v>       0.00219780 </v>
   <v>       0.00219780 </v>
   <v>       0.00219780 </v>
   <v>       0.00219780 </v>
   <v>       0.00219780 </v>
   <v>       0.00219780 </v>
   <v>       0.00219780 </v>
   <v>       0.00219780 </v>
   <v>       0.00219780 </v>
   <v>       0.00219780 </v>
   <v>       0.00219780 </v>
   <v>       0.00219780 </v>
   <v>       0.00219780 </v>
   <v>       0.00219780 </v>
   <v>       0.00219780 </v>
   <v>       0.00219780 </v>
   <v>       0.00219780 </v>
   <v>       0.00219780 </v>
   <v>       0.00219780 </v>
   <v>       0.00219780 </v>
   <v>       0.00219780 </v>
   <v>       0.00219780 </v>
   <v>       0.00219780 </v>
   <v>       0.00219780 </v>
   <v>       0.00219780 </v>
   <v>       0.00219780 </v>
   <v>       0.00219780 </v>
   <v>       0.00219780 </v>
   <v>       0.00219780 </v>
   <v>       0.00219780 </v>
   <v>       0.00219780 </v>
   <v>       0.00219780 </v>
   <v>       0.00219780 </v>
   <v>       0.00219780 </v>
   <v>       0.00219780 </v>
   <v>       0.00219780 </v>
   <v>       0.00219780 </v>
   <v>       0.00219780 </v>
   <v>       0.00219780 </v>
   <v>       0.00219780 </v>
   <v>       0.00219780 </v>
   <v>       0.00219780 </v>
   <v>       0.00219780 </v>
   <v>       0.00219780 </v>
   <v>       0.00219780 </v>
   <v>       0.00219780 </v>
   <v>       0.00219780 </v>
   <v>       0.00219780 </v>
   <v>       0.00219780 </v>
   <v>       0.00219780 </v>
   <v>       0.00219780 </v>
   <v>       0.00219780 </v>
   <v>       0.00219780 </v>
   <v>       0.00219780 </v>
   <v>       0.00219780 </v>
   <v>       0.00219780 </v>
   <v>       0.00219780 </v>
   <v>       0.00219780 </v>
   <v>       0.00219780 </v>
   <v>       0.00219780 </v>
   <v>       0.00219780 </v>
   <v>       0.00219780 </v>
   <v>       0.00219780 </v>
   <v>       0.00219780 </v>
   <v>       0.00219780 </v>
   <v>       0.00219780 </v>
   <v>       0.00219780 </v>
   <v>       0.00219780 </v>
   <v>       0.00219780 </v>
   <v>       0.00219780 </v>
   <v>       0.00219780 </v>
   <v>       0.00219780 </v>
   <v>       0.00219780 </v>
   <v>       0.00219780 </v>
   <v>       0.00219780 </v>
   <v>       0.00219780 </v>
   <v>       0.00219780 </v>
   <v>       0.00219780 </v>
   <v>       0.00219780 </v>
   <v>       0.00219780 </v>
   <v>       0.00219780 </v>
   <v>       0.00219780 </v>
   <v>       0.00219780 </v>
   <v>       0.00219780 </v>
   <v>       0.00219780 </v>
   <v>       0.00219780 </v>
   <v>       0.00219780 </v>
   <v>       0.00219780 </v>
   <v>       0.00219780 </v>
   <v>       0.00219780 </v>
   <v>       0.00219780 </v>
   <v>       0.00219780 </v>
   <v>       0.00219780 </v>
   <v>       0.00219780 </v>
   <v>       0.00219780 </v>
   <v>       0.00219780 </v>
   <v>       0.00219780 </v>
   <v>       0.00219780 </v>
   <v>       0.00219780 </v>
   <v>       0.00219780 </v>
   <v>       0.00219780 </v>
   <v>       0.00219780 </v>
   <v>       0.00219780 </v>
   <v>       0.00219780 </v>
   <v>       0.00219780 </v>
   <v>       0.00219780 </v>
   <v>       0.00219780 </v>
   <v>       0.00219780 </v>
   <v>       0.00219780 </v>
   <v>       0.00219780 </v>
   <v>       0.00219780 </v>
   <v>       0.00219780 </v>
   <v>       0.00219780 </v>
   <v>       0.00219780 </v>
   <v>       0.00219780 </v>
   <v>       0.00219780 </v>
   <v>       0.00219780 </v>
   <v>       0.00219780 </v>
   <v>       0.00219780 </v>
   <v>       0.00219780 </v>
   <v>       0.00219780 </v>
   <v>       0.00219780 </v>
   <v>       0.00219780 </v>
   <v>       0.00219780 </v>
   <v>       0.00219780 </v>
   <v>       0.00219780 </v>
   <v>       0.00219780 </v>
   <v>       0.00219780 </v>
   <v>       0.00219780 </v>
   <v>       0.00219780 </v>
   <v>       0.00219780 </v>
   <v>       0.00219780 </v>
   <v>       0.00219780 </v>
   <v>       0.00219780 </v>
   <v>       0.00219780 </v>
   <v>       0.00219780 </v>
   <v>       0.00219780 </v>
   <v>       0.00219780 </v>
   <v>       0.00219780 </v>
   <v>       0.00219780 </v>
   <v>       0.00219780 </v>
   <v>       0.00219780 </v>
   <v>       0.00219780 </v>
   <v>       0.00219780 </v>
   <v>       0.00219780 </v>
   <v>       0.00219780 </v>
   <v>       0.00219780 </v>
   <v>       0.00219780 </v>
   <v>       0.00219780 </v>
   <v>       0.00219780 </v>
   <v>       0.00219780 </v>
   <v>       0.00219780 </v>
   <v>       0.00219780 </v>
   <v>       0.00219780 </v>
   <v>       0.00219780 </v>
   <v>       0.00219780 </v>
   <v>       0.00219780 </v>
   <v>       0.00219780 </v>
   <v>       0.00219780 </v>
   <v>       0.00219780 </v>
   <v>       0.00219780 </v>
   <v>       0.00219780 </v>
   <v>       0.00219780 </v>
   <v>       0.00219780 </v>
   <v>       0.00219780 </v>
   <v>       0.00219780 </v>
   <v>       0.00219780 </v>
   <v>       0.00219780 </v>
   <v>       0.00219780 </v>
   <v>       0.00219780 </v>
   <v>       0.00219780 </v>
   <v>       0.00219780 </v>
   <v>       0.00219780 </v>
   <v>       0.00219780 </v>
   <v>       0.00219780 </v>
   <v>       0.00219780 </v>
   <v>       0.00219780 </v>
   <v>       0.00219780 </v>
   <v>       0.00219780 </v>
   <v>       0.00219780 </v>
   <v>       0.00219780 </v>
   <v>       0.00219780 </v>
   <v>       0.00219780 </v>
   <v>       0.00219780 </v>
   <v>       0.00219780 </v>
   <v>       0.00219780 </v>
   <v>       0.00219780 </v>
   <v>       0.00219780 </v>
   <v>       0.00219780 </v>
   <v>       0.00219780 </v>
   <v>       0.00219780 </v>
   <v>       0.00219780 </v>
   <v>       0.00219780 </v>
   <v>       0.00219780 </v>
   <v>       0.00219780 </v>
   <v>       0.00219780 </v>
   <v>       0.00219780 </v>
   <v>       0.00219780 </v>
   <v>       0.00219780 </v>
   <v>       0.00219780 </v>
   <v>       0.00219780 </v>
   <v>       0.00219780 </v>
   <v>       0.00219780 </v>
   <v>       0.00219780 </v>
   <v>       0.00219780 </v>
   <v>       0.00219780 </v>
   <v>       0.00219780 </v>
   <v>       0.00219780 </v>
   <v>       0.00219780 </v>
   <v>       0.00219780 </v>
   <v>       0.00219780 </v>
   <v>       0.00219780 </v>
   <v>       0.00219780 </v>
   <v>       0.00219780 </v>
   <v>       0.00219780 </v>
   <v>       0.00219780 </v>
   <v>       0.00219780 </v>
   <v>       0.00219780 </v>
   <v>       0.00219780 </v>
   <v>       0.00219780 </v>
   <v>       0.00219780 </v>
   <v>       0.00219780 </v>
   <v>       0.00219780 </v>
   <v>       0.00219780 </v>
   <v>       0.00219780 </v>
   <v>       0.00219780 </v>
   <v>       0.00219780 </v>
   <v>       0.00219780 </v>
   <v>       0.00219780 </v>
   <v>       0.00219780 </v>
   <v>       0.00219780 </v>
   <v>       0.00219780 </v>
   <v>       0.00219780 </v>
   <v>       0.00219780 </v>
   <v>       0.00219780 </v>
   <v>       0.00219780 </v>
   <v>       0.00219780 </v>
   <v>       0.00219780 </v>
   <v>       0.00219780 </v>
   <v>       0.00219780 </v>
   <v>       0.00219780 </v>
   <v>       0.00219780 </v>
   <v>       0.00219780 </v>
   <v>       0.00219780 </v>
   <v>       0.00219780 </v>
   <v>       0.00219780 </v>
   <v>       0.00219780 </v>
   <v>       0.00219780 </v>
   <v>       0.00219780 </v>
   <v>       0.00219780 </v>
   <v>       0.00219780 </v>
   <v>       0.00219780 </v>
   <v>       0.00219780 </v>
   <v>       0.00219780 </v>
   <v>       0.00219780 </v>
   <v>       0.00219780 </v>
   <v>       0.00219780 </v>
   <v>       0.00219780 </v>
   <v>       0.00219780 </v>
   <v>       0.00219780 </v>
   <v>       0.00219780 </v>
   <v>       0.00219780 </v>
   <v>       0.00219780 </v>
   <v>       0.00219780 </v>
   <v>       0.00219780 </v>
   <v>       0.00219780 </v>
   <v>       0.00219780 </v>
   <v>       0.00219780 </v>
   <v>       0.00219780 </v>
   <v>       0.00219780 </v>
   <v>       0.00219780 </v>
   <v>       0.00219780 </v>
   <v>       0.00219780 </v>
   <v>       0.00219780 </v>
   <v>       0.00219780 </v>
   <v>       0.00219780 </v>
   <v>       0.00219780 </v>
   <v>       0.00219780 </v>
   <v>       0.00219780 </v>
   <v>       0.00219780 </v>
   <v>       0.00219780 </v>
   <v>       0.00219780 </v>
   <v>       0.00219780 </v>
   <v>       0.00219780 </v>
   <v>       0.00219780 </v>
   <v>       0.00219780 </v>
   <v>       0.00219780 </v>
   <v>       0.00219780 </v>
   <v>       0.00219780 </v>
   <v>       0.00219780 </v>
   <v>       0.00219780 </v>
   <v>       0.00219780 </v>
   <v>       0.00219780 </v>
   <v>       0.00219780 </v>
   <v>       0.00219780 </v>
   <v>       0.00219780 </v>
   <v>       0.00219780 </v>
   <v>       0.00219780 </v>
   <v>       0.00219780 </v>
   <v>       0.00219780 </v>
   <v>       0.00219780 </v>
   <v>       0.00219780 </v>
   <v>       0.00219780 </v>
   <v>       0.00219780 </v>
   <v>       0.00219780 </v>
   <v>       0.00219780 </v>
   <v>       0.00219780 </v>
   <v>       0.00219780 </v>
   <v>       0.00219780 </v>
   <v>       0.00219780 </v>
   <v>       0.00219780 </v>
   <v>       0.00219780 </v>
   <v>       0.00219780 </v>
   <v>       0.00219780 </v>
   <v>       0.00219780 </v>
   <v>       0.00219780 </v>
   <v>       0.00219780 </v>
   <v>       0.00219780 </v>
   <v>       0.00219780 </v>
   <v>       0.00219780 </v>
   <v>       0.00219780 </v>
   <v>       0.00219780 </v>
   <v>       0.00219780 </v>
   <v>       0.00219780 </v>
   <v>       0.00219780 </v>
   <v>       0.00219780 </v>
   <v>       0.00219780 </v>
   <v>       0.00219780 </v>
   <v>       0.00219780 </v>
   <v>       0.00219780 </v>
   <v>       0.00219780 </v>
   <v>       0.00219780 </v>
   <v>       0.00219780 </v>
   <v>       0.00219780 </v>
   <v>       0.00219780 </v>
   <v>       0.00219780 </v>
   <v>       0.00219780 </v>
   <v>       0.00219780 </v>
   <v>       0.00219780 </v>
   <v>       0.00219780 </v>
   <v>       0.00219780 </v>
   <v>       0.00219780 </v>
   <v>       0.00219780 </v>
   <v>       0.00219780 </v>
  </varray>
 </kpoints>
 <parameters>
  <separator name="general" >
   <i type="string" name="SYSTEM">Kpoints</i>
   <i type="logical" name="LCOMPAT"> F  </i>
  </separator>
  <separator name="electronic" >
   <i type="string" name="PREC">accura</i>
   <i name="ENMAX">    450.00000000</i>
   <i name="ENAUG">    535.51400000</i>
   <i name="EDIFF">      0.00000100</i>
   <i type="int" name="IALGO">    38</i>
   <i type="int" name="IWAVPR">    10</i>
   <i type="int" name="NBANDS">    48</i>
   <i type="int" name="NBANDSLOW">    -1</i>
   <i type="int" name="NBANDSHIGH">    -1</i>
   <i name="NELECT">     42.00000000</i>
   <i type="int" name="TURBO">     0</i>
   <i type="int" name="IRESTART">     0</i>
   <i type="int" name="NREBOOT">     0</i>
   <i type="int" name="NMIN">     0</i>
   <i name="EREF">      0.00000000</i>
   <separator name="electronic smearing" >
    <i type="int" name="ISMEAR">     0</i>
    <i name="SIGMA">      0.05000000</i>
    <i name="KSPACING">      0.50000000</i>
    <i type="logical" name="KGAMMA"> T  </i>
    <i type="logical" name="KBLOWUP"> T  </i>
   </separator>
   <separator name="electronic projectors" >
    <i type="logical" name="LREAL"> F  </i>
    <v name="ROPT">      0.00000000</v>
    <i type="int" name="LMAXPAW">  -100</i>
    <i type="int" name="LMAXMIX">     2</i>
    <i type="logical" name="NLSPLINE"> F  </i>
   </separator>
   <separator name="electronic startup" >
    <i type="int" name="ISTART">     0</i>
    <i type="int" name="ICHARG">     2</i>
    <i type="int" name="INIWAV">     1</i>
   </separator>
   <separator name="electronic spin" >
    <i type="int" name="ISPIN">     1</i>
    <i type="logical" name="LNONCOLLINEAR"> F  </i>
    <v name="MAGMOM">      1.00000000      1.00000000      1.00000000      1.00000000      1.00000000      1.00000000      1.00000000      1.00000000      1.00000000      1.00000000      1.00000000      1.00000000      1.00000000      1.00000000</v>
    <i name="NUPDOWN">     -1.00000000</i>
    <i type="logical" name="LSORBIT"> F  </i>
    <v name="SAXIS">      0.00000000      0.00000000      1.00000000</v>
    <i type="logical" name="LSPIRAL"> F  </i>
    <v name="QSPIRAL">      0.00000000      0.00000000      0.00000000</v>
    <i type="logical" name="LZEROZ"> F  </i>
   </separator>
   <separator name="electronic exchange-correlation" >
    <i type="logical" name="LASPH"> F  </i>
   </separator>
   <separator name="electronic convergence" >
    <i type="int" name="NELM">   100</i>
    <i type="int" name="NELMDL">    -5</i>
    <i type="int" name="NELMIN">     2</i>
    <i name="ENINI">    450.00000000</i>
    <separator name="electronic convergence detail" >
     <i type="logical" name="LDIAG"> T  </i>
     <i type="logical" name="LSUBROT"> F  </i>
     <i name="WEIMIN">      0.00000000</i>
     <i name="EBREAK">      0.00000001</i>
     <i name="DEPER">      0.30000000</i>
     <i type="int" name="NRMM">     4</i>
     <i name="TIME">      0.40000000</i>
    </separator>
   </separator>
   <separator name="electronic mixer" >
    <i name="AMIX">      0.40000000</i>
    <i name="BMIX">      1.00000000</i>
    <i name="AMIN">      0.10000000</i>
    <i name="AMIX_MAG">      1.60000000</i>
    <i name="BMIX_MAG">      1.00000000</i>
    <separator name="electronic mixer details" >
     <i type="int" name="IMIX">     4</i>
     <i type="logical" name="MIXFIRST"> F  </i>
     <i type="int" name="MAXMIX">   -45</i>
     <i name="WC">    100.00000000</i>
     <i type="int" name="INIMIX">     1</i>
     <i type="int" name="MIXPRE">     1</i>
     <i type="int" name="MREMOVE">     5</i>
    </separator>
   </separator>
   <separator name="electronic dipolcorrection" >
    <i type="logical" name="LDIPOL"> F  </i>
    <i type="logical" name="LMONO"> F  </i>
    <i type="int" name="IDIPOL">     0</i>
    <i name="EPSILON">      1.00000000</i>
    <v name="DIPOL">   -100.00000000   -100.00000000   -100.00000000</v>
    <i name="EFIELD">      0.00000000</i>
    <i type="logical" name="LVACPOTAV"> F  </i>
   </separator>
  </separator>
  <separator name="grids" >
   <i type="int" name="NGX">    40</i>
   <i type="int" name="NGY">    28</i>
   <i type="int" name="NGZ">    48</i>
   <i type="int" name="NGXF">    80</i>
   <i type="int" name="NGYF">    56</i>
   <i type="int" name="NGZF">    96</i>
   <i type="logical" name="ADDGRID"> F  </i>
  </separator>
  <separator name="ionic" >
   <i type="int" name="NSW">     0</i>
   <i type="int" name="IBRION">    -1</i>
   <i type="int" name="MDALGO">     0</i>
   <i type="int" name="ISIF">     2</i>
   <i name="PSTRESS">      0.00000000</i>
   <i name="EDIFFG">     -0.00100000</i>
   <i type="int" name="NFREE">     0</i>
   <i name="POTIM">      0.50000000</i>
   <i name="SMASS">     -3.00000000</i>
   <i name="SCALEE">      1.00000000</i>
  </separator>
  <separator name="ionic md" >
   <i name="TEBEG">      0.00010000</i>
   <i name="TEEND">      0.00010000</i>
   <i type="int" name="NBLOCK">     1</i>
   <i type="int" name="KBLOCK">     1</i>
   <i type="int" name="NPACO">   256</i>
   <i name="APACO">     10.00000000</i>
  </separator>
  <separator name="symmetry" >
   <i type="int" name="ISYM">     2</i>
   <i name="SYMPREC">      0.00001000</i>
  </separator>
  <separator name="dos" >
   <i type="int" name="LORBIT">     0</i>
   <v name="RWIGS">     -1.00000000</v>
   <i type="int" name="NEDOS">   301</i>
   <i name="EMIN">     10.00000000</i>
   <i name="EMAX">    -10.00000000</i>
   <i name="EFERMI">      0.00000000</i>
  </separator>
  <separator name="writing" >
   <i type="int" name="NWRITE">     2</i>
   <i type="logical" name="LWAVE"> F  </i>
   <i type="logical" name="LDOWNSAMPLE"> F  </i>
   <i type="logical" name="LCHARG"> F  </i>
   <i type="logical" name="LPARD"> F  </i>
   <i type="logical" name="LVTOT"> F  </i>
   <i type="logical" name="LVHAR"> F  </i>
   <i type="logical" name="LELF"> F  </i>
   <i type="logical" name="LOPTICS"> F  </i>
   <v name="STM">      0.00000000      0.00000000      0.00000000      0.00000000      0.00000000      0.00000000      0.00000000</v>
  </separator>
  <separator name="performance" >
   <i type="int" name="NPAR">    24</i>
   <i type="int" name="NSIM">     4</i>
   <i type="int" name="NBLK">    -1</i>
   <i type="logical" name="LPLANE"> T  </i>
   <i type="logical" name="LSCALAPACK"> T  </i>
   <i type="logical" name="LSCAAWARE"> F  </i>
   <i type="logical" name="LSCALU"> F  </i>
   <i type="logical" name="LASYNC"> F  </i>
   <i type="logical" name="LORBITALREAL"> F  </i>
  </separator>
  <separator name="miscellaneous" >
   <i type="int" name="IDIOT">     3</i>
   <i type="int" name="PHON_NSTRUCT">    -1</i>
   <i type="logical" name="LMUSIC"> F  </i>
   <v name="POMASS">     10.81100000</v>
   <v name="DARWINR">      0.00000000</v>
   <v name="DARWINV">      1.00000000</v>
   <i type="logical" name="LCORR"> T  </i>
  </separator>
  <i type="logical" name="GGA_COMPAT"> T  </i>
  <i type="logical" name="LBERRY"> F  </i>
  <i type="int" name="ICORELEVEL">     0</i>
  <i type="logical" name="LDAU"> F  </i>
  <i type="int" name="I_CONSTRAINED_M">     0</i>
  <separator name="electronic exchange-correlation" >
   <i type="string" name="GGA    ">PE</i>
   <i type="string" name="XC_C">1</i>
   <i type="int" name="VOSKOWN">     0</i>
   <i type="logical" name="LHFCALC"> F  </i>
   <i type="string" name="PRECFOCK"></i>
   <i type="logical" name="LSYMGRAD"> F  </i>
   <i type="logical" name="LHFONE"> F  </i>
   <i type="logical" name="LRHFCALC"> F  </i>
   <i type="logical" name="LTHOMAS"> F  </i>
   <i type="logical" name="LMODELHF"> F  </i>
   <i type="logical" name="LFOCKACE"> F  </i>
   <i name="ENCUT4O">     -1.00000000</i>
   <i type="int" name="EXXOEP">     0</i>
   <i type="int" name="FOURORBIT">     0</i>
   <i name="AEXX">      0.00000000</i>
   <i name="HFALPHA">      0.00000000</i>
   <i name="MCALPHA">      0.00000000</i>
   <i name="ALDAX">      1.00000000</i>
   <i name="AGGAX">      1.00000000</i>
   <i name="AMGGAX">      1.00000000</i>
   <i name="ALDAC">      1.00000000</i>
   <i name="AGGAC">      1.00000000</i>
   <i name="AMGGAC">      1.00000000</i>
   <i type="int" name="NKREDX">     1</i>
   <i type="int" name="NKREDY">     1</i>
   <i type="int" name="NKREDZ">     1</i>
   <i type="logical" name="SHIFTRED"> F  </i>
   <i type="logical" name="ODDONLY"> F  </i>
   <i type="logical" name="EVENONLY"> F  </i>
   <i type="int" name="LMAXFOCK">     0</i>
   <i type="int" name="NMAXFOCKAE">     0</i>
   <i type="logical" name="LFOCKAEDFT"> F  </i>
   <i name="HFSCREEN">      0.00000000</i>
   <i name="HFSCREENC">      0.00000000</i>
   <i type="int" name="NBANDSGWLOW">     0</i>
  </separator>
  <separator name="vdW DFT" >
   <i type="logical" name="LUSE_VDW"> F  </i>
   <i type="int" name="IVDW_NL">    -1</i>
   <i type="logical" name="LSPIN_VDW"> F  </i>
   <i name="ZAB_VDW">     -0.84910000</i>
   <i name="GAMMA_VDW">      1.39626340</i>
   <i name="ALPHA_VDW">      0.00000000</i>
   <i name="PARAM1">      0.12340000</i>
   <i name="PARAM2">      1.00000000</i>
   <i name="BPARAM">      6.30000000</i>
   <i name="CPARAM">      0.00930000</i>
  </separator>
  <separator name="model GW" >
   <i type="int" name="MODEL_GW">     0</i>
   <i name="MODEL_EPS0">      6.13175789</i>
   <i name="MODEL_ALPHA">      1.00000000</i>
  </separator>
  <separator name="linear response parameters" >
   <i type="logical" name="LEPSILON"> F  </i>
   <i type="logical" name="LRPA"> F  </i>
   <i type="logical" name="LNABLA"> F  </i>
   <i type="logical" name="LVEL"> F  </i>
   <i name="CSHIFT">      0.10000000</i>
   <i name="OMEGAMAX">     -1.00000000</i>
   <i name="DEG_THRESHOLD">      0.00200000</i>
   <i name="RTIME">     -0.10000000</i>
   <i name="WPLASMAI">      0.00000000</i>
   <v name="DFIELD">      0.00000000      0.00000000      0.00000000</v>
   <v name="WPLASMA">      0.00000000      0.00000000      0.00000000      0.00000000      0.00000000      0.00000000      0.00000000      0.00000000      0.00000000</v>
  </separator>
  <separator name="orbital magnetization" >
   <i type="logical" name="NUCIND"> F  </i>
   <v name="MAGPOS">      0.00000000      0.00000000      0.00000000</v>
   <i type="logical" name="LNICSALL"> T  </i>
   <i type="logical" name="ORBITALMAG"> F  </i>
   <i type="logical" name="LMAGBLOCH"> F  </i>
   <i type="logical" name="LCHIMAG"> F  </i>
   <i type="logical" name="LGAUGE"> T  </i>
   <i type="int" name="MAGATOM">     0</i>
   <v name="MAGDIPOL">      0.00000000      0.00000000      0.00000000</v>
   <v name="AVECCONST">      0.00000000      0.00000000      0.00000000</v>
  </separator>
  <separator name="response functions" >
   <i type="logical" name="LALL_IN_ONE"> F  </i>
   <i type="int" name="IALL_IN_ONE">    -1</i>
   <i type="int" name="NBANDS_WAVE">    -1</i>
   <i type="logical" name="LFINITE_TEMPERATURE"> F  </i>
   <i type="logical" name="LADDER"> F  </i>
   <i type="logical" name="LRPAFORCE"> F  </i>
   <i type="logical" name="LFXC"> F  </i>
   <i type="logical" name="LHARTREE"> T  </i>
   <i type="int" name="IBSE">     0</i>
   <v type="int" name="KPOINT">    -1     0     0     0</v>
   <i type="logical" name="LTCTC"> F  </i>
   <i type="logical" name="LTCTE"> F  </i>
   <i type="logical" name="LTETE"> F  </i>
   <i type="logical" name="LTRIPLET"> F  </i>
   <i type="logical" name="LFXCEPS"> F  </i>
   <i type="logical" name="LFXHEG"> F  </i>
   <i type="int" name="NATURALO">     2</i>
   <i type="logical" name="LHOLEGF"> F  </i>
   <i type="logical" name="L2ORDER"> F  </i>
   <i type="logical" name="LDMP1"> F  </i>
   <i type="logical" name="LMP2LT"> F  </i>
   <i type="logical" name="LSMP2LT"> F  </i>
   <i type="logical" name="LGWLF"> F  </i>
   <i name="ENCUTGW">     -1.60000002</i>
   <i name="ENCUTGWSOFT">     -1.60000002</i>
   <i name="ENCUTLF">     -1.00000000</i>
   <i type="logical" name="ESF_SPLINES"> F  </i>
   <i name="ESF_CONV">      0.01000000</i>
   <i type="int" name="ESF_NINTER">    15</i>
   <i type="int" name="LMAXMP2">    -1</i>
   <i name="SCISSOR">      0.00000000</i>
   <i type="int" name="NOMEGA">     0</i>
   <i type="int" name="NOMEGAR">     0</i>
   <i type="int" name="NBANDSGW">    -1</i>
   <i type="int" name="NBANDSO">    -1</i>
   <i type="int" name="NBANDSV">    -1</i>
   <i type="int" name="NELMGW">     1</i>
   <i type="int" name="NELMHF">     1</i>
   <i type="int" name="DIM">     3</i>
   <i type="int" name="IESPILON">     4</i>
   <i type="int" name="ANTIRES">     0</i>
   <i name="OMEGAMAX">    -30.00000000</i>
   <i name="OMEGAMIN">    -30.00000000</i>
   <i name="OMEGATL">   -200.00000000</i>
   <i type="int" name="OMEGAGRID">     0</i>
   <i name="CSHIFT">     -0.10000000</i>
   <i type="logical" name="LSELFENERGY"> F  </i>
   <i type="logical" name="LSPECTRAL"> F  </i>
   <i type="logical" name="LSPECTRALGW"> F  </i>
   <i type="logical" name="LSINGLES"> F  </i>
   <i type="logical" name="LFERMIGW"> F  </i>
   <i type="logical" name="ODDONLYGW"> F  </i>
   <i type="logical" name="EVENONLYGW"> F  </i>
   <i type="int" name="NKREDLFX">     1</i>
   <i type="int" name="NKREDLFY">     1</i>
   <i type="int" name="NKREDLFZ">     1</i>
   <i type="int" name="MAXMEM">  2800</i>
   <i type="int" name="TELESCOPE">     0</i>
   <i type="int" name="NTAUPAR">    -1</i>
   <i type="int" name="NOMEGAPAR">    -1</i>
   <i name="DAMP_NEWTON">      0.80000001</i>
   <i name="LAMBDA">      1.00000000</i>
  </separator>
  <separator name="External order field" >
   <i name="OFIELD_KAPPA">      0.00000000</i>
   <v name="OFIELD_K">      0.00000000      0.00000000      0.00000000</v>
   <i name="OFIELD_Q6_NEAR">      0.00000000</i>
   <i name="OFIELD_Q6_FAR">      0.00000000</i>
   <i name="OFIELD_A">      0.00000000</i>
  </separator>
  <separator name="optional k-points parameters" >
   <i type="int" name="KPOINTS_OPT_MODE">     1</i>
   <i type="logical" name="LKPOINTS_OPT"> F  </i>
  </separator>
 </parameters>
 <atominfo>
  <atoms>      14 </atoms>
  <types>       1 </types>
  <array name="atoms" >
   <dimension dim="1">ion</dimension>
   <field type="string">element</field>
   <field type="int">atomtype</field>
   <set>
    <rc><c>B </c><c>   1</c></rc>
    <rc><c>B </c><c>   1</c></rc>
    <rc><c>B </c><c>   1</c></rc>
    <rc><c>B </c><c>   1</c></rc>
    <rc><c>B </c><c>   1</c></rc>
    <rc><c>B </c><c>   1</c></rc>
    <rc><c>B </c><c>   1</c></rc>
    <rc><c>B </c><c>   1</c></rc>
    <rc><c>B </c><c>   1</c></rc>
    <rc><c>B </c><c>   1</c></rc>
    <rc><c>B </c><c>   1</c></rc>
    <rc><c>B </c><c>   1</c></rc>
    <rc><c>B </c><c>   1</c></rc>
    <rc><c>B </c><c>   1</c></rc>
   </set>
  </array>
  <array name="atomtypes" >
   <dimension dim="1">type</dimension>
   <field type="int">atomspertype</field>
   <field type="string">element</field>
   <field>mass</field>
   <field>valence</field>
   <field type="string">pseudopotential</field>
   <set>
    <rc><c>  14</c><c>B </c><c>     10.81100000</c><c>      3.00000000</c><c>  PAW_PBE B 06Sep2000                   </c></rc>
   </set>
  </array>
 </atominfo>
 <structure name="initialpos" >
  <crystal>
   <varray name="basis" >
    <v>       5.69700000       0.00000000       0.00000000 </v>
    <v>       0.00000000       4.04790000       0.00000000 </v>
    <v>       0.00000000       0.00000000       6.20420000 </v>
   </varray>
   <i name="volume">    143.07435078 </i>
   <varray name="rec_basis" >
    <v>       0.17553098       0.00000000       0.00000000 </v>
    <v>       0.00000000       0.24704168       0.00000000 </v>
    <v>       0.00000000       0.00000000       0.16118114 </v>
   </varray>
  </crystal>
  <varray name="positions" >
   <v>       0.52123000       0.50000000       0.63796000 </v>
   <v>       0.47877000       0.50000000       0.36204000 </v>
   <v>       0.97877000       0.50000000       0.63796000 </v>
   <v>       0.02123000       0.50000000       0.36204000 </v>
   <v>       0.60090000       0.50000000       0.89991000 </v>
   <v>       0.39910000       0.50000000       0.10009000 </v>
   <v>       0.89910000       0.50000000       0.89991000 </v>
   <v>       0.10090000       0.50000000       0.10009000 </v>
   <v>       0.75000000       0.79171000       0.72973000 </v>
   <v>       0.25000000       0.20829000       0.27027000 </v>
   <v>       0.75000000       0.20829000       0.72973000 </v>
   <v>       0.25000000       0.79171000       0.27027000 </v>
   <v>       0.25000000       0.50000000       0.52367000 </v>
   <v>       0.75000000       0.50000000       0.47633000 </v>
  </varray>
 </structure>
 <calculation>
  <scstep>
   <time name="dav">   12.02   12.25</time>
   <time name="total">   12.05   12.28</time>
   <energy>
    <i name="alphaZ">     94.24357992 </i>
    <i name="ewald">   -795.76658092 </i>
    <i name="hartreedc">   -271.33601302 </i>
    <i name="XCdc">     97.50108175 </i>
    <i name="pawpsdc">    608.99811708 </i>
    <i name="pawaedc">   -597.02363782 </i>
    <i name="eentropy">     -0.00201941 </i>
    <i name="bandstr">    -85.44065175 </i>
    <i name="atom">    996.36340036 </i>
    <i name="e_fr_energy">     47.53727618 </i>
    <i name="e_wo_entrp">     47.53929560 </i>
    <i name="e_0_energy">     47.53828589 </i>
   </energy>
  </scstep>
  <scstep>
   <time name="dav">   16.21   16.35</time>
   <time name="total">   16.22   16.36</time>
   <energy>
    <i name="e_fr_energy">    -93.16447382 </i>
    <i name="e_wo_entrp">    -93.16033597 </i>
    <i name="e_0_energy">    -93.16240489 </i>
   </energy>
  </scstep>
  <scstep>
   <time name="dav">   16.44   16.56</time>
   <time name="total">   16.44   16.57</time>
   <energy>
    <i name="e_fr_energy">    -97.58790142 </i>
    <i name="e_wo_entrp">    -97.58399338 </i>
    <i name="e_0_energy">    -97.58594740 </i>
   </energy>
  </scstep>
  <scstep>
   <time name="dav">   14.68   14.80</time>
   <time name="total">   14.69   14.81</time>
   <energy>
    <i name="e_fr_energy">    -97.61347438 </i>
    <i name="e_wo_entrp">    -97.60956719 </i>
    <i name="e_0_energy">    -97.61152079 </i>
   </energy>
  </scstep>
  <scstep>
   <time name="dav">   16.48   16.60</time>
   <time name="total">   16.66   16.78</time>
   <energy>
    <i name="e_fr_energy">    -97.61377001 </i>
    <i name="e_wo_entrp">    -97.60986281 </i>
    <i name="e_0_energy">    -97.61181641 </i>
   </energy>
  </scstep>
  <scstep>
   <time name="dav">   16.58   16.71</time>
   <time name="total">   16.77   16.90</time>
   <energy>
    <i name="e_fr_energy">    -92.20012481 </i>
    <i name="e_wo_entrp">    -92.19656683 </i>
    <i name="e_0_energy">    -92.19834582 </i>
   </energy>
  </scstep>
  <scstep>
   <time name="dav">   17.11   17.24</time>
   <time name="total">   17.30   17.43</time>
   <energy>
    <i name="e_fr_energy">    -90.54897668 </i>
    <i name="e_wo_entrp">    -90.54531497 </i>
    <i name="e_0_energy">    -90.54714582 </i>
   </energy>
  </scstep>
  <scstep>
   <time name="dav">   12.83   12.92</time>
   <time name="total">   13.02   13.12</time>
   <energy>
    <i name="e_fr_energy">    -90.56055184 </i>
    <i name="e_wo_entrp">    -90.55683953 </i>
    <i name="e_0_energy">    -90.55869569 </i>
   </energy>
  </scstep>
  <scstep>
   <time name="dav">   16.23   16.36</time>
   <time name="total">   16.48   16.61</time>
   <energy>
    <i name="e_fr_energy">    -90.57496794 </i>
    <i name="e_wo_entrp">    -90.57124808 </i>
    <i name="e_0_energy">    -90.57310801 </i>
   </energy>
  </scstep>
  <scstep>
   <time name="dav">   12.55   12.64</time>
   <time name="total">   12.73   12.83</time>
   <energy>
    <i name="e_fr_energy">    -90.57930082 </i>
    <i name="e_wo_entrp">    -90.57557503 </i>
    <i name="e_0_energy">    -90.57743793 </i>
   </energy>
  </scstep>
  <scstep>
   <time name="dav">   15.05   15.16</time>
   <time name="total">   15.31   15.42</time>
   <energy>
    <i name="e_fr_energy">    -90.58043426 </i>
    <i name="e_wo_entrp">    -90.57671112 </i>
    <i name="e_0_energy">    -90.57857269 </i>
   </energy>
  </scstep>
  <scstep>
   <time name="dav">   14.14   14.25</time>
   <time name="total">   14.34   14.45</time>
   <energy>
    <i name="e_fr_energy">    -90.58053761 </i>
    <i name="e_wo_entrp">    -90.57681278 </i>
    <i name="e_0_energy">    -90.57867519 </i>
   </energy>
  </scstep>
  <scstep>
   <time name="dav">   15.68   15.79</time>
   <time name="total">   15.87   15.98</time>
   <energy>
    <i name="e_fr_energy">    -90.58054689 </i>
    <i name="e_wo_entrp">    -90.57682091 </i>
    <i name="e_0_energy">    -90.57868390 </i>
   </energy>
  </scstep>
  <scstep>
   <time name="dav">   14.41   14.52</time>
   <time name="total">   14.59   14.70</time>
   <energy>
    <i name="e_fr_energy">    -90.58054796 </i>
    <i name="e_wo_entrp">    -90.57682212 </i>
    <i name="e_0_energy">    -90.57868504 </i>
   </energy>
  </scstep>
  <scstep>
   <time name="dav">   14.03   14.13</time>
   <time name="total">   14.04   14.14</time>
   <energy>
    <i name="alphaZ">     94.24357992 </i>
    <i name="ewald">   -795.76658092 </i>
    <i name="hartreedc">   -349.11059965 </i>
    <i name="XCdc">    101.58796235 </i>
    <i name="pawpsdc">   3716.12927866 </i>
    <i name="pawaedc">  -3705.32297406 </i>
    <i name="eentropy">     -0.00372589 </i>
    <i name="bandstr">   -148.70088890 </i>
    <i name="atom">    996.36340036 </i>
    <i name="e_fr_energy">    -90.58054813 </i>
    <i name="e_wo_entrp">    -90.57682225 </i>
    <i name="e_0_energy">    -90.57868519 </i>
   </energy>
  </scstep>
  <structure>
   <crystal>
    <varray name="basis" >
     <v>       5.69700000       0.00000000       0.00000000 </v>
     <v>       0.00000000       4.04790000       0.00000000 </v>
     <v>       0.00000000       0.00000000       6.20420000 </v>
    </varray>
    <i name="volume">    143.07435078 </i>
    <varray name="rec_basis" >
     <v>       0.17553098       0.00000000       0.00000000 </v>
     <v>       0.00000000       0.24704168       0.00000000 </v>
     <v>       0.00000000       0.00000000       0.16118114 </v>
    </varray>
   </crystal>
   <varray name="positions" >
    <v>       0.52123000       0.50000000       0.63796000 </v>
    <v>       0.47877000       0.50000000       0.36204000 </v>
    <v>       0.97877000       0.50000000       0.63796000 </v>
    <v>       0.02123000       0.50000000       0.36204000 </v>
    <v>       0.60090000       0.50000000       0.89991000 </v>
    <v>       0.39910000       0.50000000       0.10009000 </v>
    <v>       0.89910000       0.50000000       0.89991000 </v>
    <v>       0.10090000       0.50000000       0.10009000 </v>
    <v>       0.75000000       0.79171000       0.72973000 </v>
    <v>       0.25000000       0.20829000       0.27027000 </v>
    <v>       0.75000000       0.20829000       0.72973000 </v>
    <v>       0.25000000       0.79171000       0.27027000 </v>
    <v>       0.25000000       0.50000000       0.52367000 </v>
    <v>       0.75000000       0.50000000       0.47633000 </v>
   </varray>
  </structure>
  <varray name="forces" >
   <v>      -0.02000407       0.00000000       0.06759922 </v>
   <v>       0.02000407       0.00000000      -0.06759922 </v>
   <v>       0.02000407      -0.00000000       0.06759922 </v>
   <v>      -0.02000407      -0.00000000      -0.06759922 </v>
   <v>      -0.83043969      -0.00000000       0.28724443 </v>
   <v>       0.83043969      -0.00000000      -0.28724443 </v>
   <v>       0.83043969       0.00000000       0.28724443 </v>
   <v>      -0.83043969       0.00000000      -0.28724443 </v>
   <v>      -0.00000000       0.04692438      -0.08191507 </v>
   <v>       0.00000000      -0.04692438       0.08191507 </v>
   <v>      -0.00000000      -0.04692438      -0.08191507 </v>
   <v>       0.00000000       0.04692438       0.08191507 </v>
   <v>      -0.00000000       0.00000000       0.08774998 </v>
   <v>       0.00000000      -0.00000000      -0.08774998 </v>
  </varray>
  <varray name="stress" >
   <v>      15.67384847       0.00000000       0.00000000 </v>
   <v>       0.00000000       0.45956208       0.00000000 </v>
   <v>       0.00000000       0.00000000      -5.05002599 </v>
  </varray>
  <energy>
   <i name="e_fr_energy">    -90.58054813 </i>
   <i name="e_wo_entrp">    -90.57682225 </i>
   <i name="e_0_energy">    -90.57868519 </i>
  </energy>
  <time name="totalsc">  235.43  237.35</time>
  <eigenvalues>
   <array>
    <dimension dim="1">band</dimension>
    <dimension dim="2">kpoint</dimension>
    <dimension dim="3">spin</dimension>
    <field>eigene</field>
    <field>occ</field>
    <set>
     <set comment="spin 1">
      <set comment="kpoint 1">
       <r>  -12.7287    1.0000 </r>
       <r>  -11.5798    1.0000 </r>
       <r>   -8.6584    1.0000 </r>
       <r>   -8.4215    1.0000 </r>
       <r>   -6.0679    1.0000 </r>
       <r>   -5.0961    1.0000 </r>
       <r>   -4.6501    1.0000 </r>
       <r>   -4.3043    1.0000 </r>
       <r>   -4.0056    1.0000 </r>
       <r>   -3.5663    1.0000 </r>
       <r>   -2.4843    1.0000 </r>
       <r>   -2.3781    1.0000 </r>
       <r>   -1.9492    1.0000 </r>
       <r>   -1.0704    1.0000 </r>
       <r>   -0.0530    1.0000 </r>
       <r>   -0.0217    1.0000 </r>
       <r>    0.1576    1.0000 </r>
       <r>    0.1786    1.0000 </r>
       <r>    0.5685    1.0000 </r>
       <r>    2.0484    0.0000 </r>
       <r>    2.1036    0.0000 </r>
       <r>    2.2216    0.0000 </r>
       <r>    5.4350    0.0000 </r>
       <r>    5.7711    0.0000 </r>
       <r>    5.8329    0.0000 </r>
       <r>    5.9416    0.0000 </r>
       <r>    6.7998    0.0000 </r>
       <r>    7.5801    0.0000 </r>
       <r>    7.8187    0.0000 </r>
       <r>    8.5801    0.0000 </r>
       <r>    8.7817    0.0000 </r>
       <r>    8.9092    0.0000 </r>
       <r>    9.0481    0.0000 </r>
       <r>   10.0773    0.0000 </r>
       <r>   11.1657    0.0000 </r>
       <r>   11.3683    0.0000 </r>
       <r>   11.7167    0.0000 </r>
       <r>   11.7937    0.0000 </r>
       <r>   11.9233    0.0000 </r>
       <r>   12.3782    0.0000 </r>
       <r>   12.8417    0.0000 </r>
       <r>   13.4258    0.0000 </r>
       <r>   13.5249    0.0000 </r>
       <r>   15.4552    0.0000 </r>
       <r>   15.5719    0.0000 </r>
       <r>   16.0207    0.0000 </r>
       <r>   16.3562    0.0000 </r>
       <r>   16.4152    0.0000 </r>
      </set>
      <set comment="kpoint 2">
       <r>  -12.7063    1.0000 </r>
       <r>  -11.6182    1.0000 </r>
       <r>   -8.6477    1.0000 </r>
       <r>   -8.4151    1.0000 </r>
       <r>   -6.0264    1.0000 </r>
       <r>   -5.3168    1.0000 </r>
       <r>   -4.7378    1.0000 </r>
       <r>   -4.0507    1.0000 </r>
       <r>   -3.9534    1.0000 </r>
       <r>   -3.3737    1.0000 </r>
       <r>   -2.5198    1.0000 </r>
       <r>   -2.3681    1.0000 </r>
       <r>   -1.9918    1.0000 </r>
       <r>   -1.2341    1.0000 </r>
       <r>   -0.0313    1.0000 </r>
       <r>    0.0065    1.0000 </r>
       <r>    0.1187    1.0000 </r>
       <r>    0.1821    1.0000 </r>
       <r>    0.5176    1.0000 </r>
       <r>    2.0025    0.0000 </r>
       <r>    2.0626    0.0000 </r>
       <r>    2.1603    0.0000 </r>
       <r>    5.4833    0.0000 </r>
       <r>    5.7672    0.0000 </r>
       <r>    5.8230    0.0000 </r>
       <r>    6.1509    0.0000 </r>
       <r>    6.7534    0.0000 </r>
       <r>    7.3140    0.0000 </r>
       <r>    7.9910    0.0000 </r>
       <r>    8.6540    0.0000 </r>
       <r>    8.9680    0.0000 </r>
       <r>    9.0402    0.0000 </r>
       <r>    9.0568    0.0000 </r>
       <r>   10.1399    0.0000 </r>
       <r>   11.1575    0.0000 </r>
       <r>   11.2035    0.0000 </r>
       <r>   11.3959    0.0000 </r>
       <r>   11.7119    0.0000 </r>
       <r>   12.0406    0.0000 </r>
       <r>   12.4224    0.0000 </r>
       <r>   13.0340    0.0000 </r>
       <r>   13.3285    0.0000 </r>
       <r>   13.7614    0.0000 </r>
       <r>   15.0579    0.0000 </r>
       <r>   15.6853    0.0000 </r>
       <r>   16.0513    0.0000 </r>
       <r>   16.2221    0.0000 </r>
       <r>   16.4311    0.0000 </r>
      </set>
      <set comment="kpoint 3">
       <r>  -12.6620    1.0000 </r>
       <r>  -11.6910    1.0000 </r>
       <r>   -8.6258    1.0000 </r>
       <r>   -8.4047    1.0000 </r>
       <r>   -5.9778    1.0000 </r>
       <r>   -5.5709    1.0000 </r>
       <r>   -4.7996    1.0000 </r>
       <r>   -3.9286    1.0000 </r>
       <r>   -3.6550    1.0000 </r>
       <r>   -3.0766    1.0000 </r>
       <r>   -2.5952    1.0000 </r>
       <r>   -2.3475    1.0000 </r>
       <r>   -2.0592    1.0000 </r>
       <r>   -1.5284    1.0000 </r>
       <r>   -0.0409    1.0000 </r>
       <r>    0.0090    1.0000 </r>
       <r>    0.0986    1.0000 </r>
       <r>    0.2051    1.0000 </r>
       <r>    0.4375    1.0000 </r>
       <r>    1.9182    0.0612 </r>
       <r>    1.9869    0.0002 </r>
       <r>    2.0386    0.0000 </r>
       <r>    5.5631    0.0000 </r>
       <r>    5.7407    0.0000 </r>
       <r>    5.9402    0.0000 </r>
       <r>    6.4501    0.0000 </r>
       <r>    6.6737    0.0000 </r>
       <r>    7.0703    0.0000 </r>
       <r>    8.1173    0.0000 </r>
       <r>    8.7748    0.0000 </r>
       <r>    9.0417    0.0000 </r>
       <r>    9.2553    0.0000 </r>
       <r>    9.2941    0.0000 </r>
       <r>   10.2776    0.0000 </r>
       <r>   10.7848    0.0000 </r>
       <r>   10.9610    0.0000 </r>
       <r>   11.2783    0.0000 </r>
       <r>   11.7007    0.0000 </r>
       <r>   12.2353    0.0000 </r>
       <r>   12.5270    0.0000 </r>
       <r>   12.9962    0.0000 </r>
       <r>   13.1420    0.0000 </r>
       <r>   14.2290    0.0000 </r>
       <r>   14.7878    0.0000 </r>
       <r>   15.6365    0.0000 </r>
       <r>   15.8685    0.0000 </r>
       <r>   16.2576    0.0000 </r>
       <r>   16.5908    0.0000 </r>
      </set>
      <set comment="kpoint 4">
       <r>  -12.5967    1.0000 </r>
       <r>  -11.7911    1.0000 </r>
       <r>   -8.5924    1.0000 </r>
       <r>   -8.3944    1.0000 </r>
       <r>   -5.9737    1.0000 </r>
       <r>   -5.7971    1.0000 </r>
       <r>   -4.7386    1.0000 </r>
       <r>   -3.8349    1.0000 </r>
       <r>   -3.2868    1.0000 </r>
       <r>   -2.7633    1.0000 </r>
       <r>   -2.6866    1.0000 </r>
       <r>   -2.3161    1.0000 </r>
       <r>   -2.1296    1.0000 </r>
       <r>   -1.9027    1.0000 </r>
       <r>   -0.2152    1.0000 </r>
       <r>    0.0419    1.0000 </r>
       <r>    0.1329    1.0000 </r>
       <r>    0.1656    1.0000 </r>
       <r>    0.4445    1.0000 </r>
       <r>    1.8075    0.9436 </r>
       <r>    1.8657    0.4759 </r>
       <r>    1.8879    0.2460 </r>
       <r>    5.6491    0.0000 </r>
       <r>    5.7054    0.0000 </r>
       <r>    6.1900    0.0000 </r>
       <r>    6.5819    0.0000 </r>
[...]
       <r>   -2.2099    1.0000 </r>
       <r>   -2.1834    1.0000 </r>
       <r>   -2.0811    1.0000 </r>
       <r>   -1.6030    1.0000 </r>
       <r>   -0.5237    1.0000 </r>
       <r>   -0.0745    1.0000 </r>
       <r>    0.2921    1.0000 </r>
       <r>    0.4218    1.0000 </r>
       <r>    0.5296    1.0000 </r>
       <r>    1.2606    1.0000 </r>
       <r>    1.6283    1.0000 </r>
       <r>    1.8119    0.9281 </r>
       <r>    5.6764    0.0000 </r>
       <r>    6.1210    0.0000 </r>
       <r>    6.6724    0.0000 </r>
       <r>    7.3407    0.0000 </r>
       <r>    7.6601    0.0000 </r>
       <r>    7.9079    0.0000 </r>
       <r>    9.1965    0.0000 </r>
       <r>    9.4383    0.0000 </r>
       <r>    9.7361    0.0000 </r>
       <r>    9.9393    0.0000 </r>
       <r>   10.5402    0.0000 </r>
       <r>   11.0406    0.0000 </r>
       <r>   11.1060    0.0000 </r>
       <r>   11.4613    0.0000 </r>
       <r>   11.5460    0.0000 </r>
       <r>   11.7550    0.0000 </r>
       <r>   12.9510    0.0000 </r>
       <r>   13.2620    0.0000 </r>
       <r>   13.4255    0.0000 </r>
       <r>   13.9826    0.0000 </r>
       <r>   14.1239    0.0000 </r>
       <r>   14.2955    0.0000 </r>
       <r>   14.4437    0.0000 </r>
       <r>   14.8733    0.0000 </r>
       <r>   15.0747    0.0000 </r>
       <r>   15.2532    0.0000 </r>
      </set>
      <set comment="kpoint 490">
       <r>  -11.9982    1.0000 </r>
       <r>  -11.8991    1.0000 </r>
       <r>   -8.5337    1.0000 </r>
       <r>   -8.4535    1.0000 </r>
       <r>   -5.9238    1.0000 </r>
       <r>   -5.8492    1.0000 </r>
       <r>   -4.7669    1.0000 </r>
       <r>   -4.5537    1.0000 </r>
       <r>   -4.4031    1.0000 </r>
       <r>   -4.1040    1.0000 </r>
       <r>   -2.2106    1.0000 </r>
       <r>   -2.1707    1.0000 </r>
       <r>   -2.0131    1.0000 </r>
       <r>   -1.8110    1.0000 </r>
       <r>   -0.1561    1.0000 </r>
       <r>    0.0128    1.0000 </r>
       <r>    0.4187    1.0000 </r>
       <r>    0.4668    1.0000 </r>
       <r>    0.5691    1.0000 </r>
       <r>    0.7948    1.0000 </r>
       <r>    1.6492    1.0000 </r>
       <r>    1.7157    1.0000 </r>
       <r>    5.8865    0.0000 </r>
       <r>    6.0194    0.0000 </r>
       <r>    6.9315    0.0000 </r>
       <r>    7.3725    0.0000 </r>
       <r>    7.4440    0.0000 </r>
       <r>    7.5384    0.0000 </r>
       <r>    9.4643    0.0000 </r>
       <r>    9.6364    0.0000 </r>
       <r>    9.8354    0.0000 </r>
       <r>    9.9709    0.0000 </r>
       <r>   10.4832    0.0000 </r>
       <r>   10.7352    0.0000 </r>
       <r>   11.2619    0.0000 </r>
       <r>   11.4763    0.0000 </r>
       <r>   11.4912    0.0000 </r>
       <r>   11.5410    0.0000 </r>
       <r>   13.1111    0.0000 </r>
       <r>   13.1831    0.0000 </r>
       <r>   13.8426    0.0000 </r>
       <r>   14.1480    0.0000 </r>
       <r>   14.2385    0.0000 </r>
       <r>   14.2691    0.0000 </r>
       <r>   14.6531    0.0000 </r>
       <r>   14.7510    0.0000 </r>
       <r>   14.8532    0.0000 </r>
       <r>   14.9923    0.0000 </r>
      </set>
     </set>
    </set>
   </array>
  </eigenvalues>
  <separator name="orbital magnetization" >
   <v name="MAGDIPOLOUT">      0.00000000      0.00000000      0.00000000</v>
  </separator>
  <dos>
   <i name="efermi">      1.86360164 </i>
   <total>
    <array>
     <dimension dim="1">gridpoints</dimension>
     <dimension dim="2">spin</dimension>
     <field>energy</field>
     <field>total</field>
     <field>integrated</field>
     <set>
      <set comment="spin 1">
       <r>   -14.1947     0.0000     0.0000 </r>
       <r>   -14.0872     0.0000     0.0000 </r>
       <r>   -13.9797     0.0000     0.0000 </r>
       <r>   -13.8722     0.0000     0.0000 </r>
       <r>   -13.7647     0.0000     0.0000 </r>
       <r>   -13.6572     0.0000     0.0000 </r>
       <r>   -13.5497     0.0000     0.0000 </r>
       <r>   -13.4422     0.0000     0.0000 </r>
       <r>   -13.3347     0.0000     0.0000 </r>
       <r>   -13.2272     0.0000     0.0000 </r>
       <r>   -13.1197     0.0000     0.0000 </r>
       <r>   -13.0122     0.0000     0.0000 </r>
       <r>   -12.9047     0.0000     0.0000 </r>
       <r>   -12.7971     0.0027     0.0003 </r>
       <r>   -12.6896     0.4559     0.0493 </r>
       <r>   -12.5821     2.3229     0.2990 </r>
       <r>   -12.4746     3.5470     0.6803 </r>
       <r>   -12.3671     4.3468     1.1477 </r>
       <r>   -12.2596     3.5348     1.5277 </r>
       <r>   -12.1521     2.8481     1.8339 </r>
       <r>   -12.0446     2.6168     2.1152 </r>
       <r>   -11.9371     2.5874     2.3933 </r>
       <r>   -11.8296     2.7565     2.6897 </r>
       <r>   -11.7221     3.3584     3.0507 </r>
       <r>   -11.6146     3.6274     3.4407 </r>
       <r>   -11.5071     3.0908     3.7730 </r>
       <r>   -11.3996     1.6760     3.9531 </r>
       <r>   -11.2921     0.4286     3.9992 </r>
       <r>   -11.1846     0.0073     4.0000 </r>
       <r>   -11.0771     0.0000     4.0000 </r>
       <r>   -10.9696     0.0000     4.0000 </r>
       <r>   -10.8621     0.0000     4.0000 </r>
       <r>   -10.7546     0.0000     4.0000 </r>
       <r>   -10.6470     0.0000     4.0000 </r>
       <r>   -10.5395     0.0000     4.0000 </r>
       <r>   -10.4320     0.0000     4.0000 </r>
       <r>   -10.3245     0.0000     4.0000 </r>
       <r>   -10.2170     0.0000     4.0000 </r>
       <r>   -10.1095     0.0000     4.0000 </r>
       <r>   -10.0020     0.0000     4.0000 </r>
       <r>    -9.8945     0.0000     4.0000 </r>
       <r>    -9.7870     0.0000     4.0000 </r>
       <r>    -9.6795     0.0000     4.0000 </r>
       <r>    -9.5720     0.0000     4.0000 </r>
       <r>    -9.4645     0.0000     4.0000 </r>
       <r>    -9.3570     0.0000     4.0000 </r>
       <r>    -9.2495     0.0000     4.0000 </r>
       <r>    -9.1420     0.0000     4.0000 </r>
       <r>    -9.0345     0.0000     4.0000 </r>
       <r>    -8.9270     0.0008     4.0001 </r>
       <r>    -8.8195     0.3198     4.0345 </r>
       <r>    -8.7120     2.2093     4.2720 </r>
       <r>    -8.6044     5.4753     4.8606 </r>
       <r>    -8.4969     7.0046     5.6136 </r>
       <r>    -8.3894     6.2093     6.2812 </r>
       <r>    -8.2819     5.2973     6.8507 </r>
       <r>    -8.1744     4.8616     7.3733 </r>
       <r>    -8.0669     3.6853     7.7695 </r>
       <r>    -7.9594     1.5839     7.9398 </r>
       <r>    -7.8519     0.5236     7.9961 </r>
       <r>    -7.7444     0.0367     8.0000 </r>
       <r>    -7.6369     0.0000     8.0000 </r>
       <r>    -7.5294     0.0000     8.0000 </r>
       <r>    -7.4219     0.0000     8.0000 </r>
       <r>    -7.3144     0.0000     8.0000 </r>
       <r>    -7.2069     0.0000     8.0000 </r>
       <r>    -7.0994     0.0000     8.0000 </r>
       <r>    -6.9919     0.0036     8.0004 </r>
       <r>    -6.8844     0.1141     8.0127 </r>
       <r>    -6.7769     0.2892     8.0437 </r>
       <r>    -6.6694     0.4960     8.0971 </r>
       <r>    -6.5619     0.6493     8.1669 </r>
       <r>    -6.4543     1.0218     8.2767 </r>
       <r>    -6.3468     1.4689     8.4346 </r>
       <r>    -6.2393     2.1212     8.6627 </r>
       <r>    -6.1318     3.1610     9.0025 </r>
       <r>    -6.0243     3.8379     9.4151 </r>
       <r>    -5.9168     4.1189     9.8579 </r>
       <r>    -5.8093     3.9126    10.2785 </r>
       <r>    -5.7018     4.1575    10.7255 </r>
       <r>    -5.5943     4.1056    11.1669 </r>
       <r>    -5.4868     4.0630    11.6037 </r>
       <r>    -5.3793     4.4455    12.0816 </r>
       <r>    -5.2718     4.8750    12.6057 </r>
       <r>    -5.1643     4.2355    13.0610 </r>
       <r>    -5.0568     3.9433    13.4849 </r>
       <r>    -4.9493     3.2044    13.8294 </r>
       <r>    -4.8418     2.5543    14.1040 </r>
       <r>    -4.7343     2.3686    14.3587 </r>
       <r>    -4.6268     2.9593    14.6768 </r>
       <r>    -4.5193     3.7107    15.0757 </r>
       <r>    -4.4117     3.5771    15.4603 </r>
       <r>    -4.3042     2.6954    15.7501 </r>
       <r>    -4.1967     3.2989    16.1047 </r>
       <r>    -4.0892     2.8054    16.4063 </r>
       <r>    -3.9817     2.9730    16.7259 </r>
       <r>    -3.8742     2.8166    17.0287 </r>
       <r>    -3.7667     3.2136    17.3742 </r>
       <r>    -3.6592     2.9604    17.6924 </r>
       <r>    -3.5517     2.6191    17.9740 </r>
       <r>    -3.4442     2.7216    18.2666 </r>
       <r>    -3.3367     2.8881    18.5771 </r>
       <r>    -3.2292     2.9488    18.8941 </r>
       <r>    -3.1217     2.4391    19.1563 </r>
       <r>    -3.0142     2.9949    19.4783 </r>
       <r>    -2.9067     3.1565    19.8176 </r>
       <r>    -2.7992     2.8108    20.1198 </r>
       <r>    -2.6917     2.3051    20.3676 </r>
       <r>    -2.5842     2.6737    20.6550 </r>
       <r>    -2.4767     3.0257    20.9803 </r>
       <r>    -2.3692     3.1916    21.3234 </r>
       <r>    -2.2616     3.8474    21.7370 </r>
       <r>    -2.1541     3.4295    22.1057 </r>
       <r>    -2.0466     3.2342    22.4534 </r>
       <r>    -1.9391     4.3002    22.9157 </r>
       <r>    -1.8316     4.9285    23.4456 </r>
       <r>    -1.7241     5.8040    24.0695 </r>
       <r>    -1.6166     5.2752    24.6366 </r>
       <r>    -1.5091     6.5608    25.3419 </r>
       <r>    -1.4016     6.3090    26.0202 </r>
       <r>    -1.2941     5.1088    26.5694 </r>
       <r>    -1.1866     5.1728    27.1255 </r>
       <r>    -1.0791     5.3772    27.7036 </r>
       <r>    -0.9716     3.8571    28.1183 </r>
       <r>    -0.8641     2.6261    28.4006 </r>
       <r>    -0.7566     2.1768    28.6346 </r>
       <r>    -0.6491     3.4833    29.0091 </r>
       <r>    -0.5416     5.4980    29.6001 </r>
       <r>    -0.4341     6.0795    30.2537 </r>
       <r>    -0.3266     6.3035    30.9314 </r>
       <r>    -0.2190     5.9319    31.5691 </r>
       <r>    -0.1115     7.1951    32.3426 </r>
       <r>    -0.0040     7.0206    33.0973 </r>
       <r>     0.1035     5.9957    33.7419 </r>
       <r>     0.2110     7.0285    34.4975 </r>
       <r>     0.3185     8.4584    35.4068 </r>
       <r>     0.4260     8.6470    36.3364 </r>
       <r>     0.5335     8.1560    37.2133 </r>
       <r>     0.6410     4.0838    37.6523 </r>
       <r>     0.7485     2.8498    37.9586 </r>
       <r>     0.8560     3.2367    38.3066 </r>
       <r>     0.9635     3.4189    38.6742 </r>
       <r>     1.0710     3.5681    39.0577 </r>
       <r>     1.1785     3.4283    39.4263 </r>
       <r>     1.2860     3.8021    39.8351 </r>
       <r>     1.3935     3.9775    40.2627 </r>
       <r>     1.5010     4.0757    40.7008 </r>
       <r>     1.6085     3.2788    41.0533 </r>
       <r>     1.7160     3.6537    41.4461 </r>
       <r>     1.8235     3.9171    41.8672 </r>
       <r>     1.9311     2.7684    42.1648 </r>
       <r>     2.0386     2.3004    42.4121 </r>
       <r>     2.1461     2.3590    42.6657 </r>
       <r>     2.2536     2.4203    42.9259 </r>
       <r>     2.3611     2.1661    43.1588 </r>
       <r>     2.4686     1.4229    43.3118 </r>
       <r>     2.5761     0.6697    43.3838 </r>
       <r>     2.6836     0.4222    43.4292 </r>
       <r>     2.7911     0.7178    43.5063 </r>
       <r>     2.8986     0.7790    43.5901 </r>
       <r>     3.0061     0.6478    43.6597 </r>
       <r>     3.1136     0.3571    43.6981 </r>
       <r>     3.2211     0.3210    43.7326 </r>
       <r>     3.3286     0.4334    43.7792 </r>
       <r>     3.4361     0.4062    43.8229 </r>
       <r>     3.5436     0.5247    43.8793 </r>
       <r>     3.6511     0.3024    43.9118 </r>
       <r>     3.7586     0.1608    43.9291 </r>
       <r>     3.8661     0.3269    43.9642 </r>
       <r>     3.9737     0.2742    43.9937 </r>
       <r>     4.0812     0.0587    44.0000 </r>
       <r>     4.1887     0.0013    44.0001 </r>
       <r>     4.2962     0.0843    44.0092 </r>
       <r>     4.4037     0.2674    44.0379 </r>
       <r>     4.5112     0.4010    44.0810 </r>
       <r>     4.6187     0.5513    44.1403 </r>
       <r>     4.7262     0.7618    44.2222 </r>
       <r>     4.8337     0.8219    44.3106 </r>
       <r>     4.9412     0.9364    44.4112 </r>
       <r>     5.0487     0.9284    44.5110 </r>
       <r>     5.1562     1.2614    44.6467 </r>
       <r>     5.2637     1.3777    44.7948 </r>
       <r>     5.3712     1.8102    44.9894 </r>
       <r>     5.4787     2.2580    45.2321 </r>
       <r>     5.5862     2.5909    45.5106 </r>
       <r>     5.6937     3.0675    45.8404 </r>
       <r>     5.8012     3.5183    46.2187 </r>
       <r>     5.9087     3.5673    46.6022 </r>
       <r>     6.0162     4.1408    47.0473 </r>
       <r>     6.1238     4.9824    47.5830 </r>
       <r>     6.2313     4.1933    48.0338 </r>
       <r>     6.3388     4.2084    48.4862 </r>
       <r>     6.4463     4.1798    48.9355 </r>
       <r>     6.5538     4.4097    49.4096 </r>
       <r>     6.6613     3.7924    49.8173 </r>
       <r>     6.7688     3.7018    50.2153 </r>
       <r>     6.8763     3.7680    50.6203 </r>
       <r>     6.9838     4.9193    51.1492 </r>
       <r>     7.0913     4.7066    51.6552 </r>
       <r>     7.1988     4.9448    52.1868 </r>
       <r>     7.3063     5.2083    52.7467 </r>
       <r>     7.4138     4.5078    53.2313 </r>
       <r>     7.5213     4.2434    53.6875 </r>
       <r>     7.6288     4.0926    54.1275 </r>
       <r>     7.7363     3.2747    54.4795 </r>
       <r>     7.8438     3.2292    54.8267 </r>
       <r>     7.9513     3.1610    55.1665 </r>
       <r>     8.0588     3.1144    55.5013 </r>
       <r>     8.1664     4.1394    55.9463 </r>
       <r>     8.2739     3.6293    56.3365 </r>
       <r>     8.3814     4.1889    56.7868 </r>
       <r>     8.4889     4.0717    57.2245 </r>
       <r>     8.5964     3.9679    57.6511 </r>
       <r>     8.7039     4.3584    58.1196 </r>
       <r>     8.8114     5.3473    58.6945 </r>
       <r>     8.9189     4.6932    59.1991 </r>
       <r>     9.0264     5.2146    59.7597 </r>
       <r>     9.1339     5.2290    60.3218 </r>
       <r>     9.2414     4.7377    60.8311 </r>
       <r>     9.3489     5.2384    61.3943 </r>
       <r>     9.4564     4.8230    61.9128 </r>
       <r>     9.5639     4.3179    62.3770 </r>
       <r>     9.6714     4.8920    62.9029 </r>
       <r>     9.7789     5.0664    63.4476 </r>
       <r>     9.8864     5.3879    64.0268 </r>
       <r>     9.9939     4.5740    64.5185 </r>
       <r>    10.1014     3.7333    64.9199 </r>
       <r>    10.2089     4.5897    65.4133 </r>
       <r>    10.3165     4.2879    65.8742 </r>
       <r>    10.4240     5.3397    66.4483 </r>
       <r>    10.5315     5.5619    67.0462 </r>
       <r>    10.6390     4.6936    67.5508 </r>
       <r>    10.7465     4.0955    67.9911 </r>
       <r>    10.8540     4.0091    68.4221 </r>
       <r>    10.9615     3.7567    68.8260 </r>
       <r>    11.0690     4.8205    69.3442 </r>
       <r>    11.1765     5.6837    69.9552 </r>
       <r>    11.2840     6.1537    70.6168 </r>
       <r>    11.3915     5.5730    71.2159 </r>
       <r>    11.4990     5.0311    71.7568 </r>
       <r>    11.6065     4.6049    72.2518 </r>
       <r>    11.7140     4.6703    72.7539 </r>
       <r>    11.8215     4.7444    73.2639 </r>
       <r>    11.9290     5.4523    73.8501 </r>
       <r>    12.0365     6.3194    74.5294 </r>
       <r>    12.1440     5.5748    75.1288 </r>
       <r>    12.2515     5.6171    75.7326 </r>
       <r>    12.3591     5.2363    76.2956 </r>
       <r>    12.4666     5.7471    76.9134 </r>
       <r>    12.5741     5.9593    77.5541 </r>
       <r>    12.6816     5.9022    78.1886 </r>
       <r>    12.7891     5.8203    78.8143 </r>
       <r>    12.8966     5.6565    79.4224 </r>
       <r>    13.0041     6.4038    80.1108 </r>
       <r>    13.1116     5.7451    80.7285 </r>
       <r>    13.2191     6.2070    81.3957 </r>
       <r>    13.3266     6.1295    82.0547 </r>
       <r>    13.4341     5.3452    82.6293 </r>
       <r>    13.5416     5.4333    83.2134 </r>
       <r>    13.6491     5.3084    83.7841 </r>
       <r>    13.7566     5.6537    84.3919 </r>
       <r>    13.8641     5.5236    84.9857 </r>
       <r>    13.9716     5.4100    85.5674 </r>
       <r>    14.0791     5.5455    86.1635 </r>
       <r>    14.1866     5.5114    86.7560 </r>
       <r>    14.2941     4.6077    87.2514 </r>
       <r>    14.4017     4.5087    87.7361 </r>
       <r>    14.5092     5.0672    88.2808 </r>
       <r>    14.6167     5.7280    88.8966 </r>
       <r>    14.7242     4.7938    89.4120 </r>
       <r>    14.8317     4.2907    89.8733 </r>
       <r>    14.9392     4.5832    90.3660 </r>
       <r>    15.0467     5.9562    91.0063 </r>
       <r>    15.1542     6.0501    91.6567 </r>
       <r>    15.2617     5.5994    92.2587 </r>
       <r>    15.3692     5.9807    92.9016 </r>
       <r>    15.4767     6.0230    93.5491 </r>
       <r>    15.5842     5.7944    94.1721 </r>
       <r>    15.6917     4.7059    94.6780 </r>
       <r>    15.7992     3.3722    95.0405 </r>
       <r>    15.9067     2.7336    95.3344 </r>
       <r>    16.0142     1.8957    95.5382 </r>
       <r>    16.1217     1.1649    95.6634 </r>
       <r>    16.2292     1.1179    95.7836 </r>
       <r>    16.3367     0.9567    95.8864 </r>
       <r>    16.4442     0.7189    95.9637 </r>
       <r>    16.5518     0.2985    95.9958 </r>
       <r>    16.6593     0.0384    95.9999 </r>
       <r>    16.7668     0.0006    96.0000 </r>
       <r>    16.8743     0.0000    96.0000 </r>
       <r>    16.9818     0.0000    96.0000 </r>
       <r>    17.0893     0.0000    96.0000 </r>
       <r>    17.1968     0.0000    96.0000 </r>
       <r>    17.3043     0.0000    96.0000 </r>
       <r>    17.4118     0.0000    96.0000 </r>
       <r>    17.5193     0.0000    96.0000 </r>
       <r>    17.6268     0.0000    96.0000 </r>
       <r>    17.7343     0.0000    96.0000 </r>
       <r>    17.8418     0.0000    96.0000 </r>
       <r>    17.9493     0.0000    96.0000 </r>
       <r>    18.0568     0.0000    96.0000 </r>
      </set>
     </set>
    </array>
   </total>
  </dos>
 </calculation>
 <structure name="finalpos" >
  <crystal>
   <varray name="basis" >
    <v>       5.69700000       0.00000000       0.00000000 </v>
    <v>       0.00000000       4.04790000       0.00000000 </v>
    <v>       0.00000000       0.00000000       6.20420000 </v>
   </varray>
   <i name="volume">    143.07435078 </i>
   <varray name="rec_basis" >
    <v>       0.17553098       0.00000000       0.00000000 </v>
    <v>       0.00000000       0.24704168       0.00000000 </v>
    <v>       0.00000000       0.00000000       0.16118114 </v>
   </varray>
  </crystal>
  <varray name="positions" >
   <v>       0.52123000       0.50000000       0.63796000 </v>
   <v>       0.47877000       0.50000000       0.36204000 </v>
   <v>       0.97877000       0.50000000       0.63796000 </v>
   <v>       0.02123000       0.50000000       0.36204000 </v>
   <v>       0.60090000       0.50000000       0.89991000 </v>
   <v>       0.39910000       0.50000000       0.10009000 </v>
   <v>       0.89910000       0.50000000       0.89991000 </v>
   <v>       0.10090000       0.50000000       0.10009000 </v>
   <v>       0.75000000       0.79171000       0.72973000 </v>
   <v>       0.25000000       0.20829000       0.27027000 </v>
   <v>       0.75000000       0.20829000       0.72973000 </v>
   <v>       0.25000000       0.79171000       0.27027000 </v>
   <v>       0.25000000       0.50000000       0.52367000 </v>
   <v>       0.75000000       0.50000000       0.47633000 </v>
  </varray>
 </structure>
</modeling>
