   14   14    1    1
  0.1021960E+02  0.5697000E-09  0.4047900E-09  0.6204200E-09  0.5000000E-15
  1.000000000000000E-004
  CAR 
 Kpoints                                 
     42    768     48
 
  0.3125000E-01  0.0000000E+00  0.0000000E+00  0.3623188E-03
      1        -12.731029   1.000000
      2        -11.578962   1.000000
      3         -8.662856   1.000000
      4         -8.425402   1.000000
      5         -6.074802   1.000000
      6         -5.091992   1.000000
      7         -4.653301   1.000000
      8         -4.316676   1.000000
      9         -3.967836   1.000000
     10         -3.581405   1.000000
     11         -2.410620   1.000000
     12         -2.231940   1.000000
     13         -2.186297   1.000000
     14         -1.073163   1.000000
     15         -0.032864   1.000000
     16          0.002276   1.000000
     17          0.147517   1.000000
     18          0.164120   1.000000
     19          0.557501   1.000000
     20          2.078725   0.000000
     21          2.124986   0.000000
     22          2.204517   0.000000
     23          5.419336   0.000000
     24          5.797849   0.000000
     25          5.805350   0.000000
     26          5.943562   0.000000
     27          6.783792   0.000000
     28          7.580027   0.000000
     29          7.790494   0.000000
     30          8.643462   0.000000
     31          8.770697   0.000000
     32          8.866115   0.000000
     33          9.042092   0.000000
     34         10.038068   0.000000
     35         11.147152   0.000000
     36         11.379113   0.000000
     37         11.731278   0.000000
     38         11.786894   0.000000
     39         11.909064   0.000000
     40         12.362168   0.000000
     41         12.828465   0.000000
     42         13.439382   0.000000
     43         13.558742   0.000000
     44         15.472102   0.000000
     45         15.580817   0.000000
     46         16.006716   0.000000
     47         16.367399   0.000000
     48         16.452959   0.000000
 
  0.9375000E-01  0.0000000E+00  0.0000000E+00  0.3623188E-03
      1        -12.713841   1.000000
      2        -11.608607   1.000000
      3         -8.654793   1.000000
      4         -8.420469   1.000000
      5         -6.041404   1.000000
      6         -5.274829   1.000000
      7         -4.726940   1.000000
      8         -4.092257   1.000000
      9         -3.943752   1.000000
     10         -3.428485   1.000000
     11         -2.403218   1.000000
     12         -2.241456   1.000000
     13         -2.236755   1.000000
     14         -1.199721   1.000000
     15         -0.015759   1.000000
     16          0.030110   1.000000
     17          0.111744   1.000000
     18          0.166709   1.000000
     19          0.517823   1.000000
     20          2.042894   0.000017
     21          2.093284   0.000000
     22          2.157923   0.000000
     23          5.456956   0.000000
     24          5.776602   0.000000
     25          5.804741   0.000000
     26          6.115670   0.000000
     27          6.747708   0.000000
     28          7.346597   0.000000
     29          7.948566   0.000000
     30          8.698989   0.000000
     31          8.916967   0.000000
     32          8.967622   0.000000
     33          9.048594   0.000000
     34         10.089989   0.000000
     35         11.176480   0.000000
     36         11.215643   0.000000
     37         11.474537   0.000000
     38         11.715092   0.000000
     39         11.999832   0.000000
     40         12.396116   0.000000
     41         12.988355   0.000000
     42         13.404679   0.000000
     43         13.708428   0.000000
     44         15.124166   0.000000
     45         15.672166   0.000000
     46         16.132831   0.000000
     47         16.217406   0.000000
     48         16.411025   0.000000
 
  0.1562500E+00  0.0000000E+00  0.0000000E+00  0.3623188E-03
      1        -12.679727   1.000000
      2        -11.665451   1.000000
      3         -8.638161   1.000000
      4         -8.411913   1.000000
      5         -5.995238   1.000000
      6         -5.498725   1.000000
      7         -4.798092   1.000000
      8         -3.895869   1.000000
      9         -3.787054   1.000000
     10         -3.183276   1.000000
     11         -2.388043   1.000000
     12         -2.344259   1.000000
     13         -2.246218   1.000000
     14         -1.432626   1.000000
     15          0.010245   1.000000
     16          0.017487   1.000000
     17          0.080062   1.000000
     18          0.192337   1.000000
     19          0.447195   1.000000
     20          1.976079   0.012081
     21          2.033655   0.000052
     22          2.064691   0.000001
     23          5.521805   0.000000
     24          5.741712   0.000000
     25          5.892777   0.000000
     26          6.362869   0.000000
     27          6.683478   0.000000
     28          7.123545   0.000000
     29          8.066579   0.000000
     30          8.796750   0.000000
     31          9.031822   0.000000
     32          9.153764   0.000000
     33          9.173935   0.000000
     34         10.201122   0.000000
     35         10.919167   0.000000
     36         11.103863   0.000000
     37         11.235391   0.000000
     38         11.678199   0.000000
     39         12.161733   0.000000
     40         12.469494   0.000000
     41         13.130432   0.000000
     42         13.136309   0.000000
     43         14.107306   0.000000
     44         14.825342   0.000000
     45         15.772840   0.000000
     46         15.823399   0.000000
     47         16.322398   0.000000
     48         16.492738   0.000000
 
  0.2187500E+00  0.0000000E+00  0.0000000E+00  0.3623188E-03
      1        -12.629277   1.000000
      2        -11.745081   1.000000
      3         -8.612616   1.000000
      4         -8.402254   1.000000
      5         -5.972113   1.000000
      6         -5.709188   1.000000
      7         -4.792724   1.000000
      8         -3.824764   1.000000
      9         -3.461005   1.000000
     10         -2.893854   1.000000
     11         -2.482854   1.000000
     12         -2.364392   1.000000
     13         -2.259790   1.000000
     14         -1.740448   1.000000
     15         -0.134035   1.000000
     16          0.064789   1.000000
     17          0.143004   1.000000
     18          0.158160   1.000000
     19          0.410394   1.000000
     20          1.887856   0.595145
     21          1.926986   0.193253
     22          1.953057   0.054428
     23          5.597595   0.000000
     24          5.705515   0.000000
     25          6.074672   0.000000
     26          6.604519   0.000000
     27          6.665443   0.000000
     28          6.931176   0.000000
     29          8.164392   0.000000
     30          8.901199   0.000000
     31          8.987630   0.000000
     32          9.427577   0.000000
     33          9.446662   0.000000
     34         10.391381   0.000000
     35         10.530239   0.000000
     36         10.728250   0.000000
     37         11.315415   0.000000
     38         11.737881   0.000000
     39         12.319802   0.000000
     40         12.632660   0.000000
     41         12.797059   0.000000
     42         13.051494   0.000000
     43         14.551098   0.000000
     44         14.753135   0.000000
     45         15.397433   0.000000
     46         16.003800   0.000000
     47         16.185855   0.000000
     48         16.441353   0.000000
 
  0.2812500E+00  0.0000000E+00  0.0000000E+00  0.3623188E-03
      1        -12.563390   1.000000
      2        -11.841929   1.000000
      3         -8.578818   1.000000
      4         -8.395080   1.000000
      5         -5.995713   1.000000
      6         -5.887806   1.000000
      7         -4.672569   1.000000
      8         -3.731372   1.000000
      9         -3.148541   1.000000
     10         -2.644753   1.000000
     11         -2.591070   1.000000
     12         -2.337439   1.000000
     13         -2.274929   1.000000
     14         -2.077895   1.000000
     15         -0.311210   1.000000
     16          0.001877   1.000000
     17          0.122597   1.000000
     18          0.208531   1.000000
     19          0.475123   1.000000
     20          1.751536   0.999979
     21          1.791728   0.998460
     22          1.860816   0.842696
     23          5.667317   0.000000
     24          5.680095   0.000000
     25          6.343179   0.000000
     26          6.526824   0.000000
     27          6.774620   0.000000
     28          7.011345   0.000000
     29          8.250297   0.000000
     30          8.901563   0.000000
     31          8.931118   0.000000
     32          9.716822   0.000000
     33          9.760762   0.000000
     34         10.081584   0.000000
     35         10.458108   0.000000
     36         10.685335   0.000000
     37         11.385914   0.000000
     38         11.899382   0.000000
     39         12.414864   0.000000
     40         12.417753   0.000000
     41         12.731022   0.000000
     42         12.913927   0.000000
     43         14.877784   0.000000
     44         15.002752   0.000000
     45         15.030663   0.000000
     46         15.867493   0.000000
     47         15.929321   0.000000
     48         16.191749   0.000000
 
  0.3437500E+00  0.0000000E+00  0.0000000E+00  0.3623188E-03
      1        -12.483321   1.000000
      2        -11.950025   1.000000
      3         -8.538982   1.000000
      4         -8.394440   1.000000
      5         -6.052955   1.000000
      6         -6.025074   1.000000
      7         -4.446654   1.000000
      8         -3.617007   1.000000
      9         -2.925627   1.000000
     10         -2.818842   1.000000
     11         -2.461962   1.000000
     12         -2.351682   1.000000
     13         -2.240073   1.000000
     14         -2.208221   1.000000
     15         -0.504020   1.000000
     16         -0.217084   1.000000
     17          0.185361   1.000000
     18          0.265635   1.000000
     19          0.594843   1.000000
     20          1.549954   1.000000
     21          1.703743   1.000000
     22          1.768066   0.999858
     23          5.672587   0.000000
     24          5.716500   0.000000
     25          6.466975   0.000000
     26          6.651270   0.000000
     27          6.685881   0.000000
     28          7.391436   0.000000
     29          8.327362   0.000000
     30          8.773143   0.000000
     31          8.790529   0.000000
     32          9.609005   0.000000
     33         10.019442   0.000000
     34         10.075156   0.000000
     35         10.407467   0.000000
     36         11.089800   0.000000
     37         11.400939   0.000000
     38         12.019252   0.000000
     39         12.140274   0.000000
     40         12.307131   0.000000
     41         12.488859   0.000000
     42         13.207297   0.000000
     43         14.714394   0.000000
     44         14.999874   0.000000
     45         15.343977   0.000000
     46         15.441007   0.000000
     47         15.488551   0.000000
     48         16.361678   0.000000
 
  0.4062500E+00  0.0000000E+00  0.0000000E+00  0.3623188E-03
      1        -12.390779   1.000000
      2        -12.063666   1.000000
      3         -8.496857   1.000000
      4         -8.403872   1.000000
      5         -6.115455   1.000000
      6         -6.113803   1.000000
      7         -4.145003   1.000000
      8         -3.483485   1.000000
      9         -3.058345   1.000000
     10         -2.996070   1.000000
     11         -2.514261   1.000000
     12         -2.349826   1.000000
     13         -2.093598   1.000000
     14         -2.021114   1.000000
     15         -0.675899   1.000000
     16         -0.454088   1.000000
     17          0.244979   1.000000
     18          0.303190   1.000000
     19          0.747348   1.000000
     20          1.336479   1.000000
     21          1.640405   1.000000
     22          1.687432   1.000000
     23          5.683282   0.000000
     24          5.736370   0.000000
     25          6.438608   0.000000
     26          6.556623   0.000000
     27          7.087417   0.000000
     28          7.798714   0.000000
     29          8.400953   0.000000
     30          8.426428   0.000000
     31          8.675267   0.000000
     32          9.136736   0.000000
     33         10.325869   0.000000
     34         10.357903   0.000000
     35         10.575750   0.000000
     36         11.347829   0.000000
     37         11.571027   0.000000
     38         11.617649   0.000000
     39         11.871715   0.000000
     40         12.440791   0.000000
     41         12.520444   0.000000
     42         13.333185   0.000000
     43         14.546542   0.000000
     44         14.884805   0.000000
     45         14.996612   0.000000
     46         15.111635   0.000000
     47         15.846733   0.000000
     48         16.464608   0.000000
 
  0.4687500E+00  0.0000000E+00  0.0000000E+00  0.3623188E-03
      1        -12.287985   1.000000
      2        -12.177765   1.000000
      3         -8.457286   1.000000
      4         -8.425140   1.000000
      5         -6.157317   1.000000
      6         -6.153817   1.000000
      7         -3.794590   1.000000
      8         -3.418849   1.000000
      9         -3.333203   1.000000
     10         -3.169342   1.000000
     11         -2.439721   1.000000
     12         -2.385967   1.000000
     13         -1.944914   1.000000
     14         -1.894409   1.000000
     15         -0.750641   1.000000
     16         -0.659707   1.000000
     17          0.290904   1.000000
     18          0.312350   1.000000
     19          0.925844   1.000000
     20          1.124791   1.000000
     21          1.614987   1.000000
     22          1.632436   1.000000
     23          5.705927   0.000000
     24          5.728714   0.000000
     25          6.446881   0.000000
     26          6.488007   0.000000
     27          7.529583   0.000000
     28          7.988539   0.000000
     29          8.227888   0.000000
     30          8.479324   0.000000
     31          8.569879   0.000000
     32          8.674968   0.000000
     33         10.563404   0.000000
     34         10.564965   0.000000
     35         10.870418   0.000000
     36         11.228306   0.000000
     37         11.312518   0.000000
     38         11.492534   0.000000
     39         12.058057   0.000000
     40         12.400771   0.000000
     41         12.778124   0.000000
     42         13.130590   0.000000
     43         14.612490   0.000000
     44         14.735765   0.000000
     45         14.801030   0.000000
     46         14.867950   0.000000
     47         16.191660   0.000000
     48         16.419138   0.000000
 
  0.3125000E-01  0.4347826E-01  0.0000000E+00  0.7246377E-03
      1        -12.726469   1.000000
      2        -11.574868   1.000000
      3         -8.659274   1.000000
      4         -8.420992   1.000000
      5         -6.069742   1.000000
      6         -5.085194   1.000000
      7         -4.649121   1.000000
      8         -4.332184   1.000000
      9         -4.066820   1.000000
     10         -3.576689   1.000000
     11         -2.661916   1.000000
     12         -2.278665   1.000000
     13         -1.735887   1.000000
     14         -1.072280   1.000000
     15         -0.087623   1.000000
     16         -0.061822   1.000000
     17          0.150833   1.000000
     18          0.194253   1.000000
     19          0.579234   1.000000
     20          2.008467   0.000761
     21          2.073944   0.000000
     22          2.231257   0.000000
     23          5.468730   0.000000
     24          5.742004   0.000000
     25          5.852340   0.000000
     26          5.908900   0.000000
     27          6.842302   0.000000
     28          7.638969   0.000000
     29          7.846682   0.000000
     30          8.482419   0.000000
     31          8.770723   0.000000
     32          8.950302   0.000000
     33          9.054125   0.000000
     34         10.152614   0.000000
     35         11.192999   0.000000
     36         11.363307   0.000000
     37         11.717183   0.000000
     38         11.806558   0.000000
     39         11.928719   0.000000
     40         12.416945   0.000000
     41         12.830732   0.000000
     42         13.377380   0.000000
     43         13.494269   0.000000
     44         15.472551   0.000000
     45         15.540413   0.000000
     46         16.007158   0.000000
     47         16.335010   0.000000
     48         16.386216   0.000000
 
  0.9375000E-01  0.4347826E-01  0.0000000E+00  0.7246377E-03
      1        -12.709279   1.000000
      2        -11.604500   1.000000
      3         -8.651198   1.000000
      4         -8.416094   1.000000
      5         -6.036217   1.000000
      6         -5.268788   1.000000
      7         -4.722888   1.000000
      8         -4.147131   1.000000
      9         -4.003154   1.000000
     10         -3.424052   1.000000
     11         -2.688988   1.000000
     12         -2.270800   1.000000
     13         -1.770477   1.000000
     14         -1.198805   1.000000
     15         -0.071334   1.000000
     16         -0.040645   1.000000
     17          0.150203   1.000000
     18          0.170944   1.000000
     19          0.539377   1.000000
     20          1.973685   0.014378
     21          2.042293   0.000018
     22          2.183222   0.000000
     23          5.507267   0.000000
     24          5.740247   0.000000
     25          5.835940   0.000000
     26          6.076204   0.000000
     27          6.806359   0.000000
     28          7.408016   0.000000
     29          8.002305   0.000000
     30          8.540843   0.000000
     31          8.919293   0.000000
     32          9.047754   0.000000
     33          9.068447   0.000000
     34         10.189883   0.000000
     35         11.200075   0.000000
     36         11.220904   0.000000
     37         11.459060   0.000000
     38         11.737431   0.000000
     39         12.019748   0.000000
     40         12.450265   0.000000
     41         12.991644   0.000000
     42         13.341190   0.000000
     43         13.646097   0.000000
     44         15.140856   0.000000
     45         15.626058   0.000000
     46         16.113546   0.000000
     47         16.151069   0.000000
     48         16.413821   0.000000
 
  0.1562500E+00  0.4347826E-01  0.0000000E+00  0.7246377E-03
      1        -12.675187   1.000000
      2        -11.661322   1.000000
      3         -8.634546   1.000000
      4         -8.407589   1.000000
      5         -5.989788   1.000000
      6         -5.492932   1.000000
      7         -4.794348   1.000000
      8         -4.040418   1.000000
      9         -3.757443   1.000000
     10         -3.180064   1.000000
     11         -2.742927   1.000000
     12         -2.254880   1.000000
     13         -1.830591   1.000000
     14         -1.431560   1.000000
     15         -0.041427   1.000000
     16         -0.036896   1.000000
     17          0.097436   1.000000
     18          0.201142   1.000000
     19          0.467337   1.000000
     20          1.908182   0.369150
     21          1.982769   0.007268
     22          2.087964   0.000000
     23          5.573551   0.000000
     24          5.759188   0.000000
     25          5.871700   0.000000
     26          6.318885   0.000000
     27          6.742394   0.000000
     28          7.190541   0.000000
     29          8.117567   0.000000
     30          8.642997   0.000000
     31          9.065556   0.000000
     32          9.158469   0.000000
     33          9.249465   0.000000
     34         10.270048   0.000000
     35         10.904385   0.000000
     36         11.087573   0.000000
     37         11.276973   0.000000
     38         11.710989   0.000000
     39         12.182598   0.000000
     40         12.521726   0.000000
     41         13.074746   0.000000
     42         13.135868   0.000000
     43         14.032552   0.000000
     44         14.860766   0.000000
     45         15.728472   0.000000
     46         15.818231   0.000000
     47         16.192048   0.000000
     48         16.531931   0.000000
 
  0.2187500E+00  0.4347826E-01  0.0000000E+00  0.7246377E-03
      1        -12.624762   1.000000
      2        -11.740928   1.000000
      3         -8.608980   1.000000
      4         -8.398011   1.000000
      5         -5.966317   1.000000
      6         -5.703416   1.000000
      7         -4.789386   1.000000
      8         -3.964410   1.000000
      9         -3.437046   1.000000
     10         -2.909940   1.000000
     11         -2.806133   1.000000
     12         -2.230793   1.000000
     13         -1.903377   1.000000
     14         -1.739074   1.000000
     15         -0.140871   1.000000
     16         -0.007887   1.000000
     17          0.122534   1.000000
     18          0.189954   1.000000
     19          0.421133   1.000000
     20          1.819670   0.984974
     21          1.902340   0.432943
     22          1.949644   0.065927
     23          5.650592   0.000000
     24          5.736269   0.000000
     25          6.041423   0.000000
     26          6.609066   0.000000
     27          6.663834   0.000000
     28          7.012974   0.000000
     29          8.213283   0.000000
     30          8.751869   0.000000
     31          9.038946   0.000000
     32          9.433662   0.000000
     33          9.518954   0.000000
     34         10.386164   0.000000
     35         10.536295   0.000000
     36         10.727236   0.000000
     37         11.352050   0.000000
     38         11.784027   0.000000
     39         12.347081   0.000000
     40         12.668859   0.000000
     41         12.747365   0.000000
     42         13.058468   0.000000
     43         14.429419   0.000000
     44         14.840474   0.000000
     45         15.413963   0.000000
     46         15.923897   0.000000
     47         16.097265   0.000000
     48         16.466367   0.000000
 
  0.2812500E+00  0.4347826E-01  0.0000000E+00  0.7246377E-03
      1        -12.558895   1.000000
      2        -11.837730   1.000000
      3         -8.575156   1.000000
      4         -8.390931   1.000000
      5         -5.989660   1.000000
      6         -5.881965   1.000000
      7         -4.669570   1.000000
      8         -3.874110   1.000000
      9         -3.121196   1.000000
     10         -2.946871   1.000000
     11         -2.571275   1.000000
     12         -2.210112   1.000000
     13         -2.070690   1.000000
     14         -1.978188   1.000000
     15         -0.309120   1.000000
     16         -0.040715   1.000000
     17          0.131222   1.000000
     18          0.181070   1.000000
     19          0.478976   1.000000
     20          1.712471   1.000000
     21          1.784357   0.999233
     22          1.810326   0.992527
     23          5.714789   0.000000
     24          5.720645   0.000000
     25          6.307448   0.000000
     26          6.586812   0.000000
     27          6.792513   0.000000
     28          7.021403   0.000000
     29          8.297331   0.000000
     30          8.794069   0.000000
     31          8.969821   0.000000
     32          9.723771   0.000000
     33          9.816543   0.000000
     34         10.052493   0.000000
     35         10.404097   0.000000
     36         10.739134   0.000000
     37         11.413685   0.000000
     38         11.957196   0.000000
     39         12.358991   0.000000
     40         12.452439   0.000000
     41         12.738991   0.000000
     42         12.955278   0.000000
     43         14.753894   0.000000
     44         15.061975   0.000000
     45         15.096806   0.000000
     46         15.825324   0.000000
     47         15.840320   0.000000
     48         16.257110   0.000000
 
  0.3437500E+00  0.4347826E-01  0.0000000E+00  0.7246377E-03
      1        -12.478865   1.000000
      2        -11.945788   1.000000
      3         -8.535292   1.000000
      4         -8.390404   1.000000
      5         -6.046795   1.000000
      6         -6.019139   1.000000
      7         -4.443887   1.000000
      8         -3.766648   1.000000
      9         -3.074144   1.000000
     10         -2.897118   1.000000
     11         -2.412960   1.000000
     12         -2.274616   1.000000
     13         -2.117339   1.000000
     14         -2.049433   1.000000
     15         -0.498624   1.000000
     16         -0.226354   1.000000
     17          0.162684   1.000000
     18          0.236144   1.000000
     19          0.597119   1.000000
     20          1.546724   1.000000
     21          1.659739   1.000000
     22          1.717788   1.000000
     23          5.710029   0.000000
     24          5.768695   0.000000
     25          6.528008   0.000000
     26          6.649202   0.000000
     27          6.703784   0.000000
     28          7.369002   0.000000
     29          8.372205   0.000000
     30          8.691286   0.000000
     31          8.834611   0.000000
     32          9.573119   0.000000
     33         10.027375   0.000000
     34         10.100000   0.000000
     35         10.382085   0.000000
     36         11.110551   0.000000
     37         11.412300   0.000000
     38         11.974169   0.000000
     39         12.202115   0.000000
     40         12.320083   0.000000
     41         12.529189   0.000000
     42         13.247589   0.000000
     43         14.753767   0.000000
     44         14.954611   0.000000
     45         15.305535   0.000000
     46         15.372123   0.000000
     47         15.587755   0.000000
     48         16.367635   0.000000
 
  0.4062500E+00  0.4347826E-01  0.0000000E+00  0.7246377E-03
      1        -12.386358   1.000000
      2        -12.059379   1.000000
      3         -8.493129   1.000000
      4         -8.399943   1.000000
      5         -6.109426   1.000000
      6         -6.107618   1.000000
      7         -4.142419   1.000000
      8         -3.643587   1.000000
      9         -3.215942   1.000000
     10         -3.051401   1.000000
     11         -2.408874   1.000000
     12         -2.122570   1.000000
     13         -2.027821   1.000000
     14         -2.017228   1.000000
     15         -0.669191   1.000000
     16         -0.455474   1.000000
     17          0.215954   1.000000
     18          0.272776   1.000000
     19          0.749216   1.000000
     20          1.337714   1.000000
     21          1.591363   1.000000
     22          1.637305   1.000000
     23          5.723474   0.000000
     24          5.786022   0.000000
     25          6.500854   0.000000
     26          6.615874   0.000000
     27          7.050509   0.000000
     28          7.770378   0.000000
     29          8.378595   0.000000
     30          8.443163   0.000000
     31          8.705295   0.000000
     32          9.104196   0.000000
     33         10.333863   0.000000
     34         10.335517   0.000000
     35         10.578668   0.000000
     36         11.320068   0.000000
     37         11.582908   0.000000
     38         11.607889   0.000000
     39         11.882743   0.000000
     40         12.510588   0.000000
     41         12.560694   0.000000
     42         13.378193   0.000000
     43         14.584217   0.000000
     44         14.863123   0.000000
     45         14.987676   0.000000
     46         15.099424   0.000000
     47         15.877634   0.000000
     48         16.460289   0.000000
 
  0.4687500E+00  0.4347826E-01  0.0000000E+00  0.7246377E-03
      1        -12.283608   1.000000
      2        -12.173431   1.000000
      3         -8.453512   1.000000
      4         -8.421298   1.000000
      5         -6.151207   1.000000
      6         -6.147653   1.000000
      7         -3.792308   1.000000
      8         -3.509848   1.000000
      9         -3.413036   1.000000
     10         -3.362430   1.000000
     11         -2.283943   1.000000
     12         -2.193551   1.000000
     13         -1.913361   1.000000
     14         -1.881626   1.000000
     15         -0.744905   1.000000
     16         -0.657113   1.000000
     17          0.260166   1.000000
     18          0.281451   1.000000
     19          0.927652   1.000000
     20          1.126588   1.000000
     21          1.565064   1.000000
     22          1.582370   1.000000
     23          5.749103   0.000000
     24          5.775127   0.000000
     25          6.509722   0.000000
     26          6.550066   0.000000
     27          7.491902   0.000000
     28          7.948579   0.000000
     29          8.196178   0.000000
     30          8.518851   0.000000
     31          8.593921   0.000000
     32          8.652988   0.000000
     33         10.551277   0.000000
     34         10.575211   0.000000
     35         10.841909   0.000000
     36         11.119577   0.000000
     37         11.383988   0.000000
     38         11.510813   0.000000
     39         12.076418   0.000000
     40         12.432324   0.000000
     41         12.843713   0.000000
     42         13.184905   0.000000
     43         14.625994   0.000000
     44         14.741608   0.000000
     45         14.789845   0.000000
     46         14.890271   0.000000
     47         16.198578   0.000000
     48         16.415396   0.000000
 
  0.3125000E-01  0.8695652E-01  0.0000000E+00  0.7246377E-03
      1        -12.713022   1.000000
      2        -11.562800   1.000000
      3         -8.648757   1.000000
      4         -8.408024   1.000000
      5         -6.054843   1.000000
      6         -5.065248   1.000000
      7         -4.636736   1.000000
      8         -4.459755   1.000000