Automatically generated mesh
     768
Reciprocal lattice
    0.03125000000000    0.00000000000000    0.00000000000000             2
    0.09375000000000    0.00000000000000    0.00000000000000             2
    0.15625000000000    0.00000000000000    0.00000000000000             2
    0.21875000000000    0.00000000000000    0.00000000000000             2
    0.28125000000000    0.00000000000000    0.00000000000000             2
    0.34375000000000    0.00000000000000    0.00000000000000             2
    0.40625000000000    0.00000000000000    0.00000000000000             2
    0.46875000000000    0.00000000000000    0.00000000000000             2
    0.03125000000000    0.04347826086956    0.00000000000000             4
    0.09375000000000    0.04347826086956    0.00000000000000             4
    0.15625000000000    0.04347826086956    0.00000000000000             4
    0.21875000000000    0.04347826086956    0.00000000000000             4
    0.28125000000000    0.04347826086956    0.00000000000000             4
    0.34375000000000    0.04347826086956    0.00000000000000             4
    0.40625000000000    0.04347826086956    0.00000000000000             4
    0.46875000000000    0.04347826086956    0.00000000000000             4
    0.03125000000000    0.08695652173913    0.00000000000000             4
    0.09375000000000    0.08695652173913    0.00000000000000             4
    0.15625000000000    0.08695652173913    0.00000000000000             4
    0.21875000000000    0.08695652173913    0.00000000000000             4
    0.28125000000000    0.08695652173913    0.00000000000000             4
    0.34375000000000    0.08695652173913    0.00000000000000             4
    0.40625000000000    0.08695652173913    0.00000000000000             4
    0.46875000000000    0.08695652173913    0.00000000000000             4
    0.03125000000000    0.13043478260870    0.00000000000000             4
    0.09375000000000    0.13043478260870    0.00000000000000             4
    0.15625000000000    0.13043478260870    0.00000000000000             4
    0.21875000000000    0.13043478260870    0.00000000000000             4
    0.28125000000000    0.13043478260870    0.00000000000000             4
    0.34375000000000    0.13043478260870    0.00000000000000             4
    0.40625000000000    0.13043478260870    0.00000000000000             4
    0.46875000000000    0.13043478260870    0.00000000000000             4
    0.03125000000000    0.17391304347826    0.00000000000000             4
    0.09375000000000    0.17391304347826    0.00000000000000             4
    0.15625000000000    0.17391304347826    0.00000000000000             4
    0.21875000000000    0.17391304347826    0.00000000000000             4
    0.28125000000000    0.17391304347826    0.00000000000000             4
    0.34375000000000    0.17391304347826    0.00000000000000             4
    0.40625000000000    0.17391304347826    0.00000000000000             4
    0.46875000000000    0.17391304347826    0.00000000000000             4
    0.03125000000000    0.21739130434783    0.00000000000000             4
    0.09375000000000    0.21739130434783    0.00000000000000             4
    0.15625000000000    0.21739130434783    0.00000000000000             4
    0.21875000000000    0.21739130434783    0.00000000000000             4
    0.28125000000000    0.21739130434783    0.00000000000000             4
    0.34375000000000    0.21739130434783    0.00000000000000             4
    0.40625000000000    0.21739130434783    0.00000000000000             4
    0.46875000000000    0.21739130434783    0.00000000000000             4
    0.03125000000000    0.26086956521739    0.00000000000000             4
    0.09375000000000    0.26086956521739    0.00000000000000             4
    0.15625000000000    0.26086956521739    0.00000000000000             4
    0.21875000000000    0.26086956521739    0.00000000000000             4
    0.28125000000000    0.26086956521739    0.00000000000000             4
    0.34375000000000    0.26086956521739    0.00000000000000             4
    0.40625000000000    0.26086956521739    0.00000000000000             4
    0.46875000000000    0.26086956521739    0.00000000000000             4
    0.03125000000000    0.30434782608695    0.00000000000000             4
    0.09375000000000    0.30434782608695    0.00000000000000             4
    0.15625000000000    0.30434782608695    0.00000000000000             4
    0.21875000000000    0.30434782608695    0.00000000000000             4
    0.28125000000000    0.30434782608695    0.00000000000000             4
    0.34375000000000    0.30434782608695    0.00000000000000             4
    0.40625000000000    0.30434782608695    0.00000000000000             4
    0.46875000000000    0.30434782608695    0.00000000000000             4
    0.03125000000000    0.34782608695652    0.00000000000000             4
    0.09375000000000    0.34782608695652    0.00000000000000             4
    0.15625000000000    0.34782608695652    0.00000000000000             4
    0.21875000000000    0.34782608695652    0.00000000000000             4
    0.28125000000000    0.34782608695652    0.00000000000000             4
    0.34375000000000    0.34782608695652    0.00000000000000             4
    0.40625000000000    0.34782608695652    0.00000000000000             4
    0.46875000000000    0.34782608695652    0.00000000000000             4
    0.03125000000000    0.39130434782609    0.00000000000000             4
    0.09375000000000    0.39130434782609    0.00000000000000             4
    0.15625000000000    0.39130434782609    0.00000000000000             4
    0.21875000000000    0.39130434782609    0.00000000000000             4
    0.28125000000000    0.39130434782609    0.00000000000000             4
    0.34375000000000    0.39130434782609    0.00000000000000             4
    0.40625000000000    0.39130434782609    0.00000000000000             4
    0.46875000000000    0.39130434782609    0.00000000000000             4
    0.03125000000000    0.43478260869565    0.00000000000000             4
    0.09375000000000    0.43478260869565    0.00000000000000             4
    0.15625000000000    0.43478260869565    0.00000000000000             4
    0.21875000000000    0.43478260869565    0.00000000000000             4
    0.28125000000000    0.43478260869565    0.00000000000000             4
    0.34375000000000    0.43478260869565    0.00000000000000             4
    0.40625000000000    0.43478260869565    0.00000000000000             4
    0.46875000000000    0.43478260869565    0.00000000000000             4
    0.03125000000000    0.47826086956522    0.00000000000000             4
    0.09375000000000    0.47826086956522    0.00000000000000             4
    0.15625000000000    0.47826086956522    0.00000000000000             4
    0.21875000000000    0.47826086956522    0.00000000000000             4
    0.28125000000000    0.47826086956522    0.00000000000000             4
    0.34375000000000    0.47826086956522    0.00000000000000             4
    0.40625000000000    0.47826086956522    0.00000000000000             4
    0.46875000000000    0.47826086956522    0.00000000000000             4
    0.03125000000000    0.00000000000000    0.06666666666667             4
    0.09375000000000    0.00000000000000    0.06666666666667             4
    0.15625000000000    0.00000000000000    0.06666666666667             4
    0.21875000000000    0.00000000000000    0.06666666666667             4
    0.28125000000000    0.00000000000000    0.06666666666667             4
    0.34375000000000    0.00000000000000    0.06666666666667             4
    0.40625000000000    0.00000000000000    0.06666666666667             4
    0.46875000000000    0.00000000000000    0.06666666666667             4
    0.03125000000000    0.04347826086956    0.06666666666667             8
    0.09375000000000    0.04347826086956    0.06666666666667             8
    0.15625000000000    0.04347826086956    0.06666666666667             8
    0.21875000000000    0.04347826086956    0.06666666666667             8
    0.28125000000000    0.04347826086956    0.06666666666667             8
    0.34375000000000    0.04347826086956    0.06666666666667             8
    0.40625000000000    0.04347826086956    0.06666666666667             8
    0.46875000000000    0.04347826086956    0.06666666666667             8
    0.03125000000000    0.08695652173913    0.06666666666667             8
    0.09375000000000    0.08695652173913    0.06666666666667             8
    0.15625000000000    0.08695652173913    0.06666666666667             8
    0.21875000000000    0.08695652173913    0.06666666666667             8
    0.28125000000000    0.08695652173913    0.06666666666667             8
    0.34375000000000    0.08695652173913    0.06666666666667             8
    0.40625000000000    0.08695652173913    0.06666666666667             8
    0.46875000000000    0.08695652173913    0.06666666666667             8
    0.03125000000000    0.13043478260870    0.06666666666667             8
    0.09375000000000    0.13043478260870    0.06666666666667             8
    0.15625000000000    0.13043478260870    0.06666666666667             8
    0.21875000000000    0.13043478260870    0.06666666666667             8
    0.28125000000000    0.13043478260870    0.06666666666667             8
    0.34375000000000    0.13043478260870    0.06666666666667             8
    0.40625000000000    0.13043478260870    0.06666666666667             8
    0.46875000000000    0.13043478260870    0.06666666666667             8
    0.03125000000000    0.17391304347826    0.06666666666667             8
    0.09375000000000    0.17391304347826    0.06666666666667             8
    0.15625000000000    0.17391304347826    0.06666666666667             8
    0.21875000000000    0.17391304347826    0.06666666666667             8
    0.28125000000000    0.17391304347826    0.06666666666667             8
    0.34375000000000    0.17391304347826    0.06666666666667             8
    0.40625000000000    0.17391304347826    0.06666666666667             8
    0.46875000000000    0.17391304347826    0.06666666666667             8
    0.03125000000000    0.21739130434783    0.06666666666667             8
    0.09375000000000    0.21739130434783    0.06666666666667             8
    0.15625000000000    0.21739130434783    0.06666666666667             8
    0.21875000000000    0.21739130434783    0.06666666666667             8
    0.28125000000000    0.21739130434783    0.06666666666667             8
    0.34375000000000    0.21739130434783    0.06666666666667             8
    0.40625000000000    0.21739130434783    0.06666666666667             8
    0.46875000000000    0.21739130434783    0.06666666666667             8
    0.03125000000000    0.26086956521739    0.06666666666667             8
    0.09375000000000    0.26086956521739    0.06666666666667             8
    0.15625000000000    0.26086956521739    0.06666666666667             8
    0.21875000000000    0.26086956521739    0.06666666666667             8
    0.28125000000000    0.26086956521739    0.06666666666667             8
    0.34375000000000    0.26086956521739    0.06666666666667             8
    0.40625000000000    0.26086956521739    0.06666666666667             8
    0.46875000000000    0.26086956521739    0.06666666666667             8
    0.03125000000000    0.30434782608695    0.06666666666667             8
    0.09375000000000    0.30434782608695    0.06666666666667             8
    0.15625000000000    0.30434782608695    0.06666666666667             8
    0.21875000000000    0.30434782608695    0.06666666666667             8
    0.28125000000000    0.30434782608695    0.06666666666667             8
    0.34375000000000    0.30434782608695    0.06666666666667             8
    0.40625000000000    0.30434782608695    0.06666666666667             8
    0.46875000000000    0.30434782608695    0.06666666666667             8
    0.03125000000000    0.34782608695652    0.06666666666667             8
    0.09375000000000    0.34782608695652    0.06666666666667             8
    0.15625000000000    0.34782608695652    0.06666666666667             8
    0.21875000000000    0.34782608695652    0.06666666666667             8
    0.28125000000000    0.34782608695652    0.06666666666667             8
    0.34375000000000    0.34782608695652    0.06666666666667             8
    0.40625000000000    0.34782608695652    0.06666666666667             8
    0.46875000000000    0.34782608695652    0.06666666666667             8
    0.03125000000000    0.39130434782609    0.06666666666667             8
    0.09375000000000    0.39130434782609    0.06666666666667             8
    0.15625000000000    0.39130434782609    0.06666666666667             8
    0.21875000000000    0.39130434782609    0.06666666666667             8
    0.28125000000000    0.39130434782609    0.06666666666667             8
    0.34375000000000    0.39130434782609    0.06666666666667             8
    0.40625000000000    0.39130434782609    0.06666666666667             8
    0.46875000000000    0.39130434782609    0.06666666666667             8
    0.03125000000000    0.43478260869565    0.06666666666667             8
    0.09375000000000    0.43478260869565    0.06666666666667             8
    0.15625000000000    0.43478260869565    0.06666666666667             8
    0.21875000000000    0.43478260869565    0.06666666666667             8
    0.28125000000000    0.43478260869565    0.06666666666667             8
    0.34375000000000    0.43478260869565    0.06666666666667             8
    0.40625000000000    0.43478260869565    0.06666666666667             8
    0.46875000000000    0.43478260869565    0.06666666666667             8
    0.03125000000000    0.47826086956522    0.06666666666667             8
    0.09375000000000    0.47826086956522    0.06666666666667             8
    0.15625000000000    0.47826086956522    0.06666666666667             8
    0.21875000000000    0.47826086956522    0.06666666666667             8
    0.28125000000000    0.47826086956522    0.06666666666667             8
    0.34375000000000    0.47826086956522    0.06666666666667             8
    0.40625000000000    0.47826086956522    0.06666666666667             8
    0.46875000000000    0.47826086956522    0.06666666666667             8
    0.03125000000000    0.00000000000000    0.13333333333333             4
    0.09375000000000    0.00000000000000    0.13333333333333             4
    0.15625000000000    0.00000000000000    0.13333333333333             4
    0.21875000000000    0.00000000000000    0.13333333333333             4
    0.28125000000000    0.00000000000000    0.13333333333333             4
    0.34375000000000    0.00000000000000    0.13333333333333             4
    0.40625000000000    0.00000000000000    0.13333333333333             4
    0.46875000000000    0.00000000000000    0.13333333333333             4
    0.03125000000000    0.04347826086956    0.13333333333333             8
    0.09375000000000    0.04347826086956    0.13333333333333             8
    0.15625000000000    0.04347826086956    0.13333333333333             8
    0.21875000000000    0.04347826086956    0.13333333333333             8
    0.28125000000000    0.04347826086956    0.13333333333333             8
    0.34375000000000    0.04347826086956    0.13333333333333             8
    0.40625000000000    0.04347826086956    0.13333333333333             8
    0.46875000000000    0.04347826086956    0.13333333333333             8
    0.03125000000000    0.08695652173913    0.13333333333333             8
    0.09375000000000    0.08695652173913    0.13333333333333             8
    0.15625000000000    0.08695652173913    0.13333333333333             8
    0.21875000000000    0.08695652173913    0.13333333333333             8
    0.28125000000000    0.08695652173913    0.13333333333333             8
    0.34375000000000    0.08695652173913    0.13333333333333             8
    0.40625000000000    0.08695652173913    0.13333333333333             8
    0.46875000000000    0.08695652173913    0.13333333333333             8
    0.03125000000000    0.13043478260870    0.13333333333333             8
    0.09375000000000    0.13043478260870    0.13333333333333             8
    0.15625000000000    0.13043478260870    0.13333333333333             8
    0.21875000000000    0.13043478260870    0.13333333333333             8
    0.28125000000000    0.13043478260870    0.13333333333333             8
    0.34375000000000    0.13043478260870    0.13333333333333             8
    0.40625000000000    0.13043478260870    0.13333333333333             8
    0.46875000000000    0.13043478260870    0.13333333333333             8
    0.03125000000000    0.17391304347826    0.13333333333333             8
    0.09375000000000    0.17391304347826    0.13333333333333             8
    0.15625000000000    0.17391304347826    0.13333333333333             8
    0.21875000000000    0.17391304347826    0.13333333333333             8
    0.28125000000000    0.17391304347826    0.13333333333333             8
    0.34375000000000    0.17391304347826    0.13333333333333             8
    0.40625000000000    0.17391304347826    0.13333333333333             8
    0.46875000000000    0.17391304347826    0.13333333333333             8
    0.03125000000000    0.21739130434783    0.13333333333333             8
    0.09375000000000    0.21739130434783    0.13333333333333             8
    0.15625000000000    0.21739130434783    0.13333333333333             8
    0.21875000000000    0.21739130434783    0.13333333333333             8
    0.28125000000000    0.21739130434783    0.13333333333333             8
    0.34375000000000    0.21739130434783    0.13333333333333             8
    0.40625000000000    0.21739130434783    0.13333333333333             8
    0.46875000000000    0.21739130434783    0.13333333333333             8
    0.03125000000000    0.26086956521739    0.13333333333333             8
    0.09375000000000    0.26086956521739    0.13333333333333             8
    0.15625000000000    0.26086956521739    0.13333333333333             8
    0.21875000000000    0.26086956521739    0.13333333333333             8
    0.28125000000000    0.26086956521739    0.13333333333333             8
    0.34375000000000    0.26086956521739    0.13333333333333             8
    0.40625000000000    0.26086956521739    0.13333333333333             8
    0.46875000000000    0.26086956521739    0.13333333333333             8
    0.03125000000000    0.30434782608695    0.13333333333333             8
    0.09375000000000    0.30434782608695    0.13333333333333             8
    0.15625000000000    0.30434782608695    0.13333333333333             8
    0.21875000000000    0.30434782608695    0.13333333333333             8
    0.28125000000000    0.30434782608695    0.13333333333333             8
    0.34375000000000    0.30434782608695    0.13333333333333             8
    0.40625000000000    0.30434782608695    0.13333333333333             8
    0.46875000000000    0.30434782608695    0.13333333333333             8
    0.03125000000000    0.34782608695652    0.13333333333333             8
    0.09375000000000    0.34782608695652    0.13333333333333             8
    0.15625000000000    0.34782608695652    0.13333333333333             8
    0.21875000000000    0.34782608695652    0.13333333333333             8
    0.28125000000000    0.34782608695652    0.13333333333333             8
    0.34375000000000    0.34782608695652    0.13333333333333             8
    0.40625000000000    0.34782608695652    0.13333333333333             8
    0.46875000000000    0.34782608695652    0.13333333333333             8
    0.03125000000000    0.39130434782609    0.13333333333333             8
    0.09375000000000    0.39130434782609    0.13333333333333             8
    0.15625000000000    0.39130434782609    0.13333333333333             8
    0.21875000000000    0.39130434782609    0.13333333333333             8
    0.28125000000000    0.39130434782609    0.13333333333333             8
    0.34375000000000    0.39130434782609    0.13333333333333             8
    0.40625000000000    0.39130434782609    0.13333333333333             8
    0.46875000000000    0.39130434782609    0.13333333333333             8
    0.03125000000000    0.43478260869565    0.13333333333333             8
    0.09375000000000    0.43478260869565    0.13333333333333             8
    0.15625000000000    0.43478260869565    0.13333333333333             8
    0.21875000000000    0.43478260869565    0.13333333333333             8
    0.28125000000000    0.43478260869565    0.13333333333333             8
    0.34375000000000    0.43478260869565    0.13333333333333             8
    0.40625000000000    0.43478260869565    0.13333333333333             8
    0.46875000000000    0.43478260869565    0.13333333333333             8
    0.03125000000000    0.47826086956522    0.13333333333333             8
    0.09375000000000    0.47826086956522    0.13333333333333             8
    0.15625000000000    0.47826086956522    0.13333333333333             8
    0.21875000000000    0.47826086956522    0.13333333333333             8
    0.28125000000000    0.47826086956522    0.13333333333333             8
    0.34375000000000    0.47826086956522    0.13333333333333             8
    0.40625000000000    0.47826086956522    0.13333333333333             8
    0.46875000000000    0.47826086956522    0.13333333333333             8
    0.03125000000000    0.00000000000000    0.20000000000000             4
    0.09375000000000    0.00000000000000    0.20000000000000             4
    0.15625000000000    0.00000000000000    0.20000000000000             4
    0.21875000000000    0.00000000000000    0.20000000000000             4
    0.28125000000000    0.00000000000000    0.20000000000000             4
    0.34375000000000    0.00000000000000    0.20000000000000             4
    0.40625000000000    0.00000000000000    0.20000000000000             4
    0.46875000000000    0.00000000000000    0.20000000000000             4
    0.03125000000000    0.04347826086956    0.20000000000000             8
    0.09375000000000    0.04347826086956    0.20000000000000             8
    0.15625000000000    0.04347826086956    0.20000000000000             8
    0.21875000000000    0.04347826086956    0.20000000000000             8
    0.28125000000000    0.04347826086956    0.20000000000000             8
    0.34375000000000    0.04347826086956    0.20000000000000             8
    0.40625000000000    0.04347826086956    0.20000000000000             8
    0.46875000000000    0.04347826086956    0.20000000000000             8
    0.03125000000000    0.08695652173913    0.20000000000000             8
    0.09375000000000    0.08695652173913    0.20000000000000             8
    0.15625000000000    0.08695652173913    0.20000000000000             8
    0.21875000000000    0.08695652173913    0.20000000000000             8
    0.28125000000000    0.08695652173913    0.20000000000000             8
    0.34375000000000    0.08695652173913    0.20000000000000             8
    0.40625000000000    0.08695652173913    0.20000000000000             8
    0.46875000000000    0.08695652173913    0.20000000000000             8
    0.03125000000000    0.13043478260870    0.20000000000000             8
    0.09375000000000    0.13043478260870    0.20000000000000             8
    0.15625000000000    0.13043478260870    0.20000000000000             8
    0.21875000000000    0.13043478260870    0.20000000000000             8
    0.28125000000000    0.13043478260870    0.20000000000000             8
    0.34375000000000    0.13043478260870    0.20000000000000             8
    0.40625000000000    0.13043478260870    0.20000000000000             8
    0.46875000000000    0.13043478260870    0.20000000000000             8
    0.03125000000000    0.17391304347826    0.20000000000000             8
    0.09375000000000    0.17391304347826    0.20000000000000             8
    0.15625000000000    0.17391304347826    0.20000000000000             8
    0.21875000000000    0.17391304347826    0.20000000000000             8
    0.28125000000000    0.17391304347826    0.20000000000000             8
    0.34375000000000    0.17391304347826    0.20000000000000             8
    0.40625000000000    0.17391304347826    0.20000000000000             8
    0.46875000000000    0.17391304347826    0.20000000000000             8
    0.03125000000000    0.21739130434783    0.20000000000000             8
    0.09375000000000    0.21739130434783    0.20000000000000             8
    0.15625000000000    0.21739130434783    0.20000000000000             8
    0.21875000000000    0.21739130434783    0.20000000000000             8
    0.28125000000000    0.21739130434783    0.20000000000000             8
    0.34375000000000    0.21739130434783    0.20000000000000             8
    0.40625000000000    0.21739130434783    0.20000000000000             8
    0.46875000000000    0.21739130434783    0.20000000000000             8
    0.03125000000000    0.26086956521739    0.20000000000000             8
    0.09375000000000    0.26086956521739    0.20000000000000             8
    0.15625000000000    0.26086956521739    0.20000000000000             8
    0.21875000000000    0.26086956521739    0.20000000000000             8
    0.28125000000000    0.26086956521739    0.20000000000000             8
    0.34375000000000    0.26086956521739    0.20000000000000             8
    0.40625000000000    0.26086956521739    0.20000000000000             8
    0.46875000000000    0.26086956521739    0.20000000000000             8
    0.03125000000000    0.30434782608695    0.20000000000000             8
    0.09375000000000    0.30434782608695    0.20000000000000             8
    0.15625000000000    0.30434782608695    0.20000000000000             8
    0.21875000000000    0.30434782608695    0.20000000000000             8
    0.28125000000000    0.30434782608695    0.20000000000000             8
    0.34375000000000    0.30434782608695    0.20000000000000             8
    0.40625000000000    0.30434782608695    0.20000000000000             8
    0.46875000000000    0.30434782608695    0.20000000000000             8
    0.03125000000000    0.34782608695652    0.20000000000000             8
    0.09375000000000    0.34782608695652    0.20000000000000             8
    0.15625000000000    0.34782608695652    0.20000000000000             8
    0.21875000000000    0.34782608695652    0.20000000000000             8
    0.28125000000000    0.34782608695652    0.20000000000000             8
    0.34375000000000    0.34782608695652    0.20000000000000             8
    0.40625000000000    0.34782608695652    0.20000000000000             8
    0.46875000000000    0.34782608695652    0.20000000000000             8
    0.03125000000000    0.39130434782609    0.20000000000000             8
    0.09375000000000    0.39130434782609    0.20000000000000             8
    0.15625000000000    0.39130434782609    0.20000000000000             8
    0.21875000000000    0.39130434782609    0.20000000000000             8
    0.28125000000000    0.39130434782609    0.20000000000000             8
    0.34375000000000    0.39130434782609    0.20000000000000             8
    0.40625000000000    0.39130434782609    0.20000000000000             8
    0.46875000000000    0.39130434782609    0.20000000000000             8
    0.03125000000000    0.43478260869565    0.20000000000000             8
    0.09375000000000    0.43478260869565    0.20000000000000             8
    0.15625000000000    0.43478260869565    0.20000000000000             8
    0.21875000000000    0.43478260869565    0.20000000000000             8
    0.28125000000000    0.43478260869565    0.20000000000000             8
    0.34375000000000    0.43478260869565    0.20000000000000             8
    0.40625000000000    0.43478260869565    0.20000000000000             8
    0.46875000000000    0.43478260869565    0.20000000000000             8
    0.03125000000000    0.47826086956522    0.20000000000000             8
    0.09375000000000    0.47826086956522    0.20000000000000             8
    0.15625000000000    0.47826086956522    0.20000000000000             8
    0.21875000000000    0.47826086956522    0.20000000000000             8
    0.28125000000000    0.47826086956522    0.20000000000000             8
    0.34375000000000    0.47826086956522    0.20000000000000             8
    0.40625000000000    0.47826086956522    0.20000000000000             8
    0.46875000000000    0.47826086956522    0.20000000000000             8
    0.03125000000000    0.00000000000000    0.26666666666667             4
    0.09375000000000    0.00000000000000    0.26666666666667             4
    0.15625000000000    0.00000000000000    0.26666666666667             4
    0.21875000000000    0.00000000000000    0.26666666666667             4
    0.28125000000000    0.00000000000000    0.26666666666667             4
    0.34375000000000    0.00000000000000    0.26666666666667             4
    0.40625000000000    0.00000000000000    0.26666666666667             4
    0.46875000000000    0.00000000000000    0.26666666666667             4
    0.03125000000000    0.04347826086956    0.26666666666667             8
    0.09375000000000    0.04347826086956    0.26666666666667             8
    0.15625000000000    0.04347826086956    0.26666666666667             8
    0.21875000000000    0.04347826086956    0.26666666666667             8
    0.28125000000000    0.04347826086956    0.26666666666667             8
    0.34375000000000    0.04347826086956    0.26666666666667             8
    0.40625000000000    0.04347826086956    0.26666666666667             8