       N       E                     dE             d eps       ncg     rms          rms(c)
DAV:   1     0.539383066917E+02    0.53938E+02   -0.17648E+04 73728   0.724E+02
