<?xml version="1.0" encoding="ISO-8859-1"?>
<modeling>
 <generator>
  <i name="program" type="string">vasp </i>
  <i name="version" type="string">6.4.3  </i>
  <i name="subversion" type="string">19Mar24 (build May 31 2024 16:31:43) complex                          parallel </i>
  <i name="platform" type="string">LinuxIFC </i>
  <i name="date" type="string">2024 10 29 </i>
  <i name="time" type="string">15:51:20 </i>
 </generator>
 <incar>
  <i type="string" name="SYSTEM">Kpoints</i>
  <i type="int" name="ISTART">     0</i>
  <i type="string" name="PREC">Accurate</i>
  <i type="string" name="ALGO">Normal</i>
  <i type="int" name="ISPIN">     1</i>
  <i type="int" name="ICHARG">     2</i>
  <i type="int" name="NELM">   100</i>
  <i type="int" name="IBRION">    -1</i>
  <i name="EDIFF">      0.00000100</i>
  <i name="EDIFFG">     -0.00100000</i>
  <i type="int" name="NSW">     0</i>
  <i type="int" name="ISIF">     2</i>
  <i name="ENCUT">    450.00000000</i>
  <i name="POTIM">      0.50000000</i>
  <i type="int" name="ISMEAR">     0</i>
  <i name="SIGMA">      0.05000000</i>
  <i type="logical" name="LWAVE"> F  </i>
  <i type="logical" name="LCHARG"> F  </i>
  <i type="string" name="GGA">PE</i>
 </incar>
 <primitive_cell>
  <structure name="primitive_cell" >
   <crystal>
    <varray name="basis" >
     <v>       5.69700000       0.00000000       0.00000000 </v>
     <v>       0.00000000       4.04790000       0.00000000 </v>
     <v>       0.00000000       0.00000000       6.20420000 </v>
    </varray>
    <i name="volume">    143.07435078 </i>
    <varray name="rec_basis" >
     <v>       0.17553098       0.00000000       0.00000000 </v>
     <v>       0.00000000       0.24704168       0.00000000 </v>
     <v>       0.00000000       0.00000000       0.16118114 </v>
    </varray>
   </crystal>
   <varray name="positions" >
    <v>       0.52123000       0.50000000       0.63796000 </v>
    <v>       0.47877000       0.50000000       0.36204000 </v>
    <v>       0.97877000       0.50000000       0.63796000 </v>
    <v>       0.02123000       0.50000000       0.36204000 </v>
    <v>       0.60090000       0.50000000       0.89991000 </v>
    <v>       0.39910000       0.50000000       0.10009000 </v>
    <v>       0.89910000       0.50000000       0.89991000 </v>
    <v>       0.10090000       0.50000000       0.10009000 </v>
    <v>       0.75000000       0.79171000       0.72973000 </v>
    <v>       0.25000000       0.20829000       0.27027000 </v>
    <v>       0.75000000       0.20829000       0.72973000 </v>
    <v>       0.25000000       0.79171000       0.27027000 </v>
    <v>       0.25000000       0.50000000       0.52367000 </v>
    <v>       0.75000000       0.50000000       0.47633000 </v>
   </varray>
  </structure>
  <varray name="primitive_index" >
   <v type="int" >        1 </v>
   <v type="int" >        2 </v>
   <v type="int" >        3 </v>
   <v type="int" >        4 </v>
   <v type="int" >        5 </v>
   <v type="int" >        6 </v>
   <v type="int" >        7 </v>
   <v type="int" >        8 </v>
   <v type="int" >        9 </v>
   <v type="int" >       10 </v>
   <v type="int" >       11 </v>
   <v type="int" >       12 </v>
   <v type="int" >       13 </v>
   <v type="int" >       14 </v>
  </varray>
 </primitive_cell>
 <kpoints>
  <generation param="Monkhorst-Pack">
   <v type="int" name="divisions">      16       23       15 </v>
   <v name="usershift">      0.00000000       0.00000000       0.00000000 </v>
   <v name="genvec1">      0.06250000       0.00000000       0.00000000 </v>
   <v name="genvec2">      0.00000000       0.04347826       0.00000000 </v>
   <v name="genvec3">      0.00000000       0.00000000       0.06666667 </v>
   <v name="shift">      0.50000000       0.00000000       0.00000000 </v>
  </generation>
  <varray name="kpointlist" >
   <v>       0.03125000       0.00000000       0.00000000 </v>
   <v>       0.09375000       0.00000000       0.00000000 </v>
   <v>       0.15625000       0.00000000       0.00000000 </v>
   <v>       0.21875000       0.00000000       0.00000000 </v>
   <v>       0.28125000       0.00000000       0.00000000 </v>
   <v>       0.34375000       0.00000000       0.00000000 </v>
   <v>       0.40625000       0.00000000       0.00000000 </v>
   <v>       0.46875000       0.00000000       0.00000000 </v>
   <v>       0.03125000       0.04347826       0.00000000 </v>
   <v>       0.09375000       0.04347826       0.00000000 </v>
   <v>       0.15625000       0.04347826       0.00000000 </v>
   <v>       0.21875000       0.04347826       0.00000000 </v>
   <v>       0.28125000       0.04347826       0.00000000 </v>
   <v>       0.34375000       0.04347826       0.00000000 </v>
   <v>       0.40625000       0.04347826       0.00000000 </v>
   <v>       0.46875000       0.04347826       0.00000000 </v>
   <v>       0.03125000       0.08695652       0.00000000 </v>
   <v>       0.09375000       0.08695652       0.00000000 </v>
   <v>       0.15625000       0.08695652       0.00000000 </v>
   <v>       0.21875000       0.08695652       0.00000000 </v>
   <v>       0.28125000       0.08695652       0.00000000 </v>
   <v>       0.34375000       0.08695652       0.00000000 </v>
   <v>       0.40625000       0.08695652       0.00000000 </v>
   <v>       0.46875000       0.08695652       0.00000000 </v>
   <v>       0.03125000       0.13043478       0.00000000 </v>
   <v>       0.09375000       0.13043478       0.00000000 </v>
   <v>       0.15625000       0.13043478       0.00000000 </v>
   <v>       0.21875000       0.13043478       0.00000000 </v>
   <v>       0.28125000       0.13043478       0.00000000 </v>
   <v>       0.34375000       0.13043478       0.00000000 </v>
   <v>       0.40625000       0.13043478       0.00000000 </v>
   <v>       0.46875000       0.13043478       0.00000000 </v>
   <v>       0.03125000       0.17391304       0.00000000 </v>
   <v>       0.09375000       0.17391304       0.00000000 </v>
   <v>       0.15625000       0.17391304       0.00000000 </v>
   <v>       0.21875000       0.17391304       0.00000000 </v>
   <v>       0.28125000       0.17391304       0.00000000 </v>
   <v>       0.34375000       0.17391304       0.00000000 </v>
   <v>       0.40625000       0.17391304       0.00000000 </v>
   <v>       0.46875000       0.17391304       0.00000000 </v>
   <v>       0.03125000       0.21739130       0.00000000 </v>
   <v>       0.09375000       0.21739130       0.00000000 </v>
   <v>       0.15625000       0.21739130       0.00000000 </v>
   <v>       0.21875000       0.21739130       0.00000000 </v>
   <v>       0.28125000       0.21739130       0.00000000 </v>
   <v>       0.34375000       0.21739130       0.00000000 </v>
   <v>       0.40625000       0.21739130       0.00000000 </v>
   <v>       0.46875000       0.21739130       0.00000000 </v>
   <v>       0.03125000       0.26086957       0.00000000 </v>
   <v>       0.09375000       0.26086957       0.00000000 </v>
   <v>       0.15625000       0.26086957       0.00000000 </v>
   <v>       0.21875000       0.26086957       0.00000000 </v>
   <v>       0.28125000       0.26086957       0.00000000 </v>
   <v>       0.34375000       0.26086957       0.00000000 </v>
   <v>       0.40625000       0.26086957       0.00000000 </v>
   <v>       0.46875000       0.26086957       0.00000000 </v>
   <v>       0.03125000       0.30434783       0.00000000 </v>
   <v>       0.09375000       0.30434783       0.00000000 </v>
   <v>       0.15625000       0.30434783       0.00000000 </v>
   <v>       0.21875000       0.30434783       0.00000000 </v>
   <v>       0.28125000       0.30434783       0.00000000 </v>
   <v>       0.34375000       0.30434783       0.00000000 </v>
   <v>       0.40625000       0.30434783       0.00000000 </v>
   <v>       0.46875000       0.30434783       0.00000000 </v>
   <v>       0.03125000       0.34782609       0.00000000 </v>
   <v>       0.09375000       0.34782609       0.00000000 </v>
   <v>       0.15625000       0.34782609       0.00000000 </v>
   <v>       0.21875000       0.34782609       0.00000000 </v>
   <v>       0.28125000       0.34782609       0.00000000 </v>
   <v>       0.34375000       0.34782609       0.00000000 </v>
   <v>       0.40625000       0.34782609       0.00000000 </v>
   <v>       0.46875000       0.34782609       0.00000000 </v>
   <v>       0.03125000       0.39130435       0.00000000 </v>
   <v>       0.09375000       0.39130435       0.00000000 </v>
   <v>       0.15625000       0.39130435       0.00000000 </v>
   <v>       0.21875000       0.39130435       0.00000000 </v>
   <v>       0.28125000       0.39130435       0.00000000 </v>
   <v>       0.34375000       0.39130435       0.00000000 </v>
   <v>       0.40625000       0.39130435       0.00000000 </v>
   <v>       0.46875000       0.39130435       0.00000000 </v>
   <v>       0.03125000       0.43478261       0.00000000 </v>
   <v>       0.09375000       0.43478261       0.00000000 </v>
   <v>       0.15625000       0.43478261       0.00000000 </v>
   <v>       0.21875000       0.43478261       0.00000000 </v>
   <v>       0.28125000       0.43478261       0.00000000 </v>
   <v>       0.34375000       0.43478261       0.00000000 </v>
   <v>       0.40625000       0.43478261       0.00000000 </v>
   <v>       0.46875000       0.43478261       0.00000000 </v>
   <v>       0.03125000       0.47826087       0.00000000 </v>
   <v>       0.09375000       0.47826087       0.00000000 </v>
   <v>       0.15625000       0.47826087       0.00000000 </v>
   <v>       0.21875000       0.47826087       0.00000000 </v>
   <v>       0.28125000       0.47826087       0.00000000 </v>
   <v>       0.34375000       0.47826087       0.00000000 </v>
   <v>       0.40625000       0.47826087       0.00000000 </v>
   <v>       0.46875000       0.47826087       0.00000000 </v>
   <v>       0.03125000       0.00000000       0.06666667 </v>
   <v>       0.09375000       0.00000000       0.06666667 </v>
   <v>       0.15625000       0.00000000       0.06666667 </v>
   <v>       0.21875000       0.00000000       0.06666667 </v>
   <v>       0.28125000       0.00000000       0.06666667 </v>
   <v>       0.34375000       0.00000000       0.06666667 </v>
   <v>       0.40625000       0.00000000       0.06666667 </v>
   <v>       0.46875000       0.00000000       0.06666667 </v>
   <v>       0.03125000       0.04347826       0.06666667 </v>
   <v>       0.09375000       0.04347826       0.06666667 </v>
   <v>       0.15625000       0.04347826       0.06666667 </v>
   <v>       0.21875000       0.04347826       0.06666667 </v>
   <v>       0.28125000       0.04347826       0.06666667 </v>
   <v>       0.34375000       0.04347826       0.06666667 </v>
   <v>       0.40625000       0.04347826       0.06666667 </v>
   <v>       0.46875000       0.04347826       0.06666667 </v>
   <v>       0.03125000       0.08695652       0.06666667 </v>
   <v>       0.09375000       0.08695652       0.06666667 </v>
   <v>       0.15625000       0.08695652       0.06666667 </v>
   <v>       0.21875000       0.08695652       0.06666667 </v>
   <v>       0.28125000       0.08695652       0.06666667 </v>
   <v>       0.34375000       0.08695652       0.06666667 </v>
   <v>       0.40625000       0.08695652       0.06666667 </v>
   <v>       0.46875000       0.08695652       0.06666667 </v>
   <v>       0.03125000       0.13043478       0.06666667 </v>
   <v>       0.09375000       0.13043478       0.06666667 </v>
   <v>       0.15625000       0.13043478       0.06666667 </v>
   <v>       0.21875000       0.13043478       0.06666667 </v>
   <v>       0.28125000       0.13043478       0.06666667 </v>
   <v>       0.34375000       0.13043478       0.06666667 </v>
   <v>       0.40625000       0.13043478       0.06666667 </v>
   <v>       0.46875000       0.13043478       0.06666667 </v>
   <v>       0.03125000       0.17391304       0.06666667 </v>
   <v>       0.09375000       0.17391304       0.06666667 </v>
   <v>       0.15625000       0.17391304       0.06666667 </v>
   <v>       0.21875000       0.17391304       0.06666667 </v>
   <v>       0.28125000       0.17391304       0.06666667 </v>
   <v>       0.34375000       0.17391304       0.06666667 </v>
   <v>       0.40625000       0.17391304       0.06666667 </v>
   <v>       0.46875000       0.17391304       0.06666667 </v>
   <v>       0.03125000       0.21739130       0.06666667 </v>
   <v>       0.09375000       0.21739130       0.06666667 </v>
   <v>       0.15625000       0.21739130       0.06666667 </v>
   <v>       0.21875000       0.21739130       0.06666667 </v>
   <v>       0.28125000       0.21739130       0.06666667 </v>
   <v>       0.34375000       0.21739130       0.06666667 </v>
   <v>       0.40625000       0.21739130       0.06666667 </v>
   <v>       0.46875000       0.21739130       0.06666667 </v>
   <v>       0.03125000       0.26086957       0.06666667 </v>
   <v>       0.09375000       0.26086957       0.06666667 </v>
   <v>       0.15625000       0.26086957       0.06666667 </v>
   <v>       0.21875000       0.26086957       0.06666667 </v>
   <v>       0.28125000       0.26086957       0.06666667 </v>
   <v>       0.34375000       0.26086957       0.06666667 </v>
   <v>       0.40625000       0.26086957       0.06666667 </v>
   <v>       0.46875000       0.26086957       0.06666667 </v>
   <v>       0.03125000       0.30434783       0.06666667 </v>
   <v>       0.09375000       0.30434783       0.06666667 </v>
   <v>       0.15625000       0.30434783       0.06666667 </v>
   <v>       0.21875000       0.30434783       0.06666667 </v>
   <v>       0.28125000       0.30434783       0.06666667 </v>
   <v>       0.34375000       0.30434783       0.06666667 </v>
   <v>       0.40625000       0.30434783       0.06666667 </v>
   <v>       0.46875000       0.30434783       0.06666667 </v>
   <v>       0.03125000       0.34782609       0.06666667 </v>
   <v>       0.09375000       0.34782609       0.06666667 </v>
   <v>       0.15625000       0.34782609       0.06666667 </v>
   <v>       0.21875000       0.34782609       0.06666667 </v>
   <v>       0.28125000       0.34782609       0.06666667 </v>
   <v>       0.34375000       0.34782609       0.06666667 </v>
   <v>       0.40625000       0.34782609       0.06666667 </v>
   <v>       0.46875000       0.34782609       0.06666667 </v>
   <v>       0.03125000       0.39130435       0.06666667 </v>
   <v>       0.09375000       0.39130435       0.06666667 </v>
   <v>       0.15625000       0.39130435       0.06666667 </v>
   <v>       0.21875000       0.39130435       0.06666667 </v>
   <v>       0.28125000       0.39130435       0.06666667 </v>
   <v>       0.34375000       0.39130435       0.06666667 </v>
   <v>       0.40625000       0.39130435       0.06666667 </v>
   <v>       0.46875000       0.39130435       0.06666667 </v>
   <v>       0.03125000       0.43478261       0.06666667 </v>
   <v>       0.09375000       0.43478261       0.06666667 </v>
   <v>       0.15625000       0.43478261       0.06666667 </v>
   <v>       0.21875000       0.43478261       0.06666667 </v>
   <v>       0.28125000       0.43478261       0.06666667 </v>
   <v>       0.34375000       0.43478261       0.06666667 </v>
   <v>       0.40625000       0.43478261       0.06666667 </v>
   <v>       0.46875000       0.43478261       0.06666667 </v>
   <v>       0.03125000       0.47826087       0.06666667 </v>
   <v>       0.09375000       0.47826087       0.06666667 </v>
   <v>       0.15625000       0.47826087       0.06666667 </v>
   <v>       0.21875000       0.47826087       0.06666667 </v>
   <v>       0.28125000       0.47826087       0.06666667 </v>
   <v>       0.34375000       0.47826087       0.06666667 </v>
   <v>       0.40625000       0.47826087       0.06666667 </v>
   <v>       0.46875000       0.47826087       0.06666667 </v>
   <v>       0.03125000       0.00000000       0.13333333 </v>
   <v>       0.09375000       0.00000000       0.13333333 </v>
   <v>       0.15625000       0.00000000       0.13333333 </v>
   <v>       0.21875000       0.00000000       0.13333333 </v>
   <v>       0.28125000       0.00000000       0.13333333 </v>
   <v>       0.34375000       0.00000000       0.13333333 </v>
   <v>       0.40625000       0.00000000       0.13333333 </v>
   <v>       0.46875000       0.00000000       0.13333333 </v>
   <v>       0.03125000       0.04347826       0.13333333 </v>
   <v>       0.09375000       0.04347826       0.13333333 </v>
   <v>       0.15625000       0.04347826       0.13333333 </v>
   <v>       0.21875000       0.04347826       0.13333333 </v>
   <v>       0.28125000       0.04347826       0.13333333 </v>
   <v>       0.34375000       0.04347826       0.13333333 </v>
   <v>       0.40625000       0.04347826       0.13333333 </v>
   <v>       0.46875000       0.04347826       0.13333333 </v>
   <v>       0.03125000       0.08695652       0.13333333 </v>
   <v>       0.09375000       0.08695652       0.13333333 </v>
   <v>       0.15625000       0.08695652       0.13333333 </v>
   <v>       0.21875000       0.08695652       0.13333333 </v>
   <v>       0.28125000       0.08695652       0.13333333 </v>
   <v>       0.34375000       0.08695652       0.13333333 </v>
   <v>       0.40625000       0.08695652       0.13333333 </v>
   <v>       0.46875000       0.08695652       0.13333333 </v>
   <v>       0.03125000       0.13043478       0.13333333 </v>
   <v>       0.09375000       0.13043478       0.13333333 </v>
   <v>       0.15625000       0.13043478       0.13333333 </v>
   <v>       0.21875000       0.13043478       0.13333333 </v>
   <v>       0.28125000       0.13043478       0.13333333 </v>
   <v>       0.34375000       0.13043478       0.13333333 </v>
   <v>       0.40625000       0.13043478       0.13333333 </v>
   <v>       0.46875000       0.13043478       0.13333333 </v>
   <v>       0.03125000       0.17391304       0.13333333 </v>
   <v>       0.09375000       0.17391304       0.13333333 </v>
   <v>       0.15625000       0.17391304       0.13333333 </v>
   <v>       0.21875000       0.17391304       0.13333333 </v>
   <v>       0.28125000       0.17391304       0.13333333 </v>
   <v>       0.34375000       0.17391304       0.13333333 </v>
   <v>       0.40625000       0.17391304       0.13333333 </v>
   <v>       0.46875000       0.17391304       0.13333333 </v>
   <v>       0.03125000       0.21739130       0.13333333 </v>
   <v>       0.09375000       0.21739130       0.13333333 </v>
   <v>       0.15625000       0.21739130       0.13333333 </v>
   <v>       0.21875000       0.21739130       0.13333333 </v>
   <v>       0.28125000       0.21739130       0.13333333 </v>
   <v>       0.34375000       0.21739130       0.13333333 </v>
   <v>       0.40625000       0.21739130       0.13333333 </v>
   <v>       0.46875000       0.21739130       0.13333333 </v>
   <v>       0.03125000       0.26086957       0.13333333 </v>
   <v>       0.09375000       0.26086957       0.13333333 </v>
   <v>       0.15625000       0.26086957       0.13333333 </v>
   <v>       0.21875000       0.26086957       0.13333333 </v>
   <v>       0.28125000       0.26086957       0.13333333 </v>
   <v>       0.34375000       0.26086957       0.13333333 </v>
   <v>       0.40625000       0.26086957       0.13333333 </v>
   <v>       0.46875000       0.26086957       0.13333333 </v>
   <v>       0.03125000       0.30434783       0.13333333 </v>
   <v>       0.09375000       0.30434783       0.13333333 </v>
   <v>       0.15625000       0.30434783       0.13333333 </v>
   <v>       0.21875000       0.30434783       0.13333333 </v>
   <v>       0.28125000       0.30434783       0.13333333 </v>
   <v>       0.34375000       0.30434783       0.13333333 </v>
   <v>       0.40625000       0.30434783       0.13333333 </v>
   <v>       0.46875000       0.30434783       0.13333333 </v>
   <v>       0.03125000       0.34782609       0.13333333 </v>
   <v>       0.09375000       0.34782609       0.13333333 </v>
   <v>       0.15625000       0.34782609       0.13333333 </v>
   <v>       0.21875000       0.34782609       0.13333333 </v>
   <v>       0.28125000       0.34782609       0.13333333 </v>
   <v>       0.34375000       0.34782609       0.13333333 </v>
   <v>       0.40625000       0.34782609       0.13333333 </v>
   <v>       0.46875000       0.34782609       0.13333333 </v>
   <v>       0.03125000       0.39130435       0.13333333 </v>
   <v>       0.09375000       0.39130435       0.13333333 </v>
   <v>       0.15625000       0.39130435       0.13333333 </v>
   <v>       0.21875000       0.39130435       0.13333333 </v>
   <v>       0.28125000       0.39130435       0.13333333 </v>
   <v>       0.34375000       0.39130435       0.13333333 </v>
   <v>       0.40625000       0.39130435       0.13333333 </v>
   <v>       0.46875000       0.39130435       0.13333333 </v>
   <v>       0.03125000       0.43478261       0.13333333 </v>
   <v>       0.09375000       0.43478261       0.13333333 </v>
   <v>       0.15625000       0.43478261       0.13333333 </v>
   <v>       0.21875000       0.43478261       0.13333333 </v>
   <v>       0.28125000       0.43478261       0.13333333 </v>
   <v>       0.34375000       0.43478261       0.13333333 </v>
   <v>       0.40625000       0.43478261       0.13333333 </v>
   <v>       0.46875000       0.43478261       0.13333333 </v>
   <v>       0.03125000       0.47826087       0.13333333 </v>
   <v>       0.09375000       0.47826087       0.13333333 </v>
   <v>       0.15625000       0.47826087       0.13333333 </v>
   <v>       0.21875000       0.47826087       0.13333333 </v>
   <v>       0.28125000       0.47826087       0.13333333 </v>
   <v>       0.34375000       0.47826087       0.13333333 </v>
   <v>       0.40625000       0.47826087       0.13333333 </v>
   <v>       0.46875000       0.47826087       0.13333333 </v>
   <v>       0.03125000       0.00000000       0.20000000 </v>
   <v>       0.09375000       0.00000000       0.20000000 </v>
   <v>       0.15625000       0.00000000       0.20000000 </v>
   <v>       0.21875000       0.00000000       0.20000000 </v>
   <v>       0.28125000       0.00000000       0.20000000 </v>
   <v>       0.34375000       0.00000000       0.20000000 </v>
   <v>       0.40625000       0.00000000       0.20000000 </v>
   <v>       0.46875000       0.00000000       0.20000000 </v>
   <v>       0.03125000       0.04347826       0.20000000 </v>
   <v>       0.09375000       0.04347826       0.20000000 </v>
   <v>       0.15625000       0.04347826       0.20000000 </v>
   <v>       0.21875000       0.04347826       0.20000000 </v>
   <v>       0.28125000       0.04347826       0.20000000 </v>
   <v>       0.34375000       0.04347826       0.20000000 </v>
   <v>       0.40625000       0.04347826       0.20000000 </v>
   <v>       0.46875000       0.04347826       0.20000000 </v>
   <v>       0.03125000       0.08695652       0.20000000 </v>
   <v>       0.09375000       0.08695652       0.20000000 </v>
   <v>       0.15625000       0.08695652       0.20000000 </v>
   <v>       0.21875000       0.08695652       0.20000000 </v>
   <v>       0.28125000       0.08695652       0.20000000 </v>
   <v>       0.34375000       0.08695652       0.20000000 </v>
   <v>       0.40625000       0.08695652       0.20000000 </v>
   <v>       0.46875000       0.08695652       0.20000000 </v>
   <v>       0.03125000       0.13043478       0.20000000 </v>
   <v>       0.09375000       0.13043478       0.20000000 </v>
   <v>       0.15625000       0.13043478       0.20000000 </v>
   <v>       0.21875000       0.13043478       0.20000000 </v>
   <v>       0.28125000       0.13043478       0.20000000 </v>
   <v>       0.34375000       0.13043478       0.20000000 </v>
   <v>       0.40625000       0.13043478       0.20000000 </v>
   <v>       0.46875000       0.13043478       0.20000000 </v>
   <v>       0.03125000       0.17391304       0.20000000 </v>
   <v>       0.09375000       0.17391304       0.20000000 </v>
   <v>       0.15625000       0.17391304       0.20000000 </v>
   <v>       0.21875000       0.17391304       0.20000000 </v>
   <v>       0.28125000       0.17391304       0.20000000 </v>
   <v>       0.34375000       0.17391304       0.20000000 </v>
   <v>       0.40625000       0.17391304       0.20000000 </v>
   <v>       0.46875000       0.17391304       0.20000000 </v>
   <v>       0.03125000       0.21739130       0.20000000 </v>
   <v>       0.09375000       0.21739130       0.20000000 </v>
   <v>       0.15625000       0.21739130       0.20000000 </v>
   <v>       0.21875000       0.21739130       0.20000000 </v>
   <v>       0.28125000       0.21739130       0.20000000 </v>
   <v>       0.34375000       0.21739130       0.20000000 </v>
   <v>       0.40625000       0.21739130       0.20000000 </v>
   <v>       0.46875000       0.21739130       0.20000000 </v>
   <v>       0.03125000       0.26086957       0.20000000 </v>
   <v>       0.09375000       0.26086957       0.20000000 </v>
   <v>       0.15625000       0.26086957       0.20000000 </v>
   <v>       0.21875000       0.26086957       0.20000000 </v>
   <v>       0.28125000       0.26086957       0.20000000 </v>
   <v>       0.34375000       0.26086957       0.20000000 </v>
   <v>       0.40625000       0.26086957       0.20000000 </v>
   <v>       0.46875000       0.26086957       0.20000000 </v>
   <v>       0.03125000       0.30434783       0.20000000 </v>
   <v>       0.09375000       0.30434783       0.20000000 </v>
   <v>       0.15625000       0.30434783       0.20000000 </v>
   <v>       0.21875000       0.30434783       0.20000000 </v>
   <v>       0.28125000       0.30434783       0.20000000 </v>
   <v>       0.34375000       0.30434783       0.20000000 </v>
   <v>       0.40625000       0.30434783       0.20000000 </v>
   <v>       0.46875000       0.30434783       0.20000000 </v>
   <v>       0.03125000       0.34782609       0.20000000 </v>
   <v>       0.09375000       0.34782609       0.20000000 </v>
   <v>       0.15625000       0.34782609       0.20000000 </v>
   <v>       0.21875000       0.34782609       0.20000000 </v>
   <v>       0.28125000       0.34782609       0.20000000 </v>
   <v>       0.34375000       0.34782609       0.20000000 </v>
   <v>       0.40625000       0.34782609       0.20000000 </v>
   <v>       0.46875000       0.34782609       0.20000000 </v>
   <v>       0.03125000       0.39130435       0.20000000 </v>
   <v>       0.09375000       0.39130435       0.20000000 </v>
   <v>       0.15625000       0.39130435       0.20000000 </v>
   <v>       0.21875000       0.39130435       0.20000000 </v>
   <v>       0.28125000       0.39130435       0.20000000 </v>
   <v>       0.34375000       0.39130435       0.20000000 </v>
   <v>       0.40625000       0.39130435       0.20000000 </v>
   <v>       0.46875000       0.39130435       0.20000000 </v>
   <v>       0.03125000       0.43478261       0.20000000 </v>
   <v>       0.09375000       0.43478261       0.20000000 </v>
   <v>       0.15625000       0.43478261       0.20000000 </v>
   <v>       0.21875000       0.43478261       0.20000000 </v>
   <v>       0.28125000       0.43478261       0.20000000 </v>
   <v>       0.34375000       0.43478261       0.20000000 </v>
   <v>       0.40625000       0.43478261       0.20000000 </v>
   <v>       0.46875000       0.43478261       0.20000000 </v>
   <v>       0.03125000       0.47826087       0.20000000 </v>
   <v>       0.09375000       0.47826087       0.20000000 </v>
   <v>       0.15625000       0.47826087       0.20000000 </v>
   <v>       0.21875000       0.47826087       0.20000000 </v>
   <v>       0.28125000       0.47826087       0.20000000 </v>
   <v>       0.34375000       0.47826087       0.20000000 </v>
   <v>       0.40625000       0.47826087       0.20000000 </v>
   <v>       0.46875000       0.47826087       0.20000000 </v>
   <v>       0.03125000       0.00000000       0.26666667 </v>
   <v>       0.09375000       0.00000000       0.26666667 </v>
   <v>       0.15625000       0.00000000       0.26666667 </v>
   <v>       0.21875000       0.00000000       0.26666667 </v>
   <v>       0.28125000       0.00000000       0.26666667 </v>
   <v>       0.34375000       0.00000000       0.26666667 </v>
   <v>       0.40625000       0.00000000       0.26666667 </v>
   <v>       0.46875000       0.00000000       0.26666667 </v>
   <v>       0.03125000       0.04347826       0.26666667 </v>
   <v>       0.09375000       0.04347826       0.26666667 </v>
   <v>       0.15625000       0.04347826       0.26666667 </v>
   <v>       0.21875000       0.04347826       0.26666667 </v>
   <v>       0.28125000       0.04347826       0.26666667 </v>
   <v>       0.34375000       0.04347826       0.26666667 </v>
   <v>       0.40625000       0.04347826       0.26666667 </v>
   <v>       0.46875000       0.04347826       0.26666667 </v>
   <v>       0.03125000       0.08695652       0.26666667 </v>
   <v>       0.09375000       0.08695652       0.26666667 </v>
   <v>       0.15625000       0.08695652       0.26666667 </v>
   <v>       0.21875000       0.08695652       0.26666667 </v>
   <v>       0.28125000       0.08695652       0.26666667 </v>
   <v>       0.34375000       0.08695652       0.26666667 </v>
   <v>       0.40625000       0.08695652       0.26666667 </v>
   <v>       0.46875000       0.08695652       0.26666667 </v>
   <v>       0.03125000       0.13043478       0.26666667 </v>
   <v>       0.09375000       0.13043478       0.26666667 </v>
   <v>       0.15625000       0.13043478       0.26666667 </v>
   <v>       0.21875000       0.13043478       0.26666667 </v>
   <v>       0.28125000       0.13043478       0.26666667 </v>
   <v>       0.34375000       0.13043478       0.26666667 </v>
   <v>       0.40625000       0.13043478       0.26666667 </v>
   <v>       0.46875000       0.13043478       0.26666667 </v>
   <v>       0.03125000       0.17391304       0.26666667 </v>
   <v>       0.09375000       0.17391304       0.26666667 </v>
   <v>       0.15625000       0.17391304       0.26666667 </v>
   <v>       0.21875000       0.17391304       0.26666667 </v>
   <v>       0.28125000       0.17391304       0.26666667 </v>
   <v>       0.34375000       0.17391304       0.26666667 </v>
   <v>       0.40625000       0.17391304       0.26666667 </v>
   <v>       0.46875000       0.17391304       0.26666667 </v>
   <v>       0.03125000       0.21739130       0.26666667 </v>
   <v>       0.09375000       0.21739130       0.26666667 </v>
   <v>       0.15625000       0.21739130       0.26666667 </v>
   <v>       0.21875000       0.21739130       0.26666667 </v>
   <v>       0.28125000       0.21739130       0.26666667 </v>
   <v>       0.34375000       0.21739130       0.26666667 </v>
   <v>       0.40625000       0.21739130       0.26666667 </v>
   <v>       0.46875000       0.21739130       0.26666667 </v>
   <v>       0.03125000       0.26086957       0.26666667 </v>
   <v>       0.09375000       0.26086957       0.26666667 </v>
   <v>       0.15625000       0.26086957       0.26666667 </v>
   <v>       0.21875000       0.26086957       0.26666667 </v>
   <v>       0.28125000       0.26086957       0.26666667 </v>
   <v>       0.34375000       0.26086957       0.26666667 </v>
   <v>       0.40625000       0.26086957       0.26666667 </v>
   <v>       0.46875000       0.26086957       0.26666667 </v>
   <v>       0.03125000       0.30434783       0.26666667 </v>
   <v>       0.09375000       0.30434783       0.26666667 </v>
   <v>       0.15625000       0.30434783       0.26666667 </v>
   <v>       0.21875000       0.30434783       0.26666667 </v>
   <v>       0.28125000       0.30434783       0.26666667 </v>
   <v>       0.34375000       0.30434783       0.26666667 </v>
   <v>       0.40625000       0.30434783       0.26666667 </v>
   <v>       0.46875000       0.30434783       0.26666667 </v>
   <v>       0.03125000       0.34782609       0.26666667 </v>
   <v>       0.09375000       0.34782609       0.26666667 </v>
   <v>       0.15625000       0.34782609       0.26666667 </v>
   <v>       0.21875000       0.34782609       0.26666667 </v>
   <v>       0.28125000       0.34782609       0.26666667 </v>
   <v>       0.34375000       0.34782609       0.26666667 </v>
   <v>       0.40625000       0.34782609       0.26666667 </v>
   <v>       0.46875000       0.34782609       0.26666667 </v>
   <v>       0.03125000       0.39130435       0.26666667 </v>
   <v>       0.09375000       0.39130435       0.26666667 </v>
   <v>       0.15625000       0.39130435       0.26666667 </v>
   <v>       0.21875000       0.39130435       0.26666667 </v>
   <v>       0.28125000       0.39130435       0.26666667 </v>
   <v>       0.34375000       0.39130435       0.26666667 </v>
   <v>       0.40625000       0.39130435       0.26666667 </v>
   <v>       0.46875000       0.39130435       0.26666667 </v>
   <v>       0.03125000       0.43478261       0.26666667 </v>
   <v>       0.09375000       0.43478261       0.26666667 </v>
   <v>       0.15625000       0.43478261       0.26666667 </v>
   <v>       0.21875000       0.43478261       0.26666667 </v>
   <v>       0.28125000       0.43478261       0.26666667 </v>
   <v>       0.34375000       0.43478261       0.26666667 </v>
   <v>       0.40625000       0.43478261       0.26666667 </v>
   <v>       0.46875000       0.43478261       0.26666667 </v>
   <v>       0.03125000       0.47826087       0.26666667 </v>
   <v>       0.09375000       0.47826087       0.26666667 </v>
   <v>       0.15625000       0.47826087       0.26666667 </v>
   <v>       0.21875000       0.47826087       0.26666667 </v>
   <v>       0.28125000       0.47826087       0.26666667 </v>
   <v>       0.34375000       0.47826087       0.26666667 </v>
   <v>       0.40625000       0.47826087       0.26666667 </v>
   <v>       0.46875000       0.47826087       0.26666667 </v>
   <v>       0.03125000       0.00000000       0.33333333 </v>
   <v>       0.09375000       0.00000000       0.33333333 </v>
   <v>       0.15625000       0.00000000       0.33333333 </v>
   <v>       0.21875000       0.00000000       0.33333333 </v>
   <v>       0.28125000       0.00000000       0.33333333 </v>
   <v>       0.34375000       0.00000000       0.33333333 </v>
   <v>       0.40625000       0.00000000       0.33333333 </v>
   <v>       0.46875000       0.00000000       0.33333333 </v>
   <v>       0.03125000       0.04347826       0.33333333 </v>
   <v>       0.09375000       0.04347826       0.33333333 </v>
   <v>       0.15625000       0.04347826       0.33333333 </v>
   <v>       0.21875000       0.04347826       0.33333333 </v>
   <v>       0.28125000       0.04347826       0.33333333 </v>
   <v>       0.34375000       0.04347826       0.33333333 </v>
   <v>       0.40625000       0.04347826       0.33333333 </v>
   <v>       0.46875000       0.04347826       0.33333333 </v>
   <v>       0.03125000       0.08695652       0.33333333 </v>
   <v>       0.09375000       0.08695652       0.33333333 </v>
   <v>       0.15625000       0.08695652       0.33333333 </v>
   <v>       0.21875000       0.08695652       0.33333333 </v>
   <v>       0.28125000       0.08695652       0.33333333 </v>
   <v>       0.34375000       0.08695652       0.33333333 </v>
   <v>       0.40625000       0.08695652       0.33333333 </v>
   <v>       0.46875000       0.08695652       0.33333333 </v>
   <v>       0.03125000       0.13043478       0.33333333 </v>
   <v>       0.09375000       0.13043478       0.33333333 </v>
   <v>       0.15625000       0.13043478       0.33333333 </v>
   <v>       0.21875000       0.13043478       0.33333333 </v>
   <v>       0.28125000       0.13043478       0.33333333 </v>
   <v>       0.34375000       0.13043478       0.33333333 </v>
   <v>       0.40625000       0.13043478       0.33333333 </v>
   <v>       0.46875000       0.13043478       0.33333333 </v>
   <v>       0.03125000       0.17391304       0.33333333 </v>
   <v>       0.09375000       0.17391304       0.33333333 </v>
   <v>       0.15625000       0.17391304       0.33333333 </v>
   <v>       0.21875000       0.17391304       0.33333333 </v>
   <v>       0.28125000       0.17391304       0.33333333 </v>
   <v>       0.34375000       0.17391304       0.33333333 </v>
   <v>       0.40625000       0.17391304       0.33333333 </v>
   <v>       0.46875000       0.17391304       0.33333333 </v>
   <v>       0.03125000       0.21739130       0.33333333 </v>
   <v>       0.09375000       0.21739130       0.33333333 </v>
   <v>       0.15625000       0.21739130       0.33333333 </v>
   <v>       0.21875000       0.21739130       0.33333333 </v>
   <v>       0.28125000       0.21739130       0.33333333 </v>
   <v>       0.34375000       0.21739130       0.33333333 </v>
   <v>       0.40625000       0.21739130       0.33333333 </v>
   <v>       0.46875000       0.21739130       0.33333333 </v>
   <v>       0.03125000       0.26086957       0.33333333 </v>
   <v>       0.09375000       0.26086957       0.33333333 </v>
   <v>       0.15625000       0.26086957       0.33333333 </v>
   <v>       0.21875000       0.26086957       0.33333333 </v>
   <v>       0.28125000       0.26086957       0.33333333 </v>
   <v>       0.34375000       0.26086957       0.33333333 </v>
   <v>       0.40625000       0.26086957       0.33333333 </v>
   <v>       0.46875000       0.26086957       0.33333333 </v>
   <v>       0.03125000       0.30434783       0.33333333 </v>
   <v>       0.09375000       0.30434783       0.33333333 </v>
   <v>       0.15625000       0.30434783       0.33333333 </v>
   <v>       0.21875000       0.30434783       0.33333333 </v>
   <v>       0.28125000       0.30434783       0.33333333 </v>
   <v>       0.34375000       0.30434783       0.33333333 </v>
   <v>       0.40625000       0.30434783       0.33333333 </v>
   <v>       0.46875000       0.30434783       0.33333333 </v>
   <v>       0.03125000       0.34782609       0.33333333 </v>
   <v>       0.09375000       0.34782609       0.33333333 </v>
   <v>       0.15625000       0.34782609       0.33333333 </v>
   <v>       0.21875000       0.34782609       0.33333333 </v>
   <v>       0.28125000       0.34782609       0.33333333 </v>
   <v>       0.34375000       0.34782609       0.33333333 </v>
   <v>       0.40625000       0.34782609       0.33333333 </v>
   <v>       0.46875000       0.34782609       0.33333333 </v>
   <v>       0.03125000       0.39130435       0.33333333 </v>
   <v>       0.09375000       0.39130435       0.33333333 </v>
   <v>       0.15625000       0.39130435       0.33333333 </v>
   <v>       0.21875000       0.39130435       0.33333333 </v>
   <v>       0.28125000       0.39130435       0.33333333 </v>
   <v>       0.34375000       0.39130435       0.33333333 </v>
   <v>       0.40625000       0.39130435       0.33333333 </v>
   <v>       0.46875000       0.39130435       0.33333333 </v>
   <v>       0.03125000       0.43478261       0.33333333 </v>
   <v>       0.09375000       0.43478261       0.33333333 </v>
   <v>       0.15625000       0.43478261       0.33333333 </v>
   <v>       0.21875000       0.43478261       0.33333333 </v>
   <v>       0.28125000       0.43478261       0.33333333 </v>
   <v>       0.34375000       0.43478261       0.33333333 </v>
   <v>       0.40625000       0.43478261       0.33333333 </v>
   <v>       0.46875000       0.43478261       0.33333333 </v>
   <v>       0.03125000       0.47826087       0.33333333 </v>
   <v>       0.09375000       0.47826087       0.33333333 </v>
   <v>       0.15625000       0.47826087       0.33333333 </v>
   <v>       0.21875000       0.47826087       0.33333333 </v>
   <v>       0.28125000       0.47826087       0.33333333 </v>
   <v>       0.34375000       0.47826087       0.33333333 </v>
   <v>       0.40625000       0.47826087       0.33333333 </v>
   <v>       0.46875000       0.47826087       0.33333333 </v>
   <v>       0.03125000       0.00000000       0.40000000 </v>
   <v>       0.09375000       0.00000000       0.40000000 </v>
   <v>       0.15625000       0.00000000       0.40000000 </v>
   <v>       0.21875000       0.00000000       0.40000000 </v>
   <v>       0.28125000       0.00000000       0.40000000 </v>
   <v>       0.34375000       0.00000000       0.40000000 </v>
   <v>       0.40625000       0.00000000       0.40000000 </v>
   <v>       0.46875000       0.00000000       0.40000000 </v>
   <v>       0.03125000       0.04347826       0.40000000 </v>
   <v>       0.09375000       0.04347826       0.40000000 </v>
   <v>       0.15625000       0.04347826       0.40000000 </v>
   <v>       0.21875000       0.04347826       0.40000000 </v>
   <v>       0.28125000       0.04347826       0.40000000 </v>
   <v>       0.34375000       0.04347826       0.40000000 </v>
   <v>       0.40625000       0.04347826       0.40000000 </v>
   <v>       0.46875000       0.04347826       0.40000000 </v>
   <v>       0.03125000       0.08695652       0.40000000 </v>
   <v>       0.09375000       0.08695652       0.40000000 </v>
   <v>       0.15625000       0.08695652       0.40000000 </v>
   <v>       0.21875000       0.08695652       0.40000000 </v>
   <v>       0.28125000       0.08695652       0.40000000 </v>
   <v>       0.34375000       0.08695652       0.40000000 </v>
   <v>       0.40625000       0.08695652       0.40000000 </v>
   <v>       0.46875000       0.08695652       0.40000000 </v>
   <v>       0.03125000       0.13043478       0.40000000 </v>
   <v>       0.09375000       0.13043478       0.40000000 </v>
   <v>       0.15625000       0.13043478       0.40000000 </v>
   <v>       0.21875000       0.13043478       0.40000000 </v>
   <v>       0.28125000       0.13043478       0.40000000 </v>
   <v>       0.34375000       0.13043478       0.40000000 </v>
   <v>       0.40625000       0.13043478       0.40000000 </v>
   <v>       0.46875000       0.13043478       0.40000000 </v>
   <v>       0.03125000       0.17391304       0.40000000 </v>
   <v>       0.09375000       0.17391304       0.40000000 </v>
   <v>       0.15625000       0.17391304       0.40000000 </v>
   <v>       0.21875000       0.17391304       0.40000000 </v>
   <v>       0.28125000       0.17391304       0.40000000 </v>
   <v>       0.34375000       0.17391304       0.40000000 </v>
   <v>       0.40625000       0.17391304       0.40000000 </v>
   <v>       0.46875000       0.17391304       0.40000000 </v>
   <v>       0.03125000       0.21739130       0.40000000 </v>
   <v>       0.09375000       0.21739130       0.40000000 </v>
   <v>       0.15625000       0.21739130       0.40000000 </v>
   <v>       0.21875000       0.21739130       0.40000000 </v>
   <v>       0.28125000       0.21739130       0.40000000 </v>
   <v>       0.34375000       0.21739130       0.40000000 </v>
   <v>       0.40625000       0.21739130       0.40000000 </v>
   <v>       0.46875000       0.21739130       0.40000000 </v>
   <v>       0.03125000       0.26086957       0.40000000 </v>
   <v>       0.09375000       0.26086957       0.40000000 </v>
   <v>       0.15625000       0.26086957       0.40000000 </v>
   <v>       0.21875000       0.26086957       0.40000000 </v>
   <v>       0.28125000       0.26086957       0.40000000 </v>
   <v>       0.34375000       0.26086957       0.40000000 </v>
   <v>       0.40625000       0.26086957       0.40000000 </v>
   <v>       0.46875000       0.26086957       0.40000000 </v>
   <v>       0.03125000       0.30434783       0.40000000 </v>
   <v>       0.09375000       0.30434783       0.40000000 </v>
   <v>       0.15625000       0.30434783       0.40000000 </v>
   <v>       0.21875000       0.30434783       0.40000000 </v>
   <v>       0.28125000       0.30434783       0.40000000 </v>
   <v>       0.34375000       0.30434783       0.40000000 </v>
   <v>       0.40625000       0.30434783       0.40000000 </v>
   <v>       0.46875000       0.30434783       0.40000000 </v>
   <v>       0.03125000       0.34782609       0.40000000 </v>
   <v>       0.09375000       0.34782609       0.40000000 </v>
   <v>       0.15625000       0.34782609       0.40000000 </v>
   <v>       0.21875000       0.34782609       0.40000000 </v>
   <v>       0.28125000       0.34782609       0.40000000 </v>
   <v>       0.34375000       0.34782609       0.40000000 </v>
   <v>       0.40625000       0.34782609       0.40000000 </v>
   <v>       0.46875000       0.34782609       0.40000000 </v>
   <v>       0.03125000       0.39130435       0.40000000 </v>
   <v>       0.09375000       0.39130435       0.40000000 </v>
   <v>       0.15625000       0.39130435       0.40000000 </v>
   <v>       0.21875000       0.39130435       0.40000000 </v>
   <v>       0.28125000       0.39130435       0.40000000 </v>
   <v>       0.34375000       0.39130435       0.40000000 </v>
   <v>       0.40625000       0.39130435       0.40000000 </v>
   <v>       0.46875000       0.39130435       0.40000000 </v>
   <v>       0.03125000       0.43478261       0.40000000 </v>
   <v>       0.09375000       0.43478261       0.40000000 </v>
   <v>       0.15625000       0.43478261       0.40000000 </v>
   <v>       0.21875000       0.43478261       0.40000000 </v>
   <v>       0.28125000       0.43478261       0.40000000 </v>
   <v>       0.34375000       0.43478261       0.40000000 </v>
   <v>       0.40625000       0.43478261       0.40000000 </v>
   <v>       0.46875000       0.43478261       0.40000000 </v>
   <v>       0.03125000       0.47826087       0.40000000 </v>
   <v>       0.09375000       0.47826087       0.40000000 </v>
   <v>       0.15625000       0.47826087       0.40000000 </v>
   <v>       0.21875000       0.47826087       0.40000000 </v>
   <v>       0.28125000       0.47826087       0.40000000 </v>
   <v>       0.34375000       0.47826087       0.40000000 </v>
   <v>       0.40625000       0.47826087       0.40000000 </v>
   <v>       0.46875000       0.47826087       0.40000000 </v>
   <v>       0.03125000       0.00000000       0.46666667 </v>
   <v>       0.09375000       0.00000000       0.46666667 </v>
   <v>       0.15625000       0.00000000       0.46666667 </v>
   <v>       0.21875000       0.00000000       0.46666667 </v>
   <v>       0.28125000       0.00000000       0.46666667 </v>
   <v>       0.34375000       0.00000000       0.46666667 </v>
   <v>       0.40625000       0.00000000       0.46666667 </v>
   <v>       0.46875000       0.00000000       0.46666667 </v>
   <v>       0.03125000       0.04347826       0.46666667 </v>
   <v>       0.09375000       0.04347826       0.46666667 </v>
   <v>       0.15625000       0.04347826       0.46666667 </v>
   <v>       0.21875000       0.04347826       0.46666667 </v>
   <v>       0.28125000       0.04347826       0.46666667 </v>
   <v>       0.34375000       0.04347826       0.46666667 </v>
   <v>       0.40625000       0.04347826       0.46666667 </v>
   <v>       0.46875000       0.04347826       0.46666667 </v>
   <v>       0.03125000       0.08695652       0.46666667 </v>
   <v>       0.09375000       0.08695652       0.46666667 </v>
   <v>       0.15625000       0.08695652       0.46666667 </v>
   <v>       0.21875000       0.08695652       0.46666667 </v>
   <v>       0.28125000       0.08695652       0.46666667 </v>
   <v>       0.34375000       0.08695652       0.46666667 </v>
   <v>       0.40625000       0.08695652       0.46666667 </v>
   <v>       0.46875000       0.08695652       0.46666667 </v>
   <v>       0.03125000       0.13043478       0.46666667 </v>
   <v>       0.09375000       0.13043478       0.46666667 </v>
   <v>       0.15625000       0.13043478       0.46666667 </v>
   <v>       0.21875000       0.13043478       0.46666667 </v>
   <v>       0.28125000       0.13043478       0.46666667 </v>
   <v>       0.34375000       0.13043478       0.46666667 </v>
   <v>       0.40625000       0.13043478       0.46666667 </v>
   <v>       0.46875000       0.13043478       0.46666667 </v>
   <v>       0.03125000       0.17391304       0.46666667 </v>
   <v>       0.09375000       0.17391304       0.46666667 </v>
   <v>       0.15625000       0.17391304       0.46666667 </v>
   <v>       0.21875000       0.17391304       0.46666667 </v>
   <v>       0.28125000       0.17391304       0.46666667 </v>
   <v>       0.34375000       0.17391304       0.46666667 </v>
   <v>       0.40625000       0.17391304       0.46666667 </v>
   <v>       0.46875000       0.17391304       0.46666667 </v>
   <v>       0.03125000       0.21739130       0.46666667 </v>
   <v>       0.09375000       0.21739130       0.46666667 </v>
   <v>       0.15625000       0.21739130       0.46666667 </v>
   <v>       0.21875000       0.21739130       0.46666667 </v>
   <v>       0.28125000       0.21739130       0.46666667 </v>
   <v>       0.34375000       0.21739130       0.46666667 </v>
   <v>       0.40625000       0.21739130       0.46666667 </v>
   <v>       0.46875000       0.21739130       0.46666667 </v>
   <v>       0.03125000       0.26086957       0.46666667 </v>
   <v>       0.09375000       0.26086957       0.46666667 </v>
   <v>       0.15625000       0.26086957       0.46666667 </v>
   <v>       0.21875000       0.26086957       0.46666667 </v>
   <v>       0.28125000       0.26086957       0.46666667 </v>
   <v>       0.34375000       0.26086957       0.46666667 </v>
   <v>       0.40625000       0.26086957       0.46666667 </v>
   <v>       0.46875000       0.26086957       0.46666667 </v>
   <v>       0.03125000       0.30434783       0.46666667 </v>
   <v>       0.09375000       0.30434783       0.46666667 </v>
   <v>       0.15625000       0.30434783       0.46666667 </v>
   <v>       0.21875000       0.30434783       0.46666667 </v>
   <v>       0.28125000       0.30434783       0.46666667 </v>
   <v>       0.34375000       0.30434783       0.46666667 </v>
   <v>       0.40625000       0.30434783       0.46666667 </v>
   <v>       0.46875000       0.30434783       0.46666667 </v>
   <v>       0.03125000       0.34782609       0.46666667 </v>
   <v>       0.09375000       0.34782609       0.46666667 </v>
   <v>       0.15625000       0.34782609       0.46666667 </v>
   <v>       0.21875000       0.34782609       0.46666667 </v>
   <v>       0.28125000       0.34782609       0.46666667 </v>
   <v>       0.34375000       0.34782609       0.46666667 </v>
   <v>       0.40625000       0.34782609       0.46666667 </v>
   <v>       0.46875000       0.34782609       0.46666667 </v>
   <v>       0.03125000       0.39130435       0.46666667 </v>
   <v>       0.09375000       0.39130435       0.46666667 </v>
   <v>       0.15625000       0.39130435       0.46666667 </v>
   <v>       0.21875000       0.39130435       0.46666667 </v>
   <v>       0.28125000       0.39130435       0.46666667 </v>
   <v>       0.34375000       0.39130435       0.46666667 </v>
   <v>       0.40625000       0.39130435       0.46666667 </v>
   <v>       0.46875000       0.39130435       0.46666667 </v>
   <v>       0.03125000       0.43478261       0.46666667 </v>
   <v>       0.09375000       0.43478261       0.46666667 </v>
   <v>       0.15625000       0.43478261       0.46666667 </v>
   <v>       0.21875000       0.43478261       0.46666667 </v>
   <v>       0.28125000       0.43478261       0.46666667 </v>
   <v>       0.34375000       0.43478261       0.46666667 </v>
   <v>       0.40625000       0.43478261       0.46666667 </v>
   <v>       0.46875000       0.43478261       0.46666667 </v>
   <v>       0.03125000       0.47826087       0.46666667 </v>
   <v>       0.09375000       0.47826087       0.46666667 </v>
   <v>       0.15625000       0.47826087       0.46666667 </v>
   <v>       0.21875000       0.47826087       0.46666667 </v>
   <v>       0.28125000       0.47826087       0.46666667 </v>
   <v>       0.34375000       0.47826087       0.46666667 </v>
   <v>       0.40625000       0.47826087       0.46666667 </v>
   <v>       0.46875000       0.47826087       0.46666667 </v>
  </varray>
  <varray name="weights" >
   <v>       0.00036232 </v>
   <v>       0.00036232 </v>
   <v>       0.00036232 </v>
   <v>       0.00036232 </v>
   <v>       0.00036232 </v>
   <v>       0.00036232 </v>
   <v>       0.00036232 </v>
   <v>       0.00036232 </v>
   <v>       0.00072464 </v>
   <v>       0.00072464 </v>
   <v>       0.00072464 </v>
   <v>       0.00072464 </v>
   <v>       0.00072464 </v>
   <v>       0.00072464 </v>
   <v>       0.00072464 </v>
   <v>       0.00072464 </v>
   <v>       0.00072464 </v>
   <v>       0.00072464 </v>
   <v>       0.00072464 </v>
   <v>       0.00072464 </v>
   <v>       0.00072464 </v>
   <v>       0.00072464 </v>
   <v>       0.00072464 </v>
   <v>       0.00072464 </v>
   <v>       0.00072464 </v>
   <v>       0.00072464 </v>
   <v>       0.00072464 </v>
   <v>       0.00072464 </v>
   <v>       0.00072464 </v>
   <v>       0.00072464 </v>
   <v>       0.00072464 </v>
   <v>       0.00072464 </v>
   <v>       0.00072464 </v>
   <v>       0.00072464 </v>
   <v>       0.00072464 </v>
   <v>       0.00072464 </v>
   <v>       0.00072464 </v>
   <v>       0.00072464 </v>
   <v>       0.00072464 </v>
   <v>       0.00072464 </v>
   <v>       0.00072464 </v>
   <v>       0.00072464 </v>
   <v>       0.00072464 </v>
   <v>       0.00072464 </v>
   <v>       0.00072464 </v>
   <v>       0.00072464 </v>
   <v>       0.00072464 </v>
   <v>       0.00072464 </v>
   <v>       0.00072464 </v>
   <v>       0.00072464 </v>
   <v>       0.00072464 </v>
   <v>       0.00072464 </v>
   <v>       0.00072464 </v>
   <v>       0.00072464 </v>
   <v>       0.00072464 </v>
   <v>       0.00072464 </v>
   <v>       0.00072464 </v>
   <v>       0.00072464 </v>
   <v>       0.00072464 </v>
   <v>       0.00072464 </v>
   <v>       0.00072464 </v>
   <v>       0.00072464 </v>
   <v>       0.00072464 </v>
   <v>       0.00072464 </v>
   <v>       0.00072464 </v>
   <v>       0.00072464 </v>
   <v>       0.00072464 </v>
   <v>       0.00072464 </v>
   <v>       0.00072464 </v>
   <v>       0.00072464 </v>
   <v>       0.00072464 </v>
   <v>       0.00072464 </v>
   <v>       0.00072464 </v>
   <v>       0.00072464 </v>
   <v>       0.00072464 </v>
   <v>       0.00072464 </v>
   <v>       0.00072464 </v>
   <v>       0.00072464 </v>
   <v>       0.00072464 </v>
   <v>       0.00072464 </v>
   <v>       0.00072464 </v>
   <v>       0.00072464 </v>
   <v>       0.00072464 </v>
   <v>       0.00072464 </v>
   <v>       0.00072464 </v>
   <v>       0.00072464 </v>
   <v>       0.00072464 </v>
   <v>       0.00072464 </v>
   <v>       0.00072464 </v>
   <v>       0.00072464 </v>
   <v>       0.00072464 </v>
   <v>       0.00072464 </v>
   <v>       0.00072464 </v>
   <v>       0.00072464 </v>
   <v>       0.00072464 </v>
   <v>       0.00072464 </v>
   <v>       0.00072464 </v>
   <v>       0.00072464 </v>
   <v>       0.00072464 </v>
   <v>       0.00072464 </v>
   <v>       0.00072464 </v>
   <v>       0.00072464 </v>
   <v>       0.00072464 </v>
   <v>       0.00072464 </v>
   <v>       0.00144928 </v>
   <v>       0.00144928 </v>
   <v>       0.00144928 </v>
   <v>       0.00144928 </v>
   <v>       0.00144928 </v>
   <v>       0.00144928 </v>
   <v>       0.00144928 </v>
   <v>       0.00144928 </v>
   <v>       0.00144928 </v>
   <v>       0.00144928 </v>
   <v>       0.00144928 </v>
   <v>       0.00144928 </v>
   <v>       0.00144928 </v>
   <v>       0.00144928 </v>
   <v>       0.00144928 </v>
   <v>       0.00144928 </v>
   <v>       0.00144928 </v>
   <v>       0.00144928 </v>
   <v>       0.00144928 </v>
   <v>       0.00144928 </v>
   <v>       0.00144928 </v>
   <v>       0.00144928 </v>
   <v>       0.00144928 </v>
   <v>       0.00144928 </v>
   <v>       0.00144928 </v>
   <v>       0.00144928 </v>
   <v>       0.00144928 </v>
   <v>       0.00144928 </v>
   <v>       0.00144928 </v>
   <v>       0.00144928 </v>
   <v>       0.00144928 </v>
   <v>       0.00144928 </v>
   <v>       0.00144928 </v>
   <v>       0.00144928 </v>
   <v>       0.00144928 </v>
   <v>       0.00144928 </v>
   <v>       0.00144928 </v>
   <v>       0.00144928 </v>
   <v>       0.00144928 </v>
   <v>       0.00144928 </v>
   <v>       0.00144928 </v>
   <v>       0.00144928 </v>
   <v>       0.00144928 </v>
   <v>       0.00144928 </v>
   <v>       0.00144928 </v>
   <v>       0.00144928 </v>
   <v>       0.00144928 </v>
   <v>       0.00144928 </v>
   <v>       0.00144928 </v>
   <v>       0.00144928 </v>
   <v>       0.00144928 </v>
   <v>       0.00144928 </v>
   <v>       0.00144928 </v>
   <v>       0.00144928 </v>
   <v>       0.00144928 </v>
   <v>       0.00144928 </v>
   <v>       0.00144928 </v>
   <v>       0.00144928 </v>
   <v>       0.00144928 </v>
   <v>       0.00144928 </v>
   <v>       0.00144928 </v>
   <v>       0.00144928 </v>
   <v>       0.00144928 </v>
   <v>       0.00144928 </v>
   <v>       0.00144928 </v>
   <v>       0.00144928 </v>
   <v>       0.00144928 </v>
   <v>       0.00144928 </v>
   <v>       0.00144928 </v>
   <v>       0.00144928 </v>
   <v>       0.00144928 </v>
   <v>       0.00144928 </v>
   <v>       0.00144928 </v>
   <v>       0.00144928 </v>
   <v>       0.00144928 </v>
   <v>       0.00144928 </v>
   <v>       0.00144928 </v>
   <v>       0.00144928 </v>
   <v>       0.00144928 </v>
   <v>       0.00144928 </v>
   <v>       0.00144928 </v>
   <v>       0.00144928 </v>
   <v>       0.00144928 </v>
   <v>       0.00144928 </v>
   <v>       0.00144928 </v>
   <v>       0.00144928 </v>
   <v>       0.00144928 </v>
   <v>       0.00144928 </v>
   <v>       0.00072464 </v>
   <v>       0.00072464 </v>
   <v>       0.00072464 </v>
   <v>       0.00072464 </v>
   <v>       0.00072464 </v>
   <v>       0.00072464 </v>
   <v>       0.00072464 </v>
   <v>       0.00072464 </v>
   <v>       0.00144928 </v>
   <v>       0.00144928 </v>
   <v>       0.00144928 </v>
   <v>       0.00144928 </v>
   <v>       0.00144928 </v>
   <v>       0.00144928 </v>
   <v>       0.00144928 </v>
   <v>       0.00144928 </v>
   <v>       0.00144928 </v>
   <v>       0.00144928 </v>
   <v>       0.00144928 </v>
   <v>       0.00144928 </v>
   <v>       0.00144928 </v>
   <v>       0.00144928 </v>
   <v>       0.00144928 </v>
   <v>       0.00144928 </v>
   <v>       0.00144928 </v>
   <v>       0.00144928 </v>
   <v>       0.00144928 </v>
   <v>       0.00144928 </v>
   <v>       0.00144928 </v>
   <v>       0.00144928 </v>
   <v>       0.00144928 </v>
   <v>       0.00144928 </v>
   <v>       0.00144928 </v>
   <v>       0.00144928 </v>
   <v>       0.00144928 </v>
   <v>       0.00144928 </v>
   <v>       0.00144928 </v>
   <v>       0.00144928 </v>
   <v>       0.00144928 </v>
   <v>       0.00144928 </v>
   <v>       0.00144928 </v>
   <v>       0.00144928 </v>
   <v>       0.00144928 </v>
   <v>       0.00144928 </v>
   <v>       0.00144928 </v>
   <v>       0.00144928 </v>
   <v>       0.00144928 </v>
   <v>       0.00144928 </v>
   <v>       0.00144928 </v>
   <v>       0.00144928 </v>
   <v>       0.00144928 </v>
   <v>       0.00144928 </v>
   <v>       0.00144928 </v>
   <v>       0.00144928 </v>
   <v>       0.00144928 </v>
   <v>       0.00144928 </v>
   <v>       0.00144928 </v>
   <v>       0.00144928 </v>
   <v>       0.00144928 </v>
   <v>       0.00144928 </v>
   <v>       0.00144928 </v>
   <v>       0.00144928 </v>
   <v>       0.00144928 </v>
   <v>       0.00144928 </v>
   <v>       0.00144928 </v>
   <v>       0.00144928 </v>
   <v>       0.00144928 </v>
   <v>       0.00144928 </v>
   <v>       0.00144928 </v>
   <v>       0.00144928 </v>
   <v>       0.00144928 </v>
   <v>       0.00144928 </v>
   <v>       0.00144928 </v>
   <v>       0.00144928 </v>
   <v>       0.00144928 </v>
   <v>       0.00144928 </v>
   <v>       0.00144928 </v>
   <v>       0.00144928 </v>
   <v>       0.00144928 </v>
   <v>       0.00144928 </v>
   <v>       0.00144928 </v>
   <v>       0.00144928 </v>
   <v>       0.00144928 </v>
   <v>       0.00144928 </v>
   <v>       0.00144928 </v>
   <v>       0.00144928 </v>
   <v>       0.00144928 </v>
   <v>       0.00144928 </v>
   <v>       0.00144928 </v>
   <v>       0.00144928 </v>
   <v>       0.00144928 </v>
   <v>       0.00144928 </v>
   <v>       0.00144928 </v>
   <v>       0.00144928 </v>
   <v>       0.00144928 </v>
   <v>       0.00144928 </v>
   <v>       0.00072464 </v>
   <v>       0.00072464 </v>
   <v>       0.00072464 </v>
   <v>       0.00072464 </v>
   <v>       0.00072464 </v>
   <v>       0.00072464 </v>
   <v>       0.00072464 </v>
   <v>       0.00072464 </v>
   <v>       0.00144928 </v>
   <v>       0.00144928 </v>
   <v>       0.00144928 </v>
   <v>       0.00144928 </v>
   <v>       0.00144928 </v>
   <v>       0.00144928 </v>
   <v>       0.00144928 </v>
   <v>       0.00144928 </v>
   <v>       0.00144928 </v>
   <v>       0.00144928 </v>
   <v>       0.00144928 </v>
   <v>       0.00144928 </v>
   <v>       0.00144928 </v>
   <v>       0.00144928 </v>
   <v>       0.00144928 </v>
   <v>       0.00144928 </v>
   <v>       0.00144928 </v>
   <v>       0.00144928 </v>
   <v>       0.00144928 </v>
   <v>       0.00144928 </v>
   <v>       0.00144928 </v>
   <v>       0.00144928 </v>
   <v>       0.00144928 </v>
   <v>       0.00144928 </v>
   <v>       0.00144928 </v>
   <v>       0.00144928 </v>
   <v>       0.00144928 </v>
   <v>       0.00144928 </v>
   <v>       0.00144928 </v>
   <v>       0.00144928 </v>
   <v>       0.00144928 </v>
   <v>       0.00144928 </v>
   <v>       0.00144928 </v>
   <v>       0.00144928 </v>
   <v>       0.00144928 </v>
   <v>       0.00144928 </v>
   <v>       0.00144928 </v>
   <v>       0.00144928 </v>
   <v>       0.00144928 </v>
   <v>       0.00144928 </v>
   <v>       0.00144928 </v>
   <v>       0.00144928 </v>
   <v>       0.00144928 </v>
   <v>       0.00144928 </v>
   <v>       0.00144928 </v>
   <v>       0.00144928 </v>
   <v>       0.00144928 </v>
   <v>       0.00144928 </v>
   <v>       0.00144928 </v>
   <v>       0.00144928 </v>
   <v>       0.00144928 </v>
   <v>       0.00144928 </v>
   <v>       0.00144928 </v>
   <v>       0.00144928 </v>
   <v>       0.00144928 </v>
   <v>       0.00144928 </v>
   <v>       0.00144928 </v>
   <v>       0.00144928 </v>
   <v>       0.00144928 </v>
   <v>       0.00144928 </v>
   <v>       0.00144928 </v>
   <v>       0.00144928 </v>
   <v>       0.00144928 </v>
   <v>       0.00144928 </v>
   <v>       0.00144928 </v>
   <v>       0.00144928 </v>
   <v>       0.00144928 </v>
   <v>       0.00144928 </v>
   <v>       0.00144928 </v>
   <v>       0.00144928 </v>
   <v>       0.00144928 </v>
   <v>       0.00144928 </v>
   <v>       0.00144928 </v>
   <v>       0.00144928 </v>
   <v>       0.00144928 </v>
   <v>       0.00144928 </v>
   <v>       0.00144928 </v>
   <v>       0.00144928 </v>
   <v>       0.00144928 </v>
   <v>       0.00144928 </v>
   <v>       0.00144928 </v>
   <v>       0.00144928 </v>
   <v>       0.00144928 </v>
   <v>       0.00144928 </v>
   <v>       0.00144928 </v>
   <v>       0.00144928 </v>
   <v>       0.00144928 </v>
   <v>       0.00144928 </v>
   <v>       0.00072464 </v>
   <v>       0.00072464 </v>
   <v>       0.00072464 </v>
   <v>       0.00072464 </v>
   <v>       0.00072464 </v>
   <v>       0.00072464 </v>
   <v>       0.00072464 </v>
   <v>       0.00072464 </v>
   <v>       0.00144928 </v>
   <v>       0.00144928 </v>
   <v>       0.00144928 </v>
   <v>       0.00144928 </v>
   <v>       0.00144928 </v>
   <v>       0.00144928 </v>
   <v>       0.00144928 </v>
   <v>       0.00144928 </v>
   <v>       0.00144928 </v>
   <v>       0.00144928 </v>
   <v>       0.00144928 </v>
   <v>       0.00144928 </v>
   <v>       0.00144928 </v>
   <v>       0.00144928 </v>
   <v>       0.00144928 </v>
   <v>       0.00144928 </v>
   <v>       0.00144928 </v>
   <v>       0.00144928 </v>
   <v>       0.00144928 </v>
   <v>       0.00144928 </v>
   <v>       0.00144928 </v>
   <v>       0.00144928 </v>
   <v>       0.00144928 </v>
   <v>       0.00144928 </v>
   <v>       0.00144928 </v>
   <v>       0.00144928 </v>
   <v>       0.00144928 </v>
   <v>       0.00144928 </v>
   <v>       0.00144928 </v>
   <v>       0.00144928 </v>
   <v>       0.00144928 </v>
   <v>       0.00144928 </v>
   <v>       0.00144928 </v>
   <v>       0.00144928 </v>
   <v>       0.00144928 </v>
   <v>       0.00144928 </v>
   <v>       0.00144928 </v>
   <v>       0.00144928 </v>
   <v>       0.00144928 </v>
   <v>       0.00144928 </v>
   <v>       0.00144928 </v>
   <v>       0.00144928 </v>
   <v>       0.00144928 </v>
   <v>       0.00144928 </v>
   <v>       0.00144928 </v>
   <v>       0.00144928 </v>
   <v>       0.00144928 </v>
   <v>       0.00144928 </v>
   <v>       0.00144928 </v>
   <v>       0.00144928 </v>
   <v>       0.00144928 </v>
   <v>       0.00144928 </v>
   <v>       0.00144928 </v>
   <v>       0.00144928 </v>
   <v>       0.00144928 </v>
   <v>       0.00144928 </v>
   <v>       0.00144928 </v>
   <v>       0.00144928 </v>
   <v>       0.00144928 </v>
   <v>       0.00144928 </v>
   <v>       0.00144928 </v>
   <v>       0.00144928 </v>
   <v>       0.00144928 </v>
   <v>       0.00144928 </v>
   <v>       0.00144928 </v>
   <v>       0.00144928 </v>
   <v>       0.00144928 </v>
   <v>       0.00144928 </v>
   <v>       0.00144928 </v>
   <v>       0.00144928 </v>
   <v>       0.00144928 </v>
   <v>       0.00144928 </v>
   <v>       0.00144928 </v>
   <v>       0.00144928 </v>
   <v>       0.00144928 </v>
   <v>       0.00144928 </v>
   <v>       0.00144928 </v>
   <v>       0.00144928 </v>
   <v>       0.00144928 </v>
   <v>       0.00144928 </v>
   <v>       0.00144928 </v>
   <v>       0.00144928 </v>
   <v>       0.00144928 </v>
   <v>       0.00144928 </v>
   <v>       0.00144928 </v>
   <v>       0.00144928 </v>
   <v>       0.00144928 </v>
   <v>       0.00144928 </v>
   <v>       0.00072464 </v>
   <v>       0.00072464 </v>
   <v>       0.00072464 </v>
   <v>       0.00072464 </v>
   <v>       0.00072464 </v>
   <v>       0.00072464 </v>
   <v>       0.00072464 </v>
   <v>       0.00072464 </v>
   <v>       0.00144928 </v>
   <v>       0.00144928 </v>
   <v>       0.00144928 </v>
   <v>       0.00144928 </v>
   <v>       0.00144928 </v>
   <v>       0.00144928 </v>
   <v>       0.00144928 </v>
   <v>       0.00144928 </v>
   <v>       0.00144928 </v>
   <v>       0.00144928 </v>
   <v>       0.00144928 </v>
   <v>       0.00144928 </v>
   <v>       0.00144928 </v>
   <v>       0.00144928 </v>
   <v>       0.00144928 </v>
   <v>       0.00144928 </v>
   <v>       0.00144928 </v>
   <v>       0.00144928 </v>
   <v>       0.00144928 </v>
   <v>       0.00144928 </v>
   <v>       0.00144928 </v>
   <v>       0.00144928 </v>
   <v>       0.00144928 </v>
   <v>       0.00144928 </v>
   <v>       0.00144928 </v>
   <v>       0.00144928 </v>
   <v>       0.00144928 </v>
   <v>       0.00144928 </v>
   <v>       0.00144928 </v>
   <v>       0.00144928 </v>
   <v>       0.00144928 </v>
   <v>       0.00144928 </v>
   <v>       0.00144928 </v>
   <v>       0.00144928 </v>
   <v>       0.00144928 </v>
   <v>       0.00144928 </v>
   <v>       0.00144928 </v>
   <v>       0.00144928 </v>
   <v>       0.00144928 </v>
   <v>       0.00144928 </v>
   <v>       0.00144928 </v>
   <v>       0.00144928 </v>
   <v>       0.00144928 </v>
   <v>       0.00144928 </v>
   <v>       0.00144928 </v>
   <v>       0.00144928 </v>
   <v>       0.00144928 </v>
   <v>       0.00144928 </v>
   <v>       0.00144928 </v>
   <v>       0.00144928 </v>
   <v>       0.00144928 </v>
   <v>       0.00144928 </v>
   <v>       0.00144928 </v>
   <v>       0.00144928 </v>
   <v>       0.00144928 </v>
   <v>       0.00144928 </v>
   <v>       0.00144928 </v>
   <v>       0.00144928 </v>
   <v>       0.00144928 </v>
   <v>       0.00144928 </v>
   <v>       0.00144928 </v>
   <v>       0.00144928 </v>
   <v>       0.00144928 </v>
   <v>       0.00144928 </v>
   <v>       0.00144928 </v>
   <v>       0.00144928 </v>
   <v>       0.00144928 </v>
   <v>       0.00144928 </v>
   <v>       0.00144928 </v>
   <v>       0.00144928 </v>
   <v>       0.00144928 </v>
   <v>       0.00144928 </v>
   <v>       0.00144928 </v>
   <v>       0.00144928 </v>
   <v>       0.00144928 </v>
   <v>       0.00144928 </v>
   <v>       0.00144928 </v>
   <v>       0.00144928 </v>
   <v>       0.00144928 </v>
   <v>       0.00144928 </v>
   <v>       0.00144928 </v>
   <v>       0.00144928 </v>
   <v>       0.00144928 </v>
   <v>       0.00144928 </v>
   <v>       0.00144928 </v>
   <v>       0.00144928 </v>
   <v>       0.00144928 </v>
   <v>       0.00144928 </v>
   <v>       0.00072464 </v>
   <v>       0.00072464 </v>
   <v>       0.00072464 </v>
   <v>       0.00072464 </v>
   <v>       0.00072464 </v>
   <v>       0.00072464 </v>
   <v>       0.00072464 </v>
   <v>       0.00072464 </v>
   <v>       0.00144928 </v>
   <v>       0.00144928 </v>
   <v>       0.00144928 </v>
   <v>       0.00144928 </v>
   <v>       0.00144928 </v>
   <v>       0.00144928 </v>
   <v>       0.00144928 </v>
   <v>       0.00144928 </v>
   <v>       0.00144928 </v>
   <v>       0.00144928 </v>
   <v>       0.00144928 </v>
   <v>       0.00144928 </v>
   <v>       0.00144928 </v>
   <v>       0.00144928 </v>
   <v>       0.00144928 </v>
   <v>       0.00144928 </v>
   <v>       0.00144928 </v>
   <v>       0.00144928 </v>
   <v>       0.00144928 </v>
   <v>       0.00144928 </v>
   <v>       0.00144928 </v>
   <v>       0.00144928 </v>
   <v>       0.00144928 </v>
   <v>       0.00144928 </v>
   <v>       0.00144928 </v>
   <v>       0.00144928 </v>
   <v>       0.00144928 </v>
   <v>       0.00144928 </v>
   <v>       0.00144928 </v>
   <v>       0.00144928 </v>
   <v>       0.00144928 </v>
   <v>       0.00144928 </v>
   <v>       0.00144928 </v>
   <v>       0.00144928 </v>
   <v>       0.00144928 </v>
   <v>       0.00144928 </v>
   <v>       0.00144928 </v>
   <v>       0.00144928 </v>
   <v>       0.00144928 </v>
   <v>       0.00144928 </v>
   <v>       0.00144928 </v>
   <v>       0.00144928 </v>
   <v>       0.00144928 </v>
   <v>       0.00144928 </v>
   <v>       0.00144928 </v>
   <v>       0.00144928 </v>
   <v>       0.00144928 </v>
   <v>       0.00144928 </v>
   <v>       0.00144928 </v>
   <v>       0.00144928 </v>
   <v>       0.00144928 </v>
   <v>       0.00144928 </v>
   <v>       0.00144928 </v>
   <v>       0.00144928 </v>
   <v>       0.00144928 </v>
   <v>       0.00144928 </v>
   <v>       0.00144928 </v>
   <v>       0.00144928 </v>
   <v>       0.00144928 </v>
   <v>       0.00144928 </v>
   <v>       0.00144928 </v>
   <v>       0.00144928 </v>
   <v>       0.00144928 </v>
   <v>       0.00144928 </v>
   <v>       0.00144928 </v>
   <v>       0.00144928 </v>
   <v>       0.00144928 </v>
   <v>       0.00144928 </v>
   <v>       0.00144928 </v>
   <v>       0.00144928 </v>
   <v>       0.00144928 </v>
   <v>       0.00144928 </v>
   <v>       0.00144928 </v>
   <v>       0.00144928 </v>
   <v>       0.00144928 </v>
   <v>       0.00144928 </v>
   <v>       0.00144928 </v>
   <v>       0.00144928 </v>
   <v>       0.00144928 </v>
   <v>       0.00144928 </v>
   <v>       0.00144928 </v>
   <v>       0.00144928 </v>
   <v>       0.00144928 </v>
   <v>       0.00144928 </v>
   <v>       0.00144928 </v>
   <v>       0.00144928 </v>
   <v>       0.00144928 </v>
   <v>       0.00144928 </v>
   <v>       0.00072464 </v>
   <v>       0.00072464 </v>
   <v>       0.00072464 </v>
   <v>       0.00072464 </v>
   <v>       0.00072464 </v>
   <v>       0.00072464 </v>
   <v>       0.00072464 </v>
   <v>       0.00072464 </v>
   <v>       0.00144928 </v>
   <v>       0.00144928 </v>
   <v>       0.00144928 </v>
   <v>       0.00144928 </v>
   <v>       0.00144928 </v>
   <v>       0.00144928 </v>
   <v>       0.00144928 </v>
   <v>       0.00144928 </v>
   <v>       0.00144928 </v>
   <v>       0.00144928 </v>
   <v>       0.00144928 </v>
   <v>       0.00144928 </v>
   <v>       0.00144928 </v>
   <v>       0.00144928 </v>
   <v>       0.00144928 </v>
   <v>       0.00144928 </v>
   <v>       0.00144928 </v>
   <v>       0.00144928 </v>
   <v>       0.00144928 </v>
   <v>       0.00144928 </v>
   <v>       0.00144928 </v>
   <v>       0.00144928 </v>
   <v>       0.00144928 </v>
   <v>       0.00144928 </v>
   <v>       0.00144928 </v>
   <v>       0.00144928 </v>
   <v>       0.00144928 </v>
   <v>       0.00144928 </v>
   <v>       0.00144928 </v>
   <v>       0.00144928 </v>
   <v>       0.00144928 </v>
   <v>       0.00144928 </v>
   <v>       0.00144928 </v>
   <v>       0.00144928 </v>
   <v>       0.00144928 </v>
   <v>       0.00144928 </v>
   <v>       0.00144928 </v>
   <v>       0.00144928 </v>
   <v>       0.00144928 </v>
   <v>       0.00144928 </v>
   <v>       0.00144928 </v>
   <v>       0.00144928 </v>
   <v>       0.00144928 </v>
   <v>       0.00144928 </v>
   <v>       0.00144928 </v>
   <v>       0.00144928 </v>
   <v>       0.00144928 </v>
   <v>       0.00144928 </v>
   <v>       0.00144928 </v>
   <v>       0.00144928 </v>
   <v>       0.00144928 </v>
   <v>       0.00144928 </v>
   <v>       0.00144928 </v>
   <v>       0.00144928 </v>
   <v>       0.00144928 </v>
   <v>       0.00144928 </v>
   <v>       0.00144928 </v>
   <v>       0.00144928 </v>
   <v>       0.00144928 </v>
   <v>       0.00144928 </v>
   <v>       0.00144928 </v>
   <v>       0.00144928 </v>
   <v>       0.00144928 </v>
   <v>       0.00144928 </v>
   <v>       0.00144928 </v>
   <v>       0.00144928 </v>
   <v>       0.00144928 </v>
   <v>       0.00144928 </v>
   <v>       0.00144928 </v>
   <v>       0.00144928 </v>
   <v>       0.00144928 </v>
   <v>       0.00144928 </v>
   <v>       0.00144928 </v>
   <v>       0.00144928 </v>
   <v>       0.00144928 </v>
   <v>       0.00144928 </v>
   <v>       0.00144928 </v>
   <v>       0.00144928 </v>
   <v>       0.00144928 </v>
   <v>       0.00144928 </v>
   <v>       0.00144928 </v>
   <v>       0.00144928 </v>
   <v>       0.00144928 </v>
   <v>       0.00144928 </v>
   <v>       0.00144928 </v>
   <v>       0.00144928 </v>
   <v>       0.00144928 </v>
   <v>       0.00144928 </v>
  </varray>
 </kpoints>
 <parameters>
  <separator name="general" >
   <i type="string" name="SYSTEM">Kpoints</i>
   <i type="logical" name="LCOMPAT"> F  </i>
  </separator>
  <separator name="electronic" >
   <i type="string" name="PREC">accura</i>
   <i name="ENMAX">    450.00000000</i>
   <i name="ENAUG">    535.51400000</i>
   <i name="EDIFF">      0.00000100</i>
   <i type="int" name="IALGO">    38</i>
   <i type="int" name="IWAVPR">    10</i>
   <i type="int" name="NBANDS">    48</i>
   <i type="int" name="NBANDSLOW">    -1</i>
   <i type="int" name="NBANDSHIGH">    -1</i>
   <i name="NELECT">     42.00000000</i>
   <i type="int" name="TURBO">     0</i>
   <i type="int" name="IRESTART">     0</i>
   <i type="int" name="NREBOOT">     0</i>
   <i type="int" name="NMIN">     0</i>
   <i name="EREF">      0.00000000</i>
   <separator name="electronic smearing" >
    <i type="int" name="ISMEAR">     0</i>
    <i name="SIGMA">      0.05000000</i>
    <i name="KSPACING">      0.50000000</i>
    <i type="logical" name="KGAMMA"> T  </i>
    <i type="logical" name="KBLOWUP"> T  </i>
   </separator>
   <separator name="electronic projectors" >
    <i type="logical" name="LREAL"> F  </i>
    <v name="ROPT">      0.00000000</v>
    <i type="int" name="LMAXPAW">  -100</i>
    <i type="int" name="LMAXMIX">     2</i>
    <i type="logical" name="NLSPLINE"> F  </i>
   </separator>
   <separator name="electronic startup" >
    <i type="int" name="ISTART">     0</i>
    <i type="int" name="ICHARG">     2</i>
    <i type="int" name="INIWAV">     1</i>
   </separator>
   <separator name="electronic spin" >
    <i type="int" name="ISPIN">     1</i>
    <i type="logical" name="LNONCOLLINEAR"> F  </i>
    <v name="MAGMOM">      1.00000000      1.00000000      1.00000000      1.00000000      1.00000000      1.00000000      1.00000000      1.00000000      1.00000000      1.00000000      1.00000000      1.00000000      1.00000000      1.00000000</v>
    <i name="NUPDOWN">     -1.00000000</i>
    <i type="logical" name="LSORBIT"> F  </i>
    <v name="SAXIS">      0.00000000      0.00000000      1.00000000</v>
    <i type="logical" name="LSPIRAL"> F  </i>
    <v name="QSPIRAL">      0.00000000      0.00000000      0.00000000</v>
    <i type="logical" name="LZEROZ"> F  </i>
   </separator>
   <separator name="electronic exchange-correlation" >
    <i type="logical" name="LASPH"> F  </i>
   </separator>
   <separator name="electronic convergence" >
    <i type="int" name="NELM">   100</i>
    <i type="int" name="NELMDL">    -5</i>
    <i type="int" name="NELMIN">     2</i>
    <i name="ENINI">    450.00000000</i>
    <separator name="electronic convergence detail" >
     <i type="logical" name="LDIAG"> T  </i>
     <i type="logical" name="LSUBROT"> F  </i>
     <i name="WEIMIN">      0.00000000</i>
     <i name="EBREAK">      0.00000001</i>
     <i name="DEPER">      0.30000000</i>
     <i type="int" name="NRMM">     4</i>
     <i name="TIME">      0.40000000</i>
    </separator>
   </separator>
   <separator name="electronic mixer" >
    <i name="AMIX">      0.40000000</i>
    <i name="BMIX">      1.00000000</i>
    <i name="AMIN">      0.10000000</i>
    <i name="AMIX_MAG">      1.60000000</i>
    <i name="BMIX_MAG">      1.00000000</i>
    <separator name="electronic mixer details" >
     <i type="int" name="IMIX">     4</i>
     <i type="logical" name="MIXFIRST"> F  </i>
     <i type="int" name="MAXMIX">   -45</i>
     <i name="WC">    100.00000000</i>
     <i type="int" name="INIMIX">     1</i>
     <i type="int" name="MIXPRE">     1</i>
     <i type="int" name="MREMOVE">     5</i>
    </separator>
   </separator>
   <separator name="electronic dipolcorrection" >
    <i type="logical" name="LDIPOL"> F  </i>
    <i type="logical" name="LMONO"> F  </i>
    <i type="int" name="IDIPOL">     0</i>
    <i name="EPSILON">      1.00000000</i>
    <v name="DIPOL">   -100.00000000   -100.00000000   -100.00000000</v>
    <i name="EFIELD">      0.00000000</i>
    <i type="logical" name="LVACPOTAV"> F  </i>
   </separator>
  </separator>
  <separator name="grids" >
   <i type="int" name="NGX">    40</i>
   <i type="int" name="NGY">    28</i>
   <i type="int" name="NGZ">    48</i>
   <i type="int" name="NGXF">    80</i>
   <i type="int" name="NGYF">    56</i>
   <i type="int" name="NGZF">    96</i>
   <i type="logical" name="ADDGRID"> F  </i>
  </separator>
  <separator name="ionic" >
   <i type="int" name="NSW">     0</i>
   <i type="int" name="IBRION">    -1</i>
   <i type="int" name="MDALGO">     0</i>
   <i type="int" name="ISIF">     2</i>
   <i name="PSTRESS">      0.00000000</i>
   <i name="EDIFFG">     -0.00100000</i>
   <i type="int" name="NFREE">     0</i>
   <i name="POTIM">      0.50000000</i>
   <i name="SMASS">     -3.00000000</i>
   <i name="SCALEE">      1.00000000</i>
  </separator>
  <separator name="ionic md" >
   <i name="TEBEG">      0.00010000</i>
   <i name="TEEND">      0.00010000</i>
   <i type="int" name="NBLOCK">     1</i>
   <i type="int" name="KBLOCK">     1</i>
   <i type="int" name="NPACO">   256</i>
   <i name="APACO">     10.00000000</i>
  </separator>
  <separator name="symmetry" >
   <i type="int" name="ISYM">     2</i>
   <i name="SYMPREC">      0.00001000</i>
  </separator>
  <separator name="dos" >
   <i type="int" name="LORBIT">     0</i>
   <v name="RWIGS">     -1.00000000</v>
   <i type="int" name="NEDOS">   301</i>
[...]
       <r>   -2.2045    1.0000 </r>
       <r>   -2.1698    1.0000 </r>
       <r>   -2.1017    1.0000 </r>
       <r>   -1.6509    1.0000 </r>
       <r>   -0.4643    1.0000 </r>
       <r>   -0.0492    1.0000 </r>
       <r>    0.3335    1.0000 </r>
       <r>    0.4389    1.0000 </r>
       <r>    0.5288    1.0000 </r>
       <r>    1.1536    1.0000 </r>
       <r>    1.6432    1.0000 </r>
       <r>    1.8039    0.9955 </r>
       <r>    5.7215    0.0000 </r>
       <r>    6.1059    0.0000 </r>
       <r>    6.7005    0.0000 </r>
       <r>    7.3629    0.0000 </r>
       <r>    7.6218    0.0000 </r>
       <r>    7.8064    0.0000 </r>
       <r>    9.2595    0.0000 </r>
       <r>    9.5265    0.0000 </r>
       <r>    9.7412    0.0000 </r>
       <r>    9.9339    0.0000 </r>
       <r>   10.5192    0.0000 </r>
       <r>   10.9963    0.0000 </r>
       <r>   11.1183    0.0000 </r>
       <r>   11.4672    0.0000 </r>
       <r>   11.5418    0.0000 </r>
       <r>   11.7011    0.0000 </r>
       <r>   12.9884    0.0000 </r>
       <r>   13.2409    0.0000 </r>
       <r>   13.5081    0.0000 </r>
       <r>   14.0480    0.0000 </r>
       <r>   14.1806    0.0000 </r>
       <r>   14.3614    0.0000 </r>
       <r>   14.4262    0.0000 </r>
       <r>   14.8463    0.0000 </r>
       <r>   15.0572    0.0000 </r>
       <r>   15.2011    0.0000 </r>
      </set>
      <set comment="kpoint 768">
       <r>  -11.9919    1.0000 </r>
       <r>  -11.9051    1.0000 </r>
       <r>   -8.5340    1.0000 </r>
       <r>   -8.4636    1.0000 </r>
       <r>   -5.9114    1.0000 </r>
       <r>   -5.8463    1.0000 </r>
       <r>   -4.7331    1.0000 </r>
       <r>   -4.5529    1.0000 </r>
       <r>   -4.4083    1.0000 </r>
       <r>   -4.1487    1.0000 </r>
       <r>   -2.2089    1.0000 </r>
       <r>   -2.1746    1.0000 </r>
       <r>   -2.0101    1.0000 </r>
       <r>   -1.8335    1.0000 </r>
       <r>   -0.1476    1.0000 </r>
       <r>    0.0059    1.0000 </r>
       <r>    0.4342    1.0000 </r>
       <r>    0.4724    1.0000 </r>
       <r>    0.5703    1.0000 </r>
       <r>    0.7642    1.0000 </r>
       <r>    1.6651    1.0000 </r>
       <r>    1.7222    1.0000 </r>
       <r>    5.8952    0.0000 </r>
       <r>    6.0120    0.0000 </r>
       <r>    6.9543    0.0000 </r>
       <r>    7.3425    0.0000 </r>
       <r>    7.4451    0.0000 </r>
       <r>    7.5230    0.0000 </r>
       <r>    9.4882    0.0000 </r>
       <r>    9.6450    0.0000 </r>
       <r>    9.8550    0.0000 </r>
       <r>    9.9673    0.0000 </r>
       <r>   10.4854    0.0000 </r>
       <r>   10.7077    0.0000 </r>
       <r>   11.2721    0.0000 </r>
       <r>   11.4657    0.0000 </r>
       <r>   11.4933    0.0000 </r>
       <r>   11.5306    0.0000 </r>
       <r>   13.1217    0.0000 </r>
       <r>   13.1833    0.0000 </r>
       <r>   13.8725    0.0000 </r>
       <r>   14.1673    0.0000 </r>
       <r>   14.2404    0.0000 </r>
       <r>   14.2830    0.0000 </r>
       <r>   14.6701    0.0000 </r>
       <r>   14.7593    0.0000 </r>
       <r>   14.8428    0.0000 </r>
       <r>   14.9735    0.0000 </r>
      </set>
     </set>
    </set>
   </array>
  </eigenvalues>
  <separator name="orbital magnetization" >
   <v name="MAGDIPOLOUT">      0.00000000      0.00000000      0.00000000</v>
  </separator>
  <dos>
   <i name="efermi">      1.89636942 </i>
   <total>
    <array>
     <dimension dim="1">gridpoints</dimension>
     <dimension dim="2">spin</dimension>
     <field>energy</field>
     <field>total</field>
     <field>integrated</field>
     <set>
      <set comment="spin 1">
       <r>   -14.1944     0.0000     0.0000 </r>
       <r>   -14.0871     0.0000     0.0000 </r>
       <r>   -13.9798     0.0000     0.0000 </r>
       <r>   -13.8725     0.0000     0.0000 </r>
       <r>   -13.7652     0.0000     0.0000 </r>
       <r>   -13.6579     0.0000     0.0000 </r>
       <r>   -13.5505     0.0000     0.0000 </r>
       <r>   -13.4432     0.0000     0.0000 </r>
       <r>   -13.3359     0.0000     0.0000 </r>
       <r>   -13.2286     0.0000     0.0000 </r>
       <r>   -13.1213     0.0000     0.0000 </r>
       <r>   -13.0140     0.0000     0.0000 </r>
       <r>   -12.9066     0.0000     0.0000 </r>
       <r>   -12.7993     0.0023     0.0003 </r>
       <r>   -12.6920     0.4305     0.0465 </r>
       <r>   -12.5847     2.2832     0.2915 </r>
       <r>   -12.4774     3.5273     0.6700 </r>
       <r>   -12.3701     4.3445     1.1362 </r>
       <r>   -12.2627     3.5580     1.5181 </r>
       <r>   -12.1554     2.8652     1.8256 </r>
       <r>   -12.0481     2.6313     2.1079 </r>
       <r>   -11.9408     2.5856     2.3854 </r>
       <r>   -11.8335     2.7389     2.6793 </r>
       <r>   -11.7262     3.3210     3.0357 </r>
       <r>   -11.6188     3.6232     3.4246 </r>
       <r>   -11.5115     3.1369     3.7612 </r>
       <r>   -11.4042     1.7427     3.9482 </r>
       <r>   -11.2969     0.4724     3.9989 </r>
       <r>   -11.1896     0.0100     4.0000 </r>
       <r>   -11.0823     0.0000     4.0000 </r>
       <r>   -10.9749     0.0000     4.0000 </r>
       <r>   -10.8676     0.0000     4.0000 </r>
       <r>   -10.7603     0.0000     4.0000 </r>
       <r>   -10.6530     0.0000     4.0000 </r>
       <r>   -10.5457     0.0000     4.0000 </r>
       <r>   -10.4384     0.0000     4.0000 </r>
       <r>   -10.3310     0.0000     4.0000 </r>
       <r>   -10.2237     0.0000     4.0000 </r>
       <r>   -10.1164     0.0000     4.0000 </r>
       <r>   -10.0091     0.0000     4.0000 </r>
       <r>    -9.9018     0.0000     4.0000 </r>
       <r>    -9.7945     0.0000     4.0000 </r>
       <r>    -9.6872     0.0000     4.0000 </r>
       <r>    -9.5798     0.0000     4.0000 </r>
       <r>    -9.4725     0.0000     4.0000 </r>
       <r>    -9.3652     0.0000     4.0000 </r>
       <r>    -9.2579     0.0000     4.0000 </r>
       <r>    -9.1506     0.0000     4.0000 </r>
       <r>    -9.0433     0.0000     4.0000 </r>
       <r>    -8.9359     0.0005     4.0001 </r>
       <r>    -8.8286     0.2677     4.0288 </r>
       <r>    -8.7213     2.0760     4.2516 </r>
       <r>    -8.6140     5.2780     4.8180 </r>
       <r>    -8.5067     7.0103     5.5703 </r>
       <r>    -8.3994     6.2685     6.2430 </r>
       <r>    -8.2920     5.3095     6.8128 </r>
       <r>    -8.1847     4.8850     7.3371 </r>
       <r>    -8.0774     3.8404     7.7492 </r>
       <r>    -7.9701     1.7010     7.9317 </r>
       <r>    -7.8628     0.5851     7.9945 </r>
       <r>    -7.7555     0.0510     8.0000 </r>
       <r>    -7.6481     0.0000     8.0000 </r>
       <r>    -7.5408     0.0000     8.0000 </r>
       <r>    -7.4335     0.0000     8.0000 </r>
       <r>    -7.3262     0.0000     8.0000 </r>
       <r>    -7.2189     0.0000     8.0000 </r>
       <r>    -7.1116     0.0000     8.0000 </r>
       <r>    -7.0042     0.0026     8.0003 </r>
       <r>    -6.8969     0.0969     8.0107 </r>
       <r>    -6.7896     0.2834     8.0411 </r>
       <r>    -6.6823     0.4518     8.0896 </r>
       <r>    -6.5750     0.6959     8.1643 </r>
       <r>    -6.4677     0.8962     8.2604 </r>
       <r>    -6.3603     1.3639     8.4068 </r>
       <r>    -6.2530     2.1121     8.6335 </r>
       <r>    -6.1457     2.8542     8.9398 </r>
       <r>    -6.0384     3.9940     9.3684 </r>
       <r>    -5.9311     3.9493     9.7922 </r>
       <r>    -5.8238     3.9954    10.2210 </r>
       <r>    -5.7165     4.1289    10.6641 </r>
       <r>    -5.6091     3.9738    11.0906 </r>
       <r>    -5.5018     4.1254    11.5333 </r>
       <r>    -5.3945     4.4322    12.0089 </r>
       <r>    -5.2872     4.7718    12.5210 </r>
       <r>    -5.1799     4.4644    13.0001 </r>
       <r>    -5.0726     3.9117    13.4199 </r>
       <r>    -4.9652     3.4326    13.7883 </r>
       <r>    -4.8579     2.4735    14.0537 </r>
       <r>    -4.7506     2.4629    14.3180 </r>
       <r>    -4.6433     2.9400    14.6335 </r>
       <r>    -4.5360     3.5798    15.0177 </r>
       <r>    -4.4287     3.5866    15.4026 </r>
       <r>    -4.3213     2.9385    15.7180 </r>
       <r>    -4.2140     3.0608    16.0465 </r>
       <r>    -4.1067     2.8738    16.3549 </r>
       <r>    -3.9994     3.0109    16.6780 </r>
       <r>    -3.8921     2.8750    16.9865 </r>
       <r>    -3.7848     3.1096    17.3202 </r>
       <r>    -3.6774     2.9801    17.6400 </r>
       <r>    -3.5701     2.7327    17.9333 </r>
       <r>    -3.4628     2.6918    18.2222 </r>
       <r>    -3.3555     3.0580    18.5503 </r>
       <r>    -3.2482     2.6247    18.8320 </r>
       <r>    -3.1409     2.6307    19.1143 </r>
       <r>    -3.0335     3.0841    19.4453 </r>
       <r>    -2.9262     3.0494    19.7725 </r>
       <r>    -2.8189     2.8049    20.0736 </r>
       <r>    -2.7116     2.4424    20.3357 </r>
       <r>    -2.6043     2.5548    20.6098 </r>
       <r>    -2.4970     2.9728    20.9289 </r>
       <r>    -2.3896     3.1511    21.2670 </r>
       <r>    -2.2823     3.5825    21.6515 </r>
       <r>    -2.1750     3.6083    22.0387 </r>
       <r>    -2.0677     3.1967    22.3818 </r>
       <r>    -1.9604     3.9936    22.8104 </r>
       <r>    -1.8531     4.9161    23.3379 </r>
       <r>    -1.7458     5.4518    23.9230 </r>
       <r>    -1.6384     5.9272    24.5591 </r>
       <r>    -1.5311     5.7433    25.1754 </r>
       <r>    -1.4238     6.5166    25.8748 </r>
       <r>    -1.3165     5.5077    26.4658 </r>
       <r>    -1.2092     4.9683    26.9990 </r>
       <r>    -1.1019     5.6842    27.6090 </r>
       <r>    -0.9945     3.9653    28.0346 </r>
       <r>    -0.8872     2.6418    28.3181 </r>
       <r>    -0.7799     2.6113    28.5983 </r>
       <r>    -0.6726     3.3149    28.9540 </r>
       <r>    -0.5653     4.6555    29.4536 </r>
       <r>    -0.4580     6.0347    30.1013 </r>
       <r>    -0.3506     6.5362    30.8027 </r>
       <r>    -0.2433     5.9699    31.4434 </r>
       <r>    -0.1360     6.6352    32.1555 </r>
       <r>    -0.0287     7.2660    32.9352 </r>
       <r>     0.0786     6.1390    33.5940 </r>
       <r>     0.1859     6.3533    34.2758 </r>
       <r>     0.2933     8.8896    35.2298 </r>
       <r>     0.4006     8.3549    36.1264 </r>
       <r>     0.5079     8.6239    37.0519 </r>
       <r>     0.6152     4.7228    37.5588 </r>
       <r>     0.7225     3.1663    37.8985 </r>
       <r>     0.8298     3.0656    38.2275 </r>
       <r>     0.9372     3.1947    38.5704 </r>
       <r>     1.0445     3.3412    38.9289 </r>
       <r>     1.1518     3.6267    39.3181 </r>
       <r>     1.2591     4.1436    39.7628 </r>
       <r>     1.3664     3.3464    40.1219 </r>
       <r>     1.4737     3.7705    40.5266 </r>
       <r>     1.5811     4.0086    40.9568 </r>
       <r>     1.6884     4.2493    41.4128 </r>
       <r>     1.7957     3.0641    41.7416 </r>
       <r>     1.9030     2.5781    42.0183 </r>
       <r>     2.0103     2.9112    42.3307 </r>
       <r>     2.1176     2.9085    42.6428 </r>
       <r>     2.2249     2.3661    42.8968 </r>
       <r>     2.3323     1.7563    43.0852 </r>
       <r>     2.4396     1.4048    43.2360 </r>
       <r>     2.5469     1.2099    43.3658 </r>
       <r>     2.6542     0.8466    43.4567 </r>
       <r>     2.7615     0.5682    43.5177 </r>
       <r>     2.8688     0.3897    43.5595 </r>
       <r>     2.9762     0.5383    43.6173 </r>
       <r>     3.0835     0.6467    43.6867 </r>
       <r>     3.1908     0.5464    43.7453 </r>
       <r>     3.2981     0.3037    43.7779 </r>
       <r>     3.4054     0.3117    43.8114 </r>
       <r>     3.5127     0.4311    43.8576 </r>
       <r>     3.6201     0.4181    43.9025 </r>
       <r>     3.7274     0.2928    43.9339 </r>
       <r>     3.8347     0.1951    43.9548 </r>
       <r>     3.9420     0.3007    43.9871 </r>
       <r>     4.0493     0.1184    43.9998 </r>
       <r>     4.1566     0.0018    44.0000 </r>
       <r>     4.2640     0.0405    44.0044 </r>
       <r>     4.3713     0.2210    44.0281 </r>
       <r>     4.4786     0.3645    44.0672 </r>
       <r>     4.5859     0.4967    44.1205 </r>
       <r>     4.6932     0.7200    44.1978 </r>
       <r>     4.8005     0.8127    44.2850 </r>
       <r>     4.9079     0.8449    44.3757 </r>
       <r>     5.0152     1.0296    44.4862 </r>
       <r>     5.1225     1.0837    44.6025 </r>
       <r>     5.2298     1.3035    44.7423 </r>
       <r>     5.3371     1.7160    44.9265 </r>
       <r>     5.4444     2.1156    45.1535 </r>
       <r>     5.5518     2.5042    45.4223 </r>
       <r>     5.6591     2.8653    45.7298 </r>
       <r>     5.7664     3.3634    46.0907 </r>
       <r>     5.8737     3.6262    46.4799 </r>
       <r>     5.9810     4.0038    46.9096 </r>
       <r>     6.0883     4.6486    47.4084 </r>
       <r>     6.1956     4.4895    47.8902 </r>
       <r>     6.3030     4.2738    48.3489 </r>
       <r>     6.4103     4.1764    48.7971 </r>
       <r>     6.5176     4.3235    49.2611 </r>
       <r>     6.6249     3.9154    49.6812 </r>
       <r>     6.7322     3.7353    50.0821 </r>
       <r>     6.8395     3.7539    50.4849 </r>
       <r>     6.9469     4.3262    50.9492 </r>
       <r>     7.0542     4.9031    51.4754 </r>
       <r>     7.1615     5.0186    52.0140 </r>
       <r>     7.2688     5.0746    52.5586 </r>
       <r>     7.3761     4.6160    53.0539 </r>
       <r>     7.4834     4.4664    53.5332 </r>
       <r>     7.5908     4.1831    53.9822 </r>
       <r>     7.6981     3.4961    54.3573 </r>
       <r>     7.8054     3.2107    54.7019 </r>
       <r>     7.9127     3.0072    55.0246 </r>
       <r>     8.0200     3.3996    55.3895 </r>
       <r>     8.1273     3.5701    55.7726 </r>
       <r>     8.2347     3.8810    56.1891 </r>
       <r>     8.3420     4.0251    56.6210 </r>
       <r>     8.4493     4.0852    57.0594 </r>
       <r>     8.5566     4.0871    57.4981 </r>
       <r>     8.6639     4.1781    57.9464 </r>
       <r>     8.7712     4.7506    58.4562 </r>
       <r>     8.8786     5.3604    59.0315 </r>
       <r>     8.9859     4.9077    59.5582 </r>
       <r>     9.0932     4.8679    60.0806 </r>
       <r>     9.2005     5.4194    60.6622 </r>
       <r>     9.3078     4.9128    61.1894 </r>
       <r>     9.4151     4.7961    61.7041 </r>
       <r>     9.5225     4.4739    62.1842 </r>
       <r>     9.6298     4.7902    62.6983 </r>
       <r>     9.7371     5.1055    63.2462 </r>
       <r>     9.8444     5.0210    63.7850 </r>
       <r>     9.9517     5.0645    64.3285 </r>
       <r>    10.0590     4.3083    64.7909 </r>
       <r>    10.1663     3.9482    65.2146 </r>
       <r>    10.2737     4.1977    65.6651 </r>
       <r>    10.3810     5.0425    66.2062 </r>
       <r>    10.4883     5.7791    66.8264 </r>
       <r>    10.5956     5.0705    67.3706 </r>
       <r>    10.7029     4.3750    67.8401 </r>
       <r>    10.8102     3.8646    68.2548 </r>
       <r>    10.9176     3.4060    68.6203 </r>
       <r>    11.0249     4.7062    69.1254 </r>
       <r>    11.1322     5.3528    69.6998 </r>
       <r>    11.2395     6.2863    70.3744 </r>
       <r>    11.3468     5.7217    70.9885 </r>
       <r>    11.4541     4.9529    71.5200 </r>
       <r>    11.5615     4.6998    72.0244 </r>
       <r>    11.6688     4.8130    72.5409 </r>
       <r>    11.7761     4.7773    73.0535 </r>
       <r>    11.8834     4.9224    73.5818 </r>
       <r>    11.9907     5.8985    74.2148 </r>
       <r>    12.0980     6.2014    74.8803 </r>
       <r>    12.2054     5.8664    75.5099 </r>
       <r>    12.3127     4.6732    76.0114 </r>
       <r>    12.4200     5.7870    76.6324 </r>
       <r>    12.5273     6.0998    77.2870 </r>
       <r>    12.6346     5.6660    77.8951 </r>
       <r>    12.7419     5.8693    78.5249 </r>
       <r>    12.8493     5.9395    79.1623 </r>
       <r>    12.9566     5.8415    79.7892 </r>
       <r>    13.0639     6.2646    80.4615 </r>
       <r>    13.1712     5.8690    81.0914 </r>
       <r>    13.2785     6.3432    81.7721 </r>
       <r>    13.3858     5.5255    82.3651 </r>
       <r>    13.4932     5.3508    82.9393 </r>
       <r>    13.6005     5.5071    83.5303 </r>
       <r>    13.7078     5.3010    84.0992 </r>
       <r>    13.8151     5.8017    84.7218 </r>
       <r>    13.9224     5.4932    85.3113 </r>
       <r>    14.0297     5.7045    85.9235 </r>
       <r>    14.1370     4.9485    86.4545 </r>
       <r>    14.2444     5.0027    86.9914 </r>
       <r>    14.3517     5.0245    87.5306 </r>
       <r>    14.4590     4.7716    88.0427 </r>
       <r>    14.5663     5.0613    88.5858 </r>
       <r>    14.6736     5.4136    89.1668 </r>
       <r>    14.7809     4.6761    89.6686 </r>
       <r>    14.8883     4.2546    90.1252 </r>
       <r>    14.9956     5.0373    90.6658 </r>
       <r>    15.1029     6.3580    91.3481 </r>
       <r>    15.2102     5.8483    91.9757 </r>
       <r>    15.3175     5.7594    92.5938 </r>
       <r>    15.4248     5.8717    93.2240 </r>
       <r>    15.5322     5.9846    93.8662 </r>
       <r>    15.6395     5.4700    94.4532 </r>
       <r>    15.7468     4.0114    94.8837 </r>
       <r>    15.8541     2.8983    95.1947 </r>
       <r>    15.9614     2.2981    95.4414 </r>
       <r>    16.0687     1.5176    95.6042 </r>
       <r>    16.1761     1.1366    95.7262 </r>
       <r>    16.2834     1.0292    95.8366 </r>
       <r>    16.3907     0.8507    95.9279 </r>
       <r>    16.4980     0.5489    95.9869 </r>
       <r>    16.6053     0.1210    95.9998 </r>
       <r>    16.7126     0.0015    96.0000 </r>
       <r>    16.8200     0.0000    96.0000 </r>
       <r>    16.9273     0.0000    96.0000 </r>
       <r>    17.0346     0.0000    96.0000 </r>
       <r>    17.1419     0.0000    96.0000 </r>
       <r>    17.2492     0.0000    96.0000 </r>
       <r>    17.3565     0.0000    96.0000 </r>
       <r>    17.4639     0.0000    96.0000 </r>
       <r>    17.5712     0.0000    96.0000 </r>
       <r>    17.6785     0.0000    96.0000 </r>
       <r>    17.7858     0.0000    96.0000 </r>
       <r>    17.8931     0.0000    96.0000 </r>
       <r>    18.0004     0.0000    96.0000 </r>
      </set>
     </set>
    </array>
   </total>
  </dos>
 </calculation>
 <structure name="finalpos" >
  <crystal>
   <varray name="basis" >
    <v>       5.69700000       0.00000000       0.00000000 </v>
    <v>       0.00000000       4.04790000       0.00000000 </v>
    <v>       0.00000000       0.00000000       6.20420000 </v>
   </varray>
   <i name="volume">    143.07435078 </i>
   <varray name="rec_basis" >
    <v>       0.17553098       0.00000000       0.00000000 </v>
    <v>       0.00000000       0.24704168       0.00000000 </v>
    <v>       0.00000000       0.00000000       0.16118114 </v>
   </varray>
  </crystal>
  <varray name="positions" >
   <v>       0.52123000       0.50000000       0.63796000 </v>
   <v>       0.47877000       0.50000000       0.36204000 </v>
   <v>       0.97877000       0.50000000       0.63796000 </v>
   <v>       0.02123000       0.50000000       0.36204000 </v>
   <v>       0.60090000       0.50000000       0.89991000 </v>
   <v>       0.39910000       0.50000000       0.10009000 </v>
   <v>       0.89910000       0.50000000       0.89991000 </v>
   <v>       0.10090000       0.50000000       0.10009000 </v>
   <v>       0.75000000       0.79171000       0.72973000 </v>
   <v>       0.25000000       0.20829000       0.27027000 </v>
   <v>       0.75000000       0.20829000       0.72973000 </v>
   <v>       0.25000000       0.79171000       0.27027000 </v>
   <v>       0.25000000       0.50000000       0.52367000 </v>
   <v>       0.75000000       0.50000000       0.47633000 </v>
  </varray>
 </structure>
</modeling>
