 running   24 mpi-ranks, with    1 threads/rank, on    1 nodes
 distrk:  each k-point on   24 cores,    1 groups
 distr:  one band on    1 cores,   24 groups
 vasp.6.4.3 19Mar24 (build May 31 2024 16:31:43) complex                        
  
 POSCAR found type information on POSCAR B 
 POSCAR found :  1 types and      14 ions
 Reading from existing POTCAR
 scaLAPACK will be used
 Reading from existing POTCAR
 LDA part: xc-table for (Slater+PW92), standard interpolation
 POSCAR, INCAR and KPOINTS ok, starting setup
 FFT: planning ... GRIDC
 FFT: planning ... GRID_SOFT
 FFT: planning ... GRID
 WAVECAR not read
 entering main loop
       N       E                     dE             d eps       ncg     rms          rms(c)
DAV:   1     0.539383066917E+02    0.53938E+02   -0.17648E+04 73728   0.724E+02
DAV:   2    -0.928996490982E+02   -0.14684E+03   -0.13821E+03102864   0.150E+02
DAV:   3    -0.975892692927E+02   -0.46896E+01   -0.46658E+01107496   0.240E+01
DAV:   4    -0.976164876656E+02   -0.27218E-01   -0.27217E-01 90984   0.210E+00
DAV:   5    -0.976168002210E+02   -0.31256E-03   -0.31255E-03107088   0.217E-01    0.123E+01
DAV:   6    -0.922024903833E+02    0.54143E+01   -0.39691E+00106896   0.658E+00    0.678E+00
DAV:   7    -0.905538995523E+02    0.16486E+01   -0.31722E+00110256   0.581E+00    0.174E+00
DAV:   8    -0.905633430086E+02   -0.94435E-02   -0.22500E-01 81264   0.161E+00    0.781E-01
DAV:   9    -0.905783012544E+02   -0.14958E-01   -0.18073E-02103392   0.467E-01    0.207E-01
DAV:  10    -0.905827327461E+02   -0.44315E-02   -0.27698E-03 82464   0.185E-01    0.689E-02
DAV:  11    -0.905839705881E+02   -0.12378E-02   -0.71828E-04 96336   0.925E-02    0.336E-02
DAV:  12    -0.905840717160E+02   -0.10113E-03   -0.70663E-05 93624   0.322E-02    0.639E-03
DAV:  13    -0.905840806689E+02   -0.89529E-05   -0.75794E-06101088   0.106E-02    0.200E-03
DAV:  14    -0.905840815563E+02   -0.88735E-06   -0.55397E-07 93744   0.317E-03
   1 F= -.90584082E+02 E0= -.90582367E+02  d E =-.342854E-02
