       N       E                     dE             d eps       ncg     rms          rms(c)
DAV:   1     0.805495661367E+01    0.80550E+01   -0.34209E+02  8400   0.394E+01
DAV:   2     0.110853257449E+00   -0.79441E+01   -0.79175E+01 16416   0.573E+00
DAV:   3    -0.547566491813E-01   -0.16561E+00   -0.14320E+00  8592   0.147E+00
DAV:   4    -0.582125965096E-01   -0.34559E-02   -0.32690E-02  9336   0.179E-01
DAV:   5    -0.582521552186E-01   -0.39559E-04   -0.39539E-04 13008   0.218E-02    0.849E-03
DAV:   6    -0.582531455057E-01   -0.99029E-06   -0.30312E-06 11208   0.300E-03
   1 F= -.58253146E-01 E0= -.31752475E-01  d E =-.530013E-01
