       N       E                     dE             d eps       ncg     rms          rms(c)
DAV:   1     0.539127657325E+02    0.53913E+02   -0.17649E+04168960   0.724E+02
DAV:   2    -0.928996060393E+02   -0.14681E+03   -0.13816E+03235200   0.150E+02
DAV:   3    -0.975874599502E+02   -0.46879E+01   -0.46642E+01246336   0.240E+01
DAV:   4    -0.976146330583E+02   -0.27173E-01   -0.27172E-01207984   0.210E+00
DAV:   5    -0.976149441685E+02   -0.31111E-03   -0.31110E-03245040   0.216E-01    0.123E+01
DAV:   6    -0.922023701811E+02    0.54126E+01   -0.39642E+00245832   0.658E+00    0.678E+00
DAV:   7    -0.905528206330E+02    0.16495E+01   -0.31835E+00252576   0.582E+00    0.174E+00
DAV:   8    -0.905618039836E+02   -0.89834E-02   -0.22401E-01187848   0.161E+00    0.798E-01
DAV:   9    -0.905767833409E+02   -0.14979E-01   -0.18697E-02236928   0.477E-01    0.212E-01
DAV:  10    -0.905813425525E+02   -0.45592E-02   -0.29803E-03188448   0.192E-01    0.726E-02
DAV:  11    -0.905826461859E+02   -0.13036E-02   -0.75548E-04220272   0.952E-02    0.339E-02
DAV:  12    -0.905827456953E+02   -0.99509E-04   -0.66995E-05219096   0.315E-02    0.712E-03
DAV:  13    -0.905827578882E+02   -0.12193E-04   -0.10106E-05226800   0.120E-02    0.214E-03
DAV:  14    -0.905827589162E+02   -0.10280E-05   -0.67819E-07221424   0.349E-03    0.779E-04
DAV:  15    -0.905827591529E+02   -0.23667E-06   -0.13933E-07196800   0.157E-03
   1 F= -.90582759E+02 E0= -.90580873E+02  d E =-.377141E-02
