<?xml version="1.0" encoding="ISO-8859-1"?>
<modeling>
 <generator>
  <i name="program" type="string">vasp </i>
  <i name="version" type="string">6.4.3  </i>
  <i name="subversion" type="string">19Mar24 (build May 31 2024 16:31:43) complex                          parallel </i>
  <i name="platform" type="string">LinuxIFC </i>
  <i name="date" type="string">2024 10 29 </i>
  <i name="time" type="string">14:13:58 </i>
 </generator>
 <incar>
  <i type="string" name="SYSTEM">Kpoints</i>
  <i type="int" name="ISTART">     0</i>
  <i type="string" name="PREC">Accurate</i>
  <i type="string" name="ALGO">Normal</i>
  <i type="int" name="ISPIN">     1</i>
  <i type="int" name="ICHARG">     2</i>
  <i type="int" name="NELM">   100</i>
  <i type="int" name="IBRION">    -1</i>
  <i name="EDIFF">      0.00000100</i>
  <i name="EDIFFG">     -0.00100000</i>
  <i type="int" name="NSW">     0</i>
  <i type="int" name="ISIF">     2</i>
  <i name="ENCUT">    450.00000000</i>
  <i name="POTIM">      0.50000000</i>
  <i type="int" name="ISMEAR">     0</i>
  <i name="SIGMA">      0.05000000</i>
  <i type="logical" name="LWAVE"> F  </i>
  <i type="logical" name="LCHARG"> F  </i>
  <i type="string" name="GGA">PE</i>
 </incar>
 <primitive_cell>
  <structure name="primitive_cell" >
   <crystal>
    <varray name="basis" >
     <v>       5.69700000       0.00000000       0.00000000 </v>
     <v>       0.00000000       4.04790000       0.00000000 </v>
     <v>       0.00000000       0.00000000       6.20420000 </v>
    </varray>
    <i name="volume">    143.07435078 </i>
    <varray name="rec_basis" >
     <v>       0.17553098       0.00000000       0.00000000 </v>
     <v>       0.00000000       0.24704168       0.00000000 </v>
     <v>       0.00000000       0.00000000       0.16118114 </v>
    </varray>
   </crystal>
   <varray name="positions" >
    <v>       0.52123000       0.50000000       0.63796000 </v>
    <v>       0.47877000       0.50000000       0.36204000 </v>
    <v>       0.97877000       0.50000000       0.63796000 </v>
    <v>       0.02123000       0.50000000       0.36204000 </v>
    <v>       0.60090000       0.50000000       0.89991000 </v>
    <v>       0.39910000       0.50000000       0.10009000 </v>
    <v>       0.89910000       0.50000000       0.89991000 </v>
    <v>       0.10090000       0.50000000       0.10009000 </v>
    <v>       0.75000000       0.79171000       0.72973000 </v>
    <v>       0.25000000       0.20829000       0.27027000 </v>
    <v>       0.75000000       0.20829000       0.72973000 </v>
    <v>       0.25000000       0.79171000       0.27027000 </v>
    <v>       0.25000000       0.50000000       0.52367000 </v>
    <v>       0.75000000       0.50000000       0.47633000 </v>
   </varray>
  </structure>
  <varray name="primitive_index" >
   <v type="int" >        1 </v>
   <v type="int" >        2 </v>
   <v type="int" >        3 </v>
   <v type="int" >        4 </v>
   <v type="int" >        5 </v>
   <v type="int" >        6 </v>
   <v type="int" >        7 </v>
   <v type="int" >        8 </v>
   <v type="int" >        9 </v>
   <v type="int" >       10 </v>
   <v type="int" >       11 </v>
   <v type="int" >       12 </v>
   <v type="int" >       13 </v>
   <v type="int" >       14 </v>
  </varray>
 </primitive_cell>
 <kpoints>
  <generation param="Monkhorst-Pack">
   <v type="int" name="divisions">       8       11        7 </v>
   <v name="usershift">      0.00000000       0.00000000       0.00000000 </v>
   <v name="genvec1">      0.12500000       0.00000000       0.00000000 </v>
   <v name="genvec2">      0.00000000       0.09090909       0.00000000 </v>
   <v name="genvec3">      0.00000000       0.00000000       0.14285714 </v>
   <v name="shift">      0.50000000       0.00000000       0.00000000 </v>
  </generation>
  <varray name="kpointlist" >
   <v>       0.06250000       0.00000000       0.00000000 </v>
   <v>       0.18750000       0.00000000       0.00000000 </v>
   <v>       0.31250000       0.00000000       0.00000000 </v>
   <v>       0.43750000       0.00000000       0.00000000 </v>
   <v>       0.06250000       0.09090909       0.00000000 </v>
   <v>       0.18750000       0.09090909       0.00000000 </v>
   <v>       0.31250000       0.09090909       0.00000000 </v>
   <v>       0.43750000       0.09090909       0.00000000 </v>
   <v>       0.06250000       0.18181818       0.00000000 </v>
   <v>       0.18750000       0.18181818       0.00000000 </v>
   <v>       0.31250000       0.18181818       0.00000000 </v>
   <v>       0.43750000       0.18181818       0.00000000 </v>
   <v>       0.06250000       0.27272727       0.00000000 </v>
   <v>       0.18750000       0.27272727       0.00000000 </v>
   <v>       0.31250000       0.27272727       0.00000000 </v>
   <v>       0.43750000       0.27272727       0.00000000 </v>
   <v>       0.06250000       0.36363636       0.00000000 </v>
   <v>       0.18750000       0.36363636       0.00000000 </v>
   <v>       0.31250000       0.36363636       0.00000000 </v>
   <v>       0.43750000       0.36363636       0.00000000 </v>
   <v>       0.06250000       0.45454545       0.00000000 </v>
   <v>       0.18750000       0.45454545       0.00000000 </v>
   <v>       0.31250000       0.45454545       0.00000000 </v>
   <v>       0.43750000       0.45454545       0.00000000 </v>
   <v>       0.06250000       0.00000000       0.14285714 </v>
   <v>       0.18750000       0.00000000       0.14285714 </v>
   <v>       0.31250000       0.00000000       0.14285714 </v>
   <v>       0.43750000       0.00000000       0.14285714 </v>
   <v>       0.06250000       0.09090909       0.14285714 </v>
   <v>       0.18750000       0.09090909       0.14285714 </v>
   <v>       0.31250000       0.09090909       0.14285714 </v>
   <v>       0.43750000       0.09090909       0.14285714 </v>
   <v>       0.06250000       0.18181818       0.14285714 </v>
   <v>       0.18750000       0.18181818       0.14285714 </v>
   <v>       0.31250000       0.18181818       0.14285714 </v>
   <v>       0.43750000       0.18181818       0.14285714 </v>
   <v>       0.06250000       0.27272727       0.14285714 </v>
   <v>       0.18750000       0.27272727       0.14285714 </v>
   <v>       0.31250000       0.27272727       0.14285714 </v>
   <v>       0.43750000       0.27272727       0.14285714 </v>
   <v>       0.06250000       0.36363636       0.14285714 </v>
   <v>       0.18750000       0.36363636       0.14285714 </v>
   <v>       0.31250000       0.36363636       0.14285714 </v>
   <v>       0.43750000       0.36363636       0.14285714 </v>
   <v>       0.06250000       0.45454545       0.14285714 </v>
   <v>       0.18750000       0.45454545       0.14285714 </v>
   <v>       0.31250000       0.45454545       0.14285714 </v>
   <v>       0.43750000       0.45454545       0.14285714 </v>
   <v>       0.06250000       0.00000000       0.28571429 </v>
   <v>       0.18750000       0.00000000       0.28571429 </v>
   <v>       0.31250000       0.00000000       0.28571429 </v>
   <v>       0.43750000       0.00000000       0.28571429 </v>
   <v>       0.06250000       0.09090909       0.28571429 </v>
   <v>       0.18750000       0.09090909       0.28571429 </v>
   <v>       0.31250000       0.09090909       0.28571429 </v>
   <v>       0.43750000       0.09090909       0.28571429 </v>
   <v>       0.06250000       0.18181818       0.28571429 </v>
   <v>       0.18750000       0.18181818       0.28571429 </v>
   <v>       0.31250000       0.18181818       0.28571429 </v>
   <v>       0.43750000       0.18181818       0.28571429 </v>
   <v>       0.06250000       0.27272727       0.28571429 </v>
   <v>       0.18750000       0.27272727       0.28571429 </v>
   <v>       0.31250000       0.27272727       0.28571429 </v>
   <v>       0.43750000       0.27272727       0.28571429 </v>
   <v>       0.06250000       0.36363636       0.28571429 </v>
   <v>       0.18750000       0.36363636       0.28571429 </v>
   <v>       0.31250000       0.36363636       0.28571429 </v>
   <v>       0.43750000       0.36363636       0.28571429 </v>
   <v>       0.06250000       0.45454545       0.28571429 </v>
   <v>       0.18750000       0.45454545       0.28571429 </v>
   <v>       0.31250000       0.45454545       0.28571429 </v>
   <v>       0.43750000       0.45454545       0.28571429 </v>
   <v>       0.06250000       0.00000000       0.42857143 </v>
   <v>       0.18750000       0.00000000       0.42857143 </v>
   <v>       0.31250000       0.00000000       0.42857143 </v>
   <v>       0.43750000       0.00000000       0.42857143 </v>
   <v>       0.06250000       0.09090909       0.42857143 </v>
   <v>       0.18750000       0.09090909       0.42857143 </v>
   <v>       0.31250000       0.09090909       0.42857143 </v>
   <v>       0.43750000       0.09090909       0.42857143 </v>
   <v>       0.06250000       0.18181818       0.42857143 </v>
   <v>       0.18750000       0.18181818       0.42857143 </v>
   <v>       0.31250000       0.18181818       0.42857143 </v>
   <v>       0.43750000       0.18181818       0.42857143 </v>
   <v>       0.06250000       0.27272727       0.42857143 </v>
   <v>       0.18750000       0.27272727       0.42857143 </v>
   <v>       0.31250000       0.27272727       0.42857143 </v>
   <v>       0.43750000       0.27272727       0.42857143 </v>
   <v>       0.06250000       0.36363636       0.42857143 </v>
   <v>       0.18750000       0.36363636       0.42857143 </v>
   <v>       0.31250000       0.36363636       0.42857143 </v>
   <v>       0.43750000       0.36363636       0.42857143 </v>
   <v>       0.06250000       0.45454545       0.42857143 </v>
   <v>       0.18750000       0.45454545       0.42857143 </v>
   <v>       0.31250000       0.45454545       0.42857143 </v>
   <v>       0.43750000       0.45454545       0.42857143 </v>
  </varray>
  <varray name="weights" >
   <v>       0.00324675 </v>
   <v>       0.00324675 </v>
   <v>       0.00324675 </v>
   <v>       0.00324675 </v>
   <v>       0.00649351 </v>
   <v>       0.00649351 </v>
   <v>       0.00649351 </v>
   <v>       0.00649351 </v>
   <v>       0.00649351 </v>
   <v>       0.00649351 </v>
   <v>       0.00649351 </v>
   <v>       0.00649351 </v>
   <v>       0.00649351 </v>
   <v>       0.00649351 </v>
   <v>       0.00649351 </v>
   <v>       0.00649351 </v>
   <v>       0.00649351 </v>
   <v>       0.00649351 </v>
   <v>       0.00649351 </v>
   <v>       0.00649351 </v>
   <v>       0.00649351 </v>
   <v>       0.00649351 </v>
   <v>       0.00649351 </v>
   <v>       0.00649351 </v>
   <v>       0.00649351 </v>
   <v>       0.00649351 </v>
   <v>       0.00649351 </v>
   <v>       0.00649351 </v>
   <v>       0.01298701 </v>
   <v>       0.01298701 </v>
   <v>       0.01298701 </v>
   <v>       0.01298701 </v>
   <v>       0.01298701 </v>
   <v>       0.01298701 </v>
   <v>       0.01298701 </v>
   <v>       0.01298701 </v>
   <v>       0.01298701 </v>
   <v>       0.01298701 </v>
   <v>       0.01298701 </v>
   <v>       0.01298701 </v>
   <v>       0.01298701 </v>
   <v>       0.01298701 </v>
   <v>       0.01298701 </v>
   <v>       0.01298701 </v>
   <v>       0.01298701 </v>
   <v>       0.01298701 </v>
   <v>       0.01298701 </v>
   <v>       0.01298701 </v>
   <v>       0.00649351 </v>
   <v>       0.00649351 </v>
   <v>       0.00649351 </v>
   <v>       0.00649351 </v>
   <v>       0.01298701 </v>
   <v>       0.01298701 </v>
   <v>       0.01298701 </v>
   <v>       0.01298701 </v>
   <v>       0.01298701 </v>
   <v>       0.01298701 </v>
   <v>       0.01298701 </v>
   <v>       0.01298701 </v>
   <v>       0.01298701 </v>
   <v>       0.01298701 </v>
   <v>       0.01298701 </v>
   <v>       0.01298701 </v>
   <v>       0.01298701 </v>
   <v>       0.01298701 </v>
   <v>       0.01298701 </v>
   <v>       0.01298701 </v>
   <v>       0.01298701 </v>
   <v>       0.01298701 </v>
   <v>       0.01298701 </v>
   <v>       0.01298701 </v>
   <v>       0.00649351 </v>
   <v>       0.00649351 </v>
   <v>       0.00649351 </v>
   <v>       0.00649351 </v>
   <v>       0.01298701 </v>
   <v>       0.01298701 </v>
   <v>       0.01298701 </v>
   <v>       0.01298701 </v>
   <v>       0.01298701 </v>
   <v>       0.01298701 </v>
   <v>       0.01298701 </v>
   <v>       0.01298701 </v>
   <v>       0.01298701 </v>
   <v>       0.01298701 </v>
   <v>       0.01298701 </v>
   <v>       0.01298701 </v>
   <v>       0.01298701 </v>
   <v>       0.01298701 </v>
   <v>       0.01298701 </v>
   <v>       0.01298701 </v>
   <v>       0.01298701 </v>
   <v>       0.01298701 </v>
   <v>       0.01298701 </v>
   <v>       0.01298701 </v>
  </varray>
 </kpoints>
 <parameters>
  <separator name="general" >
   <i type="string" name="SYSTEM">Kpoints</i>
   <i type="logical" name="LCOMPAT"> F  </i>
  </separator>
  <separator name="electronic" >
   <i type="string" name="PREC">accura</i>
   <i name="ENMAX">    450.00000000</i>
   <i name="ENAUG">    535.51400000</i>
   <i name="EDIFF">      0.00000100</i>
   <i type="int" name="IALGO">    38</i>
   <i type="int" name="IWAVPR">    10</i>
   <i type="int" name="NBANDS">    48</i>
   <i type="int" name="NBANDSLOW">    -1</i>
   <i type="int" name="NBANDSHIGH">    -1</i>
   <i name="NELECT">     42.00000000</i>
   <i type="int" name="TURBO">     0</i>
   <i type="int" name="IRESTART">     0</i>
   <i type="int" name="NREBOOT">     0</i>
   <i type="int" name="NMIN">     0</i>
   <i name="EREF">      0.00000000</i>
   <separator name="electronic smearing" >
    <i type="int" name="ISMEAR">     0</i>
    <i name="SIGMA">      0.05000000</i>
    <i name="KSPACING">      0.50000000</i>
    <i type="logical" name="KGAMMA"> T  </i>
    <i type="logical" name="KBLOWUP"> T  </i>
   </separator>
   <separator name="electronic projectors" >
    <i type="logical" name="LREAL"> F  </i>
    <v name="ROPT">      0.00000000</v>
    <i type="int" name="LMAXPAW">  -100</i>
    <i type="int" name="LMAXMIX">     2</i>
    <i type="logical" name="NLSPLINE"> F  </i>
   </separator>
   <separator name="electronic startup" >
    <i type="int" name="ISTART">     0</i>
    <i type="int" name="ICHARG">     2</i>
    <i type="int" name="INIWAV">     1</i>
   </separator>
   <separator name="electronic spin" >
    <i type="int" name="ISPIN">     1</i>
    <i type="logical" name="LNONCOLLINEAR"> F  </i>
    <v name="MAGMOM">      1.00000000      1.00000000      1.00000000      1.00000000      1.00000000      1.00000000      1.00000000      1.00000000      1.00000000      1.00000000      1.00000000      1.00000000      1.00000000      1.00000000</v>
    <i name="NUPDOWN">     -1.00000000</i>
    <i type="logical" name="LSORBIT"> F  </i>
    <v name="SAXIS">      0.00000000      0.00000000      1.00000000</v>
    <i type="logical" name="LSPIRAL"> F  </i>
    <v name="QSPIRAL">      0.00000000      0.00000000      0.00000000</v>
    <i type="logical" name="LZEROZ"> F  </i>
   </separator>
   <separator name="electronic exchange-correlation" >
    <i type="logical" name="LASPH"> F  </i>
   </separator>
   <separator name="electronic convergence" >
    <i type="int" name="NELM">   100</i>
    <i type="int" name="NELMDL">    -5</i>
    <i type="int" name="NELMIN">     2</i>
    <i name="ENINI">    450.00000000</i>
    <separator name="electronic convergence detail" >
     <i type="logical" name="LDIAG"> T  </i>
     <i type="logical" name="LSUBROT"> F  </i>
     <i name="WEIMIN">      0.00000000</i>
     <i name="EBREAK">      0.00000001</i>
     <i name="DEPER">      0.30000000</i>
     <i type="int" name="NRMM">     4</i>
     <i name="TIME">      0.40000000</i>
    </separator>
   </separator>
   <separator name="electronic mixer" >
    <i name="AMIX">      0.40000000</i>
    <i name="BMIX">      1.00000000</i>
    <i name="AMIN">      0.10000000</i>
    <i name="AMIX_MAG">      1.60000000</i>
    <i name="BMIX_MAG">      1.00000000</i>
    <separator name="electronic mixer details" >
     <i type="int" name="IMIX">     4</i>
     <i type="logical" name="MIXFIRST"> F  </i>
     <i type="int" name="MAXMIX">   -45</i>
     <i name="WC">    100.00000000</i>
     <i type="int" name="INIMIX">     1</i>
     <i type="int" name="MIXPRE">     1</i>
     <i type="int" name="MREMOVE">     5</i>
    </separator>
   </separator>
   <separator name="electronic dipolcorrection" >
    <i type="logical" name="LDIPOL"> F  </i>
    <i type="logical" name="LMONO"> F  </i>
    <i type="int" name="IDIPOL">     0</i>
    <i name="EPSILON">      1.00000000</i>
    <v name="DIPOL">   -100.00000000   -100.00000000   -100.00000000</v>
    <i name="EFIELD">      0.00000000</i>
    <i type="logical" name="LVACPOTAV"> F  </i>
   </separator>
  </separator>
  <separator name="grids" >
   <i type="int" name="NGX">    40</i>
   <i type="int" name="NGY">    28</i>
   <i type="int" name="NGZ">    48</i>
   <i type="int" name="NGXF">    80</i>
   <i type="int" name="NGYF">    56</i>
   <i type="int" name="NGZF">    96</i>
   <i type="logical" name="ADDGRID"> F  </i>
  </separator>
  <separator name="ionic" >
   <i type="int" name="NSW">     0</i>
   <i type="int" name="IBRION">    -1</i>
   <i type="int" name="MDALGO">     0</i>
   <i type="int" name="ISIF">     2</i>
   <i name="PSTRESS">      0.00000000</i>
   <i name="EDIFFG">     -0.00100000</i>
   <i type="int" name="NFREE">     0</i>
   <i name="POTIM">      0.50000000</i>
   <i name="SMASS">     -3.00000000</i>
   <i name="SCALEE">      1.00000000</i>
  </separator>
  <separator name="ionic md" >
   <i name="TEBEG">      0.00010000</i>
   <i name="TEEND">      0.00010000</i>
   <i type="int" name="NBLOCK">     1</i>
   <i type="int" name="KBLOCK">     1</i>
   <i type="int" name="NPACO">   256</i>
   <i name="APACO">     10.00000000</i>
  </separator>
  <separator name="symmetry" >
   <i type="int" name="ISYM">     2</i>
   <i name="SYMPREC">      0.00001000</i>
  </separator>
  <separator name="dos" >
   <i type="int" name="LORBIT">     0</i>
   <v name="RWIGS">     -1.00000000</v>
   <i type="int" name="NEDOS">   301</i>
   <i name="EMIN">     10.00000000</i>
   <i name="EMAX">    -10.00000000</i>
   <i name="EFERMI">      0.00000000</i>
  </separator>
  <separator name="writing" >
   <i type="int" name="NWRITE">     2</i>
   <i type="logical" name="LWAVE"> F  </i>
   <i type="logical" name="LDOWNSAMPLE"> F  </i>
   <i type="logical" name="LCHARG"> F  </i>
   <i type="logical" name="LPARD"> F  </i>
   <i type="logical" name="LVTOT"> F  </i>
   <i type="logical" name="LVHAR"> F  </i>
   <i type="logical" name="LELF"> F  </i>
   <i type="logical" name="LOPTICS"> F  </i>
   <v name="STM">      0.00000000      0.00000000      0.00000000      0.00000000      0.00000000      0.00000000      0.00000000</v>
  </separator>
  <separator name="performance" >
   <i type="int" name="NPAR">    24</i>
   <i type="int" name="NSIM">     4</i>
   <i type="int" name="NBLK">    -1</i>
   <i type="logical" name="LPLANE"> T  </i>
   <i type="logical" name="LSCALAPACK"> T  </i>
   <i type="logical" name="LSCAAWARE"> F  </i>
   <i type="logical" name="LSCALU"> F  </i>
   <i type="logical" name="LASYNC"> F  </i>
   <i type="logical" name="LORBITALREAL"> F  </i>
  </separator>
  <separator name="miscellaneous" >
   <i type="int" name="IDIOT">     3</i>
   <i type="int" name="PHON_NSTRUCT">    -1</i>
   <i type="logical" name="LMUSIC"> F  </i>
   <v name="POMASS">     10.81100000</v>
   <v name="DARWINR">      0.00000000</v>
   <v name="DARWINV">      1.00000000</v>
   <i type="logical" name="LCORR"> T  </i>
  </separator>
  <i type="logical" name="GGA_COMPAT"> T  </i>
  <i type="logical" name="LBERRY"> F  </i>
  <i type="int" name="ICORELEVEL">     0</i>
  <i type="logical" name="LDAU"> F  </i>
  <i type="int" name="I_CONSTRAINED_M">     0</i>
  <separator name="electronic exchange-correlation" >
   <i type="string" name="GGA    ">PE</i>
   <i type="string" name="XC_C">1</i>
   <i type="int" name="VOSKOWN">     0</i>
   <i type="logical" name="LHFCALC"> F  </i>
   <i type="string" name="PRECFOCK"></i>
   <i type="logical" name="LSYMGRAD"> F  </i>
   <i type="logical" name="LHFONE"> F  </i>
   <i type="logical" name="LRHFCALC"> F  </i>
   <i type="logical" name="LTHOMAS"> F  </i>
   <i type="logical" name="LMODELHF"> F  </i>
   <i type="logical" name="LFOCKACE"> F  </i>
   <i name="ENCUT4O">     -1.00000000</i>
   <i type="int" name="EXXOEP">     0</i>
   <i type="int" name="FOURORBIT">     0</i>
   <i name="AEXX">      0.00000000</i>
   <i name="HFALPHA">      0.00000000</i>
   <i name="MCALPHA">      0.00000000</i>
   <i name="ALDAX">      1.00000000</i>
   <i name="AGGAX">      1.00000000</i>
   <i name="AMGGAX">      1.00000000</i>
   <i name="ALDAC">      1.00000000</i>
   <i name="AGGAC">      1.00000000</i>
   <i name="AMGGAC">      1.00000000</i>
   <i type="int" name="NKREDX">     1</i>
   <i type="int" name="NKREDY">     1</i>
   <i type="int" name="NKREDZ">     1</i>
   <i type="logical" name="SHIFTRED"> F  </i>
   <i type="logical" name="ODDONLY"> F  </i>
   <i type="logical" name="EVENONLY"> F  </i>
   <i type="int" name="LMAXFOCK">     0</i>
   <i type="int" name="NMAXFOCKAE">     0</i>
   <i type="logical" name="LFOCKAEDFT"> F  </i>
   <i name="HFSCREEN">      0.00000000</i>
   <i name="HFSCREENC">      0.00000000</i>
   <i type="int" name="NBANDSGWLOW">     0</i>
  </separator>
  <separator name="vdW DFT" >
   <i type="logical" name="LUSE_VDW"> F  </i>
   <i type="int" name="IVDW_NL">    -1</i>
   <i type="logical" name="LSPIN_VDW"> F  </i>
   <i name="ZAB_VDW">     -0.84910000</i>
   <i name="GAMMA_VDW">      1.39626340</i>
   <i name="ALPHA_VDW">      0.00000000</i>
   <i name="PARAM1">      0.12340000</i>
   <i name="PARAM2">      1.00000000</i>
   <i name="BPARAM">      6.30000000</i>
   <i name="CPARAM">      0.00930000</i>
  </separator>
  <separator name="model GW" >
   <i type="int" name="MODEL_GW">     0</i>
   <i name="MODEL_EPS0">      6.13175789</i>
   <i name="MODEL_ALPHA">      1.00000000</i>
  </separator>
  <separator name="linear response parameters" >
   <i type="logical" name="LEPSILON"> F  </i>
   <i type="logical" name="LRPA"> F  </i>
   <i type="logical" name="LNABLA"> F  </i>
   <i type="logical" name="LVEL"> F  </i>
   <i name="CSHIFT">      0.10000000</i>
   <i name="OMEGAMAX">     -1.00000000</i>
   <i name="DEG_THRESHOLD">      0.00200000</i>
   <i name="RTIME">     -0.10000000</i>
   <i name="WPLASMAI">      0.00000000</i>
   <v name="DFIELD">      0.00000000      0.00000000      0.00000000</v>
   <v name="WPLASMA">      0.00000000      0.00000000      0.00000000      0.00000000      0.00000000      0.00000000      0.00000000      0.00000000      0.00000000</v>
  </separator>
  <separator name="orbital magnetization" >
   <i type="logical" name="NUCIND"> F  </i>
   <v name="MAGPOS">      0.00000000      0.00000000      0.00000000</v>
   <i type="logical" name="LNICSALL"> T  </i>
   <i type="logical" name="ORBITALMAG"> F  </i>
   <i type="logical" name="LMAGBLOCH"> F  </i>
   <i type="logical" name="LCHIMAG"> F  </i>
   <i type="logical" name="LGAUGE"> T  </i>
   <i type="int" name="MAGATOM">     0</i>
   <v name="MAGDIPOL">      0.00000000      0.00000000      0.00000000</v>
   <v name="AVECCONST">      0.00000000      0.00000000      0.00000000</v>
  </separator>
  <separator name="response functions" >
   <i type="logical" name="LALL_IN_ONE"> F  </i>
   <i type="int" name="IALL_IN_ONE">    -1</i>
   <i type="int" name="NBANDS_WAVE">    -1</i>
   <i type="logical" name="LFINITE_TEMPERATURE"> F  </i>
   <i type="logical" name="LADDER"> F  </i>
   <i type="logical" name="LRPAFORCE"> F  </i>
   <i type="logical" name="LFXC"> F  </i>
   <i type="logical" name="LHARTREE"> T  </i>
   <i type="int" name="IBSE">     0</i>
   <v type="int" name="KPOINT">    -1     0     0     0</v>
   <i type="logical" name="LTCTC"> F  </i>
   <i type="logical" name="LTCTE"> F  </i>
   <i type="logical" name="LTETE"> F  </i>
   <i type="logical" name="LTRIPLET"> F  </i>
   <i type="logical" name="LFXCEPS"> F  </i>
   <i type="logical" name="LFXHEG"> F  </i>
   <i type="int" name="NATURALO">     2</i>
   <i type="logical" name="LHOLEGF"> F  </i>
   <i type="logical" name="L2ORDER"> F  </i>
   <i type="logical" name="LDMP1"> F  </i>
   <i type="logical" name="LMP2LT"> F  </i>
   <i type="logical" name="LSMP2LT"> F  </i>
   <i type="logical" name="LGWLF"> F  </i>
   <i name="ENCUTGW">     -1.60000002</i>
   <i name="ENCUTGWSOFT">     -1.60000002</i>
   <i name="ENCUTLF">     -1.00000000</i>
   <i type="logical" name="ESF_SPLINES"> F  </i>
   <i name="ESF_CONV">      0.01000000</i>
   <i type="int" name="ESF_NINTER">    15</i>
   <i type="int" name="LMAXMP2">    -1</i>
   <i name="SCISSOR">      0.00000000</i>
   <i type="int" name="NOMEGA">     0</i>
   <i type="int" name="NOMEGAR">     0</i>
   <i type="int" name="NBANDSGW">    -1</i>
   <i type="int" name="NBANDSO">    -1</i>
   <i type="int" name="NBANDSV">    -1</i>
   <i type="int" name="NELMGW">     1</i>
   <i type="int" name="NELMHF">     1</i>
   <i type="int" name="DIM">     3</i>
   <i type="int" name="IESPILON">     4</i>
   <i type="int" name="ANTIRES">     0</i>
   <i name="OMEGAMAX">    -30.00000000</i>
   <i name="OMEGAMIN">    -30.00000000</i>
   <i name="OMEGATL">   -200.00000000</i>
   <i type="int" name="OMEGAGRID">     0</i>
   <i name="CSHIFT">     -0.10000000</i>
   <i type="logical" name="LSELFENERGY"> F  </i>
   <i type="logical" name="LSPECTRAL"> F  </i>
   <i type="logical" name="LSPECTRALGW"> F  </i>
   <i type="logical" name="LSINGLES"> F  </i>
   <i type="logical" name="LFERMIGW"> F  </i>
   <i type="logical" name="ODDONLYGW"> F  </i>
   <i type="logical" name="EVENONLYGW"> F  </i>
   <i type="int" name="NKREDLFX">     1</i>
   <i type="int" name="NKREDLFY">     1</i>
   <i type="int" name="NKREDLFZ">     1</i>
   <i type="int" name="MAXMEM">  2800</i>
   <i type="int" name="TELESCOPE">     0</i>
   <i type="int" name="NTAUPAR">    -1</i>
   <i type="int" name="NOMEGAPAR">    -1</i>
   <i name="DAMP_NEWTON">      0.80000001</i>
   <i name="LAMBDA">      1.00000000</i>
  </separator>
  <separator name="External order field" >
   <i name="OFIELD_KAPPA">      0.00000000</i>
   <v name="OFIELD_K">      0.00000000      0.00000000      0.00000000</v>
   <i name="OFIELD_Q6_NEAR">      0.00000000</i>
   <i name="OFIELD_Q6_FAR">      0.00000000</i>
   <i name="OFIELD_A">      0.00000000</i>
  </separator>
  <separator name="optional k-points parameters" >
   <i type="int" name="KPOINTS_OPT_MODE">     1</i>
   <i type="logical" name="LKPOINTS_OPT"> F  </i>
  </separator>
 </parameters>
 <atominfo>
  <atoms>      14 </atoms>
  <types>       1 </types>
  <array name="atoms" >
   <dimension dim="1">ion</dimension>
   <field type="string">element</field>
   <field type="int">atomtype</field>
   <set>
    <rc><c>B </c><c>   1</c></rc>
    <rc><c>B </c><c>   1</c></rc>
    <rc><c>B </c><c>   1</c></rc>
    <rc><c>B </c><c>   1</c></rc>
    <rc><c>B </c><c>   1</c></rc>
    <rc><c>B </c><c>   1</c></rc>
    <rc><c>B </c><c>   1</c></rc>
    <rc><c>B </c><c>   1</c></rc>
    <rc><c>B </c><c>   1</c></rc>
    <rc><c>B </c><c>   1</c></rc>
    <rc><c>B </c><c>   1</c></rc>
    <rc><c>B </c><c>   1</c></rc>
    <rc><c>B </c><c>   1</c></rc>
    <rc><c>B </c><c>   1</c></rc>
   </set>
  </array>
  <array name="atomtypes" >
   <dimension dim="1">type</dimension>
   <field type="int">atomspertype</field>
   <field type="string">element</field>
   <field>mass</field>
   <field>valence</field>
   <field type="string">pseudopotential</field>
   <set>
    <rc><c>  14</c><c>B </c><c>     10.81100000</c><c>      3.00000000</c><c>  PAW_PBE B 06Sep2000                   </c></rc>
   </set>
  </array>
 </atominfo>
 <structure name="initialpos" >
  <crystal>
   <varray name="basis" >
    <v>       5.69700000       0.00000000       0.00000000 </v>
    <v>       0.00000000       4.04790000       0.00000000 </v>
    <v>       0.00000000       0.00000000       6.20420000 </v>
   </varray>
   <i name="volume">    143.07435078 </i>
   <varray name="rec_basis" >
    <v>       0.17553098       0.00000000       0.00000000 </v>
    <v>       0.00000000       0.24704168       0.00000000 </v>
    <v>       0.00000000       0.00000000       0.16118114 </v>
   </varray>
  </crystal>
  <varray name="positions" >
   <v>       0.52123000       0.50000000       0.63796000 </v>
   <v>       0.47877000       0.50000000       0.36204000 </v>
   <v>       0.97877000       0.50000000       0.63796000 </v>
   <v>       0.02123000       0.50000000       0.36204000 </v>
   <v>       0.60090000       0.50000000       0.89991000 </v>
   <v>       0.39910000       0.50000000       0.10009000 </v>
   <v>       0.89910000       0.50000000       0.89991000 </v>
   <v>       0.10090000       0.50000000       0.10009000 </v>
   <v>       0.75000000       0.79171000       0.72973000 </v>
   <v>       0.25000000       0.20829000       0.27027000 </v>
   <v>       0.75000000       0.20829000       0.72973000 </v>
   <v>       0.25000000       0.79171000       0.27027000 </v>
   <v>       0.25000000       0.50000000       0.52367000 </v>
   <v>       0.75000000       0.50000000       0.47633000 </v>
  </varray>
 </structure>
 <calculation>
  <scstep>
   <time name="dav">    2.43    2.52</time>
   <time name="total">    2.47    2.56</time>
   <energy>
    <i name="alphaZ">     94.24357992 </i>
    <i name="ewald">   -795.76658092 </i>
    <i name="hartreedc">   -271.33601302 </i>
    <i name="XCdc">     97.50108175 </i>
    <i name="pawpsdc">    608.99811708 </i>
    <i name="pawaedc">   -597.02363782 </i>
    <i name="eentropy">     -0.00075215 </i>
    <i name="bandstr">    -85.58131958 </i>
    <i name="atom">    996.36340036 </i>
    <i name="e_fr_energy">     47.39787561 </i>
    <i name="e_wo_entrp">     47.39862777 </i>
    <i name="e_0_energy">     47.39825169 </i>
   </energy>
  </scstep>
  <scstep>
   <time name="dav">    3.20    3.22</time>
   <time name="total">    3.20    3.22</time>
   <energy>
    <i name="e_fr_energy">    -93.18661439 </i>
    <i name="e_wo_entrp">    -93.17960053 </i>
    <i name="e_0_energy">    -93.18310746 </i>
   </energy>
  </scstep>
  <scstep>
   <time name="dav">    3.32    3.34</time>
   <time name="total">    3.32    3.34</time>
   <energy>
    <i name="e_fr_energy">    -97.56923473 </i>
    <i name="e_wo_entrp">    -97.56140156 </i>
    <i name="e_0_energy">    -97.56531814 </i>
   </energy>
  </scstep>
  <scstep>
   <time name="dav">    2.89    2.91</time>
   <time name="total">    2.89    2.91</time>
   <energy>
    <i name="e_fr_energy">    -97.59444514 </i>
    <i name="e_wo_entrp">    -97.58661284 </i>
    <i name="e_0_energy">    -97.59052899 </i>
   </energy>
  </scstep>
  <scstep>
   <time name="dav">    3.27    3.29</time>
   <time name="total">    3.31    3.34</time>
   <energy>
    <i name="e_fr_energy">    -97.59473616 </i>
    <i name="e_wo_entrp">    -97.58690381 </i>
    <i name="e_0_energy">    -97.59081999 </i>
   </energy>
  </scstep>
  <scstep>
   <time name="dav">    3.30    3.32</time>
   <time name="total">    3.37    3.39</time>
   <energy>
    <i name="e_fr_energy">    -92.18947796 </i>
    <i name="e_wo_entrp">    -92.18444977 </i>
    <i name="e_0_energy">    -92.18696386 </i>
   </energy>
  </scstep>
  <scstep>
   <time name="dav">    3.41    3.44</time>
   <time name="total">    3.47    3.50</time>
   <energy>
    <i name="e_fr_energy">    -90.53809493 </i>
    <i name="e_wo_entrp">    -90.53343295 </i>
    <i name="e_0_energy">    -90.53576394 </i>
   </energy>
  </scstep>
  <scstep>
   <time name="dav">    2.56    2.57</time>
   <time name="total">    2.61    2.63</time>
   <energy>
    <i name="e_fr_energy">    -90.54475629 </i>
    <i name="e_wo_entrp">    -90.54001317 </i>
    <i name="e_0_energy">    -90.54238473 </i>
   </energy>
  </scstep>
  <scstep>
   <time name="dav">    3.27    3.29</time>
   <time name="total">    3.32    3.35</time>
   <energy>
    <i name="e_fr_energy">    -90.55972597 </i>
    <i name="e_wo_entrp">    -90.55488715 </i>
    <i name="e_0_energy">    -90.55730656 </i>
   </energy>
  </scstep>
  <scstep>
   <time name="dav">    2.51    2.52</time>
   <time name="total">    2.56    2.58</time>
   <energy>
    <i name="e_fr_energy">    -90.56461808 </i>
    <i name="e_wo_entrp">    -90.55977711 </i>
    <i name="e_0_energy">    -90.56219759 </i>
   </energy>
  </scstep>
  <scstep>
   <time name="dav">    2.93    2.96</time>
   <time name="total">    2.98    3.01</time>
   <energy>
    <i name="e_fr_energy">    -90.56614064 </i>
    <i name="e_wo_entrp">    -90.56131643 </i>
    <i name="e_0_energy">    -90.56372854 </i>
   </energy>
  </scstep>
  <scstep>
   <time name="dav">    3.01    3.03</time>
   <time name="total">    3.06    3.08</time>
   <energy>
    <i name="e_fr_energy">    -90.56625078 </i>
    <i name="e_wo_entrp">    -90.56142161 </i>
    <i name="e_0_energy">    -90.56383620 </i>
   </energy>
  </scstep>
  <scstep>
   <time name="dav">    2.85    2.87</time>
   <time name="total">    2.90    2.92</time>
   <energy>
    <i name="e_fr_energy">    -90.56627659 </i>
    <i name="e_wo_entrp">    -90.56144432 </i>
    <i name="e_0_energy">    -90.56386046 </i>
   </energy>
  </scstep>
  <scstep>
   <time name="dav">    3.14    3.15</time>
   <time name="total">    3.15    3.16</time>
   <energy>
    <i name="alphaZ">     94.24357992 </i>
    <i name="ewald">   -795.76658092 </i>
    <i name="hartreedc">   -349.13427044 </i>
    <i name="XCdc">    101.59040730 </i>
    <i name="pawpsdc">   3716.40246523 </i>
    <i name="pawaedc">  -3705.59642836 </i>
    <i name="eentropy">     -0.00483165 </i>
    <i name="bandstr">   -148.66401897 </i>
    <i name="atom">    996.36340036 </i>
    <i name="e_fr_energy">    -90.56627753 </i>
    <i name="e_wo_entrp">    -90.56144588 </i>
    <i name="e_0_energy">    -90.56386170 </i>
   </energy>
  </scstep>
  <structure>
   <crystal>
    <varray name="basis" >
     <v>       5.69700000       0.00000000       0.00000000 </v>
     <v>       0.00000000       4.04790000       0.00000000 </v>
     <v>       0.00000000       0.00000000       6.20420000 </v>
    </varray>
    <i name="volume">    143.07435078 </i>
    <varray name="rec_basis" >
     <v>       0.17553098       0.00000000       0.00000000 </v>
     <v>       0.00000000       0.24704168       0.00000000 </v>
     <v>       0.00000000       0.00000000       0.16118114 </v>
    </varray>
   </crystal>
   <varray name="positions" >
    <v>       0.52123000       0.50000000       0.63796000 </v>
    <v>       0.47877000       0.50000000       0.36204000 </v>
    <v>       0.97877000       0.50000000       0.63796000 </v>
    <v>       0.02123000       0.50000000       0.36204000 </v>
    <v>       0.60090000       0.50000000       0.89991000 </v>
    <v>       0.39910000       0.50000000       0.10009000 </v>
    <v>       0.89910000       0.50000000       0.89991000 </v>
    <v>       0.10090000       0.50000000       0.10009000 </v>
    <v>       0.75000000       0.79171000       0.72973000 </v>
    <v>       0.25000000       0.20829000       0.27027000 </v>
    <v>       0.75000000       0.20829000       0.72973000 </v>
    <v>       0.25000000       0.79171000       0.27027000 </v>
    <v>       0.25000000       0.50000000       0.52367000 </v>
    <v>       0.75000000       0.50000000       0.47633000 </v>
   </varray>
  </structure>
  <varray name="forces" >
   <v>      -0.02221947      -0.00000000       0.06919382 </v>
   <v>       0.02221947      -0.00000000      -0.06919382 </v>
   <v>       0.02221947      -0.00000000       0.06919382 </v>
   <v>      -0.02221947      -0.00000000      -0.06919382 </v>
   <v>      -0.81495000      -0.00000000       0.29374635 </v>
   <v>       0.81495000      -0.00000000      -0.29374635 </v>
   <v>       0.81495000      -0.00000000       0.29374635 </v>
   <v>      -0.81495000      -0.00000000      -0.29374635 </v>
   <v>      -0.00000000       0.10633411      -0.08125385 </v>
   <v>      -0.00000000      -0.10633411       0.08125385 </v>
   <v>      -0.00000000      -0.10633411      -0.08125385 </v>
   <v>       0.00000000       0.10633411       0.08125385 </v>
   <v>       0.00000000      -0.00000000       0.07591146 </v>
   <v>      -0.00000000      -0.00000000      -0.07591146 </v>
  </varray>
  <varray name="stress" >
   <v>      15.03787543       0.00000000      -0.00000000 </v>
   <v>       0.00000000       1.45306223       0.00000000 </v>
   <v>      -0.00000000       0.00000000      -4.34850793 </v>
  </varray>
  <energy>
   <i name="e_fr_energy">    -90.56627753 </i>
   <i name="e_wo_entrp">    -90.56144588 </i>
   <i name="e_0_energy">    -90.56386170 </i>
  </energy>
  <time name="totalsc">   44.40   44.79</time>
  <eigenvalues>
   <array>
    <dimension dim="1">band</dimension>
    <dimension dim="2">kpoint</dimension>
    <dimension dim="3">spin</dimension>
    <field>eigene</field>
    <field>occ</field>
    <set>
     <set comment="spin 1">
      <set comment="kpoint 1">
       <r>  -12.7249    1.0000 </r>
       <r>  -11.5910    1.0000 </r>
       <r>   -8.6585    1.0000 </r>
       <r>   -8.4215    1.0000 </r>
       <r>   -6.0584    1.0000 </r>
       <r>   -5.1695    1.0000 </r>
       <r>   -4.6807    1.0000 </r>
       <r>   -4.2163    1.0000 </r>
       <r>   -3.9620    1.0000 </r>
       <r>   -3.5138    1.0000 </r>
       <r>   -2.4125    1.0000 </r>
       <r>   -2.2388    1.0000 </r>
       <r>   -2.2115    1.0000 </r>
       <r>   -1.1160    1.0000 </r>
       <r>   -0.0280    1.0000 </r>
       <r>    0.0103    1.0000 </r>
       <r>    0.1483    1.0000 </r>
       <r>    0.1619    1.0000 </r>
       <r>    0.5475    1.0000 </r>
       <r>    2.0623    0.0000 </r>
       <r>    2.1096    0.0000 </r>
       <r>    2.1946    0.0000 </r>
       <r>    5.4334    0.0000 </r>
       <r>    5.7931    0.0000 </r>
       <r>    5.7964    0.0000 </r>
       <r>    6.0191    0.0000 </r>
       <r>    6.7697    0.0000 </r>
       <r>    7.4619    0.0000 </r>
       <r>    7.8742    0.0000 </r>
       <r>    8.6640    0.0000 </r>
       <r>    8.8330    0.0000 </r>
       <r>    8.9063    0.0000 </r>
       <r>    9.0457    0.0000 </r>
       <r>   10.0563    0.0000 </r>
       <r>   11.1589    0.0000 </r>
       <r>   11.3161    0.0000 </r>
       <r>   11.6263    0.0000 </r>
       <r>   11.7572    0.0000 </r>
       <r>   11.9473    0.0000 </r>
       <r>   12.3717    0.0000 </r>
       <r>   12.9023    0.0000 </r>
       <r>   13.4950    0.0000 </r>
       <r>   13.5470    0.0000 </r>
       <r>   15.3090    0.0000 </r>
       <r>   15.6176    0.0000 </r>
       <r>   16.1174    0.0000 </r>
       <r>   16.2973    0.0000 </r>
       <r>   16.3826    0.0000 </r>
      </set>
      <set comment="kpoint 2">
       <r>  -12.6569    1.0000 </r>
       <r>  -11.7035    1.0000 </r>
       <r>   -8.6249    1.0000 </r>
       <r>   -8.4050    1.0000 </r>
       <r>   -5.9763    1.0000 </r>
       <r>   -5.6042    1.0000 </r>
       <r>   -4.8026    1.0000 </r>
       <r>   -3.8664    1.0000 </r>
       <r>   -3.6207    1.0000 </r>
       <r>   -3.0364    1.0000 </r>
       <r>   -2.4139    1.0000 </r>
       <r>   -2.3817    1.0000 </r>
       <r>   -2.2575    1.0000 </r>
       <r>   -1.5741    1.0000 </r>
       <r>   -0.0530    1.0000 </r>
       <r>    0.0379    1.0000 </r>
       <r>    0.1079    1.0000 </r>
       <r>    0.1959    1.0000 </r>
       <r>    0.4237    1.0000 </r>
       <r>    1.9311    0.0201 </r>
       <r>    1.9922    0.0001 </r>
       <r>    2.0088    0.0000 </r>
       <r>    5.5587    0.0000 </r>
       <r>    5.7266    0.0000 </r>
       <r>    5.9737    0.0000 </r>
       <r>    6.5082    0.0000 </r>
       <r>    6.6444    0.0000 </r>
       <r>    7.0203    0.0000 </r>
       <r>    8.1162    0.0000 </r>
       <r>    8.8510    0.0000 </r>
       <r>    9.0165    0.0000 </r>
       <r>    9.2923    0.0000 </r>
       <r>    9.3038    0.0000 </r>
       <r>   10.2857    0.0000 </r>
       <r>   10.7333    0.0000 </r>
       <r>   10.9107    0.0000 </r>
       <r>   11.2751    0.0000 </r>
       <r>   11.6965    0.0000 </r>
       <r>   12.2510    0.0000 </r>
       <r>   12.5323    0.0000 </r>
       <r>   12.9700    0.0000 </r>
       <r>   13.1312    0.0000 </r>
       <r>   14.3246    0.0000 </r>
       <r>   14.7571    0.0000 </r>
       <r>   15.5830    0.0000 </r>
       <r>   15.9123    0.0000 </r>
       <r>   16.2895    0.0000 </r>
       <r>   16.5794    0.0000 </r>
      </set>
      <set comment="kpoint 3">
       <r>  -12.5255    1.0000 </r>
       <r>  -11.8956    1.0000 </r>
       <r>   -8.5577    1.0000 </r>
       <r>   -8.3917    1.0000 </r>
       <r>   -6.0199    1.0000 </r>
       <r>   -5.9589    1.0000 </r>
       <r>   -4.5649    1.0000 </r>
       <r>   -3.6800    1.0000 </r>
       <r>   -3.0130    1.0000 </r>
       <r>   -2.7347    1.0000 </r>
       <r>   -2.4449    1.0000 </r>
       <r>   -2.3607    1.0000 </r>
       <r>   -2.2804    1.0000 </r>
       <r>   -2.1980    1.0000 </r>
       <r>   -0.4030    1.0000 </r>
       <r>   -0.0980    1.0000 </r>
       <r>    0.1520    1.0000 </r>
       <r>    0.2363    1.0000 </r>
       <r>    0.5383    1.0000 </r>
       <r>    1.6611    1.0000 </r>
       <r>    1.7430    0.9995 </r>
       <r>    1.8107    0.9122 </r>
       <r>    5.6772    0.0000 </r>
       <r>    5.6948    0.0000 </r>
       <r>    6.4924    0.0000 </r>
       <r>    6.5076    0.0000 </r>
       <r>    6.7059    0.0000 </r>
       <r>    7.1972    0.0000 </r>
       <r>    8.2893    0.0000 </r>
       <r>    8.8490    0.0000 </r>
       <r>    8.8801    0.0000 </r>
       <r>    9.8447    0.0000 </r>
       <r>    9.8705    0.0000 </r>
       <r>    9.9215    0.0000 </r>
       <r>   10.4011    0.0000 </r>
       <r>   10.8776    0.0000 </r>
       <r>   11.4042    0.0000 </r>
       <r>   12.0116    0.0000 </r>
       <r>   12.2171    0.0000 </r>
       <r>   12.4529    0.0000 </r>
       <r>   12.5279    0.0000 </r>
       <r>   13.0682    0.0000 </r>
       <r>   14.8596    0.0000 </r>
       <r>   14.9497    0.0000 </r>
       <r>   15.2228    0.0000 </r>
       <r>   15.6364    0.0000 </r>
       <r>   15.6807    0.0000 </r>
       <r>   16.2820    0.0000 </r>
      </set>
      <set comment="kpoint 4">
       <r>  -12.3410    1.0000 </r>
       <r>  -12.1215    1.0000 </r>
       <r>   -8.4745    1.0000 </r>
       <r>   -8.4111    1.0000 </r>
       <r>   -6.1393    1.0000 </r>
       <r>   -6.1349    1.0000 </r>
       <r>   -3.9689    1.0000 </r>
       <r>   -3.4137    1.0000 </r>
       <r>   -3.2266    1.0000 </r>
       <r>   -3.0872    1.0000 </r>
       <r>   -2.4789    1.0000 </r>
       <r>   -2.3708    1.0000 </r>
       <r>   -2.0138    1.0000 </r>
       <r>   -1.9334    1.0000 </r>
       <r>   -0.7267    1.0000 </r>
       <r>   -0.5598    1.0000 </r>
       <r>    0.2684    1.0000 </r>
       <r>    0.3094    1.0000 </r>
       <r>    0.8418    1.0000 </r>
       <r>    1.2378    1.0000 </r>
       <r>    1.6197    1.0000 </r>
       <r>    1.6530    1.0000 </r>
       <r>    5.6962    0.0000 </r>
       <r>    5.7365    0.0000 </r>
       <r>    6.4357    0.0000 </r>
       <r>    6.5158    0.0000 </r>
       <r>    7.3061    0.0000 </r>
       <r>    8.0098    0.0000 </r>
       <r>    8.2146    0.0000 </r>
       <r>    8.4395    0.0000 </r>
       <r>    8.6219    0.0000 </r>
       <r>    8.9027    0.0000 </r>
       <r>   10.4674    0.0000 </r>
       <r>   10.4776    0.0000 </r>
       <r>   10.7108    0.0000 </r>
       <r>   11.3182    0.0000 </r>
       <r>   11.4183    0.0000 </r>
       <r>   11.6641    0.0000 </r>
       <r>   11.8328    0.0000 </r>
       <r>   12.4876    0.0000 </r>
       <r>   12.6036    0.0000 </r>
       <r>   13.2680    0.0000 </r>
       <r>   14.5549    0.0000 </r>
       <r>   14.7655    0.0000 </r>
       <r>   14.9408    0.0000 </r>
       <r>   14.9445    0.0000 </r>
       <r>   16.0276    0.0000 </r>
       <r>   16.4649    0.0000 </r>
      </set>
      <set comment="kpoint 5">
       <r>  -12.7052    1.0000 </r>
       <r>  -11.5733    1.0000 </r>
       <r>   -8.6431    1.0000 </r>
       <r>   -8.4025    1.0000 </r>
       <r>   -6.0364    1.0000 </r>
       <r>   -5.1424    1.0000 </r>
       <r>   -4.6628    1.0000 </r>
       <r>   -4.4512    1.0000 </r>
       <r>   -4.1326    1.0000 </r>
       <r>   -3.4947    1.0000 </r>
       <r>   -3.1405    1.0000 </r>
       <r>   -1.9319    1.0000 </r>
       <r>   -1.2251    1.0000 </r>
       <r>   -1.1122    1.0000 </r>
       <r>   -0.2355    1.0000 </r>
       <r>   -0.2071    1.0000 </r>
       <r>    0.1744    1.0000 </r>
       <r>    0.2280    1.0000 </r>
       <r>    0.6212    1.0000 </r>
       <r>    1.8207    0.8582 </r>
       <r>    1.8986    0.1288 </r>
       <r>    2.2549    0.0000 </r>
       <r>    5.6255    0.0000 </r>
       <r>    5.6425    0.0000 </r>
       <r>    5.8276    0.0000 </r>
       <r>    5.9713    0.0000 </r>
       <r>    7.0113    0.0000 </r>
       <r>    7.7071    0.0000 </r>
       <r>    8.1186    0.0000 </r>
       <r>    8.1989    0.0000 </r>
       <r>    8.8382    0.0000 </r>
       <r>    9.0803    0.0000 </r>
       <r>    9.1314    0.0000 </r>
       <r>   10.4577    0.0000 </r>
       <r>   11.2541    0.0000 </r>
       <r>   11.3425    0.0000 </r>
       <r>   11.5687    0.0000 </r>
       <r>   11.8431    0.0000 </r>
       <r>   12.0355    0.0000 </r>
       <r>   12.6034    0.0000 </r>
       <r>   12.9081    0.0000 </r>
       <r>   13.2427    0.0000 </r>
       <r>   13.3164    0.0000 </r>
       <r>   15.3315    0.0000 </r>
       <r>   15.4262    0.0000 </r>
       <r>   15.9475    0.0000 </r>
       <r>   15.9834    0.0000 </r>
       <r>   16.2916    0.0000 </r>
      </set>
      <set comment="kpoint 6">
       <r>  -12.6373    1.0000 </r>
       <r>  -11.6857    1.0000 </r>
       <r>   -8.6093    1.0000 </r>
       <r>   -8.3865    1.0000 </r>
       <r>   -5.9521    1.0000 </r>
       <r>   -5.5794    1.0000 </r>
       <r>   -4.7873    1.0000 </r>
       <r>   -4.3300    1.0000 </r>
       <r>   -3.5647    1.0000 </r>
       <r>   -3.2578    1.0000 </r>
       <r>   -3.0031    1.0000 </r>
       <r>   -1.8982    1.0000 </r>
       <r>   -1.5690    1.0000 </r>
       <r>   -1.3746    1.0000 </r>
       <r>   -0.1804    1.0000 </r>
       <r>   -0.1431    1.0000 </r>
       <r>    0.0877    1.0000 </r>
       <r>    0.2358    1.0000 </r>
       <r>    0.4795    1.0000 </r>
       <r>    1.6981    1.0000 </r>
       <r>    1.7827    0.9841 </r>
       <r>    2.0553    0.0000 </r>
       <r>    5.7754    0.0000 </r>
       <r>    5.7787    0.0000 </r>
       <r>    5.9060    0.0000 </r>
       <r>    6.3273    0.0000 </r>
       <r>    6.8886    0.0000 </r>
       <r>    7.3077    0.0000 </r>
       <r>    8.3312    0.0000 </r>
       <r>    8.4084    0.0000 </r>
       <r>    9.1123    0.0000 </r>
       <r>    9.3182    0.0000 </r>
       <r>    9.5249    0.0000 </r>
       <r>   10.4178    0.0000 </r>
       <r>   10.6838    0.0000 </r>
       <r>   10.8886    0.0000 </r>
       <r>   11.4334    0.0000 </r>
       <r>   11.8679    0.0000 </r>
       <r>   12.3499    0.0000 </r>
       <r>   12.6895    0.0000 </r>
       <r>   12.7896    0.0000 </r>
       <r>   13.1582    0.0000 </r>
       <r>   14.0271    0.0000 </r>
       <r>   14.8994    0.0000 </r>
       <r>   15.4590    0.0000 </r>
       <r>   15.7691    0.0000 </r>
       <r>   15.8733    0.0000 </r>
       <r>   16.5420    0.0000 </r>
      </set>
      <set comment="kpoint 7">
       <r>  -12.5062    1.0000 </r>
       <r>  -11.8775    1.0000 </r>
       <r>   -8.5418    1.0000 </r>
       <r>   -8.3741    1.0000 </r>
       <r>   -5.9935    1.0000 </r>
       <r>   -5.9335    1.0000 </r>
       <r>   -4.5525    1.0000 </r>
       <r>   -4.1653    1.0000 </r>
       <r>   -3.4461    1.0000 </r>
       <r>   -2.9399    1.0000 </r>
       <r>   -2.3976    1.0000 </r>
       <r>   -2.2407    1.0000 </r>
       <r>   -1.8265    1.0000 </r>
       <r>   -1.5684    1.0000 </r>
       <r>   -0.3817    1.0000 </r>
       <r>   -0.1957    1.0000 </r>
       <r>    0.1169    1.0000 </r>
       <r>    0.1232    1.0000 </r>
       <r>    0.5493    1.0000 </r>
       <r>    1.5156    1.0000 </r>
       <r>    1.6037    1.0000 </r>
       <r>    1.6953    1.0000 </r>
       <r>    5.8215    0.0000 </r>
       <r>    5.9150    0.0000 </r>
       <r>    6.3569    0.0000 </r>
       <r>    6.7441    0.0000 </r>
       <r>    6.8233    0.0000 </r>
       <r>    7.2078    0.0000 </r>
       <r>    8.4879    0.0000 </r>
       <r>    8.5627    0.0000 </r>
       <r>    8.9787    0.0000 </r>
       <r>    9.6954    0.0000 </r>
       <r>    9.9028    0.0000 </r>
       <r>   10.0826    0.0000 </r>
       <r>   10.2796    0.0000 </r>
       <r>   10.9869    0.0000 </r>
       <r>   11.4679    0.0000 </r>
       <r>   12.0354    0.0000 </r>
       <r>   12.2611    0.0000 </r>
       <r>   12.5691    0.0000 </r>
       <r>   12.6129    0.0000 </r>
       <r>   13.2378    0.0000 </r>
       <r>   14.6943    0.0000 </r>
       <r>   14.9402    0.0000 </r>
       <r>   15.3466    0.0000 </r>
       <r>   15.4542    0.0000 </r>
       <r>   15.5899    0.0000 </r>
       <r>   16.3451    0.0000 </r>
      </set>
      <set comment="kpoint 8">
       <r>  -12.3220    1.0000 </r>
       <r>  -12.1030    1.0000 </r>
       <r>   -8.4584    1.0000 </r>
       <r>   -8.3943    1.0000 </r>
       <r>   -6.1131    1.0000 </r>
       <r>   -6.1082    1.0000 </r>
       <r>   -3.9584    1.0000 </r>
       <r>   -3.9449    1.0000 </r>
       <r>   -3.6909    1.0000 </r>
       <r>   -3.2133    1.0000 </r>
       <r>   -2.1767    1.0000 </r>
       <r>   -1.9331    1.0000 </r>
       <r>   -1.7271    1.0000 </r>
       <r>   -1.7262    1.0000 </r>
       <r>   -0.6957    1.0000 </r>
       <r>   -0.5591    1.0000 </r>
       <r>    0.1490    1.0000 </r>
       <r>    0.1870    1.0000 </r>
       <r>    0.8496    1.0000 </r>
       <r>    1.2433    1.0000 </r>
       <r>    1.4172    1.0000 </r>
       <r>    1.4476    1.0000 </r>
       <r>    5.8639    0.0000 </r>
       <r>    5.9326    0.0000 </r>
       <r>    6.6987    0.0000 </r>
       <r>    6.7682    0.0000 </r>
       <r>    7.1518    0.0000 </r>
       <r>    7.8951    0.0000 </r>
       <r>    8.0416    0.0000 </r>
       <r>    8.6147    0.0000 </r>
       <r>    8.7280    0.0000 </r>
       <r>    8.8016    0.0000 </r>
       <r>   10.3322    0.0000 </r>
       <r>   10.5118    0.0000 </r>
       <r>   10.7466    0.0000 </r>
       <r>   11.0436    0.0000 </r>
       <r>   11.5463    0.0000 </r>
       <r>   11.7051    0.0000 </r>
       <r>   11.8989    0.0000 </r>
       <r>   12.6398    0.0000 </r>
       <r>   12.8755    0.0000 </r>
       <r>   13.4622    0.0000 </r>
       <r>   14.5934    0.0000 </r>
       <r>   14.7828    0.0000 </r>
       <r>   14.8205    0.0000 </r>
       <r>   15.0434    0.0000 </r>
       <r>   16.0755    0.0000 </r>
       <r>   16.4447    0.0000 </r>
      </set>
      <set comment="kpoint 9">
       <r>  -12.6510    1.0000 </r>
       <r>  -11.5247    1.0000 </r>
       <r>   -8.6010    1.0000 </r>
       <r>   -8.3504    1.0000 </r>
       <r>   -5.9756    1.0000 </r>
       <r>   -5.1582    1.0000 </r>
       <r>   -5.0295    1.0000 </r>
       <r>   -4.6121    1.0000 </r>
       <r>   -4.1122    1.0000 </r>
       <r>   -3.9393    1.0000 </r>
       <r>   -3.4320    1.0000 </r>
       <r>   -1.1851    1.0000 </r>
       <r>   -1.0994    1.0000 </r>
       <r>   -0.6711    1.0000 </r>
       <r>   -0.5395    1.0000 </r>
       <r>   -0.1334    1.0000 </r>
       <r>    0.2007    1.0000 </r>
       <r>    0.2965    1.0000 </r>
       <r>    0.7216    1.0000 </r>
       <r>    1.3447    1.0000 </r>
       <r>    1.4058    1.0000 </r>
       <r>    2.3045    0.0000 </r>
       <r>    5.2700    0.0000 </r>
       <r>    5.4734    0.0000 </r>
       <r>    6.1558    0.0000 </r>
       <r>    6.2023    0.0000 </r>
       <r>    7.5495    0.0000 </r>
       <r>    7.6214    0.0000 </r>
       <r>    8.3092    0.0000 </r>
       <r>    8.7523    0.0000 </r>
       <r>    8.9456    0.0000 </r>
       <r>    9.2487    0.0000 </r>
       <r>    9.4084    0.0000 </r>
       <r>   10.8526    0.0000 </r>
       <r>   11.2659    0.0000 </r>
       <r>   11.5656    0.0000 </r>
       <r>   11.7180    0.0000 </r>
       <r>   12.0951    0.0000 </r>
       <r>   12.2967    0.0000 </r>
       <r>   12.7169    0.0000 </r>
       <r>   12.7839    0.0000 </r>
       <r>   13.0511    0.0000 </r>
       <r>   13.2525    0.0000 </r>
       <r>   14.6408    0.0000 </r>
       <r>   15.0951    0.0000 </r>
       <r>   15.3252    0.0000 </r>
       <r>   15.4271    0.0000 </r>
       <r>   15.9357    0.0000 </r>
      </set>
      <set comment="kpoint 10">
       <r>  -12.5835    1.0000 </r>
       <r>  -11.6365    1.0000 </r>
       <r>   -8.5667    1.0000 </r>
       <r>   -8.3357    1.0000 </r>
       <r>   -5.8848    1.0000 </r>
       <r>   -5.5160    1.0000 </r>
       <r>   -5.0273    1.0000 </r>
       <r>   -4.7443    1.0000 </r>
       <r>   -4.0412    1.0000 </r>
       <r>   -3.5066    1.0000 </r>
       <r>   -2.9532    1.0000 </r>
       <r>   -1.5556    1.0000 </r>
       <r>   -1.1451    1.0000 </r>
       <r>   -0.8074    1.0000 </r>
       <r>   -0.4857    1.0000 </r>
       <r>   -0.0386    1.0000 </r>
       <r>    0.0993    1.0000 </r>
       <r>    0.2757    1.0000 </r>
       <r>    0.5559    1.0000 </r>
       <r>    1.2258    1.0000 </r>
       <r>    1.3019    1.0000 </r>
       <r>    2.0944    0.0000 </r>
       <r>    5.4473    0.0000 </r>
       <r>    5.9521    0.0000 </r>
       <r>    6.1317    0.0000 </r>
       <r>    6.3157    0.0000 </r>
       <r>    7.4376    0.0000 </r>
       <r>    7.8512    0.0000 </r>
       <r>    7.9960    0.0000 </r>
       <r>    8.8881    0.0000 </r>
       <r>    9.2681    0.0000 </r>
       <r>    9.4610    0.0000 </r>
       <r>    9.8271    0.0000 </r>
       <r>   10.2980    0.0000 </r>
       <r>   10.5539    0.0000 </r>
       <r>   11.1766    0.0000 </r>
       <r>   11.7182    0.0000 </r>
       <r>   12.2815    0.0000 </r>
       <r>   12.3203    0.0000 </r>
       <r>   12.6166    0.0000 </r>
       <r>   13.2262    0.0000 </r>
       <r>   13.3397    0.0000 </r>
       <r>   13.6055    0.0000 </r>
       <r>   14.6311    0.0000 </r>
       <r>   14.7552    0.0000 </r>
       <r>   15.2592    0.0000 </r>
       <r>   15.5133    0.0000 </r>
       <r>   16.0404    0.0000 </r>
      </set>
      <set comment="kpoint 11">
       <r>  -12.4529    1.0000 </r>
       <r>  -11.8274    1.0000 </r>
       <r>   -8.4986    1.0000 </r>
       <r>   -8.3257    1.0000 </r>
       <r>   -5.9200    1.0000 </r>
       <r>   -5.8640    1.0000 </r>
       <r>   -4.8841    1.0000 </r>
       <r>   -4.5180    1.0000 </r>
       <r>   -4.2241    1.0000 </r>
       <r>   -2.8756    1.0000 </r>
       <r>   -2.3450    1.0000 </r>
       <r>   -2.2085    1.0000 </r>
       <r>   -1.0825    1.0000 </r>
       <r>   -0.9732    1.0000 </r>
       <r>   -0.4396    1.0000 </r>
       <r>   -0.2529    1.0000 </r>
       <r>    0.0549    1.0000 </r>
       <r>    0.1402    1.0000 </r>
       <r>    0.5728    1.0000 </r>
       <r>    1.0544    1.0000 </r>
       <r>    1.1416    1.0000 </r>
       <r>    1.7173    1.0000 </r>
       <r>    5.9814    0.0000 </r>
       <r>    6.1161    0.0000 </r>
       <r>    6.4252    0.0000 </r>
       <r>    6.5930    0.0000 </r>
       <r>    7.3343    0.0000 </r>
       <r>    7.8258    0.0000 </r>
       <r>    8.0860    0.0000 </r>
       <r>    9.0392    0.0000 </r>
       <r>    9.1969    0.0000 </r>
       <r>    9.3894    0.0000 </r>
       <r>    9.9579    0.0000 </r>
       <r>   10.0133    0.0000 </r>
       <r>   10.5409    0.0000 </r>
       <r>   11.1635    0.0000 </r>
       <r>   11.2799    0.0000 </r>
       <r>   12.0189    0.0000 </r>
       <r>   12.5783    0.0000 </r>
       <r>   12.8779    0.0000 </r>
       <r>   12.9773    0.0000 </r>
       <r>   13.6824    0.0000 </r>
       <r>   14.2516    0.0000 </r>
       <r>   14.4434    0.0000 </r>
       <r>   14.9668    0.0000 </r>
       <r>   15.3078    0.0000 </r>
       <r>   15.4661    0.0000 </r>
       <r>   16.3443    0.0000 </r>
      </set>
      <set comment="kpoint 12">
       <r>  -12.2698    1.0000 </r>
       <r>  -12.0518    1.0000 </r>
       <r>   -8.4142    1.0000 </r>
       <r>   -8.3485    1.0000 </r>
       <r>   -6.0405    1.0000 </r>
       <r>   -6.0341    1.0000 </r>
       <r>   -4.6835    1.0000 </r>
       <r>   -4.4520    1.0000 </r>
       <r>   -3.9270    1.0000 </r>
       <r>   -3.1855    1.0000 </r>
       <r>   -2.0785    1.0000 </r>
       <r>   -1.8841    1.0000 </r>
       <r>   -1.0883    1.0000 </r>
       <r>   -1.0194    1.0000 </r>
       <r>   -0.6067    1.0000 </r>
       <r>   -0.5945    1.0000 </r>
       <r>    0.0073    1.0000 </r>
       <r>    0.0602    1.0000 </r>
       <r>    0.8696    1.0000 </r>
       <r>    0.9513    1.0000 </r>
       <r>    0.9991    1.0000 </r>
       <r>    1.2756    1.0000 </r>
       <r>    6.2011    0.0000 </r>
       <r>    6.3501    0.0000 </r>
       <r>    6.7783    0.0000 </r>
       <r>    7.1837    0.0000 </r>
       <r>    7.3013    0.0000 </r>
       <r>    7.6875    0.0000 </r>
       <r>    7.9051    0.0000 </r>
       <r>    8.5123    0.0000 </r>
       <r>    9.1200    0.0000 </r>
       <r>    9.1536    0.0000 </r>
       <r>    9.9593    0.0000 </r>
       <r>   10.5376    0.0000 </r>
       <r>   10.6527    0.0000 </r>
       <r>   10.9778    0.0000 </r>
       <r>   11.7708    0.0000 </r>
       <r>   11.7983    0.0000 </r>
       <r>   12.0445    0.0000 </r>
       <r>   12.9847    0.0000 </r>
       <r>   13.3789    0.0000 </r>
       <r>   13.8035    0.0000 </r>
       <r>   14.2102    0.0000 </r>
       <r>   14.3846    0.0000 </r>
       <r>   14.9761    0.0000 </r>
       <r>   15.1272    0.0000 </r>
       <r>   15.9406    0.0000 </r>
       <r>   16.3171    0.0000 </r>
      </set>
      <set comment="kpoint 13">
       <r>  -12.5765    1.0000 </r>
       <r>  -11.4581    1.0000 </r>
       <r>   -8.5441    1.0000 </r>
       <r>   -8.2788    1.0000 </r>
       <r>   -5.8917    1.0000 </r>
       <r>   -5.7489    1.0000 </r>
       <r>   -4.9433    1.0000 </r>
       <r>   -4.5798    1.0000 </r>
       <r>   -4.5364    1.0000 </r>
       <r>   -4.0565    1.0000 </r>
       <r>   -3.3508    1.0000 </r>
       <r>   -1.3086    1.0000 </r>
       <r>   -1.1168    1.0000 </r>
       <r>   -1.0825    1.0000 </r>
       <r>   -0.0075    1.0000 </r>
       <r>    0.2405    1.0000 </r>
       <r>    0.3499    1.0000 </r>
       <r>    0.7202    1.0000 </r>
       <r>    0.7954    1.0000 </r>
       <r>    0.8679    1.0000 </r>
       <r>    0.9740    1.0000 </r>
       <r>    2.3475    0.0000 </r>
       <r>    4.8395    0.0000 </r>
       <r>    5.1011    0.0000 </r>
       <r>    6.3956    0.0000 </r>
       <r>    6.7397    0.0000 </r>
       <r>    7.1925    0.0000 </r>
       <r>    8.0796    0.0000 </r>
       <r>    8.7160    0.0000 </r>
       <r>    9.2732    0.0000 </r>
       <r>    9.5433    0.0000 </r>
       <r>    9.7622    0.0000 </r>
       <r>    9.8453    0.0000 </r>
       <r>   10.6565    0.0000 </r>
       <r>   11.1701    0.0000 </r>
       <r>   12.1092    0.0000 </r>
       <r>   12.1173    0.0000 </r>
       <r>   12.3195    0.0000 </r>
       <r>   12.3436    0.0000 </r>
       <r>   12.4689    0.0000 </r>
       <r>   12.5211    0.0000 </r>
       <r>   13.0850    0.0000 </r>
       <r>   13.5402    0.0000 </r>
       <r>   14.0967    0.0000 </r>
       <r>   14.2368    0.0000 </r>
       <r>   15.0473    0.0000 </r>
       <r>   15.4708    0.0000 </r>
       <r>   15.8071    0.0000 </r>
      </set>
      <set comment="kpoint 14">
       <r>  -12.5094    1.0000 </r>
       <r>  -11.5692    1.0000 </r>
       <r>   -8.5091    1.0000 </r>
       <r>   -8.2661    1.0000 </r>
       <r>   -5.7915    1.0000 </r>
       <r>   -5.6883    1.0000 </r>
       <r>   -5.3759    1.0000 </r>
       <r>   -4.6944    1.0000 </r>
       <r>   -4.6675    1.0000 </r>
       <r>   -3.4326    1.0000 </r>
       <r>   -2.8726    1.0000 </r>
       <r>   -1.5411    1.0000 </r>
       <r>   -1.2298    1.0000 </r>
       <r>   -1.1237    1.0000 </r>
       <r>   -0.0449    1.0000 </r>
       <r>    0.1322    1.0000 </r>
       <r>    0.3237    1.0000 </r>
       <r>    0.6071    1.0000 </r>
       <r>    0.6098    1.0000 </r>
       <r>    0.8459    1.0000 </r>
       <r>    0.9395    1.0000 </r>
       <r>    2.1340    0.0000 </r>
       <r>    5.0353    0.0000 </r>
       <r>    5.5634    0.0000 </r>
       <r>    6.3308    0.0000 </r>
       <r>    6.9190    0.0000 </r>
       <r>    7.3894    0.0000 </r>
       <r>    8.0437    0.0000 </r>
       <r>    8.7635    0.0000 </r>
       <r>    9.3743    0.0000 </r>
       <r>    9.4501    0.0000 </r>
       <r>    9.8977    0.0000 </r>
       <r>   10.0888    0.0000 </r>
       <r>   10.2008    0.0000 </r>
       <r>   10.5918    0.0000 </r>
       <r>   11.7014    0.0000 </r>
       <r>   11.7156    0.0000 </r>
       <r>   12.2981    0.0000 </r>
       <r>   12.5910    0.0000 </r>
       <r>   12.7461    0.0000 </r>
       <r>   13.0511    0.0000 </r>
       <r>   13.4228    0.0000 </r>
       <r>   13.5659    0.0000 </r>
       <r>   14.1090    0.0000 </r>
       <r>   14.1411    0.0000 </r>
       <r>   15.0400    0.0000 </r>
       <r>   15.4601    0.0000 </r>
       <r>   15.7809    0.0000 </r>
      </set>
      <set comment="kpoint 15">
       <r>  -12.3799    1.0000 </r>
       <r>  -11.7587    1.0000 </r>
       <r>   -8.4399    1.0000 </r>
       <r>   -8.2595    1.0000 </r>
       <r>   -5.8171    1.0000 </r>
       <r>   -5.7807    1.0000 </r>
       <r>   -5.4923    1.0000 </r>
       <r>   -4.8604    1.0000 </r>
       <r>   -4.4698    1.0000 </r>
       <r>   -2.8009    1.0000 </r>
       <r>   -2.2682    1.0000 </r>
       <r>   -2.1729    1.0000 </r>
       <r>   -1.1328    1.0000 </r>
       <r>   -1.1161    1.0000 </r>
       <r>   -0.2472    1.0000 </r>
       <r>   -0.1735    1.0000 </r>
       <r>    0.2261    1.0000 </r>
       <r>    0.4113    1.0000 </r>
       <r>    0.5977    1.0000 </r>
       <r>    0.8220    1.0000 </r>
       <r>    0.8967    1.0000 </r>
       <r>    1.7510    0.9988 </r>
       <r>    5.5763    0.0000 </r>
       <r>    6.2014    0.0000 </r>
       <r>    6.3681    0.0000 </r>
       <r>    6.9385    0.0000 </r>
       <r>    7.5475    0.0000 </r>
       <r>    8.1223    0.0000 </r>
       <r>    8.7634    0.0000 </r>
       <r>    9.0837    0.0000 </r>
       <r>    9.2813    0.0000 </r>
       <r>    9.6581    0.0000 </r>
       <r>   10.0306    0.0000 </r>
       <r>   10.3284    0.0000 </r>
       <r>   10.9809    0.0000 </r>
       <r>   11.0298    0.0000 </r>
       <r>   11.4448    0.0000 </r>
       <r>   12.2991    0.0000 </r>
       <r>   12.6609    0.0000 </r>
       <r>   12.9825    0.0000 </r>
       <r>   13.1360    0.0000 </r>
       <r>   13.5142    0.0000 </r>
       <r>   13.6989    0.0000 </r>
       <r>   14.2453    0.0000 </r>
       <r>   14.5606    0.0000 </r>
       <r>   15.1135    0.0000 </r>
       <r>   15.2551    0.0000 </r>
       <r>   16.2469    0.0000 </r>
      </set>
      <set comment="kpoint 16">
       <r>  -12.1980    1.0000 </r>
       <r>  -11.9816    1.0000 </r>
       <r>   -8.3543    1.0000 </r>
       <r>   -8.2860    1.0000 </r>
       <r>   -5.9409    1.0000 </r>
       <r>   -5.9306    1.0000 </r>
       <r>   -5.3098    1.0000 </r>
       <r>   -5.0845    1.0000 </r>
       <r>   -3.8845    1.0000 </r>
       <r>   -3.1460    1.0000 </r>
       <r>   -2.0037    1.0000 </r>
       <r>   -1.8233    1.0000 </r>
       <r>   -1.0295    1.0000 </r>
       <r>   -1.0058    1.0000 </r>
       <r>   -0.6587    1.0000 </r>
       <r>   -0.5513    1.0000 </r>
       <r>    0.1182    1.0000 </r>
       <r>    0.2140    1.0000 </r>
       <r>    0.8222    1.0000 </r>
       <r>    0.8544    1.0000 </r>
       <r>    0.9018    1.0000 </r>
       <r>    1.3047    1.0000 </r>
       <r>    6.3633    0.0000 </r>
       <r>    6.4907    0.0000 </r>
       <r>    6.7284    0.0000 </r>
       <r>    6.9895    0.0000 </r>
       <r>    7.1850    0.0000 </r>
       <r>    7.7500    0.0000 </r>
       <r>    8.7429    0.0000 </r>
       <r>    8.7519    0.0000 </r>
       <r>    9.4137    0.0000 </r>
       <r>    9.8037    0.0000 </r>
       <r>    9.9252    0.0000 </r>
       <r>   10.1141    0.0000 </r>
       <r>   10.8850    0.0000 </r>
       <r>   11.3538    0.0000 </r>
       <r>   11.9385    0.0000 </r>
       <r>   12.0531    0.0000 </r>
       <r>   12.1902    0.0000 </r>
       <r>   13.2258    0.0000 </r>
       <r>   13.2271    0.0000 </r>
       <r>   13.4627    0.0000 </r>
       <r>   13.8147    0.0000 </r>
       <r>   13.9162    0.0000 </r>
       <r>   15.0773    0.0000 </r>
       <r>   15.1263    0.0000 </r>
       <r>   15.5281    0.0000 </r>
       <r>   15.8948    0.0000 </r>
      </set>
      <set comment="kpoint 17">
       <r>  -12.5040    1.0000 </r>
       <r>  -11.3936    1.0000 </r>
       <r>   -8.4900    1.0000 </r>
       <r>   -8.2093    1.0000 </r>
       <r>   -6.2001    1.0000 </r>
       <r>   -5.8093    1.0000 </r>
       <r>   -5.0312    1.0000 </r>
       <r>   -4.8336    1.0000 </r>
       <r>   -4.4606    1.0000 </r>
       <r>   -3.9955    1.0000 </r>
       <r>   -3.2674    1.0000 </r>
       <r>   -1.6639    1.0000 </r>
       <r>   -1.5059    1.0000 </r>
       <r>   -1.0715    1.0000 </r>
       <r>    0.2541    1.0000 </r>
       <r>    0.3617    1.0000 </r>
       <r>    0.3623    1.0000 </r>
       <r>    0.3964    1.0000 </r>
       <r>    0.7005    1.0000 </r>
       <r>    0.9218    1.0000 </r>
       <r>    1.7764    0.9900 </r>
       <r>    2.3844    0.0000 </r>
       <r>    4.4804    0.0000 </r>
       <r>    4.8073    0.0000 </r>
       <r>    6.5156    0.0000 </r>
       <r>    6.9956    0.0000 </r>
       <r>    7.2085    0.0000 </r>
       <r>    8.4003    0.0000 </r>
       <r>    8.6729    0.0000 </r>
       <r>    9.7893    0.0000 </r>
       <r>   10.0093    0.0000 </r>
       <r>   10.0702    0.0000 </r>
       <r>   10.5573    0.0000 </r>
       <r>   10.7192    0.0000 </r>
       <r>   11.1153    0.0000 </r>
       <r>   11.7825    0.0000 </r>
       <r>   12.1865    0.0000 </r>
       <r>   12.2347    0.0000 </r>
       <r>   12.3560    0.0000 </r>
       <r>   12.6669    0.0000 </r>
       <r>   12.9095    0.0000 </r>
       <r>   12.9275    0.0000 </r>
       <r>   13.3444    0.0000 </r>
       <r>   14.0888    0.0000 </r>
       <r>   14.9320    0.0000 </r>
       <r>   15.0736    0.0000 </r>
       <r>   15.6667    0.0000 </r>
       <r>   15.7476    0.0000 </r>
      </set>
      <set comment="kpoint 18">
       <r>  -12.4375    1.0000 </r>
       <r>  -11.5040    1.0000 </r>
       <r>   -8.4542    1.0000 </r>
       <r>   -8.1987    1.0000 </r>
       <r>   -6.1264    1.0000 </r>
       <r>   -5.6990    1.0000 </r>
       <r>   -5.2917    1.0000 </r>
       <r>   -5.1335    1.0000 </r>
       <r>   -4.6186    1.0000 </r>
       <r>   -3.3537    1.0000 </r>
       <r>   -2.7862    1.0000 </r>
       <r>   -1.6165    1.0000 </r>
       <r>   -1.4892    1.0000 </r>
       <r>   -1.4889    1.0000 </r>
       <r>    0.1186    1.0000 </r>
       <r>    0.1582    1.0000 </r>
       <r>    0.2437    1.0000 </r>
       <r>    0.3337    1.0000 </r>
       <r>    0.5938    1.0000 </r>
       <r>    1.0347    1.0000 </r>
       <r>    1.7331    0.9998 </r>
       <r>    2.1694    0.0000 </r>
       <r>    4.6950    0.0000 </r>
       <r>    5.2516    0.0000 </r>
       <r>    6.4572    0.0000 </r>
       <r>    7.1681    0.0000 </r>
       <r>    7.4005    0.0000 </r>
       <r>    8.4330    0.0000 </r>
       <r>    8.9732    0.0000 </r>
       <r>    9.3516    0.0000 </r>
       <r>    9.7883    0.0000 </r>
       <r>   10.0382    0.0000 </r>
       <r>   10.3155    0.0000 </r>
       <r>   10.8285    0.0000 </r>
       <r>   11.0354    0.0000 </r>
       <r>   11.9147    0.0000 </r>
       <r>   11.9840    0.0000 </r>
       <r>   12.3221    0.0000 </r>
       <r>   12.3428    0.0000 </r>
       <r>   12.7762    0.0000 </r>
       <r>   12.8974    0.0000 </r>
       <r>   12.9390    0.0000 </r>
       <r>   13.5057    0.0000 </r>
       <r>   14.0372    0.0000 </r>
       <r>   14.7544    0.0000 </r>
       <r>   15.0043    0.0000 </r>
       <r>   15.4880    0.0000 </r>
       <r>   15.7607    0.0000 </r>
      </set>
      <set comment="kpoint 19">
       <r>  -12.3089    1.0000 </r>
       <r>  -11.6922    1.0000 </r>
       <r>   -8.3840    1.0000 </r>
       <r>   -8.1957    1.0000 </r>
       <r>   -5.9895    1.0000 </r>
       <r>   -5.7144    1.0000 </r>
       <r>   -5.6378    1.0000 </r>
       <r>   -5.3138    1.0000 </r>
       <r>   -4.4217    1.0000 </r>
       <r>   -2.7168    1.0000 </r>
       <r>   -2.1791    1.0000 </r>
       <r>   -2.1377    1.0000 </r>
       <r>   -1.4833    1.0000 </r>
       <r>   -1.4359    1.0000 </r>
       <r>   -0.2363    1.0000 </r>
       <r>   -0.1279    1.0000 </r>
       <r>    0.0332    1.0000 </r>
       <r>    0.1198    1.0000 </r>
       <r>    0.6229    1.0000 </r>
       <r>    1.2176    1.0000 </r>
       <r>    1.6498    1.0000 </r>
       <r>    1.7831    0.9836 </r>
       <r>    5.2406    0.0000 </r>
       <r>    5.9054    0.0000 </r>
       <r>    6.5090    0.0000 </r>
       <r>    7.2455    0.0000 </r>
       <r>    7.3585    0.0000 </r>
       <r>    8.3871    0.0000 </r>
       <r>    9.0842    0.0000 </r>
       <r>    9.1698    0.0000 </r>
       <r>    9.3909    0.0000 </r>
       <r>   10.0173    0.0000 </r>
       <r>   10.4017    0.0000 </r>
       <r>   10.6773    0.0000 </r>
       <r>   11.4290    0.0000 </r>
       <r>   11.5042    0.0000 </r>
       <r>   12.0903    0.0000 </r>
       <r>   12.1560    0.0000 </r>
       <r>   12.4031    0.0000 </r>
       <r>   12.6875    0.0000 </r>
       <r>   12.7360    0.0000 </r>
       <r>   13.1573    0.0000 </r>
       <r>   13.6657    0.0000 </r>
       <r>   14.4051    0.0000 </r>
       <r>   14.5377    0.0000 </r>
       <r>   15.0124    0.0000 </r>
       <r>   15.1211    0.0000 </r>
       <r>   15.6748    0.0000 </r>
      </set>
      <set comment="kpoint 20">
       <r>  -12.1283    1.0000 </r>
       <r>  -11.9135    1.0000 </r>
       <r>   -8.2969    1.0000 </r>
       <r>   -8.2260    1.0000 </r>
       <r>   -5.8691    1.0000 </r>
       <r>   -5.8295    1.0000 </r>
       <r>   -5.7334    1.0000 </r>
       <r>   -5.5356    1.0000 </r>
       <r>   -3.8418    1.0000 </r>
       <r>   -3.1041    1.0000 </r>
       <r>   -1.9179    1.0000 </r>
       <r>   -1.7535    1.0000 </r>
       <r>   -1.3436    1.0000 </r>
       <r>   -1.2907    1.0000 </r>
       <r>   -0.6556    1.0000 </r>
       <r>   -0.4730    1.0000 </r>
       <r>   -0.1734    1.0000 </r>
       <r>   -0.1460    1.0000 </r>
       <r>    0.9264    1.0000 </r>
       <r>    1.3333    1.0000 </r>
       <r>    1.3868    1.0000 </r>
       <r>    1.5323    1.0000 </r>
       <r>    6.0319    0.0000 </r>
       <r>    6.6119    0.0000 </r>
       <r>    6.7801    0.0000 </r>
       <r>    6.8544    0.0000 </r>
       <r>    7.0035    0.0000 </r>
       <r>    7.5553    0.0000 </r>
       <r>    9.2309    0.0000 </r>
       <r>    9.5742    0.0000 </r>
       <r>    9.6266    0.0000 </r>
       <r>    9.8314    0.0000 </r>
       <r>   10.3628    0.0000 </r>
       <r>   10.3933    0.0000 </r>
       <r>   11.4491    0.0000 </r>
       <r>   11.8298    0.0000 </r>
       <r>   12.1825    0.0000 </r>
       <r>   12.3166    0.0000 </r>
       <r>   12.3230    0.0000 </r>
       <r>   12.3884    0.0000 </r>
       <r>   12.4972    0.0000 </r>
       <r>   13.4607    0.0000 </r>
       <r>   13.6617    0.0000 </r>
       <r>   13.8366    0.0000 </r>
       <r>   14.8960    0.0000 </r>
       <r>   15.1086    0.0000 </r>
       <r>   15.1895    0.0000 </r>
       <r>   15.5297    0.0000 </r>
      </set>
      <set comment="kpoint 21">
       <r>  -12.4589    1.0000 </r>
       <r>  -11.3536    1.0000 </r>
       <r>   -8.4569    1.0000 </r>
       <r>   -8.1658    1.0000 </r>
       <r>   -6.4396    1.0000 </r>
       <r>   -5.7565    1.0000 </r>
       <r>   -5.2689    1.0000 </r>
       <r>   -4.7634    1.0000 </r>
       <r>   -4.4085    1.0000 </r>
       <r>   -3.9537    1.0000 </r>
       <r>   -3.2127    1.0000 </r>
       <r>   -1.8746    1.0000 </r>
       <r>   -1.7299    1.0000 </r>
       <r>   -1.0638    1.0000 </r>
       <r>    0.1248    1.0000 </r>
       <r>    0.1263    1.0000 </r>
       <r>    0.2755    1.0000 </r>
       <r>    0.4180    1.0000 </r>
       <r>    0.8271    1.0000 </r>
       <r>    1.2166    1.0000 </r>
       <r>    2.3128    0.0000 </r>
       <r>    2.4061    0.0000 </r>
       <r>    4.2809    0.0000 </r>
       <r>    4.6464    0.0000 </r>
       <r>    6.5734    0.0000 </r>
       <r>    6.9810    0.0000 </r>
       <r>    7.4612    0.0000 </r>
       <r>    8.5396    0.0000 </r>
       <r>    8.5980    0.0000 </r>
       <r>    9.7154    0.0000 </r>
       <r>   10.2568    0.0000 </r>
       <r>   10.3947    0.0000 </r>
       <r>   10.5299    0.0000 </r>
       <r>   11.0148    0.0000 </r>
       <r>   11.1773    0.0000 </r>
       <r>   11.2443    0.0000 </r>
       <r>   11.9399    0.0000 </r>
       <r>   12.2195    0.0000 </r>
       <r>   12.4002    0.0000 </r>
       <r>   13.2395    0.0000 </r>
       <r>   13.2590    0.0000 </r>
       <r>   13.8195    0.0000 </r>
       <r>   13.8510    0.0000 </r>
       <r>   14.2520    0.0000 </r>
       <r>   14.7077    0.0000 </r>
       <r>   15.0099    0.0000 </r>
       <r>   15.2424    0.0000 </r>
       <r>   15.6272    0.0000 </r>
      </set>
      <set comment="kpoint 22">
       <r>  -12.3927    1.0000 </r>
       <r>  -11.4635    1.0000 </r>
       <r>   -8.4206    1.0000 </r>
       <r>   -8.1566    1.0000 </r>
       <r>   -6.3641    1.0000 </r>
       <r>   -5.6379    1.0000 </r>
       <r>   -5.3731    1.0000 </r>
       <r>   -5.2307    1.0000 </r>
       <r>   -4.5769    1.0000 </r>
       <r>   -3.2984    1.0000 </r>
       <r>   -2.7251    1.0000 </r>
       <r>   -1.8123    1.0000 </r>
       <r>   -1.7092    1.0000 </r>
       <r>   -1.4948    1.0000 </r>
       <r>   -0.0744    1.0000 </r>
       <r>   -0.0103    1.0000 </r>
       <r>    0.1935    1.0000 </r>
       <r>    0.3532    1.0000 </r>
       <r>    0.6297    1.0000 </r>
       <r>    1.3888    1.0000 </r>
       <r>    2.1894    0.0000 </r>
       <r>    2.2576    0.0000 </r>
       <r>    4.5062    0.0000 </r>
       <r>    5.0816    0.0000 </r>
       <r>    6.5167    0.0000 </r>
       <r>    7.1301    0.0000 </r>
       <r>    7.6556    0.0000 </r>
       <r>    8.6333    0.0000 </r>
       <r>    8.9464    0.0000 </r>
       <r>    9.1316    0.0000 </r>
       <r>    9.7649    0.0000 </r>
       <r>   10.2957    0.0000 </r>
       <r>   10.4255    0.0000 </r>
       <r>   11.1253    0.0000 </r>
       <r>   11.2856    0.0000 </r>
       <r>   11.7202    0.0000 </r>
       <r>   11.9958    0.0000 </r>
       <r>   12.2430    0.0000 </r>
       <r>   12.4578    0.0000 </r>
       <r>   13.1085    0.0000 </r>
       <r>   13.2539    0.0000 </r>
       <r>   13.6233    0.0000 </r>
       <r>   13.8004    0.0000 </r>
       <r>   14.1237    0.0000 </r>
       <r>   14.4051    0.0000 </r>
       <r>   14.8105    0.0000 </r>
       <r>   14.8580    0.0000 </r>
       <r>   15.4414    0.0000 </r>
      </set>
      <set comment="kpoint 23">
       <r>  -12.2647    1.0000 </r>
       <r>  -11.6510    1.0000 </r>
       <r>   -8.3497    1.0000 </r>
       <r>   -8.1561    1.0000 </r>
       <r>   -6.2199    1.0000 </r>
       <r>   -5.6448    1.0000 </r>
       <r>   -5.5835    1.0000 </r>
       <r>   -5.5551    1.0000 </r>
       <r>   -4.3908    1.0000 </r>
       <r>   -2.6508    1.0000 </r>
       <r>   -2.1145    1.0000 </r>
       <r>   -2.1011    1.0000 </r>
       <r>   -1.7067    1.0000 </r>
       <r>   -1.6586    1.0000 </r>
       <r>   -0.3104    1.0000 </r>
       <r>   -0.2379    1.0000 </r>
       <r>   -0.1905    1.0000 </r>
       <r>    0.1272    1.0000 </r>
       <r>    0.6385    1.0000 </r>
       <r>    1.6106    1.0000 </r>
       <r>    1.8025    0.9437 </r>
       <r>    2.1507    0.0000 </r>
       <r>    5.0552    0.0000 </r>
       <r>    5.7380    0.0000 </r>
       <r>    6.5811    0.0000 </r>
       <r>    7.1895    0.0000 </r>
       <r>    7.5063    0.0000 </r>
       <r>    8.2867    0.0000 </r>
       <r>    9.1180    0.0000 </r>
       <r>    9.2860    0.0000 </r>
       <r>    9.4682    0.0000 </r>
       <r>   10.0539    0.0000 </r>
       <r>   10.5695    0.0000 </r>
       <r>   11.2639    0.0000 </r>
       <r>   11.4600    0.0000 </r>
       <r>   11.9511    0.0000 </r>
       <r>   11.9984    0.0000 </r>
       <r>   12.1432    0.0000 </r>
       <r>   12.4120    0.0000 </r>
       <r>   12.9050    0.0000 </r>
       <r>   13.1261    0.0000 </r>
       <r>   13.3321    0.0000 </r>
       <r>   13.8834    0.0000 </r>
       <r>   14.1668    0.0000 </r>
       <r>   14.1961    0.0000 </r>
       <r>   14.5731    0.0000 </r>
       <r>   14.8805    0.0000 </r>
       <r>   15.6067    0.0000 </r>
      </set>
      <set comment="kpoint 24">
       <r>  -12.0850    1.0000 </r>
       <r>  -11.8712    1.0000 </r>
       <r>   -8.2616    1.0000 </r>
       <r>   -8.1890    1.0000 </r>
       <r>   -6.0218    1.0000 </r>
       <r>   -5.7994    1.0000 </r>
       <r>   -5.7546    1.0000 </r>
       <r>   -5.7375    1.0000 </r>
       <r>   -3.8141    1.0000 </r>
       <r>   -3.0754    1.0000 </r>
       <r>   -1.8191    1.0000 </r>
       <r>   -1.6734    1.0000 </r>
       <r>   -1.5987    1.0000 </r>
       <r>   -1.5164    1.0000 </r>
       <r>   -0.6162    1.0000 </r>
       <r>   -0.4669    1.0000 </r>
       <r>   -0.4003    1.0000 </r>
       <r>   -0.3741    1.0000 </r>
       <r>    0.9428    1.0000 </r>
       <r>    1.3510    1.0000 </r>
       <r>    1.8214    0.8537 </r>
       <r>    2.0036    0.0000 </r>
       <r>    5.8497    0.0000 </r>
       <r>    6.5126    0.0000 </r>
       <r>    6.6986    0.0000 </r>
       <r>    6.8147    0.0000 </r>
       <r>    7.1443    0.0000 </r>
       <r>    7.3832    0.0000 </r>
       <r>    9.1551    0.0000 </r>
       <r>    9.6193    0.0000 </r>
       <r>   10.0192    0.0000 </r>
       <r>   10.1292    0.0000 </r>
       <r>   10.4948    0.0000 </r>
       <r>   10.9186    0.0000 </r>
       <r>   11.8451    0.0000 </r>
       <r>   11.8493    0.0000 </r>
       <r>   12.0327    0.0000 </r>
       <r>   12.1530    0.0000 </r>
       <r>   12.3120    0.0000 </r>
       <r>   12.8544    0.0000 </r>
       <r>   12.9368    0.0000 </r>
       <r>   13.1809    0.0000 </r>
       <r>   13.8653    0.0000 </r>
       <r>   13.8903    0.0000 </r>
       <r>   14.3283    0.0000 </r>
       <r>   14.3672    0.0000 </r>
       <r>   15.2112    0.0000 </r>
       <r>   15.5754    0.0000 </r>
      </set>
      <set comment="kpoint 25">
       <r>  -12.7074    1.0000 </r>
       <r>  -11.6230    1.0000 </r>
       <r>   -8.6593    1.0000 </r>
       <r>   -8.3642    1.0000 </r>
       <r>   -6.2612    1.0000 </r>
       <r>   -5.3364    1.0000 </r>
[...]
       <r>   -2.4077    1.0000 </r>
       <r>   -2.0953    1.0000 </r>
       <r>   -1.8797    1.0000 </r>
       <r>   -1.4022    1.0000 </r>
       <r>   -0.8854    1.0000 </r>
       <r>   -0.3203    1.0000 </r>
       <r>    0.0352    1.0000 </r>
       <r>    0.3418    1.0000 </r>
       <r>    0.5028    1.0000 </r>
       <r>    1.5987    1.0000 </r>
       <r>    1.8972    0.1376 </r>
       <r>    1.9147    0.0563 </r>
       <r>    5.3570    0.0000 </r>
       <r>    6.1315    0.0000 </r>
       <r>    6.7556    0.0000 </r>
       <r>    7.0792    0.0000 </r>
       <r>    7.9017    0.0000 </r>
       <r>    8.4627    0.0000 </r>
       <r>    8.7996    0.0000 </r>
       <r>    8.9458    0.0000 </r>
       <r>    9.7117    0.0000 </r>
       <r>    9.9766    0.0000 </r>
       <r>   10.6219    0.0000 </r>
       <r>   11.0179    0.0000 </r>
       <r>   11.2817    0.0000 </r>
       <r>   11.4976    0.0000 </r>
       <r>   11.5652    0.0000 </r>
       <r>   12.1345    0.0000 </r>
       <r>   12.7132    0.0000 </r>
       <r>   12.9240    0.0000 </r>
       <r>   13.3791    0.0000 </r>
       <r>   13.5575    0.0000 </r>
       <r>   13.7019    0.0000 </r>
       <r>   14.0923    0.0000 </r>
       <r>   14.4602    0.0000 </r>
       <r>   15.0468    0.0000 </r>
       <r>   15.0944    0.0000 </r>
       <r>   15.4697    0.0000 </r>
      </set>
      <set comment="kpoint 96">
       <r>  -12.0408    1.0000 </r>
       <r>  -11.8664    1.0000 </r>
       <r>   -8.5532    1.0000 </r>
       <r>   -8.4128    1.0000 </r>
       <r>   -5.9320    1.0000 </r>
       <r>   -5.7967    1.0000 </r>
       <r>   -4.9991    1.0000 </r>
       <r>   -4.5825    1.0000 </r>
       <r>   -4.4194    1.0000 </r>
       <r>   -3.8536    1.0000 </r>
       <r>   -2.1886    1.0000 </r>
       <r>   -2.1024    1.0000 </r>
       <r>   -2.0862    1.0000 </r>
       <r>   -1.7300    1.0000 </r>
       <r>   -0.2632    1.0000 </r>
       <r>   -0.0299    1.0000 </r>
       <r>    0.3491    1.0000 </r>
       <r>    0.4818    1.0000 </r>
       <r>    0.5385    1.0000 </r>
       <r>    0.9608    1.0000 </r>
       <r>    1.6051    1.0000 </r>
       <r>    1.7376    0.9997 </r>
       <r>    5.8341    0.0000 </r>
       <r>    6.0621    0.0000 </r>
       <r>    6.8302    0.0000 </r>
       <r>    7.3744    0.0000 </r>
       <r>    7.5557    0.0000 </r>
       <r>    7.6264    0.0000 </r>
       <r>    9.3247    0.0000 </r>
       <r>    9.4906    0.0000 </r>
       <r>    9.7787    0.0000 </r>
       <r>    9.9615    0.0000 </r>
       <r>   10.4500    0.0000 </r>
       <r>   10.8682    0.0000 </r>
       <r>   11.2230    0.0000 </r>
       <r>   11.5310    0.0000 </r>
       <r>   11.5494    0.0000 </r>
       <r>   11.6894    0.0000 </r>
       <r>   13.0523    0.0000 </r>
       <r>   13.1867    0.0000 </r>
       <r>   13.5963    0.0000 </r>
       <r>   13.9621    0.0000 </r>
       <r>   14.1212    0.0000 </r>
       <r>   14.3135    0.0000 </r>
       <r>   14.5241    0.0000 </r>
       <r>   14.7506    0.0000 </r>
       <r>   14.9110    0.0000 </r>
       <r>   15.0861    0.0000 </r>
      </set>
     </set>
    </set>
   </array>
  </eigenvalues>
  <separator name="orbital magnetization" >
   <v name="MAGDIPOLOUT">      0.00000000      0.00000000      0.00000000</v>
  </separator>
  <dos>
   <i name="efermi">      1.85857154 </i>
   <total>
    <array>
     <dimension dim="1">gridpoints</dimension>
     <dimension dim="2">spin</dimension>
     <field>energy</field>
     <field>total</field>
     <field>integrated</field>
     <set>
      <set comment="spin 1">
       <r>   -14.1901     0.0000     0.0000 </r>
       <r>   -14.0827     0.0000     0.0000 </r>
       <r>   -13.9752     0.0000     0.0000 </r>
       <r>   -13.8678     0.0000     0.0000 </r>
       <r>   -13.7603     0.0000     0.0000 </r>
       <r>   -13.6529     0.0000     0.0000 </r>
       <r>   -13.5454     0.0000     0.0000 </r>
       <r>   -13.4380     0.0000     0.0000 </r>
       <r>   -13.3305     0.0000     0.0000 </r>
       <r>   -13.2231     0.0000     0.0000 </r>
       <r>   -13.1156     0.0000     0.0000 </r>
       <r>   -13.0082     0.0000     0.0000 </r>
       <r>   -12.9007     0.0000     0.0000 </r>
       <r>   -12.7933     0.0037     0.0004 </r>
       <r>   -12.6858     0.5035     0.0545 </r>
       <r>   -12.5784     2.4071     0.3131 </r>
       <r>   -12.4709     3.5961     0.6995 </r>
       <r>   -12.3635     4.2571     1.1569 </r>
       <r>   -12.2560     3.6974     1.5542 </r>
       <r>   -12.1486     2.4823     1.8209 </r>
       <r>   -12.0411     3.1226     2.1565 </r>
       <r>   -11.9337     2.0651     2.3784 </r>
       <r>   -11.8262     3.2111     2.7234 </r>
       <r>   -11.7188     3.0427     3.0503 </r>
       <r>   -11.6113     3.7880     3.4573 </r>
       <r>   -11.5039     2.9940     3.7790 </r>
       <r>   -11.3964     1.6433     3.9556 </r>
       <r>   -11.2890     0.4078     3.9994 </r>
       <r>   -11.1815     0.0053     4.0000 </r>
       <r>   -11.0741     0.0000     4.0000 </r>
       <r>   -10.9666     0.0000     4.0000 </r>
       <r>   -10.8592     0.0000     4.0000 </r>
       <r>   -10.7517     0.0000     4.0000 </r>
       <r>   -10.6443     0.0000     4.0000 </r>
       <r>   -10.5368     0.0000     4.0000 </r>
       <r>   -10.4294     0.0000     4.0000 </r>
       <r>   -10.3220     0.0000     4.0000 </r>
       <r>   -10.2145     0.0000     4.0000 </r>
       <r>   -10.1071     0.0000     4.0000 </r>
       <r>    -9.9996     0.0000     4.0000 </r>
       <r>    -9.8922     0.0000     4.0000 </r>
       <r>    -9.7847     0.0000     4.0000 </r>
       <r>    -9.6773     0.0000     4.0000 </r>
       <r>    -9.5698     0.0000     4.0000 </r>
       <r>    -9.4624     0.0000     4.0000 </r>
       <r>    -9.3549     0.0000     4.0000 </r>
       <r>    -9.2475     0.0000     4.0000 </r>
       <r>    -9.1400     0.0000     4.0000 </r>
       <r>    -9.0326     0.0000     4.0000 </r>
       <r>    -8.9251     0.0011     4.0001 </r>
       <r>    -8.8177     0.3467     4.0374 </r>
       <r>    -8.7102     2.2887     4.2833 </r>
       <r>    -8.6028     5.5796     4.8828 </r>
       <r>    -8.4953     6.9674     5.6315 </r>
       <r>    -8.3879     6.2085     6.2986 </r>
       <r>    -8.2804     5.1529     6.8522 </r>
       <r>    -8.1730     5.0264     7.3923 </r>
       <r>    -8.0655     3.4858     7.7669 </r>
       <r>    -7.9581     1.6454     7.9437 </r>
       <r>    -7.8506     0.4930     7.9966 </r>
       <r>    -7.7432     0.0313     8.0000 </r>
       <r>    -7.6357     0.0000     8.0000 </r>
       <r>    -7.5283     0.0000     8.0000 </r>
       <r>    -7.4208     0.0000     8.0000 </r>
       <r>    -7.3134     0.0000     8.0000 </r>
       <r>    -7.2059     0.0000     8.0000 </r>
       <r>    -7.0985     0.0000     8.0000 </r>
       <r>    -6.9910     0.0001     8.0000 </r>
       <r>    -6.8836     0.0921     8.0099 </r>
       <r>    -6.7761     0.4248     8.0555 </r>
       <r>    -6.6687     0.3143     8.0893 </r>
       <r>    -6.5612     0.7243     8.1671 </r>
       <r>    -6.4538     0.9414     8.2683 </r>
       <r>    -6.3463     1.6533     8.4459 </r>
       <r>    -6.2389     1.9559     8.6561 </r>
       <r>    -6.1314     3.3282     9.0137 </r>
       <r>    -6.0240     3.6551     9.4064 </r>
       <r>    -5.9165     4.1104     9.8481 </r>
       <r>    -5.8091     3.8237    10.2590 </r>
       <r>    -5.7016     4.3739    10.7289 </r>
       <r>    -5.5942     3.9611    11.1546 </r>
       <r>    -5.4867     4.5021    11.6383 </r>
       <r>    -5.3793     3.9801    12.0660 </r>
       <r>    -5.2718     5.1047    12.6145 </r>
       <r>    -5.1644     3.9821    13.0423 </r>
       <r>    -5.0569     3.6351    13.4329 </r>
       <r>    -4.9495     3.6503    13.8252 </r>
       <r>    -4.8420     2.8394    14.1302 </r>
       <r>    -4.7346     2.3440    14.3821 </r>
       <r>    -4.6271     3.1255    14.7179 </r>
       <r>    -4.5197     3.3801    15.0811 </r>
       <r>    -4.4122     3.1497    15.4196 </r>
       <r>    -4.3048     2.6751    15.7070 </r>
       <r>    -4.1973     3.2748    16.0589 </r>
       <r>    -4.0899     3.3063    16.4142 </r>
       <r>    -3.9824     3.0793    16.7450 </r>
       <r>    -3.8750     3.7214    17.1449 </r>
       <r>    -3.7675     2.4259    17.4055 </r>
       <r>    -3.6601     1.9229    17.6122 </r>
       <r>    -3.5526     2.5447    17.8856 </r>
       <r>    -3.4452     3.2092    18.2304 </r>
       <r>    -3.3377     3.1610    18.5700 </r>
       <r>    -3.2303     3.7182    18.9696 </r>
       <r>    -3.1228     2.5742    19.2462 </r>
       <r>    -3.0154     2.3661    19.5004 </r>
       <r>    -2.9079     2.2096    19.7378 </r>
       <r>    -2.8005     2.8165    20.0404 </r>
       <r>    -2.6931     3.0629    20.3696 </r>
       <r>    -2.5856     2.5650    20.6452 </r>
       <r>    -2.4782     3.1812    20.9870 </r>
       <r>    -2.3707     3.3846    21.3506 </r>
       <r>    -2.2633     3.9507    21.7751 </r>
       <r>    -2.1558     3.3776    22.1381 </r>
       <r>    -2.0484     3.0294    22.4636 </r>
       <r>    -1.9409     2.5817    22.7410 </r>
       <r>    -1.8335     6.5042    23.4398 </r>
       <r>    -1.7260     4.5166    23.9251 </r>
       <r>    -1.6186     7.1830    24.6970 </r>
       <r>    -1.5111     7.0951    25.4593 </r>
       <r>    -1.4037     5.3595    26.0352 </r>
       <r>    -1.2962     5.2300    26.5971 </r>
       <r>    -1.1888     3.9759    27.0244 </r>
       <r>    -1.0813     5.4866    27.6139 </r>
       <r>    -0.9739     3.9407    28.0373 </r>
       <r>    -0.8664     3.4881    28.4121 </r>
       <r>    -0.7590     2.7656    28.7093 </r>
       <r>    -0.6515     3.5788    29.0938 </r>
       <r>    -0.5441     4.6095    29.5891 </r>
       <r>    -0.4366     5.0415    30.1308 </r>
       <r>    -0.3292     6.8931    30.8715 </r>
       <r>    -0.2217     6.3215    31.5507 </r>
       <r>    -0.1143     7.2444    32.3291 </r>
       <r>    -0.0068     7.6707    33.1533 </r>
       <r>     0.1006     4.9469    33.6849 </r>
       <r>     0.2081     7.0237    34.4396 </r>
       <r>     0.3155     9.0231    35.4091 </r>
       <r>     0.4230     8.5844    36.3315 </r>
       <r>     0.5304     7.8497    37.1749 </r>
       <r>     0.6379     4.1744    37.6235 </r>
       <r>     0.7453     2.5229    37.8945 </r>
       <r>     0.8528     3.0032    38.2172 </r>
       <r>     0.9602     4.4593    38.6964 </r>
       <r>     1.0677     3.9514    39.1209 </r>
       <r>     1.1751     3.3928    39.4855 </r>
       <r>     1.2826     3.6371    39.8763 </r>
       <r>     1.3900     3.2238    40.2227 </r>
       <r>     1.4975     3.0968    40.5554 </r>
       <r>     1.6049     3.4011    40.9209 </r>
       <r>     1.7124     4.3108    41.3841 </r>
       <r>     1.8198     4.3786    41.8546 </r>
       <r>     1.9273     3.7927    42.2621 </r>
       <r>     2.0347     2.0090    42.4780 </r>
       <r>     2.1422     2.1168    42.7054 </r>
       <r>     2.2496     2.1255    42.9338 </r>
       <r>     2.3571     1.6476    43.1108 </r>
       <r>     2.4645     1.2772    43.2481 </r>
       <r>     2.5720     0.3689    43.2877 </r>
       <r>     2.6794     0.7358    43.3668 </r>
       <r>     2.7869     1.5892    43.5375 </r>
       <r>     2.8943     1.2505    43.6719 </r>
       <r>     3.0018     0.3889    43.7137 </r>
       <r>     3.1092     0.0058    43.7143 </r>
       <r>     3.2167     0.0103    43.7154 </r>
       <r>     3.3241     0.3578    43.7538 </r>
       <r>     3.4316     0.6492    43.8236 </r>
       <r>     3.5390     0.3109    43.8570 </r>
       <r>     3.6465     0.0915    43.8668 </r>
       <r>     3.7539     0.6004    43.9313 </r>
       <r>     3.8614     0.6046    43.9963 </r>
       <r>     3.9688     0.0344    44.0000 </r>
       <r>     4.0763     0.0000    44.0000 </r>
       <r>     4.1837     0.0004    44.0000 </r>
       <r>     4.2912     0.0866    44.0093 </r>
       <r>     4.3986     0.2586    44.0371 </r>
       <r>     4.5061     0.3391    44.0736 </r>
       <r>     4.6135     0.6636    44.1449 </r>
       <r>     4.7210     0.6843    44.2184 </r>
       <r>     4.8284     0.8319    44.3078 </r>
       <r>     4.9359     0.9281    44.4075 </r>
       <r>     5.0433     0.8166    44.4953 </r>
       <r>     5.1507     1.3968    44.6454 </r>
       <r>     5.2582     1.1847    44.7726 </r>
       <r>     5.3656     2.1204    45.0005 </r>
       <r>     5.4731     1.9290    45.2078 </r>
       <r>     5.5805     2.7193    45.4999 </r>
       <r>     5.6880     3.0348    45.8260 </r>
       <r>     5.7954     3.2731    46.1777 </r>
       <r>     5.9029     3.9444    46.6015 </r>
       <r>     6.0103     3.9920    47.0305 </r>
       <r>     6.1178     4.7393    47.5397 </r>
       <r>     6.2252     4.1999    47.9910 </r>
       <r>     6.3327     4.1761    48.4397 </r>
       <r>     6.4401     4.5632    48.9300 </r>
       <r>     6.5476     4.3366    49.3960 </r>
       <r>     6.6550     3.6496    49.7881 </r>
       <r>     6.7625     3.8942    50.2066 </r>
       <r>     6.8699     4.1082    50.6480 </r>
       <r>     6.9774     4.2101    51.1004 </r>
       <r>     7.0848     4.2830    51.5606 </r>
       <r>     7.1923     5.9389    52.1987 </r>
       <r>     7.2997     4.2029    52.6503 </r>
       <r>     7.4072     5.2359    53.2129 </r>
       <r>     7.5146     4.3694    53.6824 </r>
       <r>     7.6221     4.2816    54.1424 </r>
       <r>     7.7295     2.7167    54.4344 </r>
       <r>     7.8370     3.6618    54.8278 </r>
       <r>     7.9444     2.7861    55.1272 </r>
       <r>     8.0519     3.2294    55.4742 </r>
       <r>     8.1593     3.7112    55.8729 </r>
       <r>     8.2668     4.2388    56.3284 </r>
       <r>     8.3742     4.2797    56.7883 </r>
       <r>     8.4817     3.8488    57.2018 </r>
       <r>     8.5891     2.9334    57.5170 </r>
       <r>     8.6966     5.1251    58.0677 </r>
       <r>     8.8040     6.0412    58.7168 </r>
       <r>     8.9115     5.0388    59.2582 </r>
       <r>     9.0189     4.1691    59.7062 </r>
       <r>     9.1264     4.8739    60.2299 </r>
       <r>     9.2338     5.3088    60.8003 </r>
       <r>     9.3413     4.7072    61.3061 </r>
       <r>     9.4487     5.1222    61.8565 </r>
       <r>     9.5562     4.6580    62.3570 </r>
       <r>     9.6636     4.7630    62.8688 </r>
       <r>     9.7711     4.8599    63.3910 </r>
       <r>     9.8785     5.1810    63.9477 </r>
       <r>     9.9860     5.6976    64.5599 </r>
       <r>    10.0934     4.4687    65.0400 </r>
       <r>    10.2009     2.4168    65.2997 </r>
       <r>    10.3083     4.2442    65.7557 </r>
       <r>    10.4158     5.5404    66.3510 </r>
       <r>    10.5232     5.5622    66.9487 </r>
       <r>    10.6307     5.2277    67.5104 </r>
       <r>    10.7381     4.6849    68.0138 </r>
       <r>    10.8456     3.6131    68.4020 </r>
       <r>    10.9530     3.5674    68.7853 </r>
       <r>    11.0605     5.2865    69.3534 </r>
       <r>    11.1679     5.7043    69.9663 </r>
       <r>    11.2754     6.2336    70.6361 </r>
       <r>    11.3828     5.0433    71.1780 </r>
       <r>    11.4903     4.2473    71.6344 </r>
       <r>    11.5977     4.7864    72.1487 </r>
       <r>    11.7052     4.0008    72.5785 </r>
       <r>    11.8126     5.4820    73.1676 </r>
       <r>    11.9201     6.4232    73.8577 </r>
       <r>    12.0275     6.1302    74.5164 </r>
       <r>    12.1350     5.7232    75.1314 </r>
       <r>    12.2424     4.6796    75.6342 </r>
       <r>    12.3499     6.5699    76.3401 </r>
       <r>    12.4573     5.2167    76.9007 </r>
       <r>    12.5648     5.4794    77.4894 </r>
       <r>    12.6722     6.1265    78.1477 </r>
       <r>    12.7797     5.2873    78.7158 </r>
       <r>    12.8871     5.0100    79.2541 </r>
       <r>    12.9945     7.6799    80.0793 </r>
       <r>    13.1020     5.2259    80.6409 </r>
       <r>    13.2094     5.7420    81.2578 </r>
       <r>    13.3169     6.7837    81.9867 </r>
       <r>    13.4243     5.4962    82.5773 </r>
       <r>    13.5318     5.4767    83.1658 </r>
       <r>    13.6392     5.3645    83.7422 </r>
       <r>    13.7467     6.1868    84.4070 </r>
       <r>    13.8541     5.6811    85.0174 </r>
       <r>    13.9616     5.2869    85.5855 </r>
       <r>    14.0690     4.6086    86.0807 </r>
       <r>    14.1765     4.8946    86.6066 </r>
       <r>    14.2839     5.4378    87.1909 </r>
       <r>    14.3914     4.1916    87.6412 </r>
       <r>    14.4988     5.3416    88.2152 </r>
       <r>    14.6063     5.8681    88.8457 </r>
       <r>    14.7137     4.8158    89.3632 </r>
       <r>    14.8212     4.3912    89.8350 </r>
       <r>    14.9286     4.3942    90.3071 </r>
       <r>    15.0361     5.8114    90.9316 </r>
       <r>    15.1435     5.5486    91.5278 </r>
       <r>    15.2510     6.5541    92.2320 </r>
       <r>    15.3584     6.6380    92.9453 </r>
       <r>    15.4659     4.5825    93.4376 </r>
       <r>    15.5733     6.0389    94.0865 </r>
       <r>    15.6808     5.0219    94.6261 </r>
       <r>    15.7882     3.6453    95.0178 </r>
       <r>    15.8957     3.1303    95.3542 </r>
       <r>    16.0031     1.8279    95.5506 </r>
       <r>    16.1106     0.9900    95.6569 </r>
       <r>    16.2180     0.8175    95.7448 </r>
       <r>    16.3255     1.1673    95.8702 </r>
       <r>    16.4329     0.6621    95.9413 </r>
       <r>    16.5404     0.4251    95.9870 </r>
       <r>    16.6478     0.1190    95.9998 </r>
       <r>    16.7553     0.0018    96.0000 </r>
       <r>    16.8627     0.0000    96.0000 </r>
       <r>    16.9702     0.0000    96.0000 </r>
       <r>    17.0776     0.0000    96.0000 </r>
       <r>    17.1851     0.0000    96.0000 </r>
       <r>    17.2925     0.0000    96.0000 </r>
       <r>    17.4000     0.0000    96.0000 </r>
       <r>    17.5074     0.0000    96.0000 </r>
       <r>    17.6149     0.0000    96.0000 </r>
       <r>    17.7223     0.0000    96.0000 </r>
       <r>    17.8298     0.0000    96.0000 </r>
       <r>    17.9372     0.0000    96.0000 </r>
       <r>    18.0447     0.0000    96.0000 </r>
      </set>
     </set>
    </array>
   </total>
  </dos>
 </calculation>
 <structure name="finalpos" >
  <crystal>
   <varray name="basis" >
    <v>       5.69700000       0.00000000       0.00000000 </v>
    <v>       0.00000000       4.04790000       0.00000000 </v>
    <v>       0.00000000       0.00000000       6.20420000 </v>
   </varray>
   <i name="volume">    143.07435078 </i>
   <varray name="rec_basis" >
    <v>       0.17553098       0.00000000       0.00000000 </v>
    <v>       0.00000000       0.24704168       0.00000000 </v>
    <v>       0.00000000       0.00000000       0.16118114 </v>
   </varray>
  </crystal>
  <varray name="positions" >
   <v>       0.52123000       0.50000000       0.63796000 </v>
   <v>       0.47877000       0.50000000       0.36204000 </v>
   <v>       0.97877000       0.50000000       0.63796000 </v>
   <v>       0.02123000       0.50000000       0.36204000 </v>
   <v>       0.60090000       0.50000000       0.89991000 </v>
   <v>       0.39910000       0.50000000       0.10009000 </v>
   <v>       0.89910000       0.50000000       0.89991000 </v>
   <v>       0.10090000       0.50000000       0.10009000 </v>
   <v>       0.75000000       0.79171000       0.72973000 </v>
   <v>       0.25000000       0.20829000       0.27027000 </v>
   <v>       0.75000000       0.20829000       0.72973000 </v>
   <v>       0.25000000       0.79171000       0.27027000 </v>
   <v>       0.25000000       0.50000000       0.52367000 </v>
   <v>       0.75000000       0.50000000       0.47633000 </v>
  </varray>
 </structure>
</modeling>
