 running   24 mpi-ranks, with    1 threads/rank, on    1 nodes
 distrk:  each k-point on   24 cores,    1 groups
 distr:  one band on    1 cores,   24 groups
 vasp.6.4.3 19Mar24 (build May 31 2024 16:31:43) complex                        
  
 POSCAR found type information on POSCAR B 
 POSCAR found :  1 types and      14 ions
 Reading from existing POTCAR
 scaLAPACK will be used
 Reading from existing POTCAR
 LDA part: xc-table for (Slater+PW92), standard interpolation
 POSCAR, INCAR and KPOINTS ok, starting setup
 FFT: planning ... GRIDC
 FFT: planning ... GRID_SOFT
 FFT: planning ... GRID
 WAVECAR not read
 entering main loop
       N       E                     dE             d eps       ncg     rms          rms(c)
DAV:   1     0.126024710924E+03    0.12602E+03   -0.24449E+04120960   0.114E+03
DAV:   2    -0.895082115010E+02   -0.21553E+03   -0.20039E+03162600   0.196E+02
DAV:   3    -0.975981602495E+02   -0.80899E+01   -0.80258E+01180192   0.334E+01
DAV:   4    -0.976475801172E+02   -0.49420E-01   -0.49417E-01137352   0.301E+00
DAV:   5    -0.976480965411E+02   -0.51642E-03   -0.51641E-03180384   0.293E-01    0.123E+01
