   14   14    1    1
  0.1021960E+02  0.5697000E-09  0.4047900E-09  0.6204200E-09  0.5000000E-15
  1.000000000000000E-004
  CAR 
 Kpoints                                 
     42   1260     48
 
  0.0000000E+00  0.0000000E+00  0.0000000E+00  0.1146657E-03
      1        -12.733218   1.000000
      2        -11.576195   1.000000
      3         -8.662264   1.000000
      4         -8.425000   1.000000
      5         -6.077705   1.000000
      6         -5.059692   1.000000
      7         -4.638628   1.000000
      8         -4.349887   1.000000
      9         -3.973795   1.000000
     10         -3.598979   1.000000
     11         -2.422275   1.000000
     12         -2.242876   1.000000
     13         -2.183663   1.000000
     14         -1.053297   1.000000
     15         -0.037784   1.000000
     16         -0.003920   1.000000
     17          0.149018   1.000000
     18          0.172493   1.000000
     19          0.564152   1.000000
     20          2.079082   0.000000
     21          2.125269   0.000000
     22          2.214090   0.000000
     23          5.410838   0.000000
     24          5.801010   0.000000
     25          5.816556   0.000000
     26          5.909988   0.000000
     27          6.785042   0.000000
     28          7.671970   0.000000
     29          7.700429   0.000000
     30          8.633424   0.000000
     31          8.751765   0.000000
     32          8.852212   0.000000
     33          9.039833   0.000000
     34         10.028920   0.000000
     35         11.143817   0.000000
     36         11.398727   0.000000
     37         11.768622   0.000000
     38         11.801024   0.000000
     39         11.898214   0.000000
     40         12.353810   0.000000
     41         12.803796   0.000000
     42         13.393687   0.000000
     43         13.572526   0.000000
     44         15.553504   0.000000
     45         15.566862   0.000000
     46         15.941115   0.000000
     47         16.357292   0.000000
     48         16.597584   0.000000
 
  0.5263158E-01  0.0000000E+00  0.0000000E+00  0.2293315E-03
      1        -12.727117   1.000000
      2        -11.586833   1.000000
      3         -8.659440   1.000000
      4         -8.423184   1.000000
      5         -6.064854   1.000000
      6         -5.141662   1.000000
      7         -4.670451   1.000000
      8         -4.253123   1.000000
      9         -3.965244   1.000000
     10         -3.539807   1.000000
     11         -2.419651   1.000000
     12         -2.244582   1.000000
     13         -2.203631   1.000000
     14         -1.099409   1.000000
     15         -0.031674   1.000000
     16          0.006269   1.000000
     17          0.153743   1.000000
     18          0.156170   1.000000
     19          0.550116   1.000000
     20          2.066132   0.000000
     21          2.113831   0.000000
     22          2.197628   0.000000
     23          5.424734   0.000000
     24          5.793064   0.000000
     25          5.796486   0.000000
     26          5.991245   0.000000
     27          6.771792   0.000000
     28          7.496392   0.000000
     29          7.846008   0.000000
     30          8.653732   0.000000
     31          8.807468   0.000000
     32          8.889095   0.000000
     33          9.042758   0.000000
     34         10.047232   0.000000
     35         11.154120   0.000000
     36         11.338941   0.000000
     37         11.663981   0.000000
     38         11.765481   0.000000
     39         11.931009   0.000000
     40         12.365991   0.000000
     41         12.873416   0.000000
     42         13.502593   0.000000
     43         13.515235   0.000000
     44         15.361962   0.000000
     45         15.601526   0.000000
     46         16.079256   0.000000
     47         16.344248   0.000000
     48         16.373215   0.000000
 
  0.1052632E+00  0.0000000E+00  0.0000000E+00  0.2293315E-03
      1        -12.708871   1.000000
      2        -11.618103   1.000000
      3         -8.650801   1.000000
      4         -8.418064   1.000000
      5         -6.031481   1.000000
      6         -5.313973   1.000000
      7         -4.739322   1.000000
      8         -4.036846   1.000000
      9         -3.939664   1.000000
     10         -3.385036   1.000000
     11         -2.411687   1.000000
     12         -2.261471   1.000000
     13         -2.249658   1.000000
     14         -1.232057   1.000000
     15         -0.013579   1.000000
     16          0.035270   1.000000
     17          0.098337   1.000000
     18          0.175557   1.000000
     19          0.508608   1.000000
     20          2.028498   0.000010
     21          2.080494   0.000000
     22          2.148106   0.000000
     23          5.463589   0.000000
     24          5.771243   0.000000
     25          5.813769   0.000000
     26          6.155540   0.000000
     27          6.734177   0.000000
     28          7.299164   0.000000
     29          7.968313   0.000000
     30          8.711626   0.000000
     31          8.956677   0.000000
     32          8.994372   0.000000
     33          9.049862   0.000000
     34         10.103455   0.000000
     35         11.168071   0.000000
     36         11.185449   0.000000
     37         11.409461   0.000000
     38         11.702682   0.000000
     39         12.026156   0.000000
     40         12.402109   0.000000
     41         13.023499   0.000000
     42         13.356096   0.000000
     43         13.770415   0.000000
     44         15.058252   0.000000
     45         15.695003   0.000000
     46         16.062701   0.000000
     47         16.245337   0.000000
     48         16.419331   0.000000
 
  0.1578947E+00  0.0000000E+00  0.0000000E+00  0.2293315E-03
      1        -12.678689   1.000000
      2        -11.668185   1.000000
      3         -8.636006   1.000000
      4         -8.410611   1.000000
      5         -5.993048   1.000000
      6         -5.502715   1.000000
      7         -4.795277   1.000000
      8         -3.897270   1.000000
      9         -3.776455   1.000000
     10         -3.172997   1.000000
     11         -2.398075   1.000000
     12         -2.351718   1.000000
     13         -2.257960   1.000000
     14         -1.436574   1.000000
     15          0.008732   1.000000
     16          0.015769   1.000000
     17          0.078925   1.000000
     18          0.195863   1.000000
     19          0.448328   1.000000
     20          1.969848   0.004487
     21          2.028070   0.000010
     22          2.065613   0.000000
     23          5.519884   0.000000
     24          5.741104   0.000000
     25          5.896468   0.000000
     26          6.369017   0.000000
     27          6.678037   0.000000
     28          7.113169   0.000000
     29          8.065239   0.000000
     30          8.796758   0.000000
     31          9.030249   0.000000
     32          9.161465   0.000000
     33          9.179363   0.000000
     34         10.203535   0.000000
     35         10.908050   0.000000
     36         11.091981   0.000000
     37         11.237577   0.000000
     38         11.677428   0.000000
     39         12.166795   0.000000
     40         12.468477   0.000000
     41         13.122184   0.000000
     42         13.132821   0.000000
     43         14.113562   0.000000
     44         14.818996   0.000000
     45         15.757064   0.000000
     46         15.826242   0.000000
     47         16.320133   0.000000
     48         16.491605   0.000000
 
  0.2105263E+00  0.0000000E+00  0.0000000E+00  0.2293315E-03
      1        -12.636933   1.000000
      2        -11.734338   1.000000
      3         -8.614880   1.000000
      4         -8.402414   1.000000
      5         -5.971783   1.000000
      6         -5.681067   1.000000
      7         -4.795359   1.000000
      8         -3.838430   1.000000
      9         -3.502311   1.000000
     10         -2.930620   1.000000
     11         -2.467114   1.000000
     12         -2.378309   1.000000
     13         -2.269116   1.000000
     14         -1.693665   1.000000
     15         -0.111118   1.000000
     16          0.055051   1.000000
     17          0.131618   1.000000
     18          0.172138   1.000000
     19          0.413580   1.000000
     20          1.896190   0.298165
     21          1.951602   0.017998
     22          1.960899   0.009139
     23          5.583670   0.000000
     24          5.710228   0.000000
     25          6.045728   0.000000
     26          6.611642   0.000000
     27          6.621441   0.000000
     28          6.949342   0.000000
     29          8.148448   0.000000
     30          8.886485   0.000000
     31          8.995099   0.000000
     32          9.391227   0.000000
     33          9.406646   0.000000
     34         10.360168   0.000000
     35         10.583154   0.000000
     36         10.772912   0.000000
     37         11.304702   0.000000
     38         11.722065   0.000000
     39         12.302287   0.000000
     40         12.600432   0.000000
     41         12.838947   0.000000
     42         13.078673   0.000000
     43         14.486699   0.000000
     44         14.746456   0.000000
     45         15.440989   0.000000
     46         15.977515   0.000000
     47         16.215502   0.000000
     48         16.489697   0.000000
 
  0.2631579E+00  0.0000000E+00  0.0000000E+00  0.2293315E-03
      1        -12.584136   1.000000
      2        -11.813244   1.000000
      3         -8.587776   1.000000
      4         -8.395588   1.000000
      5         -5.983411   1.000000
      6         -5.837958   1.000000
      7         -4.714919   1.000000
      8         -3.763686   1.000000
      9         -3.234069   1.000000
     10         -2.676116   1.000000
     11         -2.600129   1.000000
     12         -2.353508   1.000000
     13         -2.281810   1.000000
     14         -1.978904   1.000000
     15         -0.255493   1.000000
     16          0.057901   1.000000
     17          0.102214   1.000000
     18          0.187150   1.000000
     19          0.453811   1.000000
     20          1.809914   0.971970
     21          1.815510   0.960138
     22          1.884497   0.421150
     23          5.644769   0.000000
     24          5.685997   0.000000
     25          6.257372   0.000000
     26          6.544510   0.000000
     27          6.811017   0.000000
     28          6.905557   0.000000
     29          8.222993   0.000000
     30          8.929139   0.000000
     31          8.934712   0.000000
     32          9.632453   0.000000
     33          9.667249   0.000000
     34         10.212573   0.000000
     35         10.516668   0.000000
     36         10.588538   0.000000
     37         11.369308   0.000000
     38         11.840522   0.000000
     39         12.389524   0.000000
     40         12.525093   0.000000
     41         12.823287   0.000000
     42         12.840723   0.000000
     43         14.831535   0.000000
     44         14.867581   0.000000
     45         15.128307   0.000000
     46         15.966077   0.000000
     47         16.094067   0.000000
     48         16.136023   0.000000
 
  0.3157895E+00  0.0000000E+00  0.0000000E+00  0.2293315E-03
      1        -12.520991   1.000000
      2        -11.901341   1.000000
      3         -8.555794   1.000000
      4         -8.392554   1.000000
      5         -6.024143   1.000000
      6         -5.967126   1.000000
      7         -4.554594   1.000000
      8         -3.673772   1.000000
      9         -3.003125   1.000000
     10         -2.743889   1.000000
     11         -2.434849   1.000000
     12         -2.372367   1.000000
     13         -2.285001   1.000000
     14         -2.207775   1.000000
     15         -0.415557   1.000000
     16         -0.112753   1.000000
     17          0.154243   1.000000
     18          0.239023   1.000000
     19          0.541654   1.000000
     20          1.646964   1.000000
     21          1.737180   0.999964
     22          1.805297   0.979383
     23          5.673508   0.000000
     24          5.694120   0.000000
     25          6.486587   0.000000
     26          6.524446   0.000000
     27          6.697170   0.000000
     28          7.215600   0.000000
     29          8.290636   0.000000
     30          8.841057   0.000000
     31          8.869406   0.000000
     32          9.818295   0.000000
     33          9.883141   0.000000
     34          9.935828   0.000000
     35         10.397184   0.000000
     36         10.896627   0.000000
     37         11.403309   0.000000
     38         12.021430   0.000000
     39         12.193938   0.000000
     40         12.455161   0.000000
     41         12.501786   0.000000
     42         13.081815   0.000000
     43         14.839818   0.000000
     44         14.953871   0.000000
     45         15.242756   0.000000
     46         15.601215   0.000000
     47         15.658220   0.000000
     48         16.288191   0.000000
 
  0.3684211E+00  0.0000000E+00  0.0000000E+00  0.2293315E-03
      1        -12.448412   1.000000
      2        -11.995122   1.000000
      3         -8.520867   1.000000
      4         -8.395653   1.000000
      5         -6.076911   1.000000
      6         -6.064486   1.000000
      7         -4.330841   1.000000
      8         -3.569649   1.000000
      9         -2.920549   1.000000
     10         -2.892532   1.000000
     11         -2.526004   1.000000
     12         -2.349424   1.000000
     13         -2.177640   1.000000
     14         -2.154720   1.000000
     15         -0.575487   1.000000
     16         -0.308540   1.000000
     17          0.206905   1.000000
     18          0.280512   1.000000
     19          0.656625   1.000000
     20          1.470947   1.000000
     21          1.671202   1.000000
     22          1.730525   0.999984
     23          5.674472   0.000000
     24          5.724835   0.000000
     25          6.447142   0.000000
     26          6.605133   0.000000
     27          6.838340   0.000000
     28          7.546965   0.000000
     29          8.353761   0.000000
     30          8.652398   0.000000
     31          8.743666   0.000000
     32          9.418562   0.000000
     33         10.142230   0.000000
     34         10.191405   0.000000
     35         10.450318   0.000000
     36         11.274980   0.000000
     37         11.385926   0.000000
     38         11.855730   0.000000
     39         12.128958   0.000000
     40         12.252667   0.000000
     41         12.509257   0.000000
     42         13.288051   0.000000
     43         14.617293   0.000000
     44         15.012564   0.000000
     45         15.135444   0.000000
     46         15.333236   0.000000
     47         15.601215   0.000000
     48         16.411793   0.000000
 
  0.4210526E+00  0.0000000E+00  0.0000000E+00  0.2293315E-03
      1        -12.367561   1.000000
      2        -12.091339   1.000000
      3         -8.485623   1.000000
      4         -8.406616   1.000000
      5         -6.127757   1.000000
      6         -6.124430   1.000000
      7         -4.061634   1.000000
      8         -3.452554   1.000000
      9         -3.134239   1.000000
     10         -3.041239   1.000000
     11         -2.504061   1.000000
     12         -2.367988   1.000000
     13         -2.058661   1.000000
     14         -1.975515   1.000000
     15         -0.703829   1.000000
     16         -0.505757   1.000000
     17          0.254593   1.000000
     18          0.305245   1.000000
     19          0.792444   1.000000
     20          1.290484   1.000000
     21          1.626968   1.000000
     22          1.668080   1.000000
     23          5.687131   0.000000
     24          5.734155   0.000000
     25          6.432489   0.000000
     26          6.532473   0.000000
     27          7.189178   0.000000
     28          7.895986   0.000000
     29          8.326925   0.000000
     30          8.416591   0.000000
     31          8.648025   0.000000
     32          9.023081   0.000000
     33         10.394544   0.000000
     34         10.415809   0.000000
     35         10.634150   0.000000
     36         11.330902   0.000000
     37         11.519508   0.000000
     38         11.681893   0.000000
     39         11.782630   0.000000
     40         12.508969   0.000000
     41         12.513189   0.000000
     42         13.310827   0.000000
     43         14.539432   0.000000
     44         14.814843   0.000000
     45         14.971461   0.000000
     46         15.026602   0.000000
     47         15.930368   0.000000
     48         16.467085   0.000000
 
  0.4736842E+00  0.0000000E+00  0.0000000E+00  0.2293315E-03
      1        -12.279873   1.000000
      2        -12.187094   1.000000
      3         -8.453060   1.000000
      4         -8.426028   1.000000
      5         -6.156777   1.000000
      6         -6.153917   1.000000
      7         -3.761839   1.000000
      8         -3.445331   1.000000
      9         -3.324051   1.000000
     10         -3.186118   1.000000
     11         -2.444362   1.000000
     12         -2.400128   1.000000
     13         -1.935412   1.000000
     14         -1.890973   1.000000
     15         -0.747180   1.000000
     16         -0.669837   1.000000
     17          0.290672   1.000000
     18          0.308809   1.000000
     19          0.945821   1.000000
     20          1.113364   1.000000
     21          1.611250   1.000000
     22          1.626045   1.000000
     23          5.706616   0.000000
     24          5.725370   0.000000
     25          6.443820   0.000000
     26          6.478256   0.000000
     27          7.565396   0.000000
     28          7.952062   0.000000
     29          8.259786   0.000000
     30          8.484220   0.000000
     31          8.560823   0.000000
     32          8.636107   0.000000
     33         10.573090   0.000000
     34         10.575898   0.000000
     35         10.893413   0.000000
     36         11.194732   0.000000
     37         11.316083   0.000000
     38         11.468883   0.000000
     39         12.092208   0.000000
     40         12.381070   0.000000
     41         12.802000   0.000000
     42         13.100935   0.000000
     43         14.620795   0.000000
     44         14.736299   0.000000
     45         14.778807   0.000000
     46         14.850958   0.000000
     47         16.210032   0.000000
     48         16.403019   0.000000
 
  0.0000000E+00  0.3703704E-01  0.0000000E+00  0.2293315E-03
      1        -12.729904   1.000000
      2        -11.573215   1.000000
      3         -8.659661   1.000000
      4         -8.421792   1.000000
      5         -6.074032   1.000000
      6         -5.054559   1.000000
      7         -4.635577   1.000000
      8         -4.359375   1.000000
      9         -4.049736   1.000000
     10         -3.595539   1.000000
     11         -2.601310   1.000000
     12         -2.324322   1.000000
     13         -1.810218   1.000000
     14         -1.052658   1.000000
     15         -0.078054   1.000000
     16         -0.051444   1.000000
     17          0.151462   1.000000
     18          0.195096   1.000000
     19          0.580286   1.000000
     20          2.026591   0.000012
     21          2.088015   0.000000
     22          2.234865   0.000000
     23          5.446748   0.000000
     24          5.758867   0.000000
     25          5.860202   0.000000
     26          5.876968   0.000000
     27          6.827777   0.000000
     28          7.727550   0.000000
     29          7.728541   0.000000
     30          8.508363   0.000000
     31          8.751527   0.000000
     32          8.920042   0.000000
     33          9.048046   0.000000
     34         10.114748   0.000000
     35         11.177476   0.000000
     36         11.387105   0.000000
     37         11.757426   0.000000
     38         11.816394   0.000000
     39         11.912360   0.000000
     40         12.393722   0.000000
     41         12.805345   0.000000
     42         13.347934   0.000000
     43         13.525230   0.000000
     44         15.537965   0.000000
     45         15.548286   0.000000
     46         15.952564   0.000000
     47         16.330818   0.000000
     48         16.482471   0.000000
 
  0.5263158E-01  0.3703704E-01  0.0000000E+00  0.4586630E-03
      1        -12.723801   1.000000
      2        -11.583850   1.000000
      3         -8.656833   1.000000
      4         -8.419983   1.000000
      5         -6.061150   1.000000
      6         -5.136939   1.000000
      7         -4.667432   1.000000
      8         -4.266979   1.000000
      9         -4.036560   1.000000
     10         -3.536427   1.000000
     11         -2.610818   1.000000
     12         -2.321565   1.000000
     13         -1.822858   1.000000
     14         -1.098769   1.000000
     15         -0.072113   1.000000
     16         -0.042694   1.000000
     17          0.158813   1.000000
     18          0.178242   1.000000
     19          0.566205   1.000000
     20          2.013959   0.000057
     21          2.076589   0.000000
     22          2.217980   0.000000
     23          5.460899   0.000000
     24          5.746341   0.000000
     25          5.838716   0.000000
     26          5.963943   0.000000
     27          6.814564   0.000000
     28          7.540037   0.000000
     29          7.885959   0.000000
     30          8.529718   0.000000
     31          8.807931   0.000000
     32          8.956364   0.000000
     33          9.052250   0.000000
     34         10.129302   0.000000
     35         11.187407   0.000000
     36         11.327377   0.000000
     37         11.653776   0.000000
     38         11.779515   0.000000
     39         11.945243   0.000000
     40         12.405738   0.000000
     41         12.875197   0.000000
     42         13.457497   0.000000
     43         13.468214   0.000000
     44         15.367388   0.000000
     45         15.571302   0.000000
     46         16.066982   0.000000
     47         16.315446   0.000000
     48         16.355274   0.000000
 
  0.1052632E+00  0.3703704E-01  0.0000000E+00  0.4586630E-03
      1        -12.705559   1.000000
      2        -11.615111   1.000000
      3         -8.648185   1.000000
      4         -8.414884   1.000000
      5         -6.027676   1.000000
      6         -5.309630   1.000000
      7         -4.736410   1.000000
      8         -4.093597   1.000000
      9         -3.968131   1.000000
     10         -3.381890   1.000000
     11         -2.639631   1.000000
     12         -2.313236   1.000000
     13         -1.858131   1.000000
     14         -1.231382   1.000000
     15         -0.054821   1.000000
     16         -0.022022   1.000000
     17          0.132356   1.000000
     18          0.179105   1.000000
     19          0.524529   1.000000
     20          1.977112   0.002412
     21          2.043288   0.000001
     22          2.167371   0.000000
     23          5.500440   0.000000
     24          5.753499   0.000000
     25          5.828328   0.000000
     26          6.126004   0.000000
     27          6.777055   0.000000
     28          7.344620   0.000000
     29          8.006769   0.000000
     30          8.590268   0.000000
     31          8.958688   0.000000
     32          9.056935   0.000000
     33          9.066862   0.000000
     34         10.173905   0.000000
     35         11.156680   0.000000
     36         11.217646   0.000000
     37         11.397797   0.000000
     38         11.719870   0.000000
     39         12.040585   0.000000
     40         12.441379   0.000000
     41         13.026125   0.000000
     42         13.309800   0.000000
     43         13.723889   0.000000
     44         15.072780   0.000000
     45         15.659978   0.000000
     46         16.055381   0.000000
     47         16.184481   0.000000
     48         16.430344   0.000000
 
  0.1578947E+00  0.3703704E-01  0.0000000E+00  0.4586630E-03
      1        -12.675384   1.000000
      2        -11.665179   1.000000
      3         -8.633377   1.000000
      4         -8.407465   1.000000
      5         -5.989072   1.000000
      6         -5.498500   1.000000
      7         -4.792560   1.000000
      8         -4.007460   1.000000
      9         -3.751936   1.000000
     10         -3.170677   1.000000
     11         -2.688062   1.000000
     12         -2.299145   1.000000
     13         -1.909268   1.000000
     14         -1.435797   1.000000
     15         -0.028005   1.000000
     16         -0.026774   1.000000
     17          0.092682   1.000000
     18          0.202973   1.000000
     19          0.463102   1.000000
     20          1.919217   0.118804
     21          1.990929   0.000665
     22          2.083664   0.000000
     23          5.557632   0.000000
     24          5.755547   0.000000
     25          5.879624   0.000000
     26          6.336554   0.000000
     27          6.721078   0.000000
     28          7.162382   0.000000
     29          8.102112   0.000000
     30          8.678423   0.000000
     31          9.058192   0.000000
     32          9.164866   0.000000
     33          9.237130   0.000000
     34         10.253716   0.000000
     35         10.897182   0.000000
     36         11.080039   0.000000
     37         11.267930   0.000000
     38         11.701324   0.000000
     39         12.181946   0.000000
     40         12.506417   0.000000
     41         13.077117   0.000000
     42         13.136812   0.000000
     43         14.057703   0.000000
     44         14.846405   0.000000
     45         15.735220   0.000000
     46         15.813288   0.000000
     47         16.219067   0.000000
     48         16.526310   0.000000
 
  0.2105263E+00  0.3703704E-01  0.0000000E+00  0.4586630E-03
      1        -12.633642   1.000000
      2        -11.731313   1.000000
      3         -8.612236   1.000000
      4         -8.399316   1.000000
      5         -5.967597   1.000000
      6         -5.676867   1.000000
      7         -4.792890   1.000000
      8         -3.943818   1.000000
      9         -3.483037   1.000000
     10         -2.934177   1.000000
     11         -2.751752   1.000000
     12         -2.279099   1.000000
     13         -1.968127   1.000000
     14         -1.692712   1.000000
     15         -0.117912   1.000000
     16          0.002691   1.000000
     17          0.118151   1.000000
     18          0.193535   1.000000
     19          0.422542   1.000000
     20          1.845242   0.818944
     21          1.923858   0.094717
     22          1.969417   0.004649
     23          5.622222   0.000000
     24          5.732342   0.000000
     25          6.021877   0.000000
     26          6.581494   0.000000
     27          6.654913   0.000000
     28          7.007499   0.000000
     29          8.184047   0.000000
     30          8.769871   0.000000
     31          9.035377   0.000000
     32          9.395509   0.000000
     33          9.462094   0.000000
     34         10.372002   0.000000
     35         10.580132   0.000000
     36         10.767891   0.000000
     37         11.332134   0.000000
     38         11.754178   0.000000
     39         12.321353   0.000000
     40         12.631900   0.000000
     41         12.797744   0.000000
     42         13.083644   0.000000
     43         14.400759   0.000000
     44         14.807000   0.000000
     45         15.452621   0.000000
     46         15.923818   0.000000
     47         16.143574   0.000000
     48         16.500631   0.000000
 
  0.2631579E+00  0.3703704E-01  0.0000000E+00  0.4586630E-03
      1        -12.580860   1.000000
      2        -11.810197   1.000000
      3         -8.585116   1.000000
      4         -8.392548   1.000000
      5         -5.979052   1.000000
      6         -5.833725   1.000000
      7         -4.712675   1.000000
      8         -3.870228   1.000000
      9         -3.213468   1.000000
     10         -2.862790   1.000000
     11         -2.656184   1.000000
     12         -2.255386   1.000000
     13         -2.027949   1.000000
     14         -1.977100   1.000000
     15         -0.255270   1.000000
     16          0.001278   1.000000
     17          0.133209   1.000000
     18          0.167903   1.000000
     19          0.457418   1.000000
     20          1.758952   0.999599
     21          1.832764   0.896935
     22          1.847583   0.800980
     23          5.683706   0.000000
     24          5.710826   0.000000
     25          6.231636   0.000000
     26          6.588127   0.000000
     27          6.789695   0.000000
     28          6.946658   0.000000
     29          8.257461   0.000000
     30          8.819051   0.000000
     31          8.986531   0.000000
     32          9.637305   0.000000
     33          9.715270   0.000000
     34         10.186835   0.000000
     35         10.460752   0.000000
     36         10.652618   0.000000
     37         11.391991   0.000000
     38         11.880317   0.000000
     39         12.412628   0.000000
     40         12.483080   0.000000
     41         12.846266   0.000000
     42         12.854686   0.000000
     43         14.695337   0.000000
     44         14.981726   0.000000
     45         15.149593   0.000000
     46         15.936896   0.000000
     47         15.948932   0.000000
     48         16.250063   0.000000
 
  0.3157895E+00  0.3703704E-01  0.0000000E+00  0.4586630E-03
      1        -12.517733   1.000000
      2        -11.898267   1.000000
      3         -8.553118   1.000000
      4         -8.389579   1.000000
      5         -6.019687   1.000000
      6         -5.962839   1.000000
      7         -4.552510   1.000000
      8         -3.784000   1.000000