   1   1   0   0
  0.3386150E+04  0.1501650E-08  0.1251375E-08  0.1801980E-08  0.5000000E-15
  1.000000000000000E-004
  CAR 
 Convergence                             
      2.48918536     -9.97664652  301     -3.60731137      1.00000000
     -9.977  0.0000E+00  0.0000E+00
     -9.935  0.0000E+00  0.0000E+00
     -9.894  0.0000E+00  0.0000E+00
     -9.852  0.0000E+00  0.0000E+00
     -9.810  0.0000E+00  0.0000E+00
     -9.769  0.0000E+00  0.0000E+00
     -9.727  0.0000E+00  0.0000E+00
     -9.686  0.1496E-12  0.6217E-14
     -9.644  0.8391E-09  0.3487E-10
     -9.603  0.1218E-05  0.5063E-07
     -9.561  0.4613E-03  0.1922E-04
     -9.520  0.4635E-01  0.1945E-02
     -9.478  0.1264E+01  0.5445E-01
     -9.436  0.9628E+01  0.4545E+00
     -9.395  0.2109E+02  0.1331E+01
     -9.353  0.1348E+02  0.1891E+01
     -9.312  0.2492E+01  0.1995E+01
     -9.270  0.1298E+00  0.2000E+01
     -9.229  0.1848E-02  0.2000E+01
     -9.187  0.7021E-05  0.2000E+01
     -9.146  0.6987E-08  0.2000E+01
     -9.104  0.1801E-11  0.2000E+01
     -9.062  0.0000E+00  0.2000E+01
     -9.021  0.0000E+00  0.2000E+01
     -8.979  0.0000E+00  0.2000E+01
     -8.938  0.0000E+00  0.2000E+01
     -8.896  0.0000E+00  0.2000E+01
     -8.855  0.0000E+00  0.2000E+01
     -8.813  0.0000E+00  0.2000E+01
     -8.772  0.0000E+00  0.2000E+01
     -8.730  0.0000E+00  0.2000E+01
     -8.689  0.0000E+00  0.2000E+01
     -8.647  0.0000E+00  0.2000E+01
     -8.605  0.0000E+00  0.2000E+01
     -8.564  0.0000E+00  0.2000E+01
     -8.522  0.0000E+00  0.2000E+01
     -8.481  0.0000E+00  0.2000E+01
     -8.439  0.0000E+00  0.2000E+01
     -8.398  0.0000E+00  0.2000E+01
     -8.356  0.0000E+00  0.2000E+01
     -8.315  0.0000E+00  0.2000E+01
     -8.273  0.0000E+00  0.2000E+01
     -8.231  0.0000E+00  0.2000E+01
     -8.190  0.0000E+00  0.2000E+01
     -8.148  0.0000E+00  0.2000E+01
     -8.107  0.0000E+00  0.2000E+01
     -8.065  0.0000E+00  0.2000E+01
     -8.024  0.0000E+00  0.2000E+01
     -7.982  0.0000E+00  0.2000E+01
     -7.941  0.0000E+00  0.2000E+01
     -7.899  0.0000E+00  0.2000E+01
     -7.857  0.0000E+00  0.2000E+01
     -7.816  0.0000E+00  0.2000E+01
     -7.774  0.0000E+00  0.2000E+01
     -7.733  0.0000E+00  0.2000E+01
     -7.691  0.0000E+00  0.2000E+01
     -7.650  0.0000E+00  0.2000E+01
     -7.608  0.0000E+00  0.2000E+01
     -7.567  0.0000E+00  0.2000E+01
     -7.525  0.0000E+00  0.2000E+01
     -7.483  0.0000E+00  0.2000E+01
     -7.442  0.0000E+00  0.2000E+01
     -7.400  0.0000E+00  0.2000E+01
     -7.359  0.0000E+00  0.2000E+01
     -7.317  0.0000E+00  0.2000E+01
     -7.276  0.0000E+00  0.2000E+01
     -7.234  0.0000E+00  0.2000E+01
     -7.193  0.0000E+00  0.2000E+01
     -7.151  0.0000E+00  0.2000E+01
     -7.110  0.0000E+00  0.2000E+01
     -7.068  0.0000E+00  0.2000E+01
     -7.026  0.0000E+00  0.2000E+01
     -6.985  0.0000E+00  0.2000E+01
     -6.943  0.0000E+00  0.2000E+01
     -6.902  0.0000E+00  0.2000E+01
     -6.860  0.0000E+00  0.2000E+01
     -6.819  0.0000E+00  0.2000E+01
     -6.777  0.0000E+00  0.2000E+01
     -6.736  0.0000E+00  0.2000E+01
     -6.694  0.0000E+00  0.2000E+01
     -6.652  0.0000E+00  0.2000E+01
     -6.611  0.0000E+00  0.2000E+01
     -6.569  0.0000E+00  0.2000E+01
     -6.528  0.0000E+00  0.2000E+01
     -6.486  0.0000E+00  0.2000E+01
     -6.445  0.0000E+00  0.2000E+01
     -6.403  0.0000E+00  0.2000E+01
     -6.362  0.0000E+00  0.2000E+01
     -6.320  0.0000E+00  0.2000E+01
     -6.278  0.0000E+00  0.2000E+01
     -6.237  0.0000E+00  0.2000E+01
     -6.195  0.0000E+00  0.2000E+01
     -6.154  0.0000E+00  0.2000E+01
     -6.112  0.0000E+00  0.2000E+01
     -6.071  0.0000E+00  0.2000E+01
     -6.029  0.0000E+00  0.2000E+01
     -5.988  0.0000E+00  0.2000E+01
     -5.946  0.0000E+00  0.2000E+01
     -5.904  0.0000E+00  0.2000E+01
     -5.863  0.0000E+00  0.2000E+01
     -5.821  0.0000E+00  0.2000E+01
     -5.780  0.0000E+00  0.2000E+01
     -5.738  0.0000E+00  0.2000E+01
     -5.697  0.0000E+00  0.2000E+01
     -5.655  0.0000E+00  0.2000E+01
     -5.614  0.0000E+00  0.2000E+01
     -5.572  0.0000E+00  0.2000E+01
     -5.530  0.0000E+00  0.2000E+01
     -5.489  0.0000E+00  0.2000E+01
     -5.447  0.0000E+00  0.2000E+01
     -5.406  0.0000E+00  0.2000E+01
     -5.364  0.0000E+00  0.2000E+01
     -5.323  0.0000E+00  0.2000E+01
     -5.281  0.0000E+00  0.2000E+01
     -5.240  0.0000E+00  0.2000E+01
     -5.198  0.0000E+00  0.2000E+01
     -5.157  0.0000E+00  0.2000E+01
     -5.115  0.0000E+00  0.2000E+01
     -5.073  0.0000E+00  0.2000E+01
     -5.032  0.0000E+00  0.2000E+01
     -4.990  0.0000E+00  0.2000E+01
     -4.949  0.0000E+00  0.2000E+01
     -4.907  0.0000E+00  0.2000E+01
     -4.866  0.0000E+00  0.2000E+01
     -4.824  0.0000E+00  0.2000E+01
     -4.783  0.0000E+00  0.2000E+01
     -4.741  0.0000E+00  0.2000E+01
     -4.699  0.0000E+00  0.2000E+01
     -4.658  0.0000E+00  0.2000E+01
     -4.616  0.0000E+00  0.2000E+01
     -4.575  0.0000E+00  0.2000E+01
     -4.533  0.0000E+00  0.2000E+01
     -4.492  0.0000E+00  0.2000E+01
     -4.450  0.0000E+00  0.2000E+01
     -4.409  0.0000E+00  0.2000E+01
     -4.367  0.0000E+00  0.2000E+01
     -4.325  0.0000E+00  0.2000E+01
     -4.284  0.0000E+00  0.2000E+01
     -4.242  0.0000E+00  0.2000E+01
     -4.201  0.0000E+00  0.2000E+01
     -4.159  0.0000E+00  0.2000E+01
     -4.118  0.0000E+00  0.2000E+01
     -4.076  0.0000E+00  0.2000E+01
     -4.035  0.0000E+00  0.2000E+01
     -3.993  0.0000E+00  0.2000E+01
     -3.951  0.0000E+00  0.2000E+01
     -3.910  0.0000E+00  0.2000E+01
     -3.868  0.8016E-14  0.2000E+01
     -3.827  0.5162E-10  0.2000E+01
     -3.785  0.1413E-06  0.2000E+01
     -3.744  0.1005E-03  0.2000E+01
     -3.702  0.1878E-01  0.2001E+01
     -3.661  0.9421E+00  0.2040E+01
     -3.619  0.1301E+02  0.2581E+01
     -3.578  0.5105E+02  0.4702E+01
     -3.536  0.5818E+02  0.7120E+01
     -3.494  0.1931E+02  0.7922E+01
     -3.453  0.1831E+01  0.7998E+01
     -3.411  0.4812E-01  0.8000E+01
     -3.370  0.3409E-03  0.8000E+01
     -3.328  0.6377E-06  0.8000E+01
     -3.287  0.3104E-09  0.8000E+01
     -3.245  0.3206E-13  0.8000E+01
     -3.204  0.0000E+00  0.8000E+01
     -3.162  0.0000E+00  0.8000E+01
     -3.120  0.0000E+00  0.8000E+01
     -3.079  0.0000E+00  0.8000E+01
     -3.037  0.0000E+00  0.8000E+01
     -2.996  0.0000E+00  0.8000E+01
     -2.954  0.0000E+00  0.8000E+01
     -2.913  0.0000E+00  0.8000E+01
     -2.871  0.0000E+00  0.8000E+01
     -2.830  0.0000E+00  0.8000E+01
     -2.788  0.0000E+00  0.8000E+01
     -2.746  0.0000E+00  0.8000E+01
     -2.705  0.0000E+00  0.8000E+01
     -2.663  0.0000E+00  0.8000E+01
     -2.622  0.0000E+00  0.8000E+01
     -2.580  0.0000E+00  0.8000E+01
     -2.539  0.0000E+00  0.8000E+01
     -2.497  0.0000E+00  0.8000E+01
     -2.456  0.0000E+00  0.8000E+01
     -2.414  0.0000E+00  0.8000E+01
     -2.372  0.0000E+00  0.8000E+01
     -2.331  0.0000E+00  0.8000E+01
     -2.289  0.0000E+00  0.8000E+01
     -2.248  0.0000E+00  0.8000E+01
     -2.206  0.0000E+00  0.8000E+01
     -2.165  0.0000E+00  0.8000E+01
     -2.123  0.0000E+00  0.8000E+01
     -2.082  0.0000E+00  0.8000E+01
     -2.040  0.0000E+00  0.8000E+01
     -1.999  0.0000E+00  0.8000E+01
     -1.957  0.0000E+00  0.8000E+01
     -1.915  0.0000E+00  0.8000E+01
     -1.874  0.0000E+00  0.8000E+01
     -1.832  0.0000E+00  0.8000E+01
     -1.791  0.0000E+00  0.8000E+01
     -1.749  0.0000E+00  0.8000E+01
     -1.708  0.0000E+00  0.8000E+01
     -1.666  0.0000E+00  0.8000E+01
     -1.625  0.0000E+00  0.8000E+01
     -1.583  0.0000E+00  0.8000E+01
     -1.541  0.0000E+00  0.8000E+01
     -1.500  0.0000E+00  0.8000E+01
     -1.458  0.0000E+00  0.8000E+01
     -1.417  0.0000E+00  0.8000E+01
     -1.375  0.0000E+00  0.8000E+01
     -1.334  0.0000E+00  0.8000E+01
     -1.292  0.0000E+00  0.8000E+01
     -1.251  0.0000E+00  0.8000E+01
     -1.209  0.0000E+00  0.8000E+01
     -1.167  0.0000E+00  0.8000E+01
     -1.126  0.0000E+00  0.8000E+01
     -1.084  0.0000E+00  0.8000E+01
     -1.043  0.0000E+00  0.8000E+01
     -1.001  0.0000E+00  0.8000E+01
     -0.960  0.0000E+00  0.8000E+01
     -0.918  0.0000E+00  0.8000E+01
     -0.877  0.0000E+00  0.8000E+01
     -0.835  0.0000E+00  0.8000E+01
     -0.793  0.0000E+00  0.8000E+01
     -0.752  0.0000E+00  0.8000E+01
     -0.710  0.0000E+00  0.8000E+01
     -0.669  0.0000E+00  0.8000E+01
     -0.627  0.0000E+00  0.8000E+01
     -0.586  0.0000E+00  0.8000E+01
     -0.544  0.2714E-15  0.8000E+01
     -0.503  0.2228E-11  0.8000E+01
     -0.461  0.4876E-08  0.8000E+01
     -0.420  0.2933E-05  0.8000E+01
     -0.378  0.5028E-03  0.8000E+01
     -0.336  0.2595E-01  0.8001E+01
     -0.295  0.4373E+00  0.8019E+01
     -0.253  0.2709E+01  0.8132E+01
     -0.212  0.7310E+01  0.8436E+01
     -0.170  0.1062E+02  0.8877E+01
     -0.129  0.1056E+02  0.9316E+01
     -0.087  0.8731E+01  0.9679E+01
     -0.046  0.5457E+01  0.9905E+01
     -0.004  0.1972E+01  0.9987E+01
      0.038  0.6472E+00  0.1001E+02
      0.079  0.1880E+01  0.1009E+02
      0.121  0.5383E+01  0.1032E+02
      0.162  0.1002E+02  0.1073E+02
      0.204  0.1380E+02  0.1131E+02
      0.245  0.1560E+02  0.1195E+02
      0.287  0.1582E+02  0.1261E+02
      0.328  0.1593E+02  0.1327E+02
      0.370  0.1622E+02  0.1395E+02
      0.412  0.1651E+02  0.1463E+02
      0.453  0.1752E+02  0.1536E+02
      0.495  0.1850E+02  0.1613E+02
      0.536  0.1853E+02  0.1690E+02
      0.578  0.1897E+02  0.1769E+02
      0.619  0.1989E+02  0.1851E+02
      0.661  0.2038E+02  0.1936E+02
      0.702  0.2099E+02  0.2023E+02
      0.744  0.2239E+02  0.2116E+02
      0.786  0.2251E+02  0.2210E+02
      0.827  0.2190E+02  0.2301E+02
      0.869  0.2329E+02  0.2398E+02
      0.910  0.2457E+02  0.2500E+02
      0.952  0.2430E+02  0.2601E+02
      0.993  0.2485E+02  0.2704E+02
      1.035  0.2594E+02  0.2812E+02
      1.076  0.2607E+02  0.2920E+02
      1.118  0.2612E+02  0.3029E+02
      1.159  0.2684E+02  0.3140E+02
      1.201  0.2776E+02  0.3256E+02
      1.243  0.2741E+02  0.3369E+02
      1.284  0.2752E+02  0.3484E+02
      1.326  0.2860E+02  0.3603E+02
      1.367  0.2870E+02  0.3722E+02
      1.409  0.2838E+02  0.3840E+02
      1.450  0.2936E+02  0.3962E+02
      1.492  0.3094E+02  0.4090E+02
      1.533  0.3014E+02  0.4216E+02
      1.575  0.2963E+02  0.4339E+02
      1.617  0.3015E+02  0.4464E+02
      1.658  0.2785E+02  0.4580E+02
      1.700  0.2140E+02  0.4669E+02
      1.741  0.1420E+02  0.4728E+02
      1.783  0.8422E+01  0.4763E+02
      1.824  0.4847E+01  0.4783E+02
      1.866  0.2600E+01  0.4794E+02
      1.907  0.1102E+01  0.4798E+02
      1.949  0.3495E+00  0.4800E+02
      1.991  0.7364E-01  0.4800E+02
      2.032  0.7128E-02  0.4800E+02
      2.074  0.2284E-03  0.4800E+02
      2.115  0.2093E-05  0.4800E+02
      2.157  0.5189E-08  0.4800E+02
      2.198  0.3396E-11  0.4800E+02
      2.240  0.5768E-15  0.4800E+02
      2.281  0.0000E+00  0.4800E+02
      2.323  0.0000E+00  0.4800E+02
      2.365  0.0000E+00  0.4800E+02
      2.406  0.0000E+00  0.4800E+02
      2.448  0.0000E+00  0.4800E+02
      2.489  0.0000E+00  0.4800E+02
