<?xml version="1.0" encoding="ISO-8859-1"?>
<modeling>
 <generator>
  <i name="program" type="string">vasp </i>
  <i name="version" type="string">6.4.3  </i>
  <i name="subversion" type="string">19Mar24 (build May 31 2024 16:31:43) complex                          parallel </i>
  <i name="platform" type="string">LinuxIFC </i>
  <i name="date" type="string">2024 11 02 </i>
  <i name="time" type="string">01:45:39 </i>
 </generator>
 <incar>
  <i type="string" name="SYSTEM">Convergence</i>
  <i type="int" name="ISTART">     0</i>
  <i type="string" name="PREC">Accurate</i>
  <i type="string" name="ALGO">Normal</i>
  <i type="int" name="ISPIN">     1</i>
  <i type="int" name="ICHARG">     2</i>
  <i type="int" name="NELM">   100</i>
  <i type="int" name="IBRION">    -1</i>
  <i name="EDIFF">      0.00000100</i>
  <i name="EDIFFG">     -0.00100000</i>
  <i type="int" name="NSW">     0</i>
  <i type="int" name="ISIF">     2</i>
  <i name="ENCUT">    480.00000000</i>
  <i name="POTIM">      0.50000000</i>
  <i type="int" name="ISMEAR">     0</i>
  <i name="SIGMA">      0.05000000</i>
  <i type="logical" name="LWAVE"> F  </i>
  <i type="logical" name="LCHARG"> F  </i>
  <i type="string" name="GGA">PE</i>
 </incar>
 <primitive_cell>
  <structure name="primitive_cell" >
   <crystal>
    <varray name="basis" >
     <v>      15.00000000       0.00000000       0.00000000 </v>
     <v>       0.00000000      12.50000000       0.00000000 </v>
     <v>       0.00000000       0.00000000      18.00000000 </v>
    </varray>
    <i name="volume">   3375.00000000 </i>
    <varray name="rec_basis" >
     <v>       0.06666667       0.00000000       0.00000000 </v>
     <v>       0.00000000       0.08000000       0.00000000 </v>
     <v>       0.00000000       0.00000000       0.05555556 </v>
    </varray>
   </crystal>
   <varray name="positions" >
    <v>       0.52123000       0.54500000       0.63796000 </v>
   </varray>
  </structure>
  <varray name="primitive_index" >
   <v type="int" >        1 </v>
  </varray>
 </primitive_cell>
 <kpoints>
  <generation param="Monkhorst-Pack">
   <v type="int" name="divisions">       7       10        6 </v>
   <v name="usershift">      0.00000000       0.00000000       0.00000000 </v>
   <v name="genvec1">      0.14285714       0.00000000       0.00000000 </v>
   <v name="genvec2">      0.00000000       0.10000000       0.00000000 </v>
   <v name="genvec3">      0.00000000       0.00000000       0.16666667 </v>
   <v name="shift">      0.00000000       0.50000000       0.50000000 </v>
  </generation>
  <varray name="kpointlist" >
   <v>       0.00000000       0.05000000       0.08333333 </v>
   <v>       0.14285714       0.05000000       0.08333333 </v>
   <v>       0.28571429       0.05000000       0.08333333 </v>
   <v>       0.42857143       0.05000000       0.08333333 </v>
   <v>       0.00000000       0.15000000       0.08333333 </v>
   <v>       0.14285714       0.15000000       0.08333333 </v>
   <v>       0.28571429       0.15000000       0.08333333 </v>
   <v>       0.42857143       0.15000000       0.08333333 </v>
   <v>       0.00000000       0.25000000       0.08333333 </v>
   <v>       0.14285714       0.25000000       0.08333333 </v>
   <v>       0.28571429       0.25000000       0.08333333 </v>
   <v>       0.42857143       0.25000000       0.08333333 </v>
   <v>       0.00000000       0.35000000       0.08333333 </v>
   <v>       0.14285714       0.35000000       0.08333333 </v>
   <v>       0.28571429       0.35000000       0.08333333 </v>
   <v>       0.42857143       0.35000000       0.08333333 </v>
   <v>       0.00000000       0.45000000       0.08333333 </v>
   <v>       0.14285714       0.45000000       0.08333333 </v>
   <v>       0.28571429       0.45000000       0.08333333 </v>
   <v>       0.42857143       0.45000000       0.08333333 </v>
   <v>       0.00000000       0.05000000       0.25000000 </v>
   <v>       0.14285714       0.05000000       0.25000000 </v>
   <v>       0.28571429       0.05000000       0.25000000 </v>
   <v>       0.42857143       0.05000000       0.25000000 </v>
   <v>       0.00000000       0.15000000       0.25000000 </v>
   <v>       0.14285714       0.15000000       0.25000000 </v>
   <v>       0.28571429       0.15000000       0.25000000 </v>
   <v>       0.42857143       0.15000000       0.25000000 </v>
   <v>       0.00000000       0.25000000       0.25000000 </v>
   <v>       0.14285714       0.25000000       0.25000000 </v>
   <v>       0.28571429       0.25000000       0.25000000 </v>
   <v>       0.42857143       0.25000000       0.25000000 </v>
   <v>       0.00000000       0.35000000       0.25000000 </v>
   <v>       0.14285714       0.35000000       0.25000000 </v>
   <v>       0.28571429       0.35000000       0.25000000 </v>
   <v>       0.42857143       0.35000000       0.25000000 </v>
   <v>       0.00000000       0.45000000       0.25000000 </v>
   <v>       0.14285714       0.45000000       0.25000000 </v>
   <v>       0.28571429       0.45000000       0.25000000 </v>
   <v>       0.42857143       0.45000000       0.25000000 </v>
   <v>       0.00000000       0.05000000       0.41666667 </v>
   <v>       0.14285714       0.05000000       0.41666667 </v>
   <v>       0.28571429       0.05000000       0.41666667 </v>
   <v>       0.42857143       0.05000000       0.41666667 </v>
   <v>       0.00000000       0.15000000       0.41666667 </v>
   <v>       0.14285714       0.15000000       0.41666667 </v>
   <v>       0.28571429       0.15000000       0.41666667 </v>
   <v>       0.42857143       0.15000000       0.41666667 </v>
   <v>       0.00000000       0.25000000       0.41666667 </v>
   <v>       0.14285714       0.25000000       0.41666667 </v>
   <v>       0.28571429       0.25000000       0.41666667 </v>
   <v>       0.42857143       0.25000000       0.41666667 </v>
   <v>       0.00000000       0.35000000       0.41666667 </v>
   <v>       0.14285714       0.35000000       0.41666667 </v>
   <v>       0.28571429       0.35000000       0.41666667 </v>
   <v>       0.42857143       0.35000000       0.41666667 </v>
   <v>       0.00000000       0.45000000       0.41666667 </v>
   <v>       0.14285714       0.45000000       0.41666667 </v>
   <v>       0.28571429       0.45000000       0.41666667 </v>
   <v>       0.42857143       0.45000000       0.41666667 </v>
  </varray>
  <varray name="weights" >
   <v>       0.00952381 </v>
   <v>       0.01904762 </v>
   <v>       0.01904762 </v>
   <v>       0.01904762 </v>
   <v>       0.00952381 </v>
   <v>       0.01904762 </v>
   <v>       0.01904762 </v>
   <v>       0.01904762 </v>
   <v>       0.00952381 </v>
   <v>       0.01904762 </v>
   <v>       0.01904762 </v>
   <v>       0.01904762 </v>
   <v>       0.00952381 </v>
   <v>       0.01904762 </v>
   <v>       0.01904762 </v>
   <v>       0.01904762 </v>
   <v>       0.00952381 </v>
   <v>       0.01904762 </v>
   <v>       0.01904762 </v>
   <v>       0.01904762 </v>
   <v>       0.00952381 </v>
   <v>       0.01904762 </v>
   <v>       0.01904762 </v>
   <v>       0.01904762 </v>
   <v>       0.00952381 </v>
   <v>       0.01904762 </v>
   <v>       0.01904762 </v>
   <v>       0.01904762 </v>
   <v>       0.00952381 </v>
   <v>       0.01904762 </v>
   <v>       0.01904762 </v>
   <v>       0.01904762 </v>
   <v>       0.00952381 </v>
   <v>       0.01904762 </v>
   <v>       0.01904762 </v>
   <v>       0.01904762 </v>
   <v>       0.00952381 </v>
   <v>       0.01904762 </v>
   <v>       0.01904762 </v>
   <v>       0.01904762 </v>
   <v>       0.00952381 </v>
   <v>       0.01904762 </v>
   <v>       0.01904762 </v>
   <v>       0.01904762 </v>
   <v>       0.00952381 </v>
   <v>       0.01904762 </v>
   <v>       0.01904762 </v>
   <v>       0.01904762 </v>
   <v>       0.00952381 </v>
   <v>       0.01904762 </v>
   <v>       0.01904762 </v>
   <v>       0.01904762 </v>
   <v>       0.00952381 </v>
   <v>       0.01904762 </v>
   <v>       0.01904762 </v>
   <v>       0.01904762 </v>
   <v>       0.00952381 </v>
   <v>       0.01904762 </v>
   <v>       0.01904762 </v>
   <v>       0.01904762 </v>
  </varray>
 </kpoints>
 <parameters>
  <separator name="general" >
   <i type="string" name="SYSTEM">Convergence</i>
   <i type="logical" name="LCOMPAT"> F  </i>
  </separator>
  <separator name="electronic" >
   <i type="string" name="PREC">accura</i>
   <i name="ENMAX">    480.00000000</i>
   <i name="ENAUG">    535.51400000</i>
   <i name="EDIFF">      0.00000100</i>
   <i type="int" name="IALGO">    38</i>
   <i type="int" name="IWAVPR">    10</i>
   <i type="int" name="NBANDS">    24</i>
   <i type="int" name="NBANDSLOW">    -1</i>
   <i type="int" name="NBANDSHIGH">    -1</i>
   <i name="NELECT">      3.00000000</i>
   <i type="int" name="TURBO">     0</i>
   <i type="int" name="IRESTART">     0</i>
   <i type="int" name="NREBOOT">     0</i>
   <i type="int" name="NMIN">     0</i>
   <i name="EREF">      0.00000000</i>
   <separator name="electronic smearing" >
    <i type="int" name="ISMEAR">     0</i>
    <i name="SIGMA">      0.05000000</i>
    <i name="KSPACING">      0.50000000</i>
    <i type="logical" name="KGAMMA"> T  </i>
    <i type="logical" name="KBLOWUP"> T  </i>
   </separator>
   <separator name="electronic projectors" >
    <i type="logical" name="LREAL"> F  </i>
    <v name="ROPT">      0.00000000</v>
    <i type="int" name="LMAXPAW">  -100</i>
    <i type="int" name="LMAXMIX">     2</i>
    <i type="logical" name="NLSPLINE"> F  </i>
   </separator>
   <separator name="electronic startup" >
    <i type="int" name="ISTART">     0</i>
    <i type="int" name="ICHARG">     2</i>
    <i type="int" name="INIWAV">     1</i>
   </separator>
   <separator name="electronic spin" >
    <i type="int" name="ISPIN">     1</i>
    <i type="logical" name="LNONCOLLINEAR"> F  </i>
    <v name="MAGMOM">      1.00000000</v>
    <i name="NUPDOWN">     -1.00000000</i>
    <i type="logical" name="LSORBIT"> F  </i>
    <v name="SAXIS">      0.00000000      0.00000000      1.00000000</v>
    <i type="logical" name="LSPIRAL"> F  </i>
    <v name="QSPIRAL">      0.00000000      0.00000000      0.00000000</v>
    <i type="logical" name="LZEROZ"> F  </i>
   </separator>
   <separator name="electronic exchange-correlation" >
    <i type="logical" name="LASPH"> F  </i>
   </separator>
   <separator name="electronic convergence" >
    <i type="int" name="NELM">   100</i>
    <i type="int" name="NELMDL">    -5</i>
    <i type="int" name="NELMIN">     2</i>
    <i name="ENINI">    480.00000000</i>
    <separator name="electronic convergence detail" >
     <i type="logical" name="LDIAG"> T  </i>
     <i type="logical" name="LSUBROT"> F  </i>
     <i name="WEIMIN">      0.00000000</i>
     <i name="EBREAK">      0.00000001</i>
     <i name="DEPER">      0.30000000</i>
     <i type="int" name="NRMM">     4</i>
     <i name="TIME">      0.40000000</i>
    </separator>
   </separator>
   <separator name="electronic mixer" >
    <i name="AMIX">      0.40000000</i>
    <i name="BMIX">      1.00000000</i>
    <i name="AMIN">      0.10000000</i>
    <i name="AMIX_MAG">      1.60000000</i>
    <i name="BMIX_MAG">      1.00000000</i>
    <separator name="electronic mixer details" >
     <i type="int" name="IMIX">     4</i>
     <i type="logical" name="MIXFIRST"> F  </i>
     <i type="int" name="MAXMIX">   -45</i>
     <i name="WC">    100.00000000</i>
     <i type="int" name="INIMIX">     1</i>
     <i type="int" name="MIXPRE">     1</i>
     <i type="int" name="MREMOVE">     5</i>
    </separator>
   </separator>
   <separator name="electronic dipolcorrection" >
    <i type="logical" name="LDIPOL"> F  </i>
    <i type="logical" name="LMONO"> F  </i>
    <i type="int" name="IDIPOL">     0</i>
    <i name="EPSILON">      1.00000000</i>
    <v name="DIPOL">   -100.00000000   -100.00000000   -100.00000000</v>
    <i name="EFIELD">      0.00000000</i>
    <i type="logical" name="LVACPOTAV"> F  </i>
   </separator>
  </separator>
  <separator name="grids" >
   <i type="int" name="NGX">   108</i>
   <i type="int" name="NGY">    90</i>
   <i type="int" name="NGZ">   140</i>
   <i type="int" name="NGXF">   216</i>
   <i type="int" name="NGYF">   180</i>
   <i type="int" name="NGZF">   280</i>
   <i type="logical" name="ADDGRID"> F  </i>
  </separator>
  <separator name="ionic" >
   <i type="int" name="NSW">     0</i>
   <i type="int" name="IBRION">    -1</i>
   <i type="int" name="MDALGO">     0</i>
   <i type="int" name="ISIF">     2</i>
   <i name="PSTRESS">      0.00000000</i>
   <i name="EDIFFG">     -0.00100000</i>
   <i type="int" name="NFREE">     0</i>
   <i name="POTIM">      0.50000000</i>
   <i name="SMASS">     -3.00000000</i>
   <i name="SCALEE">      1.00000000</i>
  </separator>
  <separator name="ionic md" >
   <i name="TEBEG">      0.00010000</i>
   <i name="TEEND">      0.00010000</i>
   <i type="int" name="NBLOCK">     1</i>
   <i type="int" name="KBLOCK">     1</i>
   <i type="int" name="NPACO">   256</i>
   <i name="APACO">     10.00000000</i>
  </separator>
  <separator name="symmetry" >
   <i type="int" name="ISYM">     2</i>
   <i name="SYMPREC">      0.00001000</i>
  </separator>
  <separator name="dos" >
   <i type="int" name="LORBIT">     0</i>
   <v name="RWIGS">     -1.00000000</v>
   <i type="int" name="NEDOS">   301</i>
   <i name="EMIN">     10.00000000</i>
   <i name="EMAX">    -10.00000000</i>
   <i name="EFERMI">      0.00000000</i>
  </separator>
  <separator name="writing" >
   <i type="int" name="NWRITE">     2</i>
   <i type="logical" name="LWAVE"> F  </i>
   <i type="logical" name="LDOWNSAMPLE"> F  </i>
   <i type="logical" name="LCHARG"> F  </i>
   <i type="logical" name="LPARD"> F  </i>
   <i type="logical" name="LVTOT"> F  </i>
   <i type="logical" name="LVHAR"> F  </i>
   <i type="logical" name="LELF"> F  </i>
   <i type="logical" name="LOPTICS"> F  </i>
   <v name="STM">      0.00000000      0.00000000      0.00000000      0.00000000      0.00000000      0.00000000      0.00000000</v>
  </separator>
  <separator name="performance" >
   <i type="int" name="NPAR">    24</i>
   <i type="int" name="NSIM">     4</i>
   <i type="int" name="NBLK">    -1</i>
   <i type="logical" name="LPLANE"> T  </i>
   <i type="logical" name="LSCALAPACK"> T  </i>
   <i type="logical" name="LSCAAWARE"> F  </i>
   <i type="logical" name="LSCALU"> F  </i>
   <i type="logical" name="LASYNC"> F  </i>
   <i type="logical" name="LORBITALREAL"> F  </i>
  </separator>
  <separator name="miscellaneous" >
   <i type="int" name="IDIOT">     3</i>
   <i type="int" name="PHON_NSTRUCT">    -1</i>
   <i type="logical" name="LMUSIC"> F  </i>
   <v name="POMASS">     10.81100000</v>
   <v name="DARWINR">      0.00000000</v>
   <v name="DARWINV">      1.00000000</v>
   <i type="logical" name="LCORR"> T  </i>
  </separator>
  <i type="logical" name="GGA_COMPAT"> T  </i>
  <i type="logical" name="LBERRY"> F  </i>
  <i type="int" name="ICORELEVEL">     0</i>
  <i type="logical" name="LDAU"> F  </i>
  <i type="int" name="I_CONSTRAINED_M">     0</i>
  <separator name="electronic exchange-correlation" >
   <i type="string" name="GGA    ">PE</i>
   <i type="string" name="XC_C">1</i>
   <i type="int" name="VOSKOWN">     0</i>
   <i type="logical" name="LHFCALC"> F  </i>
   <i type="string" name="PRECFOCK"></i>
   <i type="logical" name="LSYMGRAD"> F  </i>
   <i type="logical" name="LHFONE"> F  </i>
   <i type="logical" name="LRHFCALC"> F  </i>
   <i type="logical" name="LTHOMAS"> F  </i>
   <i type="logical" name="LMODELHF"> F  </i>
   <i type="logical" name="LFOCKACE"> F  </i>
   <i name="ENCUT4O">     -1.00000000</i>
   <i type="int" name="EXXOEP">     0</i>
   <i type="int" name="FOURORBIT">     0</i>
   <i name="AEXX">      0.00000000</i>
   <i name="HFALPHA">      0.00000000</i>
   <i name="MCALPHA">      0.00000000</i>
   <i name="ALDAX">      1.00000000</i>
   <i name="AGGAX">      1.00000000</i>
   <i name="AMGGAX">      1.00000000</i>
   <i name="ALDAC">      1.00000000</i>
   <i name="AGGAC">      1.00000000</i>
   <i name="AMGGAC">      1.00000000</i>
   <i type="int" name="NKREDX">     1</i>
   <i type="int" name="NKREDY">     1</i>
   <i type="int" name="NKREDZ">     1</i>
   <i type="logical" name="SHIFTRED"> F  </i>
   <i type="logical" name="ODDONLY"> F  </i>
   <i type="logical" name="EVENONLY"> F  </i>
   <i type="int" name="LMAXFOCK">     0</i>
   <i type="int" name="NMAXFOCKAE">     0</i>
   <i type="logical" name="LFOCKAEDFT"> F  </i>
   <i name="HFSCREEN">      0.00000000</i>
   <i name="HFSCREENC">      0.00000000</i>
   <i type="int" name="NBANDSGWLOW">     0</i>
  </separator>
  <separator name="vdW DFT" >
   <i type="logical" name="LUSE_VDW"> F  </i>
   <i type="int" name="IVDW_NL">    -1</i>
   <i type="logical" name="LSPIN_VDW"> F  </i>
   <i name="ZAB_VDW">     -0.84910000</i>
   <i name="GAMMA_VDW">      1.39626340</i>
   <i name="ALPHA_VDW">      0.00000000</i>
   <i name="PARAM1">      0.12340000</i>
   <i name="PARAM2">      1.00000000</i>
   <i name="BPARAM">      6.30000000</i>
   <i name="CPARAM">      0.00930000</i>
  </separator>
  <separator name="model GW" >
   <i type="int" name="MODEL_GW">     0</i>
   <i name="MODEL_EPS0">   2025.00000000</i>
   <i name="MODEL_ALPHA">      1.00000000</i>
  </separator>
  <separator name="linear response parameters" >
   <i type="logical" name="LEPSILON"> F  </i>
   <i type="logical" name="LRPA"> F  </i>
   <i type="logical" name="LNABLA"> F  </i>
   <i type="logical" name="LVEL"> F  </i>
   <i name="CSHIFT">      0.10000000</i>
   <i name="OMEGAMAX">     -1.00000000</i>
   <i name="DEG_THRESHOLD">      0.00200000</i>
   <i name="RTIME">     -0.10000000</i>
   <i name="WPLASMAI">      0.00000000</i>
   <v name="DFIELD">      0.00000000      0.00000000      0.00000000</v>
   <v name="WPLASMA">      0.00000000      0.00000000      0.00000000      0.00000000      0.00000000      0.00000000      0.00000000      0.00000000      0.00000000</v>
  </separator>
  <separator name="orbital magnetization" >
   <i type="logical" name="NUCIND"> F  </i>
   <v name="MAGPOS">      0.00000000      0.00000000      0.00000000</v>
   <i type="logical" name="LNICSALL"> T  </i>
   <i type="logical" name="ORBITALMAG"> F  </i>
   <i type="logical" name="LMAGBLOCH"> F  </i>
   <i type="logical" name="LCHIMAG"> F  </i>
   <i type="logical" name="LGAUGE"> T  </i>
   <i type="int" name="MAGATOM">     0</i>
   <v name="MAGDIPOL">      0.00000000      0.00000000      0.00000000</v>
   <v name="AVECCONST">      0.00000000      0.00000000      0.00000000</v>
  </separator>
  <separator name="response functions" >
   <i type="logical" name="LALL_IN_ONE"> F  </i>
   <i type="int" name="IALL_IN_ONE">    -1</i>
   <i type="int" name="NBANDS_WAVE">    -1</i>
   <i type="logical" name="LFINITE_TEMPERATURE"> F  </i>
   <i type="logical" name="LADDER"> F  </i>
   <i type="logical" name="LRPAFORCE"> F  </i>
   <i type="logical" name="LFXC"> F  </i>
   <i type="logical" name="LHARTREE"> T  </i>
   <i type="int" name="IBSE">     0</i>
   <v type="int" name="KPOINT">    -1     0     0     0</v>
   <i type="logical" name="LTCTC"> F  </i>
   <i type="logical" name="LTCTE"> F  </i>
   <i type="logical" name="LTETE"> F  </i>
   <i type="logical" name="LTRIPLET"> F  </i>
   <i type="logical" name="LFXCEPS"> F  </i>
   <i type="logical" name="LFXHEG"> F  </i>
   <i type="int" name="NATURALO">     2</i>
   <i type="logical" name="LHOLEGF"> F  </i>
   <i type="logical" name="L2ORDER"> F  </i>
   <i type="logical" name="LDMP1"> F  </i>
   <i type="logical" name="LMP2LT"> F  </i>
   <i type="logical" name="LSMP2LT"> F  </i>
   <i type="logical" name="LGWLF"> F  </i>
   <i name="ENCUTGW">     -1.60000002</i>
   <i name="ENCUTGWSOFT">     -1.60000002</i>
   <i name="ENCUTLF">     -1.00000000</i>
   <i type="logical" name="ESF_SPLINES"> F  </i>
   <i name="ESF_CONV">      0.01000000</i>
   <i type="int" name="ESF_NINTER">    15</i>
   <i type="int" name="LMAXMP2">    -1</i>
   <i name="SCISSOR">      0.00000000</i>
   <i type="int" name="NOMEGA">     0</i>
   <i type="int" name="NOMEGAR">     0</i>
   <i type="int" name="NBANDSGW">    -1</i>
   <i type="int" name="NBANDSO">    -1</i>
   <i type="int" name="NBANDSV">    -1</i>
   <i type="int" name="NELMGW">     1</i>
   <i type="int" name="NELMHF">     1</i>
   <i type="int" name="DIM">     3</i>
   <i type="int" name="IESPILON">     4</i>
   <i type="int" name="ANTIRES">     0</i>
   <i name="OMEGAMAX">    -30.00000000</i>
   <i name="OMEGAMIN">    -30.00000000</i>
   <i name="OMEGATL">   -200.00000000</i>
   <i type="int" name="OMEGAGRID">     0</i>
   <i name="CSHIFT">     -0.10000000</i>
   <i type="logical" name="LSELFENERGY"> F  </i>
   <i type="logical" name="LSPECTRAL"> F  </i>
   <i type="logical" name="LSPECTRALGW"> F  </i>
   <i type="logical" name="LSINGLES"> F  </i>
   <i type="logical" name="LFERMIGW"> F  </i>
   <i type="logical" name="ODDONLYGW"> F  </i>
   <i type="logical" name="EVENONLYGW"> F  </i>
   <i type="int" name="NKREDLFX">     1</i>
   <i type="int" name="NKREDLFY">     1</i>
   <i type="int" name="NKREDLFZ">     1</i>
   <i type="int" name="MAXMEM">  2800</i>
   <i type="int" name="TELESCOPE">     0</i>
   <i type="int" name="NTAUPAR">    -1</i>
   <i type="int" name="NOMEGAPAR">    -1</i>
   <i name="DAMP_NEWTON">      0.80000001</i>
   <i name="LAMBDA">      1.00000000</i>
  </separator>
  <separator name="External order field" >
   <i name="OFIELD_KAPPA">      0.00000000</i>
   <v name="OFIELD_K">      0.00000000      0.00000000      0.00000000</v>
   <i name="OFIELD_Q6_NEAR">      0.00000000</i>
   <i name="OFIELD_Q6_FAR">      0.00000000</i>
   <i name="OFIELD_A">      0.00000000</i>
  </separator>
  <separator name="optional k-points parameters" >
   <i type="int" name="KPOINTS_OPT_MODE">     1</i>
   <i type="logical" name="LKPOINTS_OPT"> F  </i>
  </separator>
 </parameters>
 <atominfo>
  <atoms>       1 </atoms>
  <types>       1 </types>
  <array name="atoms" >
   <dimension dim="1">ion</dimension>
   <field type="string">element</field>
   <field type="int">atomtype</field>
   <set>
    <rc><c>B </c><c>   1</c></rc>
   </set>
  </array>
  <array name="atomtypes" >
   <dimension dim="1">type</dimension>
   <field type="int">atomspertype</field>
   <field type="string">element</field>
   <field>mass</field>
   <field>valence</field>
   <field type="string">pseudopotential</field>
   <set>
    <rc><c>   1</c><c>B </c><c>     10.81100000</c><c>      3.00000000</c><c>  PAW_PBE B 06Sep2000                   </c></rc>
   </set>
  </array>
 </atominfo>
 <structure name="initialpos" >
  <crystal>
   <varray name="basis" >
    <v>      15.00000000       0.00000000       0.00000000 </v>
    <v>       0.00000000      12.50000000       0.00000000 </v>
    <v>       0.00000000       0.00000000      18.00000000 </v>
   </varray>
   <i name="volume">   3375.00000000 </i>
   <varray name="rec_basis" >
    <v>       0.06666667       0.00000000       0.00000000 </v>
    <v>       0.00000000       0.08000000       0.00000000 </v>
    <v>       0.00000000       0.00000000       0.05555556 </v>
   </varray>
  </crystal>
  <varray name="positions" >
   <v>       0.52123000       0.54500000       0.63796000 </v>
  </varray>
 </structure>
 <calculation>
  <scstep>
   <time name="dav">   17.53   17.83</time>
   <time name="total">   17.89   18.20</time>
   <energy>
    <i name="alphaZ">      0.02038373 </i>
    <i name="ewald">    -11.82901664 </i>
    <i name="hartreedc">    -42.58396533 </i>
    <i name="XCdc">      4.75549673 </i>
    <i name="pawpsdc">     43.49986551 </i>
    <i name="pawaedc">    -42.64454556 </i>
    <i name="eentropy">     -0.01319731 </i>
    <i name="bandstr">    -14.77789852 </i>
    <i name="atom">     71.16900941 </i>
    <i name="e_fr_energy">      7.59613202 </i>
    <i name="e_wo_entrp">      7.60932932 </i>
    <i name="e_0_energy">      7.60273067 </i>
   </energy>
  </scstep>
  <scstep>
   <time name="dav">   28.64   28.99</time>
   <time name="total">   28.64   28.99</time>
   <energy>
    <i name="e_fr_energy">      0.06823098 </i>
    <i name="e_wo_entrp">      0.10107506 </i>
    <i name="e_0_energy">      0.08465302 </i>
   </energy>
  </scstep>
  <scstep>
   <time name="dav">   17.45   17.65</time>
   <time name="total">   17.45   17.66</time>
   <energy>
    <i name="e_fr_energy">     -0.05594633 </i>
    <i name="e_wo_entrp">     -0.00298534 </i>
    <i name="e_0_energy">     -0.02946583 </i>
   </energy>
  </scstep>
  <scstep>
   <time name="dav">   19.17   19.39</time>
   <time name="total">   19.17   19.39</time>
   <energy>
    <i name="e_fr_energy">     -0.05824681 </i>
    <i name="e_wo_entrp">     -0.00524549 </i>
    <i name="e_0_energy">     -0.03174615 </i>
   </energy>
  </scstep>
  <scstep>
   <time name="dav">   22.49   22.71</time>
   <time name="total">   23.73   23.96</time>
   <energy>
    <i name="e_fr_energy">     -0.05827177 </i>
    <i name="e_wo_entrp">     -0.00527043 </i>
    <i name="e_0_energy">     -0.03177110 </i>
   </energy>
  </scstep>
  <scstep>
   <time name="dav">   21.10   21.33</time>
   <time name="total">   21.45   21.69</time>
   <energy>
    <i name="alphaZ">      0.02038373 </i>
    <i name="ewald">    -11.82901664 </i>
    <i name="hartreedc">    -42.58386581 </i>
    <i name="XCdc">      4.75536849 </i>
    <i name="pawpsdc">     43.51353331 </i>
    <i name="pawaedc">    -42.65831951 </i>
    <i name="eentropy">     -0.05300134 </i>
    <i name="bandstr">    -22.39236375 </i>
    <i name="atom">     71.16900941 </i>
    <i name="e_fr_energy">     -0.05827210 </i>
    <i name="e_wo_entrp">     -0.00527076 </i>
    <i name="e_0_energy">     -0.03177143 </i>
   </energy>
  </scstep>
  <structure>
   <crystal>
    <varray name="basis" >
     <v>      15.00000000       0.00000000       0.00000000 </v>
     <v>       0.00000000      12.50000000       0.00000000 </v>
     <v>       0.00000000       0.00000000      18.00000000 </v>
    </varray>
    <i name="volume">   3375.00000000 </i>
    <varray name="rec_basis" >
     <v>       0.06666667       0.00000000       0.00000000 </v>
     <v>       0.00000000       0.08000000       0.00000000 </v>
     <v>       0.00000000       0.00000000       0.05555556 </v>
    </varray>
   </crystal>
   <varray name="positions" >
    <v>       0.52123000       0.54500000       0.63796000 </v>
   </varray>
  </structure>
  <varray name="forces" >
   <v>      -0.00000000      -0.00000000       0.00000000 </v>
  </varray>
  <varray name="stress" >
   <v>      -0.00062966       0.00000000       0.00000000 </v>
   <v>       0.00000000      -0.00057090       0.00000000 </v>
   <v>       0.00000000       0.00000000      -0.00062396 </v>
  </varray>
  <energy>
   <i name="e_fr_energy">     -0.05827210 </i>
   <i name="e_wo_entrp">     -0.00527076 </i>
   <i name="e_0_energy">     -0.03177143 </i>
  </energy>
  <time name="totalsc">  143.94  145.59</time>
  <eigenvalues>
   <array>
    <dimension dim="1">band</dimension>
    <dimension dim="2">kpoint</dimension>
    <dimension dim="3">spin</dimension>
    <field>eigene</field>
    <field>occ</field>
    <set>
     <set comment="spin 1">
      <set comment="kpoint 1">
       <r>   -9.4099    1.0000 </r>
       <r>   -3.5726    0.1667 </r>
       <r>   -3.5726    0.1667 </r>
       <r>   -3.5725    0.1659 </r>
       <r>   -0.2603    0.0000 </r>
       <r>    0.2374    0.0000 </r>
       <r>    0.3729    0.0000 </r>
       <r>    0.4732    0.0000 </r>
       <r>    0.5428    0.0000 </r>
       <r>    0.6643    0.0000 </r>
       <r>    0.8542    0.0000 </r>
       <r>    0.9072    0.0000 </r>
       <r>    0.9342    0.0000 </r>
       <r>    1.0506    0.0000 </r>
       <r>    1.0772    0.0000 </r>
       <r>    1.1145    0.0000 </r>
       <r>    1.2370    0.0000 </r>
       <r>    1.2912    0.0000 </r>
       <r>    1.2999    0.0000 </r>
       <r>    1.4050    0.0000 </r>
       <r>    1.4373    0.0000 </r>
       <r>    1.5223    0.0000 </r>
       <r>    1.5321    0.0000 </r>
       <r>    1.6293    0.0000 </r>
      </set>
      <set comment="kpoint 2">
       <r>   -9.4099    1.0000 </r>
       <r>   -3.5726    0.1667 </r>
       <r>   -3.5726    0.1667 </r>
       <r>   -3.5725    0.1659 </r>
       <r>   -0.2502    0.0000 </r>
       <r>    0.2406    0.0000 </r>
       <r>    0.3236    0.0000 </r>
       <r>    0.4161    0.0000 </r>
       <r>    0.6700    0.0000 </r>
       <r>    0.6983    0.0000 </r>
       <r>    0.7557    0.0000 </r>
       <r>    0.8653    0.0000 </r>
       <r>    0.9016    0.0000 </r>
       <r>    1.0946    0.0000 </r>
       <r>    1.1218    0.0000 </r>
       <r>    1.1770    0.0000 </r>
       <r>    1.2547    0.0000 </r>
       <r>    1.2660    0.0000 </r>
       <r>    1.3292    0.0000 </r>
       <r>    1.3697    0.0000 </r>
       <r>    1.4572    0.0000 </r>
       <r>    1.5334    0.0000 </r>
       <r>    1.5751    0.0000 </r>
       <r>    1.6272    0.0000 </r>
      </set>
      <set comment="kpoint 3">
       <r>   -9.4099    1.0000 </r>
       <r>   -3.5726    0.1667 </r>
       <r>   -3.5726    0.1667 </r>
       <r>   -3.5725    0.1659 </r>
       <r>   -0.2233    0.0000 </r>
       <r>    0.1751    0.0000 </r>
       <r>    0.3031    0.0000 </r>
       <r>    0.4442    0.0000 </r>
       <r>    0.6097    0.0000 </r>
       <r>    0.7024    0.0000 </r>
       <r>    0.7528    0.0000 </r>
       <r>    0.8940    0.0000 </r>
       <r>    0.9250    0.0000 </r>
       <r>    1.0435    0.0000 </r>
       <r>    1.1468    0.0000 </r>
       <r>    1.2337    0.0000 </r>
       <r>    1.2948    0.0000 </r>
       <r>    1.3069    0.0000 </r>
       <r>    1.3782    0.0000 </r>
       <r>    1.4788    0.0000 </r>
       <r>    1.4849    0.0000 </r>
       <r>    1.5096    0.0000 </r>
       <r>    1.5707    0.0000 </r>
       <r>    1.6157    0.0000 </r>
      </set>
      <set comment="kpoint 4">
       <r>   -9.4099    1.0000 </r>
       <r>   -3.5726    0.1668 </r>
       <r>   -3.5726    0.1667 </r>
       <r>   -3.5725    0.1659 </r>
       <r>   -0.1946    0.0000 </r>
       <r>    0.0996    0.0000 </r>
       <r>    0.3467    0.0000 </r>
       <r>    0.4884    0.0000 </r>
       <r>    0.5125    0.0000 </r>
       <r>    0.6537    0.0000 </r>
       <r>    0.7365    0.0000 </r>
       <r>    0.9319    0.0000 </r>
       <r>    0.9569    0.0000 </r>
       <r>    1.1255    0.0000 </r>
       <r>    1.1821    0.0000 </r>
       <r>    1.1960    0.0000 </r>
       <r>    1.3283    0.0000 </r>
       <r>    1.3803    0.0000 </r>
       <r>    1.3916    0.0000 </r>
       <r>    1.4470    0.0000 </r>
       <r>    1.4970    0.0000 </r>
       <r>    1.5475    0.0000 </r>
       <r>    1.5582    0.0000 </r>
       <r>    1.6295    0.0000 </r>
      </set>
      <set comment="kpoint 5">
       <r>   -9.4099    1.0000 </r>
       <r>   -3.5726    0.1667 </r>
       <r>   -3.5726    0.1666 </r>
       <r>   -3.5725    0.1662 </r>
       <r>   -0.2426    0.0000 </r>
       <r>    0.2546    0.0000 </r>
       <r>    0.3864    0.0000 </r>
       <r>    0.4900    0.0000 </r>
       <r>    0.5038    0.0000 </r>
       <r>    0.5663    0.0000 </r>
       <r>    0.9143    0.0000 </r>
       <r>    0.9244    0.0000 </r>
       <r>    0.9717    0.0000 </r>
       <r>    1.0292    0.0000 </r>
       <r>    1.0617    0.0000 </r>
       <r>    1.0950    0.0000 </r>
       <r>    1.1204    0.0000 </r>
       <r>    1.1561    0.0000 </r>
       <r>    1.2441    0.0000 </r>
       <r>    1.4852    0.0000 </r>
       <r>    1.5482    0.0000 </r>
       <r>    1.5961    0.0000 </r>
       <r>    1.6270    0.0000 </r>
       <r>    1.6450    0.0000 </r>
      </set>
      <set comment="kpoint 6">
       <r>   -9.4099    1.0000 </r>
       <r>   -3.5726    0.1667 </r>
       <r>   -3.5726    0.1667 </r>
       <r>   -3.5725    0.1662 </r>
       <r>   -0.2325    0.0000 </r>
       <r>    0.2576    0.0000 </r>
       <r>    0.3407    0.0000 </r>
       <r>    0.4313    0.0000 </r>
       <r>    0.5159    0.0000 </r>
       <r>    0.7131    0.0000 </r>
       <r>    0.7735    0.0000 </r>
       <r>    0.9152    0.0000 </r>
       <r>    0.9392    0.0000 </r>
       <r>    1.0117    0.0000 </r>
       <r>    1.0620    0.0000 </r>
       <r>    1.1107    0.0000 </r>
       <r>    1.1449    0.0000 </r>
       <r>    1.2880    0.0000 </r>
       <r>    1.3702    0.0000 </r>
       <r>    1.4457    0.0000 </r>
       <r>    1.5170    0.0000 </r>
       <r>    1.5429    0.0000 </r>
       <r>    1.5701    0.0000 </r>
       <r>    1.6407    0.0000 </r>
      </set>
      <set comment="kpoint 7">
       <r>   -9.4099    1.0000 </r>
       <r>   -3.5726    0.1667 </r>
       <r>   -3.5726    0.1667 </r>
       <r>   -3.5725    0.1662 </r>
       <r>   -0.2057    0.0000 </r>
       <r>    0.1929    0.0000 </r>
       <r>    0.3207    0.0000 </r>
       <r>    0.4583    0.0000 </r>
       <r>    0.5464    0.0000 </r>
       <r>    0.6278    0.0000 </r>
       <r>    0.7678    0.0000 </r>
       <r>    0.8736    0.0000 </r>
       <r>    0.9499    0.0000 </r>
       <r>    0.9865    0.0000 </r>
       <r>    1.0844    0.0000 </r>
       <r>    1.1466    0.0000 </r>
       <r>    1.2887    0.0000 </r>
       <r>    1.3581    0.0000 </r>
       <r>    1.4232    0.0000 </r>
       <r>    1.4457    0.0000 </r>
       <r>    1.5141    0.0000 </r>
       <r>    1.5534    0.0000 </r>
       <r>    1.5973    0.0000 </r>
       <r>    1.6358    0.0000 </r>
      </set>
      <set comment="kpoint 8">
       <r>   -9.4099    1.0000 </r>
       <r>   -3.5726    0.1668 </r>
       <r>   -3.5726    0.1667 </r>
       <r>   -3.5725    0.1662 </r>
       <r>   -0.1771    0.0000 </r>
       <r>    0.1179    0.0000 </r>
       <r>    0.3639    0.0000 </r>
       <r>    0.5029    0.0000 </r>
       <r>    0.5286    0.0000 </r>
       <r>    0.5847    0.0000 </r>
       <r>    0.6700    0.0000 </r>
       <r>    0.7926    0.0000 </r>
       <r>    1.0283    0.0000 </r>
       <r>    1.1167    0.0000 </r>
       <r>    1.1731    0.0000 </r>
       <r>    1.1790    0.0000 </r>
       <r>    1.2279    0.0000 </r>
       <r>    1.3270    0.0000 </r>
       <r>    1.3687    0.0000 </r>
       <r>    1.4678    0.0000 </r>
       <r>    1.5563    0.0000 </r>
       <r>    1.6128    0.0000 </r>
       <r>    1.6578    0.0000 </r>
       <r>    1.7224    0.0000 </r>
      </set>
      <set comment="kpoint 9">
       <r>   -9.4099    1.0000 </r>
       <r>   -3.5726    0.1667 </r>
       <r>   -3.5726    0.1667 </r>
       <r>   -3.5726    0.1666 </r>
       <r>   -0.2084    0.0000 </r>
       <r>    0.2800    0.0000 </r>
       <r>    0.3507    0.0000 </r>
       <r>    0.4442    0.0000 </r>
       <r>    0.5229    0.0000 </r>
       <r>    0.6017    0.0000 </r>
       <r>    0.7820    0.0000 </r>
       <r>    0.9180    0.0000 </r>
       <r>    0.9526    0.0000 </r>
       <r>    1.0006    0.0000 </r>
       <r>    1.0059    0.0000 </r>
       <r>    1.0913    0.0000 </r>
       <r>    1.1166    0.0000 </r>
       <r>    1.1513    0.0000 </r>
       <r>    1.2757    0.0000 </r>
       <r>    1.4580    0.0000 </r>
       <r>    1.4724    0.0000 </r>
       <r>    1.5783    0.0000 </r>
       <r>    1.5972    0.0000 </r>
       <r>    1.6304    0.0000 </r>
      </set>
      <set comment="kpoint 10">
       <r>   -9.4099    1.0000 </r>
       <r>   -3.5726    0.1667 </r>
       <r>   -3.5726    0.1667 </r>
       <r>   -3.5726    0.1666 </r>
       <r>   -0.1985    0.0000 </r>
       <r>    0.2827    0.0000 </r>
       <r>    0.3581    0.0000 </r>
       <r>    0.3921    0.0000 </r>
       <r>    0.4758    0.0000 </r>
       <r>    0.7438    0.0000 </r>
       <r>    0.7847    0.0000 </r>
       <r>    0.8216    0.0000 </r>
       <r>    0.8623    0.0000 </r>
       <r>    0.9569    0.0000 </r>
       <r>    0.9651    0.0000 </r>
       <r>    1.1696    0.0000 </r>
       <r>    1.2281    0.0000 </r>
       <r>    1.2694    0.0000 </r>
       <r>    1.3189    0.0000 </r>
       <r>    1.3347    0.0000 </r>
       <r>    1.4496    0.0000 </r>
       <r>    1.5892    0.0000 </r>
       <r>    1.6547    0.0000 </r>
       <r>    1.7341    0.0000 </r>
      </set>
      <set comment="kpoint 11">
       <r>   -9.4099    1.0000 </r>
       <r>   -3.5726    0.1667 </r>
       <r>   -3.5726    0.1667 </r>
       <r>   -3.5726    0.1667 </r>
       <r>   -0.1720    0.0000 </r>
       <r>    0.2267    0.0000 </r>
       <r>    0.3517    0.0000 </r>
       <r>    0.3970    0.0000 </r>
       <r>    0.5062    0.0000 </r>
       <r>    0.6594    0.0000 </r>
       <r>    0.7246    0.0000 </r>
       <r>    0.8108    0.0000 </r>
       <r>    0.8475    0.0000 </r>
       <r>    0.9803    0.0000 </r>
       <r>    0.9881    0.0000 </r>
       <r>    1.1494    0.0000 </r>
       <r>    1.2830    0.0000 </r>
       <r>    1.3071    0.0000 </r>
       <r>    1.4014    0.0000 </r>
       <r>    1.4661    0.0000 </r>
       <r>    1.5458    0.0000 </r>
       <r>    1.6197    0.0000 </r>
       <r>    1.6851    0.0000 </r>
       <r>    1.7635    0.0000 </r>
      </set>
      <set comment="kpoint 12">
       <r>   -9.4099    1.0000 </r>
       <r>   -3.5726    0.1667 </r>
       <r>   -3.5726    0.1667 </r>
       <r>   -3.5726    0.1667 </r>
       <r>   -0.1439    0.0000 </r>
       <r>    0.1543    0.0000 </r>
       <r>    0.3916    0.0000 </r>
       <r>    0.4352    0.0000 </r>
       <r>    0.5445    0.0000 </r>
       <r>    0.5701    0.0000 </r>
       <r>    0.6375    0.0000 </r>
       <r>    0.7183    0.0000 </r>
       <r>    0.8874    0.0000 </r>
       <r>    1.0274    0.0000 </r>
       <r>    1.0549    0.0000 </r>
       <r>    1.1879    0.0000 </r>
       <r>    1.2260    0.0000 </r>
       <r>    1.3391    0.0000 </r>
       <r>    1.4771    0.0000 </r>
       <r>    1.5887    0.0000 </r>
       <r>    1.6217    0.0000 </r>
       <r>    1.6632    0.0000 </r>
       <r>    1.7373    0.0000 </r>
       <r>    1.7933    0.0000 </r>
      </set>
      <set comment="kpoint 13">
       <r>   -9.4099    1.0000 </r>
       <r>   -3.5726    0.1672 </r>
       <r>   -3.5726    0.1666 </r>
       <r>   -3.5725    0.1666 </r>
       <r>   -0.1625    0.0000 </r>
       <r>    0.2147    0.0000 </r>
       <r>    0.3561    0.0000 </r>
       <r>    0.4904    0.0000 </r>
       <r>    0.5690    0.0000 </r>
       <r>    0.6538    0.0000 </r>
       <r>    0.6587    0.0000 </r>
       <r>    0.7932    0.0000 </r>
       <r>    0.8817    0.0000 </r>
       <r>    0.9616    0.0000 </r>
       <r>    1.0145    0.0000 </r>
       <r>    1.0553    0.0000 </r>
       <r>    1.1611    0.0000 </r>
       <r>    1.2070    0.0000 </r>
       <r>    1.3351    0.0000 </r>
       <r>    1.3392    0.0000 </r>
       <r>    1.4655    0.0000 </r>
       <r>    1.4758    0.0000 </r>
       <r>    1.5374    0.0000 </r>
       <r>    1.6405    0.0000 </r>
      </set>
      <set comment="kpoint 14">
       <r>   -9.4099    1.0000 </r>
       <r>   -3.5726    0.1671 </r>
       <r>   -3.5726    0.1666 </r>
       <r>   -3.5726    0.1666 </r>
       <r>   -0.1528    0.0000 </r>
       <r>    0.2251    0.0000 </r>
       <r>    0.3631    0.0000 </r>
       <r>    0.4309    0.0000 </r>
       <r>    0.5254    0.0000 </r>
       <r>    0.6629    0.0000 </r>
       <r>    0.7333    0.0000 </r>
       <r>    0.8049    0.0000 </r>
       <r>    0.8280    0.0000 </r>
       <r>    0.8722    0.0000 </r>
       <r>    1.0145    0.0000 </r>
       <r>    1.1072    0.0000 </r>
       <r>    1.1683    0.0000 </r>
       <r>    1.2339    0.0000 </r>
       <r>    1.3124    0.0000 </r>
       <r>    1.3837    0.0000 </r>
       <r>    1.4965    0.0000 </r>
       <r>    1.5508    0.0000 </r>
       <r>    1.6473    0.0000 </r>
       <r>    1.6882    0.0000 </r>
      </set>
      <set comment="kpoint 15">
       <r>   -9.4099    1.0000 </r>
       <r>   -3.5726    0.1671 </r>
       <r>   -3.5726    0.1666 </r>
       <r>   -3.5726    0.1666 </r>
       <r>   -0.1270    0.0000 </r>
       <r>    0.2461    0.0000 </r>
       <r>    0.3062    0.0000 </r>
       <r>    0.4107    0.0000 </r>
       <r>    0.5541    0.0000 </r>
       <r>    0.5936    0.0000 </r>
       <r>    0.7104    0.0000 </r>
       <r>    0.7301    0.0000 </r>
       <r>    0.8542    0.0000 </r>
       <r>    0.8733    0.0000 </r>
       <r>    1.0108    0.0000 </r>
       <r>    1.0432    0.0000 </r>
       <r>    1.1651    0.0000 </r>
       <r>    1.3355    0.0000 </r>
       <r>    1.4467    0.0000 </r>
       <r>    1.5285    0.0000 </r>
       <r>    1.6036    0.0000 </r>
       <r>    1.6706    0.0000 </r>
       <r>    1.7554    0.0000 </r>
       <r>    1.8358    0.0000 </r>
      </set>
      <set comment="kpoint 16">
       <r>   -9.4099    1.0000 </r>
       <r>   -3.5726    0.1671 </r>
       <r>   -3.5726    0.1667 </r>
       <r>   -3.5726    0.1666 </r>
       <r>   -0.1001    0.0000 </r>
       <r>    0.2071    0.0000 </r>
       <r>    0.3091    0.0000 </r>
       <r>    0.4530    0.0000 </r>
       <r>    0.5028    0.0000 </r>
       <r>    0.6010    0.0000 </r>
       <r>    0.6301    0.0000 </r>
       <r>    0.7602    0.0000 </r>
       <r>    0.7730    0.0000 </r>
       <r>    0.9014    0.0000 </r>
       <r>    0.9265    0.0000 </r>
       <r>    1.0628    0.0000 </r>
       <r>    1.2723    0.0000 </r>
       <r>    1.4985    0.0000 </r>
       <r>    1.5569    0.0000 </r>
       <r>    1.5953    0.0000 </r>
       <r>    1.6742    0.0000 </r>
       <r>    1.7420    0.0000 </r>
       <r>    1.8015    0.0000 </r>
       <r>    1.8569    0.0000 </r>
      </set>
      <set comment="kpoint 17">
       <r>   -9.4099    1.0000 </r>
       <r>   -3.5727    0.1674 </r>
       <r>   -3.5726    0.1666 </r>
       <r>   -3.5725    0.1665 </r>
       <r>   -0.1207    0.0000 </r>
       <r>    0.1397    0.0000 </r>
       <r>    0.4143    0.0000 </r>
       <r>    0.5433    0.0000 </r>
       <r>    0.5660    0.0000 </r>
       <r>    0.6160    0.0000 </r>
       <r>    0.6944    0.0000 </r>
       <r>    0.7203    0.0000 </r>
       <r>    0.8015    0.0000 </r>
       <r>    0.8608    0.0000 </r>
       <r>    1.0656    0.0000 </r>
       <r>    1.1244    0.0000 </r>
       <r>    1.2087    0.0000 </r>
       <r>    1.2325    0.0000 </r>
       <r>    1.2504    0.0000 </r>
       <r>    1.2817    0.0000 </r>
       <r>    1.3851    0.0000 </r>
       <r>    1.3858    0.0000 </r>
       <r>    1.6507    0.0000 </r>
       <r>    1.7745    0.0000 </r>
      </set>
      <set comment="kpoint 18">
       <r>   -9.4099    1.0000 </r>
       <r>   -3.5727    0.1674 </r>
       <r>   -3.5726    0.1666 </r>
       <r>   -3.5725    0.1666 </r>
       <r>   -0.1113    0.0000 </r>
       <r>    0.1515    0.0000 </r>
       <r>    0.4203    0.0000 </r>
       <r>    0.4856    0.0000 </r>
       <r>    0.5569    0.0000 </r>
       <r>    0.5935    0.0000 </r>
       <r>    0.6454    0.0000 </r>
       <r>    0.7315    0.0000 </r>
       <r>    0.8568    0.0000 </r>
       <r>    0.9322    0.0000 </r>
       <r>    1.0189    0.0000 </r>
       <r>    1.0557    0.0000 </r>
       <r>    1.0943    0.0000 </r>
       <r>    1.2091    0.0000 </r>
       <r>    1.2940    0.0000 </r>
       <r>    1.4220    0.0000 </r>
       <r>    1.4616    0.0000 </r>
       <r>    1.5782    0.0000 </r>
       <r>    1.6604    0.0000 </r>
       <r>    1.7839    0.0000 </r>
      </set>
      <set comment="kpoint 19">
       <r>   -9.4099    1.0000 </r>
       <r>   -3.5727    0.1674 </r>
       <r>   -3.5726    0.1666 </r>
       <r>   -3.5726    0.1666 </r>
       <r>   -0.0868    0.0000 </r>
       <r>    0.1855    0.0000 </r>
       <r>    0.3500    0.0000 </r>
       <r>    0.4671    0.0000 </r>
       <r>    0.4963    0.0000 </r>
       <r>    0.6076    0.0000 </r>
       <r>    0.6315    0.0000 </r>
       <r>    0.7602    0.0000 </r>
       <r>    0.7905    0.0000 </r>
       <r>    0.9117    0.0000 </r>
       <r>    0.9339    0.0000 </r>
       <r>    1.0603    0.0000 </r>
       <r>    1.0973    0.0000 </r>
       <r>    1.2484    0.0000 </r>
       <r>    1.5025    0.0000 </r>
       <r>    1.6384    0.0000 </r>
       <r>    1.6588    0.0000 </r>
       <r>    1.6913    0.0000 </r>
       <r>    1.7692    0.0000 </r>
       <r>    1.8095    0.0000 </r>
      </set>
      <set comment="kpoint 20">
       <r>   -9.4099    1.0000 </r>
       <r>   -3.5727    0.1674 </r>
       <r>   -3.5726    0.1667 </r>
       <r>   -3.5726    0.1666 </r>
       <r>   -0.0619    0.0000 </r>
       <r>    0.2307    0.0000 </r>
       <r>    0.2745    0.0000 </r>
       <r>    0.4054    0.0000 </r>
       <r>    0.5060    0.0000 </r>
       <r>    0.6521    0.0000 </r>
       <r>    0.6814    0.0000 </r>
       <r>    0.6977    0.0000 </r>
       <r>    0.7992    0.0000 </r>
       <r>    0.8224    0.0000 </r>
       <r>    0.8370    0.0000 </r>
       <r>    0.9598    0.0000 </r>
       <r>    1.3226    0.0000 </r>
       <r>    1.4875    0.0000 </r>
       <r>    1.5811    0.0000 </r>
       <r>    1.6795    0.0000 </r>
       <r>    1.7343    0.0000 </r>
       <r>    1.7591    0.0000 </r>
       <r>    1.8455    0.0000 </r>
       <r>    1.8736    0.0000 </r>
      </set>
      <set comment="kpoint 21">
       <r>   -9.4099    1.0000 </r>
       <r>   -3.5726    0.1667 </r>
       <r>   -3.5726    0.1667 </r>
       <r>   -3.5725    0.1659 </r>
       <r>   -0.2481    0.0000 </r>
       <r>    0.1303    0.0000 </r>
       <r>    0.4880    0.0000 </r>
       <r>    0.4981    0.0000 </r>
       <r>    0.6036    0.0000 </r>
       <r>    0.6790    0.0000 </r>
       <r>    0.7992    0.0000 </r>
       <r>    0.8161    0.0000 </r>
       <r>    0.8702    0.0000 </r>
       <r>    0.9942    0.0000 </r>
       <r>    1.1696    0.0000 </r>
       <r>    1.2109    0.0000 </r>
       <r>    1.2570    0.0000 </r>
       <r>    1.2806    0.0000 </r>
       <r>    1.3040    0.0000 </r>
       <r>    1.3741    0.0000 </r>
       <r>    1.4730    0.0000 </r>
       <r>    1.5394    0.0000 </r>
       <r>    1.5847    0.0000 </r>
       <r>    1.6447    0.0000 </r>
      </set>
      <set comment="kpoint 22">
       <r>   -9.4099    1.0000 </r>
       <r>   -3.5726    0.1667 </r>
       <r>   -3.5726    0.1667 </r>
       <r>   -3.5725    0.1659 </r>
       <r>   -0.2382    0.0000 </r>
       <r>    0.1417    0.0000 </r>
       <r>    0.3417    0.0000 </r>
       <r>    0.5639    0.0000 </r>
       <r>    0.6427    0.0000 </r>
       <r>    0.6870    0.0000 </r>
       <r>    0.7230    0.0000 </r>
       <r>    0.8805    0.0000 </r>
       <r>    0.9868    0.0000 </r>
       <r>    1.0189    0.0000 </r>
       <r>    1.0711    0.0000 </r>
       <r>    1.1874    0.0000 </r>
       <r>    1.1949    0.0000 </r>
       <r>    1.2729    0.0000 </r>
       <r>    1.3888    0.0000 </r>
       <r>    1.4065    0.0000 </r>
       <r>    1.4593    0.0000 </r>
       <r>    1.5191    0.0000 </r>
       <r>    1.5745    0.0000 </r>
       <r>    1.6218    0.0000 </r>
      </set>
      <set comment="kpoint 23">
       <r>   -9.4099    1.0000 </r>
       <r>   -3.5726    0.1667 </r>
       <r>   -3.5726    0.1667 </r>
       <r>   -3.5725    0.1659 </r>
       <r>   -0.2121    0.0000 </r>
       <r>    0.1643    0.0000 </r>
       <r>    0.2264    0.0000 </r>
       <r>    0.4874    0.0000 </r>
       <r>    0.6170    0.0000 </r>
       <r>    0.7166    0.0000 </r>
       <r>    0.8942    0.0000 </r>
       <r>    0.9166    0.0000 </r>
       <r>    0.9617    0.0000 </r>
       <r>    1.0339    0.0000 </r>
       <r>    1.0736    0.0000 </r>
       <r>    1.1939    0.0000 </r>
       <r>    1.2322    0.0000 </r>
       <r>    1.2744    0.0000 </r>
       <r>    1.3295    0.0000 </r>
       <r>    1.3516    0.0000 </r>
       <r>    1.4763    0.0000 </r>
       <r>    1.5301    0.0000 </r>
       <r>    1.6167    0.0000 </r>
       <r>    1.6527    0.0000 </r>
      </set>
      <set comment="kpoint 24">
       <r>   -9.4099    1.0000 </r>
       <r>   -3.5726    0.1668 </r>
       <r>   -3.5726    0.1667 </r>
       <r>   -3.5725    0.1659 </r>
       <r>   -0.1845    0.0000 </r>
       <r>    0.1203    0.0000 </r>
       <r>    0.2419    0.0000 </r>
       <r>    0.3852    0.0000 </r>
       <r>    0.6633    0.0000 </r>
       <r>    0.7490    0.0000 </r>
       <r>    0.8243    0.0000 </r>
       <r>    0.9460    0.0000 </r>
       <r>    0.9774    0.0000 </r>
       <r>    1.0920    0.0000 </r>
       <r>    1.1430    0.0000 </r>
       <r>    1.2022    0.0000 </r>
       <r>    1.2386    0.0000 </r>
       <r>    1.2816    0.0000 </r>
       <r>    1.3625    0.0000 </r>
       <r>    1.4102    0.0000 </r>
       <r>    1.4571    0.0000 </r>
       <r>    1.4975    0.0000 </r>
       <r>    1.5335    0.0000 </r>
       <r>    1.5588    0.0000 </r>
      </set>
      <set comment="kpoint 25">
       <r>   -9.4099    1.0000 </r>
       <r>   -3.5726    0.1667 </r>
       <r>   -3.5726    0.1666 </r>
       <r>   -3.5725    0.1662 </r>
       <r>   -0.2304    0.0000 </r>
       <r>    0.1485    0.0000 </r>
       <r>    0.4847    0.0000 </r>
       <r>    0.5046    0.0000 </r>
       <r>    0.5503    0.0000 </r>
       <r>    0.6212    0.0000 </r>
       <r>    0.8076    0.0000 </r>
       <r>    0.8172    0.0000 </r>
       <r>    0.8561    0.0000 </r>
       <r>    1.0589    0.0000 </r>
       <r>    1.1491    0.0000 </r>
       <r>    1.2029    0.0000 </r>
       <r>    1.2425    0.0000 </r>
       <r>    1.2586    0.0000 </r>
       <r>    1.2818    0.0000 </r>
       <r>    1.3273    0.0000 </r>
       <r>    1.4026    0.0000 </r>
       <r>    1.4976    0.0000 </r>
       <r>    1.5228    0.0000 </r>
       <r>    1.7116    0.0000 </r>
      </set>
      <set comment="kpoint 26">
       <r>   -9.4099    1.0000 </r>
       <r>   -3.5726    0.1667 </r>
       <r>   -3.5726    0.1667 </r>
       <r>   -3.5725    0.1662 </r>
       <r>   -0.2206    0.0000 </r>
       <r>    0.1599    0.0000 </r>
       <r>    0.3585    0.0000 </r>
       <r>    0.5190    0.0000 </r>
       <r>    0.5894    0.0000 </r>
       <r>    0.6625    0.0000 </r>
       <r>    0.7396    0.0000 </r>
       <r>    0.8360    0.0000 </r>
       <r>    1.0121    0.0000 </r>
       <r>    1.0298    0.0000 </r>
       <r>    1.0823    0.0000 </r>
       <r>    1.0988    0.0000 </r>
       <r>    1.2467    0.0000 </r>
       <r>    1.2758    0.0000 </r>
       <r>    1.3395    0.0000 </r>
       <r>    1.4032    0.0000 </r>
       <r>    1.4307    0.0000 </r>
       <r>    1.4690    0.0000 </r>
       <r>    1.6016    0.0000 </r>
       <r>    1.6936    0.0000 </r>
      </set>
      <set comment="kpoint 27">
       <r>   -9.4099    1.0000 </r>
       <r>   -3.5726    0.1667 </r>
       <r>   -3.5726    0.1667 </r>
       <r>   -3.5725    0.1662 </r>
       <r>   -0.1945    0.0000 </r>
       <r>    0.1824    0.0000 </r>
       <r>    0.2444    0.0000 </r>
       <r>    0.5054    0.0000 </r>
       <r>    0.5504    0.0000 </r>
       <r>    0.6418    0.0000 </r>
       <r>    0.8609    0.0000 </r>
       <r>    0.8875    0.0000 </r>
       <r>    0.9490    0.0000 </r>
       <r>    0.9817    0.0000 </r>
       <r>    1.1040    0.0000 </r>
       <r>    1.1709    0.0000 </r>
       <r>    1.2335    0.0000 </r>
       <r>    1.3128    0.0000 </r>
       <r>    1.3324    0.0000 </r>
       <r>    1.4325    0.0000 </r>
       <r>    1.4769    0.0000 </r>
       <r>    1.5861    0.0000 </r>
       <r>    1.6246    0.0000 </r>
       <r>    1.6620    0.0000 </r>
      </set>
      <set comment="kpoint 28">
       <r>   -9.4099    1.0000 </r>
       <r>   -3.5726    0.1668 </r>
       <r>   -3.5726    0.1667 </r>
       <r>   -3.5725    0.1662 </r>
       <r>   -0.1671    0.0000 </r>
       <r>    0.1386    0.0000 </r>
       <r>    0.2599    0.0000 </r>
       <r>    0.4037    0.0000 </r>
       <r>    0.5868    0.0000 </r>
       <r>    0.6855    0.0000 </r>
       <r>    0.7961    0.0000 </r>
       <r>    0.8584    0.0000 </r>
       <r>    0.9305    0.0000 </r>
       <r>    1.0720    0.0000 </r>
       <r>    1.1341    0.0000 </r>
       <r>    1.1987    0.0000 </r>
       <r>    1.3285    0.0000 </r>
       <r>    1.3491    0.0000 </r>
       <r>    1.3899    0.0000 </r>
       <r>    1.4617    0.0000 </r>
       <r>    1.5040    0.0000 </r>
       <r>    1.5087    0.0000 </r>
       <r>    1.5332    0.0000 </r>
       <r>    1.5791    0.0000 </r>
      </set>
      <set comment="kpoint 29">
       <r>   -9.4099    1.0000 </r>
       <r>   -3.5726    0.1667 </r>
       <r>   -3.5726    0.1667 </r>
       <r>   -3.5726    0.1666 </r>
       <r>   -0.1965    0.0000 </r>
       <r>    0.1839    0.0000 </r>
       <r>    0.3620    0.0000 </r>
       <r>    0.5370    0.0000 </r>
       <r>    0.5663    0.0000 </r>
       <r>    0.6480    0.0000 </r>
       <r>    0.6840    0.0000 </r>
       <r>    0.8525    0.0000 </r>
       <r>    0.8795    0.0000 </r>
       <r>    1.0190    0.0000 </r>
       <r>    1.0485    0.0000 </r>
       <r>    1.1456    0.0000 </r>
       <r>    1.2614    0.0000 </r>
       <r>    1.2703    0.0000 </r>
       <r>    1.3034    0.0000 </r>
       <r>    1.3429    0.0000 </r>
       <r>    1.3624    0.0000 </r>
       <r>    1.3802    0.0000 </r>
       <r>    1.6231    0.0000 </r>
       <r>    1.7546    0.0000 </r>
      </set>
      <set comment="kpoint 30">
       <r>   -9.4099    1.0000 </r>
       <r>   -3.5726    0.1667 </r>
       <r>   -3.5726    0.1667 </r>
       <r>   -3.5726    0.1666 </r>
       <r>   -0.1868    0.0000 </r>
       <r>    0.1952    0.0000 </r>
       <r>    0.3639    0.0000 </r>
       <r>    0.4097    0.0000 </r>
       <r>    0.6143    0.0000 </r>
       <r>    0.6891    0.0000 </r>
       <r>    0.7054    0.0000 </r>
       <r>    0.7735    0.0000 </r>
       <r>    0.8872    0.0000 </r>
       <r>    1.0591    0.0000 </r>
       <r>    1.0949    0.0000 </r>
       <r>    1.1328    0.0000 </r>
       <r>    1.1902    0.0000 </r>
       <r>    1.2474    0.0000 </r>
       <r>    1.2925    0.0000 </r>
       <r>    1.3571    0.0000 </r>
       <r>    1.4850    0.0000 </r>
       <r>    1.5446    0.0000 </r>
       <r>    1.6212    0.0000 </r>
       <r>    1.6445    0.0000 </r>
      </set>
      <set comment="kpoint 31">
       <r>   -9.4099    1.0000 </r>
       <r>   -3.5726    0.1667 </r>
       <r>   -3.5726    0.1667 </r>
       <r>   -3.5726    0.1667 </r>
       <r>   -0.1610    0.0000 </r>
       <r>    0.2172    0.0000 </r>
       <r>    0.2798    0.0000 </r>
       <r>    0.4105    0.0000 </r>
       <r>    0.5403    0.0000 </r>
       <r>    0.6706    0.0000 </r>
       <r>    0.7227    0.0000 </r>
       <r>    0.7599    0.0000 </r>
       <r>    0.9634    0.0000 </r>
       <r>    1.0028    0.0000 </r>
       <r>    1.0433    0.0000 </r>
       <r>    1.1571    0.0000 </r>
       <r>    1.2643    0.0000 </r>
       <r>    1.3266    0.0000 </r>
       <r>    1.3602    0.0000 </r>
       <r>    1.4428    0.0000 </r>
       <r>    1.5252    0.0000 </r>
       <r>    1.6371    0.0000 </r>
       <r>    1.6546    0.0000 </r>
       <r>    1.6982    0.0000 </r>
      </set>
      <set comment="kpoint 32">
       <r>   -9.4099    1.0000 </r>
       <r>   -3.5726    0.1667 </r>
       <r>   -3.5726    0.1667 </r>
       <r>   -3.5726    0.1667 </r>
       <r>   -0.1341    0.0000 </r>
       <r>    0.1748    0.0000 </r>
       <r>    0.2949    0.0000 </r>
       <r>    0.4398    0.0000 </r>
       <r>    0.4468    0.0000 </r>
       <r>    0.6575    0.0000 </r>
       <r>    0.7139    0.0000 </r>
       <r>    0.7906    0.0000 </r>
       <r>    0.8849    0.0000 </r>
       <r>    0.9262    0.0000 </r>
       <r>    1.1951    0.0000 </r>
       <r>    1.2377    0.0000 </r>
       <r>    1.3320    0.0000 </r>
       <r>    1.3649    0.0000 </r>
       <r>    1.3897    0.0000 </r>
       <r>    1.5157    0.0000 </r>
       <r>    1.5308    0.0000 </r>
       <r>    1.6065    0.0000 </r>
       <r>    1.6150    0.0000 </r>
       <r>    1.7092    0.0000 </r>
      </set>
      <set comment="kpoint 33">
       <r>   -9.4099    1.0000 </r>
       <r>   -3.5726    0.1672 </r>
       <r>   -3.5726    0.1666 </r>
       <r>   -3.5725    0.1666 </r>
       <r>   -0.1513    0.0000 </r>
       <r>    0.2165    0.0000 </r>
       <r>    0.2657    0.0000 </r>
       <r>    0.5391    0.0000 </r>
       <r>    0.5824    0.0000 </r>
       <r>    0.6245    0.0000 </r>
       <r>    0.7123    0.0000 </r>
       <r>    0.8866    0.0000 </r>
       <r>    0.9219    0.0000 </r>
       <r>    0.9224    0.0000 </r>
       <r>    0.9361    0.0000 </r>
       <r>    1.0219    0.0000 </r>
       <r>    1.2055    0.0000 </r>
       <r>    1.2236    0.0000 </r>
       <r>    1.3395    0.0000 </r>
       <r>    1.3519    0.0000 </r>
       <r>    1.3856    0.0000 </r>
       <r>    1.5275    0.0000 </r>
       <r>    1.6364    0.0000 </r>
       <r>    1.6445    0.0000 </r>
      </set>
      <set comment="kpoint 34">
       <r>   -9.4099    1.0000 </r>
       <r>   -3.5726    0.1671 </r>
       <r>   -3.5726    0.1666 </r>
       <r>   -3.5726    0.1666 </r>
       <r>   -0.1417    0.0000 </r>
       <r>    0.2272    0.0000 </r>
       <r>    0.2774    0.0000 </r>
       <r>    0.4496    0.0000 </r>
       <r>    0.5504    0.0000 </r>
       <r>    0.6792    0.0000 </r>
       <r>    0.7456    0.0000 </r>
       <r>    0.7685    0.0000 </r>
       <r>    0.8316    0.0000 </r>
       <r>    0.9780    0.0000 </r>
       <r>    1.0476    0.0000 </r>
       <r>    1.1194    0.0000 </r>
       <r>    1.1383    0.0000 </r>
       <r>    1.1915    0.0000 </r>
       <r>    1.3703    0.0000 </r>
       <r>    1.4119    0.0000 </r>
       <r>    1.4755    0.0000 </r>
       <r>    1.5149    0.0000 </r>
       <r>    1.5940    0.0000 </r>
       <r>    1.6778    0.0000 </r>
      </set>
      <set comment="kpoint 35">
       <r>   -9.4099    1.0000 </r>
       <r>   -3.5726    0.1671 </r>
       <r>   -3.5726    0.1666 </r>
       <r>   -3.5726    0.1666 </r>
       <r>   -0.1166    0.0000 </r>
       <r>    0.2514    0.0000 </r>
       <r>    0.3099    0.0000 </r>
       <r>    0.3329    0.0000 </r>
       <r>    0.5635    0.0000 </r>
       <r>    0.6150    0.0000 </r>
       <r>    0.6364    0.0000 </r>
       <r>    0.7338    0.0000 </r>
       <r>    0.8937    0.0000 </r>
       <r>    1.0082    0.0000 </r>
       <r>    1.0373    0.0000 </r>
       <r>    1.0782    0.0000 </r>
       <r>    1.3075    0.0000 </r>
       <r>    1.3286    0.0000 </r>
       <r>    1.3682    0.0000 </r>
       <r>    1.4271    0.0000 </r>
       <r>    1.5536    0.0000 </r>
       <r>    1.6165    0.0000 </r>
       <r>    1.7113    0.0000 </r>
       <r>    1.7436    0.0000 </r>
      </set>
      <set comment="kpoint 36">
       <r>   -9.4099    1.0000 </r>
       <r>   -3.5726    0.1671 </r>
       <r>   -3.5726    0.1667 </r>
       <r>   -3.5726    0.1666 </r>
       <r>   -0.0907    0.0000 </r>
       <r>    0.2271    0.0000 </r>
       <r>    0.3188    0.0000 </r>
       <r>    0.3580    0.0000 </r>
       <r>    0.4879    0.0000 </r>
       <r>    0.5387    0.0000 </r>
       <r>    0.6498    0.0000 </r>
       <r>    0.7772    0.0000 </r>
       <r>    0.7951    0.0000 </r>
       <r>    0.9419    0.0000 </r>
       <r>    1.0797    0.0000 </r>
       <r>    1.2334    0.0000 </r>
       <r>    1.2866    0.0000 </r>
       <r>    1.4177    0.0000 </r>
       <r>    1.5082    0.0000 </r>
       <r>    1.5590    0.0000 </r>
       <r>    1.6065    0.0000 </r>
       <r>    1.6405    0.0000 </r>
       <r>    1.6696    0.0000 </r>
       <r>    1.7470    0.0000 </r>
      </set>
      <set comment="kpoint 37">
       <r>   -9.4099    1.0000 </r>
       <r>   -3.5727    0.1674 </r>
       <r>   -3.5726    0.1666 </r>
       <r>   -3.5725    0.1665 </r>
       <r>   -0.1105    0.0000 </r>
       <r>    0.1585    0.0000 </r>
       <r>    0.3100    0.0000 </r>
       <r>    0.4402    0.0000 </r>
       <r>    0.6279    0.0000 </r>
       <r>    0.6879    0.0000 </r>
       <r>    0.7696    0.0000 </r>
       <r>    0.8192    0.0000 </r>
       <r>    0.8220    0.0000 </r>
       <r>    0.9236    0.0000 </r>
       <r>    0.9682    0.0000 </r>
       <r>    1.0095    0.0000 </r>
       <r>    1.1148    0.0000 </r>
       <r>    1.1155    0.0000 </r>
       <r>    1.3849    0.0000 </r>
       <r>    1.4100    0.0000 </r>
       <r>    1.4568    0.0000 </r>
       <r>    1.5391    0.0000 </r>
       <r>    1.5582    0.0000 </r>
       <r>    1.5893    0.0000 </r>
      </set>
      <set comment="kpoint 38">
       <r>   -9.4099    1.0000 </r>
       <r>   -3.5727    0.1674 </r>
       <r>   -3.5726    0.1666 </r>
       <r>   -3.5725    0.1666 </r>
       <r>   -0.1013    0.0000 </r>
       <r>    0.1702    0.0000 </r>
       <r>    0.3214    0.0000 </r>
       <r>    0.4521    0.0000 </r>
       <r>    0.5035    0.0000 </r>
       <r>    0.6657    0.0000 </r>
       <r>    0.7356    0.0000 </r>
       <r>    0.8252    0.0000 </r>
       <r>    0.8829    0.0000 </r>
       <r>    0.8863    0.0000 </r>
       <r>    0.9470    0.0000 </r>
       <r>    1.0480    0.0000 </r>
       <r>    1.1815    0.0000 </r>
       <r>    1.2501    0.0000 </r>
       <r>    1.3116    0.0000 </r>
       <r>    1.3861    0.0000 </r>
       <r>    1.4293    0.0000 </r>
       <r>    1.5835    0.0000 </r>
       <r>    1.6099    0.0000 </r>
       <r>    1.7390    0.0000 </r>
      </set>
      <set comment="kpoint 39">
       <r>   -9.4099    1.0000 </r>
       <r>   -3.5727    0.1674 </r>
       <r>   -3.5726    0.1666 </r>
       <r>   -3.5726    0.1666 </r>
       <r>   -0.0774    0.0000 </r>
       <r>    0.2035    0.0000 </r>
       <r>    0.3443    0.0000 </r>
       <r>    0.3898    0.0000 </r>
       <r>    0.4792    0.0000 </r>
       <r>    0.5410    0.0000 </r>
       <r>    0.6666    0.0000 </r>
       <r>    0.7850    0.0000 </r>
       <r>    0.8026    0.0000 </r>
       <r>    0.9349    0.0000 </r>
       <r>    1.0633    0.0000 </r>
       <r>    1.1413    0.0000 </r>
       <r>    1.2281    0.0000 </r>
       <r>    1.2769    0.0000 </r>
       <r>    1.3838    0.0000 </r>
       <r>    1.4783    0.0000 </r>
       <r>    1.5237    0.0000 </r>
       <r>    1.6324    0.0000 </r>
       <r>    1.7187    0.0000 </r>
       <r>    1.8155    0.0000 </r>
      </set>
      <set comment="kpoint 40">
       <r>   -9.4099    1.0000 </r>
       <r>   -3.5727    0.1674 </r>
       <r>   -3.5726    0.1667 </r>
       <r>   -3.5726    0.1666 </r>
       <r>   -0.0533    0.0000 </r>
       <r>    0.2473    0.0000 </r>
       <r>    0.2932    0.0000 </r>
       <r>    0.4099    0.0000 </r>
       <r>    0.4271    0.0000 </r>
       <r>    0.5526    0.0000 </r>
       <r>    0.5730    0.0000 </r>
       <r>    0.6847    0.0000 </r>
       <r>    0.8376    0.0000 </r>
       <r>    0.9845    0.0000 </r>
       <r>    1.0066    0.0000 </r>
       <r>    1.1348    0.0000 </r>
       <r>    1.3312    0.0000 </r>
       <r>    1.4708    0.0000 </r>
       <r>    1.5107    0.0000 </r>
       <r>    1.6037    0.0000 </r>
       <r>    1.6145    0.0000 </r>
       <r>    1.6436    0.0000 </r>
       <r>    1.7362    0.0000 </r>
       <r>    1.7588    0.0000 </r>
      </set>
      <set comment="kpoint 41">
       <r>   -9.4099    1.0000 </r>
       <r>   -3.5726    0.1667 </r>
       <r>   -3.5726    0.1667 </r>
       <r>   -3.5725    0.1659 </r>
       <r>   -0.2335    0.0000 </r>
       <r>    0.0674    0.0000 </r>
       <r>    0.5071    0.0000 </r>
       <r>    0.5580    0.0000 </r>
       <r>    0.6948    0.0000 </r>
       <r>    0.6989    0.0000 </r>
       <r>    0.7327    0.0000 </r>
       <r>    0.8047    0.0000 </r>
       <r>    0.8905    0.0000 </r>
       <r>    0.9269    0.0000 </r>
       <r>    1.0080    0.0000 </r>
       <r>    1.1270    0.0000 </r>
       <r>    1.3094    0.0000 </r>
       <r>    1.3919    0.0000 </r>
       <r>    1.4452    0.0000 </r>
       <r>    1.4659    0.0000 </r>
       <r>    1.5450    0.0000 </r>
       <r>    1.5470    0.0000 </r>
       <r>    1.6009    0.0000 </r>
       <r>    1.6196    0.0000 </r>
      </set>
      <set comment="kpoint 42">
       <r>   -9.4099    1.0000 </r>
       <r>   -3.5726    0.1667 </r>
       <r>   -3.5726    0.1667 </r>
       <r>   -3.5725    0.1659 </r>
       <r>   -0.2240    0.0000 </r>
       <r>    0.0802    0.0000 </r>
       <r>    0.3666    0.0000 </r>
       <r>    0.5546    0.0000 </r>
       <r>    0.6974    0.0000 </r>
       <r>    0.7315    0.0000 </r>
       <r>    0.7842    0.0000 </r>
       <r>    0.9007    0.0000 </r>
       <r>    0.9153    0.0000 </r>
       <r>    0.9538    0.0000 </r>
       <r>    1.0283    0.0000 </r>
       <r>    1.1395    0.0000 </r>
       <r>    1.2105    0.0000 </r>
       <r>    1.2652    0.0000 </r>
       <r>    1.4104    0.0000 </r>
       <r>    1.4239    0.0000 </r>
       <r>    1.4979    0.0000 </r>
       <r>    1.5699    0.0000 </r>
       <r>    1.6171    0.0000 </r>
       <r>    1.6297    0.0000 </r>
      </set>
      <set comment="kpoint 43">
       <r>   -9.4099    1.0000 </r>
       <r>   -3.5726    0.1667 </r>
       <r>   -3.5726    0.1667 </r>
       <r>   -3.5725    0.1659 </r>
       <r>   -0.1989    0.0000 </r>
       <r>    0.1177    0.0000 </r>
       <r>    0.2378    0.0000 </r>
       <r>    0.4133    0.0000 </r>
       <r>    0.7306    0.0000 </r>
       <r>    0.8079    0.0000 </r>
       <r>    0.9272    0.0000 </r>
       <r>    0.9476    0.0000 </r>
       <r>    0.9710    0.0000 </r>
       <r>    1.0362    0.0000 </r>
       <r>    1.0967    0.0000 </r>
       <r>    1.1236    0.0000 </r>
       <r>    1.1698    0.0000 </r>
       <r>    1.1941    0.0000 </r>
       <r>    1.2784    0.0000 </r>
       <r>    1.2996    0.0000 </r>
       <r>    1.3694    0.0000 </r>
       <r>    1.4755    0.0000 </r>
       <r>    1.6525    0.0000 </r>
       <r>    1.7521    0.0000 </r>
      </set>
      <set comment="kpoint 44">
       <r>   -9.4099    1.0000 </r>
       <r>   -3.5726    0.1668 </r>
       <r>   -3.5726    0.1667 </r>
       <r>   -3.5725    0.1659 </r>
       <r>   -0.1730    0.0000 </r>
       <r>    0.1531    0.0000 </r>
       <r>    0.1803    0.0000 </r>
       <r>    0.3042    0.0000 </r>
       <r>    0.7617    0.0000 </r>
       <r>    0.8547    0.0000 </r>
       <r>    0.9615    0.0000 </r>
       <r>    0.9877    0.0000 </r>
       <r>    1.0239    0.0000 </r>
       <r>    1.0364    0.0000 </r>
       <r>    1.0927    0.0000 </r>
       <r>    1.1491    0.0000 </r>
       <r>    1.1712    0.0000 </r>
       <r>    1.2423    0.0000 </r>
       <r>    1.2509    0.0000 </r>
       <r>    1.2724    0.0000 </r>
       <r>    1.3684    0.0000 </r>
       <r>    1.4393    0.0000 </r>
       <r>    1.4949    0.0000 </r>
       <r>    1.6974    0.0000 </r>
      </set>
      <set comment="kpoint 45">
       <r>   -9.4099    1.0000 </r>
       <r>   -3.5726    0.1667 </r>
       <r>   -3.5726    0.1666 </r>
       <r>   -3.5725    0.1662 </r>
       <r>   -0.2160    0.0000 </r>
       <r>    0.0860    0.0000 </r>
       <r>    0.5196    0.0000 </r>
       <r>    0.5233    0.0000 </r>
       <r>    0.5939    0.0000 </r>
       <r>    0.6982    0.0000 </r>
       <r>    0.7513    0.0000 </r>
       <r>    0.7786    0.0000 </r>
       <r>    0.8249    0.0000 </r>
       <r>    1.0253    0.0000 </r>
       <r>    1.0780    0.0000 </r>
       <r>    1.1712    0.0000 </r>
       <r>    1.2889    0.0000 </r>
       <r>    1.3150    0.0000 </r>
       <r>    1.3769    0.0000 </r>
       <r>    1.3854    0.0000 </r>
       <r>    1.4790    0.0000 </r>
       <r>    1.5026    0.0000 </r>
       <r>    1.5097    0.0000 </r>
       <r>    1.6568    0.0000 </r>
      </set>
      <set comment="kpoint 46">
       <r>   -9.4099    1.0000 </r>
       <r>   -3.5726    0.1667 </r>
       <r>   -3.5726    0.1667 </r>
       <r>   -3.5725    0.1662 </r>
       <r>   -0.2065    0.0000 </r>
       <r>    0.0988    0.0000 </r>
       <r>    0.3831    0.0000 </r>
       <r>    0.5429    0.0000 </r>
       <r>    0.5722    0.0000 </r>
       <r>    0.7412    0.0000 </r>
       <r>    0.7602    0.0000 </r>
       <r>    0.8205    0.0000 </r>
       <r>    0.9486    0.0000 </r>
       <r>    1.0391    0.0000 </r>
       <r>    1.0551    0.0000 </r>
       <r>    1.1040    0.0000 </r>
       <r>    1.2263    0.0000 </r>
       <r>    1.2947    0.0000 </r>
       <r>    1.3496    0.0000 </r>
       <r>    1.4269    0.0000 </r>
       <r>    1.4676    0.0000 </r>
       <r>    1.5233    0.0000 </r>
       <r>    1.6092    0.0000 </r>
       <r>    1.6189    0.0000 </r>
      </set>
      <set comment="kpoint 47">
       <r>   -9.4099    1.0000 </r>
       <r>   -3.5726    0.1667 </r>
       <r>   -3.5726    0.1667 </r>
       <r>   -3.5725    0.1662 </r>
       <r>   -0.1815    0.0000 </r>
       <r>    0.1363    0.0000 </r>
       <r>    0.2554    0.0000 </r>
       <r>    0.4318    0.0000 </r>
       <r>    0.5721    0.0000 </r>
       <r>    0.7859    0.0000 </r>
       <r>    0.8507    0.0000 </r>
       <r>    0.9103    0.0000 </r>
       <r>    0.9869    0.0000 </r>
       <r>    1.0538    0.0000 </r>
       <r>    1.0862    0.0000 </r>
       <r>    1.1219    0.0000 </r>
       <r>    1.1668    0.0000 </r>
       <r>    1.2062    0.0000 </r>
       <r>    1.3729    0.0000 </r>
       <r>    1.3924    0.0000 </r>
       <r>    1.4771    0.0000 </r>
       <r>    1.5059    0.0000 </r>
       <r>    1.6516    0.0000 </r>
       <r>    1.6695    0.0000 </r>
      </set>
      <set comment="kpoint 48">
       <r>   -9.4099    1.0000 </r>
       <r>   -3.5726    0.1668 </r>
       <r>   -3.5726    0.1667 </r>
       <r>   -3.5725    0.1662 </r>
       <r>   -0.1557    0.0000 </r>
       <r>    0.1712    0.0000 </r>
       <r>    0.1986    0.0000 </r>
       <r>    0.3231    0.0000 </r>
       <r>    0.6054    0.0000 </r>
       <r>    0.8287    0.0000 </r>
       <r>    0.8433    0.0000 </r>
       <r>    0.9051    0.0000 </r>
       <r>    0.9873    0.0000 </r>
       <r>    1.0520    0.0000 </r>
       <r>    1.1009    0.0000 </r>
       <r>    1.1552    0.0000 </r>
       <r>    1.2130    0.0000 </r>
       <r>    1.2936    0.0000 </r>
       <r>    1.4017    0.0000 </r>
       <r>    1.4221    0.0000 </r>
       <r>    1.4552    0.0000 </r>
       <r>    1.5140    0.0000 </r>
       <r>    1.5553    0.0000 </r>
       <r>    1.5882    0.0000 </r>
      </set>
      <set comment="kpoint 49">
       <r>   -9.4099    1.0000 </r>
       <r>   -3.5726    0.1667 </r>
       <r>   -3.5726    0.1667 </r>
       <r>   -3.5726    0.1666 </r>
       <r>   -0.1825    0.0000 </r>
       <r>    0.1230    0.0000 </r>
       <r>    0.3829    0.0000 </r>
       <r>    0.5551    0.0000 </r>
       <r>    0.5955    0.0000 </r>
       <r>    0.6264    0.0000 </r>
       <r>    0.7665    0.0000 </r>
       <r>    0.7882    0.0000 </r>
       <r>    0.8619    0.0000 </r>
       <r>    1.0375    0.0000 </r>
       <r>    1.0547    0.0000 </r>
       <r>    1.1228    0.0000 </r>
       <r>    1.2295    0.0000 </r>
       <r>    1.2659    0.0000 </r>
       <r>    1.3020    0.0000 </r>
       <r>    1.3636    0.0000 </r>
       <r>    1.4762    0.0000 </r>
       <r>    1.5142    0.0000 </r>
       <r>    1.5462    0.0000 </r>
       <r>    1.5931    0.0000 </r>
      </set>
      <set comment="kpoint 50">
       <r>   -9.4099    1.0000 </r>
       <r>   -3.5726    0.1667 </r>
       <r>   -3.5726    0.1667 </r>
       <r>   -3.5726    0.1666 </r>
       <r>   -0.1730    0.0000 </r>
       <r>    0.1358    0.0000 </r>
       <r>    0.3845    0.0000 </r>
       <r>    0.4327    0.0000 </r>
       <r>    0.5911    0.0000 </r>
       <r>    0.6345    0.0000 </r>
       <r>    0.7803    0.0000 </r>
       <r>    0.8451    0.0000 </r>
       <r>    0.9138    0.0000 </r>
       <r>    0.9865    0.0000 </r>
       <r>    1.0736    0.0000 </r>
       <r>    1.1005    0.0000 </r>
       <r>    1.2428    0.0000 </r>
       <r>    1.3116    0.0000 </r>
       <r>    1.3255    0.0000 </r>
       <r>    1.3604    0.0000 </r>
       <r>    1.4714    0.0000 </r>
       <r>    1.5457    0.0000 </r>
       <r>    1.5664    0.0000 </r>
       <r>    1.6002    0.0000 </r>
      </set>
      <set comment="kpoint 51">
       <r>   -9.4099    1.0000 </r>
       <r>   -3.5726    0.1667 </r>
       <r>   -3.5726    0.1667 </r>
       <r>   -3.5726    0.1667 </r>
       <r>   -0.1483    0.0000 </r>
       <r>    0.1731    0.0000 </r>
       <r>    0.2893    0.0000 </r>
       <r>    0.4301    0.0000 </r>
       <r>    0.4683    0.0000 </r>
       <r>    0.6529    0.0000 </r>
       <r>    0.7769    0.0000 </r>
       <r>    0.8726    0.0000 </r>
       <r>    0.9490    0.0000 </r>
       <r>    1.0102    0.0000 </r>
       <r>    1.0894    0.0000 </r>
       <r>    1.1876    0.0000 </r>
       <r>    1.2416    0.0000 </r>
       <r>    1.3070    0.0000 </r>
       <r>    1.3669    0.0000 </r>
       <r>    1.4259    0.0000 </r>
       <r>    1.5031    0.0000 </r>
       <r>    1.5591    0.0000 </r>
       <r>    1.6258    0.0000 </r>
       <r>    1.6765    0.0000 </r>
      </set>
      <set comment="kpoint 52">
       <r>   -9.4099    1.0000 </r>
       <r>   -3.5726    0.1667 </r>
       <r>   -3.5726    0.1667 </r>
       <r>   -3.5726    0.1667 </r>
       <r>   -0.1230    0.0000 </r>
       <r>    0.2070    0.0000 </r>
       <r>    0.2348    0.0000 </r>
       <r>    0.3607    0.0000 </r>
       <r>    0.4632    0.0000 </r>
       <r>    0.6894    0.0000 </r>
       <r>    0.7109    0.0000 </r>
       <r>    0.8396    0.0000 </r>
       <r>    0.9234    0.0000 </r>
       <r>    1.0832    0.0000 </r>
       <r>    1.1383    0.0000 </r>
       <r>    1.2439    0.0000 </r>
       <r>    1.3123    0.0000 </r>
       <r>    1.3554    0.0000 </r>
       <r>    1.4073    0.0000 </r>
       <r>    1.4913    0.0000 </r>
       <r>    1.5248    0.0000 </r>
       <r>    1.5543    0.0000 </r>
       <r>    1.6404    0.0000 </r>
       <r>    1.6436    0.0000 </r>
      </set>
      <set comment="kpoint 53">
       <r>   -9.4099    1.0000 </r>
       <r>   -3.5726    0.1672 </r>
       <r>   -3.5726    0.1666 </r>
       <r>   -3.5725    0.1666 </r>
       <r>   -0.1381    0.0000 </r>
       <r>    0.1773    0.0000 </r>
       <r>    0.2658    0.0000 </r>
       <r>    0.4704    0.0000 </r>
       <r>    0.5991    0.0000 </r>
       <r>    0.6808    0.0000 </r>
       <r>    0.8138    0.0000 </r>
       <r>    0.8419    0.0000 </r>
       <r>    0.9162    0.0000 </r>
       <r>    0.9242    0.0000 </r>
       <r>    0.9860    0.0000 </r>
       <r>    1.1067    0.0000 </r>
       <r>    1.1217    0.0000 </r>
       <r>    1.1420    0.0000 </r>
       <r>    1.2202    0.0000 </r>
       <r>    1.4172    0.0000 </r>
       <r>    1.5173    0.0000 </r>
       <r>    1.5230    0.0000 </r>
       <r>    1.6023    0.0000 </r>
       <r>    1.7451    0.0000 </r>
      </set>
      <set comment="kpoint 54">
       <r>   -9.4099    1.0000 </r>
       <r>   -3.5726    0.1671 </r>
       <r>   -3.5726    0.1666 </r>
       <r>   -3.5726    0.1666 </r>
       <r>   -0.1289    0.0000 </r>
       <r>    0.1899    0.0000 </r>
       <r>    0.2763    0.0000 </r>
       <r>    0.4727    0.0000 </r>
       <r>    0.4827    0.0000 </r>
       <r>    0.6686    0.0000 </r>
       <r>    0.7801    0.0000 </r>
       <r>    0.8453    0.0000 </r>
       <r>    0.8935    0.0000 </r>
       <r>    0.9601    0.0000 </r>
       <r>    1.0410    0.0000 </r>
       <r>    1.1276    0.0000 </r>
       <r>    1.1531    0.0000 </r>
       <r>    1.2072    0.0000 </r>
       <r>    1.3297    0.0000 </r>
       <r>    1.3913    0.0000 </r>
       <r>    1.4378    0.0000 </r>
       <r>    1.5407    0.0000 </r>
       <r>    1.6192    0.0000 </r>
       <r>    1.6845    0.0000 </r>
      </set>
      <set comment="kpoint 55">
       <r>   -9.4099    1.0000 </r>
       <r>   -3.5726    0.1671 </r>
       <r>   -3.5726    0.1666 </r>
       <r>   -3.5726    0.1666 </r>
       <r>   -0.1047    0.0000 </r>
       <r>    0.2268    0.0000 </r>
       <r>    0.3017    0.0000 </r>
       <r>    0.3515    0.0000 </r>
       <r>    0.5056    0.0000 </r>
       <r>    0.5429    0.0000 </r>
       <r>    0.6552    0.0000 </r>
       <r>    0.8173    0.0000 </r>
       <r>    0.9257    0.0000 </r>
       <r>    1.0558    0.0000 </r>
       <r>    1.1399    0.0000 </r>
       <r>    1.2214    0.0000 </r>
       <r>    1.2384    0.0000 </r>
       <r>    1.2993    0.0000 </r>
       <r>    1.3663    0.0000 </r>
       <r>    1.4471    0.0000 </r>
       <r>    1.4697    0.0000 </r>
       <r>    1.5334    0.0000 </r>
       <r>    1.5970    0.0000 </r>
       <r>    1.6070    0.0000 </r>
      </set>
      <set comment="kpoint 56">
       <r>   -9.4099    1.0000 </r>
       <r>   -3.5726    0.1671 </r>
       <r>   -3.5726    0.1667 </r>
       <r>   -3.5726    0.1666 </r>
       <r>   -0.0803    0.0000 </r>
       <r>    0.2585    0.0000 </r>
       <r>    0.2876    0.0000 </r>
       <r>    0.3475    0.0000 </r>
       <r>    0.4163    0.0000 </r>
       <r>    0.5642    0.0000 </r>
       <r>    0.5858    0.0000 </r>
       <r>    0.7088    0.0000 </r>
       <r>    0.9715    0.0000 </r>
       <r>    1.1348    0.0000 </r>
       <r>    1.1871    0.0000 </r>
       <r>    1.2632    0.0000 </r>
       <r>    1.3011    0.0000 </r>
       <r>    1.3703    0.0000 </r>
       <r>    1.4377    0.0000 </r>
       <r>    1.4881    0.0000 </r>
       <r>    1.5248    0.0000 </r>
       <r>    1.5560    0.0000 </r>
       <r>    1.6203    0.0000 </r>
       <r>    1.6632    0.0000 </r>
      </set>
      <set comment="kpoint 57">
       <r>   -9.4099    1.0000 </r>
       <r>   -3.5727    0.1674 </r>
       <r>   -3.5726    0.1666 </r>
       <r>   -3.5725    0.1665 </r>
       <r>   -0.0989    0.0000 </r>
       <r>    0.1866    0.0000 </r>
       <r>    0.2477    0.0000 </r>
       <r>    0.3662    0.0000 </r>
       <r>    0.6422    0.0000 </r>
       <r>    0.7466    0.0000 </r>
       <r>    0.8444    0.0000 </r>
       <r>    0.8708    0.0000 </r>
       <r>    0.8846    0.0000 </r>
       <r>    0.9071    0.0000 </r>
       <r>    0.9811    0.0000 </r>
       <r>    1.0173    0.0000 </r>
       <r>    1.0420    0.0000 </r>
       <r>    1.1118    0.0000 </r>
       <r>    1.1819    0.0000 </r>
       <r>    1.3257    0.0000 </r>
       <r>    1.5615    0.0000 </r>
       <r>    1.6363    0.0000 </r>
       <r>    1.7295    0.0000 </r>
       <r>    1.7518    0.0000 </r>
      </set>
      <set comment="kpoint 58">
       <r>   -9.4099    1.0000 </r>
       <r>   -3.5727    0.1674 </r>
       <r>   -3.5726    0.1666 </r>
       <r>   -3.5725    0.1666 </r>
       <r>   -0.0900    0.0000 </r>
       <r>    0.1979    0.0000 </r>
       <r>    0.2602    0.0000 </r>
       <r>    0.3792    0.0000 </r>
       <r>    0.5241    0.0000 </r>
       <r>    0.6962    0.0000 </r>
       <r>    0.7358    0.0000 </r>
       <r>    0.8550    0.0000 </r>
       <r>    0.8974    0.0000 </r>
       <r>    0.9501    0.0000 </r>
       <r>    1.0456    0.0000 </r>
       <r>    1.1063    0.0000 </r>
       <r>    1.1139    0.0000 </r>
       <r>    1.2029    0.0000 </r>
       <r>    1.2378    0.0000 </r>
       <r>    1.3451    0.0000 </r>
       <r>    1.4423    0.0000 </r>
       <r>    1.5839    0.0000 </r>
       <r>    1.6547    0.0000 </r>
       <r>    1.7649    0.0000 </r>
      </set>
      <set comment="kpoint 59">
       <r>   -9.4099    1.0000 </r>
       <r>   -3.5727    0.1674 </r>
       <r>   -3.5726    0.1666 </r>
       <r>   -3.5726    0.1666 </r>
       <r>   -0.0669    0.0000 </r>
       <r>    0.2299    0.0000 </r>
       <r>    0.2963    0.0000 </r>
       <r>    0.3999    0.0000 </r>
       <r>    0.4174    0.0000 </r>
       <r>    0.5624    0.0000 </r>
       <r>    0.5980    0.0000 </r>
       <r>    0.7119    0.0000 </r>
       <r>    0.9835    0.0000 </r>
       <r>    1.1024    0.0000 </r>
       <r>    1.1288    0.0000 </r>
       <r>    1.1982    0.0000 </r>
       <r>    1.2807    0.0000 </r>
       <r>    1.2947    0.0000 </r>
       <r>    1.3585    0.0000 </r>
       <r>    1.3777    0.0000 </r>
       <r>    1.4499    0.0000 </r>
       <r>    1.4845    0.0000 </r>
       <r>    1.5455    0.0000 </r>
       <r>    1.6696    0.0000 </r>
      </set>
      <set comment="kpoint 60">
       <r>   -9.4099    1.0000 </r>
       <r>   -3.5727    0.1674 </r>
       <r>   -3.5726    0.1667 </r>
       <r>   -3.5726    0.1666 </r>
       <r>   -0.0439    0.0000 </r>
       <r>    0.2701    0.0000 </r>
       <r>    0.3210    0.0000 </r>
       <r>    0.3506    0.0000 </r>
       <r>    0.4592    0.0000 </r>
       <r>    0.4853    0.0000 </r>
       <r>    0.4981    0.0000 </r>
       <r>    0.5995    0.0000 </r>
       <r>    1.0271    0.0000 </r>
       <r>    1.1765    0.0000 </r>
       <r>    1.1963    0.0000 </r>
       <r>    1.2384    0.0000 </r>
       <r>    1.3302    0.0000 </r>
       <r>    1.3487    0.0000 </r>
       <r>    1.4101    0.0000 </r>
       <r>    1.4467    0.0000 </r>
       <r>    1.5174    0.0000 </r>
       <r>    1.5836    0.0000 </r>
       <r>    1.6180    0.0000 </r>
       <r>    1.6366    0.0000 </r>
      </set>
     </set>
    </set>
   </array>
  </eigenvalues>
  <separator name="orbital magnetization" >
   <v name="MAGDIPOLOUT">      0.00000000      0.00000000      0.00000000</v>
  </separator>
  <dos>
   <i name="efermi">     -3.60676481 </i>
   <total>
    <array>
     <dimension dim="1">gridpoints</dimension>
     <dimension dim="2">spin</dimension>
     <field>energy</field>
     <field>total</field>
     <field>integrated</field>
     <set>
      <set comment="spin 1">
       <r>    -9.9741     0.0000     0.0000 </r>
       <r>    -9.9327     0.0000     0.0000 </r>
       <r>    -9.8913     0.0000     0.0000 </r>
       <r>    -9.8500     0.0000     0.0000 </r>
       <r>    -9.8086     0.0000     0.0000 </r>
       <r>    -9.7672     0.0000     0.0000 </r>
       <r>    -9.7258     0.0000     0.0000 </r>
       <r>    -9.6845     0.0000     0.0000 </r>
       <r>    -9.6431     0.0000     0.0000 </r>
       <r>    -9.6017     0.0000     0.0000 </r>
       <r>    -9.5603     0.0005     0.0000 </r>
       <r>    -9.5190     0.0487     0.0020 </r>
       <r>    -9.4776     1.2924     0.0555 </r>
       <r>    -9.4362     9.6912     0.4565 </r>
       <r>    -9.3949    21.1026     1.3295 </r>
       <r>    -9.3535    13.5334     1.8894 </r>
       <r>    -9.3121     2.5350     1.9943 </r>
       <r>    -9.2707     0.1352     1.9999 </r>
       <r>    -9.2294     0.0020     2.0000 </r>
       <r>    -9.1880     0.0000     2.0000 </r>
       <r>    -9.1466     0.0000     2.0000 </r>
       <r>    -9.1052     0.0000     2.0000 </r>
       <r>    -9.0639     0.0000     2.0000 </r>
       <r>    -9.0225     0.0000     2.0000 </r>
       <r>    -8.9811     0.0000     2.0000 </r>
       <r>    -8.9398     0.0000     2.0000 </r>
       <r>    -8.8984     0.0000     2.0000 </r>
       <r>    -8.8570     0.0000     2.0000 </r>
       <r>    -8.8156     0.0000     2.0000 </r>
       <r>    -8.7743     0.0000     2.0000 </r>
       <r>    -8.7329     0.0000     2.0000 </r>
       <r>    -8.6915     0.0000     2.0000 </r>
       <r>    -8.6501     0.0000     2.0000 </r>
       <r>    -8.6088     0.0000     2.0000 </r>
       <r>    -8.5674     0.0000     2.0000 </r>
       <r>    -8.5260     0.0000     2.0000 </r>
       <r>    -8.4847     0.0000     2.0000 </r>
       <r>    -8.4433     0.0000     2.0000 </r>
       <r>    -8.4019     0.0000     2.0000 </r>
       <r>    -8.3605     0.0000     2.0000 </r>
       <r>    -8.3192     0.0000     2.0000 </r>
       <r>    -8.2778     0.0000     2.0000 </r>
       <r>    -8.2364     0.0000     2.0000 </r>
       <r>    -8.1950     0.0000     2.0000 </r>
       <r>    -8.1537     0.0000     2.0000 </r>
       <r>    -8.1123     0.0000     2.0000 </r>
       <r>    -8.0709     0.0000     2.0000 </r>
       <r>    -8.0296     0.0000     2.0000 </r>
       <r>    -7.9882     0.0000     2.0000 </r>
       <r>    -7.9468     0.0000     2.0000 </r>
       <r>    -7.9054     0.0000     2.0000 </r>
       <r>    -7.8641     0.0000     2.0000 </r>
       <r>    -7.8227     0.0000     2.0000 </r>
       <r>    -7.7813     0.0000     2.0000 </r>
       <r>    -7.7399     0.0000     2.0000 </r>
       <r>    -7.6986     0.0000     2.0000 </r>
       <r>    -7.6572     0.0000     2.0000 </r>
       <r>    -7.6158     0.0000     2.0000 </r>
       <r>    -7.5745     0.0000     2.0000 </r>
       <r>    -7.5331     0.0000     2.0000 </r>
       <r>    -7.4917     0.0000     2.0000 </r>
       <r>    -7.4503     0.0000     2.0000 </r>
       <r>    -7.4090     0.0000     2.0000 </r>
       <r>    -7.3676     0.0000     2.0000 </r>
       <r>    -7.3262     0.0000     2.0000 </r>
       <r>    -7.2848     0.0000     2.0000 </r>
       <r>    -7.2435     0.0000     2.0000 </r>
       <r>    -7.2021     0.0000     2.0000 </r>
       <r>    -7.1607     0.0000     2.0000 </r>
       <r>    -7.1194     0.0000     2.0000 </r>
       <r>    -7.0780     0.0000     2.0000 </r>
       <r>    -7.0366     0.0000     2.0000 </r>
       <r>    -6.9952     0.0000     2.0000 </r>
       <r>    -6.9539     0.0000     2.0000 </r>
       <r>    -6.9125     0.0000     2.0000 </r>
       <r>    -6.8711     0.0000     2.0000 </r>
       <r>    -6.8297     0.0000     2.0000 </r>
       <r>    -6.7884     0.0000     2.0000 </r>
       <r>    -6.7470     0.0000     2.0000 </r>
       <r>    -6.7056     0.0000     2.0000 </r>
       <r>    -6.6643     0.0000     2.0000 </r>
       <r>    -6.6229     0.0000     2.0000 </r>
       <r>    -6.5815     0.0000     2.0000 </r>
       <r>    -6.5401     0.0000     2.0000 </r>
       <r>    -6.4988     0.0000     2.0000 </r>
       <r>    -6.4574     0.0000     2.0000 </r>
       <r>    -6.4160     0.0000     2.0000 </r>
       <r>    -6.3746     0.0000     2.0000 </r>
       <r>    -6.3333     0.0000     2.0000 </r>
       <r>    -6.2919     0.0000     2.0000 </r>
       <r>    -6.2505     0.0000     2.0000 </r>
       <r>    -6.2092     0.0000     2.0000 </r>
       <r>    -6.1678     0.0000     2.0000 </r>
       <r>    -6.1264     0.0000     2.0000 </r>
       <r>    -6.0850     0.0000     2.0000 </r>
       <r>    -6.0437     0.0000     2.0000 </r>
       <r>    -6.0023     0.0000     2.0000 </r>
       <r>    -5.9609     0.0000     2.0000 </r>
       <r>    -5.9195     0.0000     2.0000 </r>
       <r>    -5.8782     0.0000     2.0000 </r>
       <r>    -5.8368     0.0000     2.0000 </r>
       <r>    -5.7954     0.0000     2.0000 </r>
       <r>    -5.7541     0.0000     2.0000 </r>
       <r>    -5.7127     0.0000     2.0000 </r>
       <r>    -5.6713     0.0000     2.0000 </r>
       <r>    -5.6299     0.0000     2.0000 </r>
       <r>    -5.5886     0.0000     2.0000 </r>
       <r>    -5.5472     0.0000     2.0000 </r>
       <r>    -5.5058     0.0000     2.0000 </r>
       <r>    -5.4644     0.0000     2.0000 </r>
       <r>    -5.4231     0.0000     2.0000 </r>
       <r>    -5.3817     0.0000     2.0000 </r>
       <r>    -5.3403     0.0000     2.0000 </r>
       <r>    -5.2989     0.0000     2.0000 </r>
       <r>    -5.2576     0.0000     2.0000 </r>
       <r>    -5.2162     0.0000     2.0000 </r>
       <r>    -5.1748     0.0000     2.0000 </r>
       <r>    -5.1335     0.0000     2.0000 </r>
       <r>    -5.0921     0.0000     2.0000 </r>
       <r>    -5.0507     0.0000     2.0000 </r>
       <r>    -5.0093     0.0000     2.0000 </r>
       <r>    -4.9680     0.0000     2.0000 </r>
       <r>    -4.9266     0.0000     2.0000 </r>
       <r>    -4.8852     0.0000     2.0000 </r>
       <r>    -4.8438     0.0000     2.0000 </r>
       <r>    -4.8025     0.0000     2.0000 </r>
       <r>    -4.7611     0.0000     2.0000 </r>
       <r>    -4.7197     0.0000     2.0000 </r>
       <r>    -4.6784     0.0000     2.0000 </r>
       <r>    -4.6370     0.0000     2.0000 </r>
       <r>    -4.5956     0.0000     2.0000 </r>
       <r>    -4.5542     0.0000     2.0000 </r>
       <r>    -4.5129     0.0000     2.0000 </r>
       <r>    -4.4715     0.0000     2.0000 </r>
       <r>    -4.4301     0.0000     2.0000 </r>
       <r>    -4.3887     0.0000     2.0000 </r>
       <r>    -4.3474     0.0000     2.0000 </r>
       <r>    -4.3060     0.0000     2.0000 </r>
       <r>    -4.2646     0.0000     2.0000 </r>
       <r>    -4.2233     0.0000     2.0000 </r>
       <r>    -4.1819     0.0000     2.0000 </r>
       <r>    -4.1405     0.0000     2.0000 </r>
       <r>    -4.0991     0.0000     2.0000 </r>
       <r>    -4.0578     0.0000     2.0000 </r>
       <r>    -4.0164     0.0000     2.0000 </r>
       <r>    -3.9750     0.0000     2.0000 </r>
       <r>    -3.9336     0.0000     2.0000 </r>
       <r>    -3.8923     0.0000     2.0000 </r>
       <r>    -3.8509     0.0000     2.0000 </r>
       <r>    -3.8095     0.0000     2.0000 </r>
       <r>    -3.7682     0.0000     2.0000 </r>
       <r>    -3.7268     0.0009     2.0000 </r>
       <r>    -3.6854     0.1016     2.0042 </r>
       <r>    -3.6440     3.0309     2.1296 </r>
       <r>    -3.6027    25.4736     3.1835 </r>
       <r>    -3.5613    62.0380     5.7502 </r>
       <r>    -3.5199    44.4798     7.5905 </r>
       <r>    -3.4785     9.3299     7.9765 </r>
       <r>    -3.4372     0.5587     7.9996 </r>
       <r>    -3.3958     0.0093     8.0000 </r>
       <r>    -3.3544     0.0000     8.0000 </r>
       <r>    -3.3131     0.0000     8.0000 </r>
       <r>    -3.2717     0.0000     8.0000 </r>
       <r>    -3.2303     0.0000     8.0000 </r>
       <r>    -3.1889     0.0000     8.0000 </r>
       <r>    -3.1476     0.0000     8.0000 </r>
       <r>    -3.1062     0.0000     8.0000 </r>
       <r>    -3.0648     0.0000     8.0000 </r>
       <r>    -3.0234     0.0000     8.0000 </r>
       <r>    -2.9821     0.0000     8.0000 </r>
       <r>    -2.9407     0.0000     8.0000 </r>
       <r>    -2.8993     0.0000     8.0000 </r>
       <r>    -2.8580     0.0000     8.0000 </r>
       <r>    -2.8166     0.0000     8.0000 </r>
       <r>    -2.7752     0.0000     8.0000 </r>
       <r>    -2.7338     0.0000     8.0000 </r>
       <r>    -2.6925     0.0000     8.0000 </r>
       <r>    -2.6511     0.0000     8.0000 </r>
       <r>    -2.6097     0.0000     8.0000 </r>
       <r>    -2.5683     0.0000     8.0000 </r>
       <r>    -2.5270     0.0000     8.0000 </r>
       <r>    -2.4856     0.0000     8.0000 </r>
       <r>    -2.4442     0.0000     8.0000 </r>
       <r>    -2.4029     0.0000     8.0000 </r>
       <r>    -2.3615     0.0000     8.0000 </r>
       <r>    -2.3201     0.0000     8.0000 </r>
       <r>    -2.2787     0.0000     8.0000 </r>
       <r>    -2.2374     0.0000     8.0000 </r>
       <r>    -2.1960     0.0000     8.0000 </r>
       <r>    -2.1546     0.0000     8.0000 </r>
       <r>    -2.1132     0.0000     8.0000 </r>
       <r>    -2.0719     0.0000     8.0000 </r>
       <r>    -2.0305     0.0000     8.0000 </r>
       <r>    -1.9891     0.0000     8.0000 </r>
       <r>    -1.9478     0.0000     8.0000 </r>
       <r>    -1.9064     0.0000     8.0000 </r>
       <r>    -1.8650     0.0000     8.0000 </r>
       <r>    -1.8236     0.0000     8.0000 </r>
       <r>    -1.7823     0.0000     8.0000 </r>
       <r>    -1.7409     0.0000     8.0000 </r>
       <r>    -1.6995     0.0000     8.0000 </r>
       <r>    -1.6581     0.0000     8.0000 </r>
       <r>    -1.6168     0.0000     8.0000 </r>
       <r>    -1.5754     0.0000     8.0000 </r>
       <r>    -1.5340     0.0000     8.0000 </r>
       <r>    -1.4927     0.0000     8.0000 </r>
       <r>    -1.4513     0.0000     8.0000 </r>
       <r>    -1.4099     0.0000     8.0000 </r>
       <r>    -1.3685     0.0000     8.0000 </r>
       <r>    -1.3272     0.0000     8.0000 </r>
       <r>    -1.2858     0.0000     8.0000 </r>
       <r>    -1.2444     0.0000     8.0000 </r>
       <r>    -1.2030     0.0000     8.0000 </r>
       <r>    -1.1617     0.0000     8.0000 </r>
       <r>    -1.1203     0.0000     8.0000 </r>
       <r>    -1.0789     0.0000     8.0000 </r>
       <r>    -1.0376     0.0000     8.0000 </r>
       <r>    -0.9962     0.0000     8.0000 </r>
       <r>    -0.9548     0.0000     8.0000 </r>
       <r>    -0.9134     0.0000     8.0000 </r>
       <r>    -0.8721     0.0000     8.0000 </r>
       <r>    -0.8307     0.0000     8.0000 </r>
       <r>    -0.7893     0.0000     8.0000 </r>
       <r>    -0.7479     0.0000     8.0000 </r>
       <r>    -0.7066     0.0000     8.0000 </r>
       <r>    -0.6652     0.0000     8.0000 </r>
       <r>    -0.6238     0.0000     8.0000 </r>
       <r>    -0.5825     0.0000     8.0000 </r>
       <r>    -0.5411     0.0000     8.0000 </r>
       <r>    -0.4997     0.0000     8.0000 </r>
       <r>    -0.4583     0.0000     8.0000 </r>
       <r>    -0.4170     0.0000     8.0000 </r>
       <r>    -0.3756     0.0007     8.0000 </r>
       <r>    -0.3342     0.0314     8.0013 </r>
       <r>    -0.2928     0.4927     8.0217 </r>
       <r>    -0.2515     2.8868     8.1411 </r>
       <r>    -0.2101     7.4939     8.4512 </r>
       <r>    -0.1687    10.6492     8.8918 </r>
       <r>    -0.1273    10.4914     9.3258 </r>
       <r>    -0.0860     8.6517     9.6838 </r>
       <r>    -0.0446     5.3918     9.9069 </r>
       <r>    -0.0032     1.9494     9.9875 </r>
       <r>     0.0381     0.6534    10.0145 </r>
       <r>     0.0795     1.8982    10.0931 </r>
       <r>     0.1209     5.3794    10.3156 </r>
       <r>     0.1623     9.9902    10.7290 </r>
       <r>     0.2036    13.6450    11.2935 </r>
       <r>     0.2450    15.6705    11.9418 </r>
       <r>     0.2864    15.8471    12.5975 </r>
       <r>     0.3278    15.5187    13.2395 </r>
       <r>     0.3691    16.3633    13.9165 </r>
       <r>     0.4105    16.9506    14.6178 </r>
       <r>     0.4519    17.0470    15.3231 </r>
       <r>     0.4932    17.7621    16.0579 </r>
       <r>     0.5346    19.1298    16.8494 </r>
       <r>     0.5760    19.6242    17.6613 </r>
       <r>     0.6174    18.9731    18.4463 </r>
       <r>     0.6587    19.7035    19.2615 </r>
       <r>     0.7001    21.6008    20.1552 </r>
       <r>     0.7415    22.3851    21.0813 </r>
       <r>     0.7829    22.3190    22.0047 </r>
       <r>     0.8242    22.1115    22.9195 </r>
       <r>     0.8656    22.5503    23.8525 </r>
       <r>     0.9070    24.0548    24.8477 </r>
       <r>     0.9483    25.3222    25.8953 </r>
       <r>     0.9897    24.6297    26.9143 </r>
       <r>     1.0311    24.7349    27.9377 </r>
       <r>     1.0725    26.3364    29.0273 </r>
       <r>     1.1138    26.9866    30.1438 </r>
       <r>     1.1552    26.7567    31.2508 </r>
       <r>     1.1966    26.3555    32.3412 </r>
       <r>     1.2380    26.9577    33.4565 </r>
       <r>     1.2793    27.8926    34.6105 </r>
       <r>     1.3207    29.1025    35.8146 </r>
       <r>     1.3621    29.6768    37.0424 </r>
       <r>     1.4034    28.1916    38.2088 </r>
       <r>     1.4448    27.1923    39.3338 </r>
       <r>     1.4862    29.4771    40.5533 </r>
       <r>     1.5276    31.1762    41.8432 </r>
       <r>     1.5689    30.7876    43.1169 </r>
       <r>     1.6103    31.1468    44.4056 </r>
       <r>     1.6517    30.1378    45.6525 </r>
       <r>     1.6931    21.8050    46.5546 </r>
       <r>     1.7344    13.7626    47.1240 </r>
       <r>     1.7758     9.9890    47.5373 </r>
       <r>     1.8172     6.0488    47.7875 </r>
       <r>     1.8585     3.2098    47.9203 </r>
       <r>     1.8999     1.5062    47.9826 </r>
       <r>     1.9413     0.3815    47.9984 </r>
       <r>     1.9827     0.0369    48.0000 </r>
       <r>     2.0240     0.0012    48.0000 </r>
       <r>     2.0654     0.0000    48.0000 </r>
       <r>     2.1068     0.0000    48.0000 </r>
       <r>     2.1482     0.0000    48.0000 </r>
       <r>     2.1895     0.0000    48.0000 </r>
       <r>     2.2309     0.0000    48.0000 </r>
       <r>     2.2723     0.0000    48.0000 </r>
       <r>     2.3136     0.0000    48.0000 </r>
       <r>     2.3550     0.0000    48.0000 </r>
       <r>     2.3964     0.0000    48.0000 </r>
       <r>     2.4378     0.0000    48.0000 </r>
      </set>
     </set>
    </array>
   </total>
  </dos>
 </calculation>
 <structure name="finalpos" >
  <crystal>
   <varray name="basis" >
    <v>      15.00000000       0.00000000       0.00000000 </v>
    <v>       0.00000000      12.50000000       0.00000000 </v>
    <v>       0.00000000       0.00000000      18.00000000 </v>
   </varray>
   <i name="volume">   3375.00000000 </i>
   <varray name="rec_basis" >
    <v>       0.06666667       0.00000000       0.00000000 </v>
    <v>       0.00000000       0.08000000       0.00000000 </v>
    <v>       0.00000000       0.00000000       0.05555556 </v>
   </varray>
  </crystal>
  <varray name="positions" >
   <v>       0.52123000       0.54500000       0.63796000 </v>
  </varray>
 </structure>
</modeling>
