Automatically generated mesh
    1650
Reciprocal lattice
    0.00000000000000    0.01666666666667    0.00000000000000             2
    0.04761904761905    0.01666666666667    0.00000000000000             4
    0.09523809523809    0.01666666666667    0.00000000000000             4
    0.14285714285715    0.01666666666667    0.00000000000000             4
    0.19047619047619    0.01666666666667    0.00000000000000             4
    0.23809523809524    0.01666666666667    0.00000000000000             4
    0.28571428571428    0.01666666666667    0.00000000000000             4
    0.33333333333334    0.01666666666667    0.00000000000000             4
    0.38095238095238    0.01666666666667    0.00000000000000             4
    0.42857142857143    0.01666666666667    0.00000000000000             4
    0.47619047619047    0.01666666666667    0.00000000000000             4
    0.00000000000000    0.05000000000000    0.00000000000000             2
    0.04761904761905    0.05000000000000    0.00000000000000             4
    0.09523809523809    0.05000000000000    0.00000000000000             4
    0.14285714285715    0.05000000000000    0.00000000000000             4
    0.19047619047619    0.05000000000000    0.00000000000000             4
    0.23809523809524    0.05000000000000    0.00000000000000             4
    0.28571428571428    0.05000000000000    0.00000000000000             4
    0.33333333333334    0.05000000000000    0.00000000000000             4
    0.38095238095238    0.05000000000000    0.00000000000000             4
    0.42857142857143    0.05000000000000    0.00000000000000             4
    0.47619047619047    0.05000000000000    0.00000000000000             4
    0.00000000000000    0.08333333333334    0.00000000000000             2
    0.04761904761905    0.08333333333334    0.00000000000000             4
    0.09523809523809    0.08333333333334    0.00000000000000             4
    0.14285714285715    0.08333333333334    0.00000000000000             4
    0.19047619047619    0.08333333333334    0.00000000000000             4
    0.23809523809524    0.08333333333334    0.00000000000000             4
    0.28571428571428    0.08333333333334    0.00000000000000             4
    0.33333333333334    0.08333333333334    0.00000000000000             4
    0.38095238095238    0.08333333333334    0.00000000000000             4
    0.42857142857143    0.08333333333334    0.00000000000000             4
    0.47619047619047    0.08333333333334    0.00000000000000             4
    0.00000000000000    0.11666666666667    0.00000000000000             2
    0.04761904761905    0.11666666666667    0.00000000000000             4
    0.09523809523809    0.11666666666667    0.00000000000000             4
    0.14285714285715    0.11666666666667    0.00000000000000             4
    0.19047619047619    0.11666666666667    0.00000000000000             4
    0.23809523809524    0.11666666666667    0.00000000000000             4
    0.28571428571428    0.11666666666667    0.00000000000000             4
    0.33333333333334    0.11666666666667    0.00000000000000             4
    0.38095238095238    0.11666666666667    0.00000000000000             4
    0.42857142857143    0.11666666666667    0.00000000000000             4
    0.47619047619047    0.11666666666667    0.00000000000000             4
    0.00000000000000    0.15000000000000    0.00000000000000             2
    0.04761904761905    0.15000000000000    0.00000000000000             4
    0.09523809523809    0.15000000000000    0.00000000000000             4
    0.14285714285715    0.15000000000000    0.00000000000000             4
    0.19047619047619    0.15000000000000    0.00000000000000             4
    0.23809523809524    0.15000000000000    0.00000000000000             4
    0.28571428571428    0.15000000000000    0.00000000000000             4
    0.33333333333334    0.15000000000000    0.00000000000000             4
    0.38095238095238    0.15000000000000    0.00000000000000             4
    0.42857142857143    0.15000000000000    0.00000000000000             4
    0.47619047619047    0.15000000000000    0.00000000000000             4
    0.00000000000000    0.18333333333333    0.00000000000000             2
    0.04761904761905    0.18333333333333    0.00000000000000             4
    0.09523809523809    0.18333333333333    0.00000000000000             4
    0.14285714285715    0.18333333333333    0.00000000000000             4
    0.19047619047619    0.18333333333333    0.00000000000000             4
    0.23809523809524    0.18333333333333    0.00000000000000             4
    0.28571428571428    0.18333333333333    0.00000000000000             4
    0.33333333333334    0.18333333333333    0.00000000000000             4
    0.38095238095238    0.18333333333333    0.00000000000000             4
    0.42857142857143    0.18333333333333    0.00000000000000             4
    0.47619047619047    0.18333333333333    0.00000000000000             4
    0.00000000000000    0.21666666666667    0.00000000000000             2
    0.04761904761905    0.21666666666667    0.00000000000000             4
    0.09523809523809    0.21666666666667    0.00000000000000             4
    0.14285714285715    0.21666666666667    0.00000000000000             4
    0.19047619047619    0.21666666666667    0.00000000000000             4
    0.23809523809524    0.21666666666667    0.00000000000000             4
    0.28571428571428    0.21666666666667    0.00000000000000             4
    0.33333333333334    0.21666666666667    0.00000000000000             4
    0.38095238095238    0.21666666666667    0.00000000000000             4
    0.42857142857143    0.21666666666667    0.00000000000000             4
    0.47619047619047    0.21666666666667    0.00000000000000             4
    0.00000000000000    0.25000000000000    0.00000000000000             2
    0.04761904761905    0.25000000000000    0.00000000000000             4
    0.09523809523809    0.25000000000000    0.00000000000000             4
    0.14285714285715    0.25000000000000    0.00000000000000             4
    0.19047619047619    0.25000000000000    0.00000000000000             4
    0.23809523809524    0.25000000000000    0.00000000000000             4
    0.28571428571428    0.25000000000000    0.00000000000000             4
    0.33333333333334    0.25000000000000    0.00000000000000             4
    0.38095238095238    0.25000000000000    0.00000000000000             4
    0.42857142857143    0.25000000000000    0.00000000000000             4
    0.47619047619047    0.25000000000000    0.00000000000000             4
    0.00000000000000    0.28333333333333    0.00000000000000             2
    0.04761904761905    0.28333333333333    0.00000000000000             4
    0.09523809523809    0.28333333333333    0.00000000000000             4
    0.14285714285715    0.28333333333333    0.00000000000000             4
    0.19047619047619    0.28333333333333    0.00000000000000             4
    0.23809523809524    0.28333333333333    0.00000000000000             4
    0.28571428571428    0.28333333333333    0.00000000000000             4
    0.33333333333334    0.28333333333333    0.00000000000000             4
    0.38095238095238    0.28333333333333    0.00000000000000             4
    0.42857142857143    0.28333333333333    0.00000000000000             4
    0.47619047619047    0.28333333333333    0.00000000000000             4
    0.00000000000000    0.31666666666667    0.00000000000000             2
    0.04761904761905    0.31666666666667    0.00000000000000             4
    0.09523809523809    0.31666666666667    0.00000000000000             4
    0.14285714285715    0.31666666666667    0.00000000000000             4
    0.19047619047619    0.31666666666667    0.00000000000000             4
    0.23809523809524    0.31666666666667    0.00000000000000             4
    0.28571428571428    0.31666666666667    0.00000000000000             4
    0.33333333333334    0.31666666666667    0.00000000000000             4
    0.38095238095238    0.31666666666667    0.00000000000000             4
    0.42857142857143    0.31666666666667    0.00000000000000             4
    0.47619047619047    0.31666666666667    0.00000000000000             4
    0.00000000000000    0.35000000000000    0.00000000000000             2
    0.04761904761905    0.35000000000000    0.00000000000000             4
    0.09523809523809    0.35000000000000    0.00000000000000             4
    0.14285714285715    0.35000000000000    0.00000000000000             4
    0.19047619047619    0.35000000000000    0.00000000000000             4
    0.23809523809524    0.35000000000000    0.00000000000000             4
    0.28571428571428    0.35000000000000    0.00000000000000             4
    0.33333333333334    0.35000000000000    0.00000000000000             4
    0.38095238095238    0.35000000000000    0.00000000000000             4
    0.42857142857143    0.35000000000000    0.00000000000000             4
    0.47619047619047    0.35000000000000    0.00000000000000             4
    0.00000000000000    0.38333333333333    0.00000000000000             2
    0.04761904761905    0.38333333333333    0.00000000000000             4
    0.09523809523809    0.38333333333333    0.00000000000000             4
    0.14285714285715    0.38333333333333    0.00000000000000             4
    0.19047619047619    0.38333333333333    0.00000000000000             4
    0.23809523809524    0.38333333333333    0.00000000000000             4
    0.28571428571428    0.38333333333333    0.00000000000000             4
    0.33333333333334    0.38333333333333    0.00000000000000             4
    0.38095238095238    0.38333333333333    0.00000000000000             4
    0.42857142857143    0.38333333333333    0.00000000000000             4
    0.47619047619047    0.38333333333333    0.00000000000000             4
    0.00000000000000    0.41666666666666    0.00000000000000             2
    0.04761904761905    0.41666666666666    0.00000000000000             4
    0.09523809523809    0.41666666666666    0.00000000000000             4
    0.14285714285715    0.41666666666666    0.00000000000000             4
    0.19047619047619    0.41666666666666    0.00000000000000             4
    0.23809523809524    0.41666666666666    0.00000000000000             4
    0.28571428571428    0.41666666666666    0.00000000000000             4
    0.33333333333334    0.41666666666666    0.00000000000000             4
    0.38095238095238    0.41666666666666    0.00000000000000             4
    0.42857142857143    0.41666666666666    0.00000000000000             4
    0.47619047619047    0.41666666666666    0.00000000000000             4
    0.00000000000000    0.45000000000000    0.00000000000000             2
    0.04761904761905    0.45000000000000    0.00000000000000             4
    0.09523809523809    0.45000000000000    0.00000000000000             4
    0.14285714285715    0.45000000000000    0.00000000000000             4
    0.19047619047619    0.45000000000000    0.00000000000000             4
    0.23809523809524    0.45000000000000    0.00000000000000             4
    0.28571428571428    0.45000000000000    0.00000000000000             4
    0.33333333333334    0.45000000000000    0.00000000000000             4
    0.38095238095238    0.45000000000000    0.00000000000000             4
    0.42857142857143    0.45000000000000    0.00000000000000             4
    0.47619047619047    0.45000000000000    0.00000000000000             4
    0.00000000000000    0.48333333333333    0.00000000000000             2
    0.04761904761905    0.48333333333333    0.00000000000000             4
    0.09523809523809    0.48333333333333    0.00000000000000             4
    0.14285714285715    0.48333333333333    0.00000000000000             4
    0.19047619047619    0.48333333333333    0.00000000000000             4
    0.23809523809524    0.48333333333333    0.00000000000000             4
    0.28571428571428    0.48333333333333    0.00000000000000             4
    0.33333333333334    0.48333333333333    0.00000000000000             4
    0.38095238095238    0.48333333333333    0.00000000000000             4
    0.42857142857143    0.48333333333333    0.00000000000000             4
    0.47619047619047    0.48333333333333    0.00000000000000             4
    0.00000000000000    0.01666666666667    0.05263157894737             4
    0.04761904761905    0.01666666666667    0.05263157894737             8
    0.09523809523809    0.01666666666667    0.05263157894737             8
    0.14285714285715    0.01666666666667    0.05263157894737             8
    0.19047619047619    0.01666666666667    0.05263157894737             8
    0.23809523809524    0.01666666666667    0.05263157894737             8
    0.28571428571428    0.01666666666667    0.05263157894737             8
    0.33333333333334    0.01666666666667    0.05263157894737             8
    0.38095238095238    0.01666666666667    0.05263157894737             8
    0.42857142857143    0.01666666666667    0.05263157894737             8
    0.47619047619047    0.01666666666667    0.05263157894737             8
    0.00000000000000    0.05000000000000    0.05263157894737             4
    0.04761904761905    0.05000000000000    0.05263157894737             8
    0.09523809523809    0.05000000000000    0.05263157894737             8
    0.14285714285715    0.05000000000000    0.05263157894737             8
    0.19047619047619    0.05000000000000    0.05263157894737             8
    0.23809523809524    0.05000000000000    0.05263157894737             8
    0.28571428571428    0.05000000000000    0.05263157894737             8
    0.33333333333334    0.05000000000000    0.05263157894737             8
    0.38095238095238    0.05000000000000    0.05263157894737             8
    0.42857142857143    0.05000000000000    0.05263157894737             8
    0.47619047619047    0.05000000000000    0.05263157894737             8
    0.00000000000000    0.08333333333334    0.05263157894737             4
    0.04761904761905    0.08333333333334    0.05263157894737             8
    0.09523809523809    0.08333333333334    0.05263157894737             8
    0.14285714285715    0.08333333333334    0.05263157894737             8
    0.19047619047619    0.08333333333334    0.05263157894737             8
    0.23809523809524    0.08333333333334    0.05263157894737             8
    0.28571428571428    0.08333333333334    0.05263157894737             8
    0.33333333333334    0.08333333333334    0.05263157894737             8
    0.38095238095238    0.08333333333334    0.05263157894737             8
    0.42857142857143    0.08333333333334    0.05263157894737             8
    0.47619047619047    0.08333333333334    0.05263157894737             8
    0.00000000000000    0.11666666666667    0.05263157894737             4
    0.04761904761905    0.11666666666667    0.05263157894737             8
    0.09523809523809    0.11666666666667    0.05263157894737             8
    0.14285714285715    0.11666666666667    0.05263157894737             8
    0.19047619047619    0.11666666666667    0.05263157894737             8
    0.23809523809524    0.11666666666667    0.05263157894737             8
    0.28571428571428    0.11666666666667    0.05263157894737             8
    0.33333333333334    0.11666666666667    0.05263157894737             8
    0.38095238095238    0.11666666666667    0.05263157894737             8
    0.42857142857143    0.11666666666667    0.05263157894737             8
    0.47619047619047    0.11666666666667    0.05263157894737             8
    0.00000000000000    0.15000000000000    0.05263157894737             4
    0.04761904761905    0.15000000000000    0.05263157894737             8
    0.09523809523809    0.15000000000000    0.05263157894737             8
    0.14285714285715    0.15000000000000    0.05263157894737             8
    0.19047619047619    0.15000000000000    0.05263157894737             8
    0.23809523809524    0.15000000000000    0.05263157894737             8
    0.28571428571428    0.15000000000000    0.05263157894737             8
    0.33333333333334    0.15000000000000    0.05263157894737             8
    0.38095238095238    0.15000000000000    0.05263157894737             8
    0.42857142857143    0.15000000000000    0.05263157894737             8
    0.47619047619047    0.15000000000000    0.05263157894737             8
    0.00000000000000    0.18333333333333    0.05263157894737             4
    0.04761904761905    0.18333333333333    0.05263157894737             8
    0.09523809523809    0.18333333333333    0.05263157894737             8
    0.14285714285715    0.18333333333333    0.05263157894737             8
    0.19047619047619    0.18333333333333    0.05263157894737             8
    0.23809523809524    0.18333333333333    0.05263157894737             8
    0.28571428571428    0.18333333333333    0.05263157894737             8
    0.33333333333334    0.18333333333333    0.05263157894737             8
    0.38095238095238    0.18333333333333    0.05263157894737             8
    0.42857142857143    0.18333333333333    0.05263157894737             8
    0.47619047619047    0.18333333333333    0.05263157894737             8
    0.00000000000000    0.21666666666667    0.05263157894737             4
    0.04761904761905    0.21666666666667    0.05263157894737             8
    0.09523809523809    0.21666666666667    0.05263157894737             8
    0.14285714285715    0.21666666666667    0.05263157894737             8
    0.19047619047619    0.21666666666667    0.05263157894737             8
    0.23809523809524    0.21666666666667    0.05263157894737             8
    0.28571428571428    0.21666666666667    0.05263157894737             8
    0.33333333333334    0.21666666666667    0.05263157894737             8
    0.38095238095238    0.21666666666667    0.05263157894737             8
    0.42857142857143    0.21666666666667    0.05263157894737             8
    0.47619047619047    0.21666666666667    0.05263157894737             8
    0.00000000000000    0.25000000000000    0.05263157894737             4
    0.04761904761905    0.25000000000000    0.05263157894737             8
    0.09523809523809    0.25000000000000    0.05263157894737             8
    0.14285714285715    0.25000000000000    0.05263157894737             8
    0.19047619047619    0.25000000000000    0.05263157894737             8
    0.23809523809524    0.25000000000000    0.05263157894737             8
    0.28571428571428    0.25000000000000    0.05263157894737             8
    0.33333333333334    0.25000000000000    0.05263157894737             8
    0.38095238095238    0.25000000000000    0.05263157894737             8
    0.42857142857143    0.25000000000000    0.05263157894737             8
    0.47619047619047    0.25000000000000    0.05263157894737             8
    0.00000000000000    0.28333333333333    0.05263157894737             4
    0.04761904761905    0.28333333333333    0.05263157894737             8
    0.09523809523809    0.28333333333333    0.05263157894737             8
    0.14285714285715    0.28333333333333    0.05263157894737             8
    0.19047619047619    0.28333333333333    0.05263157894737             8
    0.23809523809524    0.28333333333333    0.05263157894737             8
    0.28571428571428    0.28333333333333    0.05263157894737             8
    0.33333333333334    0.28333333333333    0.05263157894737             8
    0.38095238095238    0.28333333333333    0.05263157894737             8
    0.42857142857143    0.28333333333333    0.05263157894737             8
    0.47619047619047    0.28333333333333    0.05263157894737             8
    0.00000000000000    0.31666666666667    0.05263157894737             4
    0.04761904761905    0.31666666666667    0.05263157894737             8
    0.09523809523809    0.31666666666667    0.05263157894737             8
    0.14285714285715    0.31666666666667    0.05263157894737             8
    0.19047619047619    0.31666666666667    0.05263157894737             8
    0.23809523809524    0.31666666666667    0.05263157894737             8
    0.28571428571428    0.31666666666667    0.05263157894737             8
    0.33333333333334    0.31666666666667    0.05263157894737             8
    0.38095238095238    0.31666666666667    0.05263157894737             8
    0.42857142857143    0.31666666666667    0.05263157894737             8
    0.47619047619047    0.31666666666667    0.05263157894737             8
    0.00000000000000    0.35000000000000    0.05263157894737             4
    0.04761904761905    0.35000000000000    0.05263157894737             8
    0.09523809523809    0.35000000000000    0.05263157894737             8
    0.14285714285715    0.35000000000000    0.05263157894737             8
    0.19047619047619    0.35000000000000    0.05263157894737             8
    0.23809523809524    0.35000000000000    0.05263157894737             8
    0.28571428571428    0.35000000000000    0.05263157894737             8
    0.33333333333334    0.35000000000000    0.05263157894737             8
    0.38095238095238    0.35000000000000    0.05263157894737             8
    0.42857142857143    0.35000000000000    0.05263157894737             8
    0.47619047619047    0.35000000000000    0.05263157894737             8
    0.00000000000000    0.38333333333333    0.05263157894737             4
    0.04761904761905    0.38333333333333    0.05263157894737             8
    0.09523809523809    0.38333333333333    0.05263157894737             8
    0.14285714285715    0.38333333333333    0.05263157894737             8
    0.19047619047619    0.38333333333333    0.05263157894737             8
    0.23809523809524    0.38333333333333    0.05263157894737             8
    0.28571428571428    0.38333333333333    0.05263157894737             8
    0.33333333333334    0.38333333333333    0.05263157894737             8
    0.38095238095238    0.38333333333333    0.05263157894737             8
    0.42857142857143    0.38333333333333    0.05263157894737             8
    0.47619047619047    0.38333333333333    0.05263157894737             8
    0.00000000000000    0.41666666666666    0.05263157894737             4
    0.04761904761905    0.41666666666666    0.05263157894737             8
    0.09523809523809    0.41666666666666    0.05263157894737             8
    0.14285714285715    0.41666666666666    0.05263157894737             8
    0.19047619047619    0.41666666666666    0.05263157894737             8
    0.23809523809524    0.41666666666666    0.05263157894737             8
    0.28571428571428    0.41666666666666    0.05263157894737             8
    0.33333333333334    0.41666666666666    0.05263157894737             8
    0.38095238095238    0.41666666666666    0.05263157894737             8
    0.42857142857143    0.41666666666666    0.05263157894737             8
    0.47619047619047    0.41666666666666    0.05263157894737             8
    0.00000000000000    0.45000000000000    0.05263157894737             4
    0.04761904761905    0.45000000000000    0.05263157894737             8
    0.09523809523809    0.45000000000000    0.05263157894737             8
    0.14285714285715    0.45000000000000    0.05263157894737             8
    0.19047619047619    0.45000000000000    0.05263157894737             8
    0.23809523809524    0.45000000000000    0.05263157894737             8
    0.28571428571428    0.45000000000000    0.05263157894737             8
    0.33333333333334    0.45000000000000    0.05263157894737             8
    0.38095238095238    0.45000000000000    0.05263157894737             8
    0.42857142857143    0.45000000000000    0.05263157894737             8
    0.47619047619047    0.45000000000000    0.05263157894737             8
    0.00000000000000    0.48333333333333    0.05263157894737             4
    0.04761904761905    0.48333333333333    0.05263157894737             8
    0.09523809523809    0.48333333333333    0.05263157894737             8
    0.14285714285715    0.48333333333333    0.05263157894737             8
    0.19047619047619    0.48333333333333    0.05263157894737             8
    0.23809523809524    0.48333333333333    0.05263157894737             8
    0.28571428571428    0.48333333333333    0.05263157894737             8
    0.33333333333334    0.48333333333333    0.05263157894737             8
    0.38095238095238    0.48333333333333    0.05263157894737             8
    0.42857142857143    0.48333333333333    0.05263157894737             8
    0.47619047619047    0.48333333333333    0.05263157894737             8
    0.00000000000000    0.01666666666667    0.10526315789474             4
    0.04761904761905    0.01666666666667    0.10526315789474             8
    0.09523809523809    0.01666666666667    0.10526315789474             8
    0.14285714285715    0.01666666666667    0.10526315789474             8
    0.19047619047619    0.01666666666667    0.10526315789474             8
    0.23809523809524    0.01666666666667    0.10526315789474             8
    0.28571428571428    0.01666666666667    0.10526315789474             8
    0.33333333333334    0.01666666666667    0.10526315789474             8
    0.38095238095238    0.01666666666667    0.10526315789474             8
    0.42857142857143    0.01666666666667    0.10526315789474             8
    0.47619047619047    0.01666666666667    0.10526315789474             8
    0.00000000000000    0.05000000000000    0.10526315789474             4
    0.04761904761905    0.05000000000000    0.10526315789474             8
    0.09523809523809    0.05000000000000    0.10526315789474             8
    0.14285714285715    0.05000000000000    0.10526315789474             8
    0.19047619047619    0.05000000000000    0.10526315789474             8
    0.23809523809524    0.05000000000000    0.10526315789474             8
    0.28571428571428    0.05000000000000    0.10526315789474             8
    0.33333333333334    0.05000000000000    0.10526315789474             8
    0.38095238095238    0.05000000000000    0.10526315789474             8
    0.42857142857143    0.05000000000000    0.10526315789474             8
    0.47619047619047    0.05000000000000    0.10526315789474             8
    0.00000000000000    0.08333333333334    0.10526315789474             4
    0.04761904761905    0.08333333333334    0.10526315789474             8
    0.09523809523809    0.08333333333334    0.10526315789474             8
    0.14285714285715    0.08333333333334    0.10526315789474             8
    0.19047619047619    0.08333333333334    0.10526315789474             8
    0.23809523809524    0.08333333333334    0.10526315789474             8
    0.28571428571428    0.08333333333334    0.10526315789474             8
    0.33333333333334    0.08333333333334    0.10526315789474             8
    0.38095238095238    0.08333333333334    0.10526315789474             8
    0.42857142857143    0.08333333333334    0.10526315789474             8
    0.47619047619047    0.08333333333334    0.10526315789474             8
    0.00000000000000    0.11666666666667    0.10526315789474             4
    0.04761904761905    0.11666666666667    0.10526315789474             8
    0.09523809523809    0.11666666666667    0.10526315789474             8
    0.14285714285715    0.11666666666667    0.10526315789474             8
    0.19047619047619    0.11666666666667    0.10526315789474             8
    0.23809523809524    0.11666666666667    0.10526315789474             8
    0.28571428571428    0.11666666666667    0.10526315789474             8
    0.33333333333334    0.11666666666667    0.10526315789474             8
    0.38095238095238    0.11666666666667    0.10526315789474             8
    0.42857142857143    0.11666666666667    0.10526315789474             8
    0.47619047619047    0.11666666666667    0.10526315789474             8
    0.00000000000000    0.15000000000000    0.10526315789474             4
    0.04761904761905    0.15000000000000    0.10526315789474             8
    0.09523809523809    0.15000000000000    0.10526315789474             8
    0.14285714285715    0.15000000000000    0.10526315789474             8
    0.19047619047619    0.15000000000000    0.10526315789474             8
    0.23809523809524    0.15000000000000    0.10526315789474             8
    0.28571428571428    0.15000000000000    0.10526315789474             8
    0.33333333333334    0.15000000000000    0.10526315789474             8
    0.38095238095238    0.15000000000000    0.10526315789474             8
    0.42857142857143    0.15000000000000    0.10526315789474             8
    0.47619047619047    0.15000000000000    0.10526315789474             8
    0.00000000000000    0.18333333333333    0.10526315789474             4
    0.04761904761905    0.18333333333333    0.10526315789474             8
    0.09523809523809    0.18333333333333    0.10526315789474             8
    0.14285714285715    0.18333333333333    0.10526315789474             8
    0.19047619047619    0.18333333333333    0.10526315789474             8
    0.23809523809524    0.18333333333333    0.10526315789474             8
    0.28571428571428    0.18333333333333    0.10526315789474             8
    0.33333333333334    0.18333333333333    0.10526315789474             8
    0.38095238095238    0.18333333333333    0.10526315789474             8
    0.42857142857143    0.18333333333333    0.10526315789474             8
    0.47619047619047    0.18333333333333    0.10526315789474             8
    0.00000000000000    0.21666666666667    0.10526315789474             4
    0.04761904761905    0.21666666666667    0.10526315789474             8
    0.09523809523809    0.21666666666667    0.10526315789474             8