       N       E                     dE             d eps       ncg     rms          rms(c)
DAV:   1     0.362969990247E+02    0.36297E+02   -0.15894E+04 16800   0.627E+02
DAV:   2    -0.936339413495E+02   -0.12993E+03   -0.12244E+03 23760   0.136E+02
DAV:   3    -0.975988708783E+02   -0.39649E+01   -0.39499E+01 24168   0.216E+01
DAV:   4    -0.976216927273E+02   -0.22822E-01   -0.22821E-01 21672   0.184E+00
DAV:   5    -0.976219608655E+02   -0.26814E-03   -0.26813E-03 23760   0.195E-01    0.123E+01
DAV:   6    -0.922073753039E+02    0.54146E+01   -0.39493E+00 24120   0.656E+00    0.678E+00
DAV:   7    -0.905564800757E+02    0.16509E+01   -0.32086E+00 25176   0.583E+00    0.170E+00
DAV:   8    -0.905687254508E+02   -0.12245E-01   -0.23210E-01 18744   0.163E+00    0.708E-01
DAV:   9    -0.905829219291E+02   -0.14196E-01   -0.16865E-02 23496   0.433E-01    0.198E-01
DAV:  10    -0.905869305891E+02   -0.40087E-02   -0.20647E-03 19104   0.158E-01    0.611E-02
DAV:  11    -0.905880113859E+02   -0.10808E-02   -0.63452E-04 21624   0.851E-02    0.322E-02
DAV:  12    -0.905881256235E+02   -0.11424E-03   -0.89478E-05 20976   0.347E-02    0.430E-03
DAV:  13    -0.905881303171E+02   -0.46937E-05   -0.38699E-06 23352   0.791E-03    0.183E-03
DAV:  14    -0.905881309624E+02   -0.64527E-06   -0.25839E-07 20448   0.200E-03
   1 F= -.90588131E+02 E0= -.90586525E+02  d E =-.321280E-02
