       N       E                     dE             d eps       ncg     rms          rms(c)
DAV:   1     0.840976956927E+02    0.84098E+02   -0.20502E+04 16800   0.891E+02
DAV:   2    -0.915517740410E+02   -0.17565E+03   -0.16442E+03 23016   0.170E+02
DAV:   3    -0.976104184342E+02   -0.60586E+01   -0.60211E+01 24816   0.281E+01
DAV:   4    -0.976462581447E+02   -0.35840E-01   -0.35837E-01 19632   0.251E+00
DAV:   5    -0.976466529954E+02   -0.39485E-03   -0.39484E-03 24672   0.251E-01    0.123E+01
DAV:   6    -0.922309675216E+02    0.54157E+01   -0.39490E+00 24312   0.659E+00    0.680E+00
DAV:   7    -0.905793418281E+02    0.16516E+01   -0.32190E+00 25176   0.586E+00    0.171E+00
DAV:   8    -0.905917869300E+02   -0.12445E-01   -0.23525E-01 18504   0.168E+00    0.704E-01
DAV:   9    -0.906059516501E+02   -0.14165E-01   -0.16897E-02 23472   0.439E-01    0.198E-01
DAV:  10    -0.906099962542E+02   -0.40446E-02   -0.20959E-03 19128   0.161E-01    0.610E-02
DAV:  11    -0.906110649767E+02   -0.10687E-02   -0.62811E-04 21696   0.872E-02    0.320E-02
DAV:  12    -0.906111810397E+02   -0.11606E-03   -0.93287E-05 20712   0.373E-02    0.428E-03
DAV:  13    -0.906111859207E+02   -0.48810E-05   -0.41325E-06 23520   0.887E-03    0.182E-03
DAV:  14    -0.906111866068E+02   -0.68607E-06   -0.28789E-07 20352   0.232E-03
   1 F= -.90611187E+02 E0= -.90609580E+02  d E =-.321326E-02
