  14  14   0   0
  0.1021960E+02  0.5697000E-09  0.4047900E-09  0.6204200E-09  0.5000000E-15
  1.000000000000000E-004
  CAR 
 Kpoints                                 
     17.98434314    -14.18996999  301      1.89053290      1.00000000
    -14.190  0.0000E+00  0.0000E+00
    -14.083  0.0000E+00  0.0000E+00
    -13.975  0.0000E+00  0.0000E+00
    -13.868  0.0000E+00  0.0000E+00
    -13.761  0.0000E+00  0.0000E+00
    -13.654  0.0000E+00  0.0000E+00
    -13.546  0.0000E+00  0.0000E+00
    -13.439  0.0000E+00  0.0000E+00
    -13.332  0.0000E+00  0.0000E+00
    -13.225  0.0000E+00  0.0000E+00
    -13.117  0.0000E+00  0.0000E+00
    -13.010  0.4272E-16  0.4582E-17
    -12.903  0.2930E-07  0.3142E-08
    -12.796  0.3797E-02  0.4072E-03
    -12.689  0.5056E+00  0.5463E-01
    -12.581  0.2379E+01  0.3098E+00
    -12.474  0.3549E+01  0.6904E+00
    -12.367  0.4363E+01  0.1158E+01
    -12.260  0.3539E+01  0.1538E+01
    -12.152  0.2736E+01  0.1831E+01
    -12.045  0.2748E+01  0.2126E+01
    -11.938  0.2496E+01  0.2394E+01
    -11.831  0.2768E+01  0.2691E+01
    -11.723  0.3401E+01  0.3055E+01
    -11.616  0.3527E+01  0.3434E+01
    -11.509  0.3126E+01  0.3769E+01
    -11.402  0.1699E+01  0.3951E+01
    -11.294  0.4464E+00  0.3999E+01
    -11.187  0.8709E-02  0.4000E+01
    -11.080  0.2604E-06  0.4000E+01
    -10.973  0.1748E-14  0.4000E+01
    -10.865  0.0000E+00  0.4000E+01
    -10.758  0.0000E+00  0.4000E+01
    -10.651  0.0000E+00  0.4000E+01
    -10.544  0.0000E+00  0.4000E+01
    -10.436  0.0000E+00  0.4000E+01
    -10.329  0.0000E+00  0.4000E+01
    -10.222  0.0000E+00  0.4000E+01
    -10.115  0.0000E+00  0.4000E+01
    -10.007  0.0000E+00  0.4000E+01
     -9.900  0.0000E+00  0.4000E+01
     -9.793  0.0000E+00  0.4000E+01
     -9.686  0.0000E+00  0.4000E+01
     -9.578  0.0000E+00  0.4000E+01
     -9.471  0.0000E+00  0.4000E+01
     -9.364  0.0000E+00  0.4000E+01
     -9.257  0.0000E+00  0.4000E+01
     -9.149  0.0000E+00  0.4000E+01
     -9.042  0.8592E-09  0.4000E+01
     -8.935  0.5951E-03  0.4000E+01
     -8.828  0.2705E+00  0.4029E+01
     -8.720  0.2071E+01  0.4251E+01
     -8.613  0.5294E+01  0.4819E+01
     -8.506  0.6974E+01  0.5567E+01
     -8.399  0.6302E+01  0.6243E+01
     -8.291  0.5321E+01  0.6813E+01
     -8.184  0.4835E+01  0.7332E+01
     -8.077  0.3896E+01  0.7750E+01
     -7.970  0.1685E+01  0.7930E+01
     -7.862  0.5922E+00  0.7994E+01
     -7.755  0.5689E-01  0.8000E+01
     -7.648  0.3152E-04  0.8000E+01
     -7.541  0.4334E-11  0.8000E+01
     -7.433  0.0000E+00  0.8000E+01
     -7.326  0.0000E+00  0.8000E+01
     -7.219  0.0000E+00  0.8000E+01
     -7.112  0.3993E-09  0.8000E+01
     -7.004  0.3601E-03  0.8000E+01
     -6.897  0.1102E+00  0.8012E+01
     -6.790  0.2584E+00  0.8040E+01
     -6.683  0.4226E+00  0.8085E+01
     -6.575  0.7643E+00  0.8167E+01
     -6.468  0.8484E+00  0.8258E+01
     -6.361  0.1444E+01  0.8413E+01
     -6.254  0.1960E+01  0.8623E+01
     -6.146  0.3046E+01  0.8950E+01
     -6.039  0.3783E+01  0.9355E+01
     -5.932  0.4108E+01  0.9796E+01
     -5.825  0.4057E+01  0.1023E+02
     -5.717  0.3859E+01  0.1064E+02
     -5.610  0.4071E+01  0.1108E+02
     -5.503  0.4220E+01  0.1153E+02
     -5.396  0.4536E+01  0.1202E+02
     -5.288  0.4593E+01  0.1251E+02
     -5.181  0.4486E+01  0.1299E+02
     -5.074  0.3869E+01  0.1341E+02
     -4.967  0.3219E+01  0.1375E+02
     -4.859  0.2963E+01  0.1407E+02
     -4.752  0.2322E+01  0.1432E+02
     -4.645  0.2885E+01  0.1463E+02
     -4.538  0.3358E+01  0.1499E+02
     -4.430  0.3455E+01  0.1536E+02
     -4.323  0.3343E+01  0.1572E+02
     -4.216  0.2955E+01  0.1604E+02
     -4.109  0.2902E+01  0.1635E+02
     -4.001  0.2930E+01  0.1666E+02
     -3.894  0.2870E+01  0.1697E+02
     -3.787  0.3099E+01  0.1730E+02
     -3.680  0.2900E+01  0.1761E+02
     -3.572  0.2696E+01  0.1790E+02
     -3.465  0.3063E+01  0.1823E+02
     -3.358  0.2651E+01  0.1852E+02
     -3.251  0.2838E+01  0.1882E+02
     -3.143  0.2770E+01  0.1912E+02
     -3.036  0.2716E+01  0.1941E+02
     -2.929  0.3060E+01  0.1974E+02
     -2.822  0.2972E+01  0.2005E+02
     -2.714  0.2439E+01  0.2032E+02
     -2.607  0.2643E+01  0.2060E+02
     -2.500  0.3002E+01  0.2092E+02
     -2.393  0.2999E+01  0.2124E+02
     -2.285  0.3189E+01  0.2159E+02
     -2.178  0.4012E+01  0.2202E+02
     -2.071  0.3655E+01  0.2241E+02
     -1.964  0.3249E+01  0.2276E+02
     -1.856  0.5048E+01  0.2330E+02
     -1.749  0.5556E+01  0.2389E+02
     -1.642  0.5623E+01  0.2450E+02
     -1.535  0.6152E+01  0.2516E+02
     -1.427  0.6112E+01  0.2581E+02
     -1.320  0.5592E+01  0.2641E+02
     -1.213  0.4676E+01  0.2691E+02
     -1.106  0.6478E+01  0.2761E+02
     -0.999  0.4067E+01  0.2804E+02
     -0.891  0.2279E+01  0.2829E+02
     -0.784  0.2697E+01  0.2858E+02
     -0.677  0.2869E+01  0.2889E+02
     -0.570  0.4458E+01  0.2936E+02
     -0.462  0.6833E+01  0.3010E+02
     -0.355  0.5666E+01  0.3070E+02
     -0.248  0.6674E+01  0.3142E+02
     -0.141  0.6351E+01  0.3210E+02
     -0.033  0.6721E+01  0.3282E+02
      0.074  0.6795E+01  0.3355E+02
      0.181  0.6224E+01  0.3422E+02
      0.288  0.8770E+01  0.3516E+02
      0.396  0.8024E+01  0.3602E+02
      0.503  0.8695E+01  0.3695E+02
      0.610  0.5345E+01  0.3752E+02
      0.717  0.2985E+01  0.3785E+02
      0.825  0.3263E+01  0.3819E+02
      0.932  0.3590E+01  0.3858E+02
      1.039  0.3568E+01  0.3896E+02
      1.146  0.2787E+01  0.3926E+02
      1.254  0.3362E+01  0.3962E+02
      1.361  0.4485E+01  0.4010E+02
      1.468  0.3811E+01  0.4051E+02
      1.575  0.3700E+01  0.4091E+02
      1.683  0.4572E+01  0.4140E+02
      1.790  0.3292E+01  0.4175E+02
      1.897  0.2472E+01  0.4202E+02
      2.004  0.2665E+01  0.4230E+02
      2.112  0.2088E+01  0.4253E+02
      2.219  0.2643E+01  0.4281E+02
      2.326  0.2592E+01  0.4309E+02
      2.433  0.1960E+01  0.4330E+02
      2.541  0.8732E+00  0.4339E+02
      2.648  0.3748E+00  0.4343E+02
      2.755  0.5747E+00  0.4349E+02
      2.862  0.4202E+00  0.4354E+02
      2.970  0.3059E+00  0.4357E+02
      3.077  0.7391E+00  0.4365E+02
      3.184  0.1021E+01  0.4376E+02
      3.291  0.5599E+00  0.4382E+02
      3.399  0.1462E-01  0.4382E+02
      3.506  0.1180E+00  0.4383E+02
      3.613  0.3954E+00  0.4388E+02
      3.720  0.3360E+00  0.4391E+02
      3.828  0.3660E+00  0.4395E+02
      3.935  0.4113E+00  0.4400E+02
      4.042  0.3059E-01  0.4400E+02
      4.149  0.2611E-04  0.4400E+02
      4.257  0.3011E-01  0.4400E+02
      4.364  0.1745E+00  0.4402E+02
      4.471  0.4003E+00  0.4406E+02
      4.578  0.4661E+00  0.4411E+02
      4.686  0.6304E+00  0.4418E+02
      4.793  0.8873E+00  0.4428E+02
      4.900  0.8356E+00  0.4437E+02
      5.007  0.8572E+00  0.4446E+02
      5.115  0.1267E+01  0.4460E+02
      5.222  0.1155E+01  0.4472E+02
      5.329  0.1626E+01  0.4489E+02
      5.436  0.2177E+01  0.4513E+02
      5.544  0.2492E+01  0.4539E+02
      5.651  0.2777E+01  0.4569E+02
      5.758  0.3356E+01  0.4605E+02
      5.865  0.3230E+01  0.4640E+02
      5.973  0.4298E+01  0.4686E+02
      6.080  0.4766E+01  0.4737E+02
      6.187  0.4042E+01  0.4780E+02
      6.294  0.4631E+01  0.4830E+02
      6.402  0.4164E+01  0.4875E+02
      6.509  0.4022E+01  0.4918E+02
      6.616  0.4488E+01  0.4966E+02
      6.723  0.3230E+01  0.5001E+02
      6.831  0.4003E+01  0.5044E+02
      6.938  0.4623E+01  0.5093E+02
      7.045  0.4557E+01  0.5142E+02
      7.152  0.4346E+01  0.5189E+02
      7.260  0.5606E+01  0.5249E+02
      7.367  0.4914E+01  0.5301E+02
      7.474  0.4452E+01  0.5349E+02
      7.581  0.4185E+01  0.5394E+02
      7.689  0.3570E+01  0.5432E+02
      7.796  0.3124E+01  0.5466E+02
      7.903  0.3005E+01  0.5498E+02
      8.010  0.2982E+01  0.5530E+02
      8.118  0.4178E+01  0.5575E+02
      8.225  0.3901E+01  0.5617E+02
      8.332  0.3687E+01  0.5656E+02
      8.439  0.4023E+01  0.5699E+02
      8.547  0.4194E+01  0.5744E+02
      8.654  0.4487E+01  0.5793E+02
      8.761  0.4238E+01  0.5838E+02
      8.868  0.5311E+01  0.5895E+02
      8.976  0.4880E+01  0.5947E+02
      9.083  0.5307E+01  0.6004E+02
      9.190  0.5215E+01  0.6060E+02
      9.297  0.4957E+01  0.6113E+02
      9.405  0.4692E+01  0.6164E+02
      9.512  0.4366E+01  0.6210E+02
      9.619  0.5129E+01  0.6265E+02
      9.726  0.5005E+01  0.6319E+02
      9.834  0.5300E+01  0.6376E+02
      9.941  0.4434E+01  0.6423E+02
     10.048  0.3659E+01  0.6463E+02
     10.155  0.5238E+01  0.6519E+02
     10.263  0.4665E+01  0.6569E+02
     10.370  0.4129E+01  0.6613E+02
     10.477  0.5481E+01  0.6672E+02
     10.584  0.5718E+01  0.6733E+02
     10.691  0.4079E+01  0.6777E+02
     10.799  0.3857E+01  0.6818E+02
     10.906  0.3254E+01  0.6853E+02
     11.013  0.4730E+01  0.6904E+02
     11.120  0.5465E+01  0.6963E+02
     11.228  0.6254E+01  0.7030E+02
     11.335  0.5939E+01  0.7093E+02
     11.442  0.5263E+01  0.7150E+02
     11.549  0.4307E+01  0.7196E+02
     11.657  0.4469E+01  0.7244E+02
     11.764  0.4951E+01  0.7297E+02
     11.871  0.4833E+01  0.7349E+02
     11.978  0.6023E+01  0.7414E+02
     12.086  0.5996E+01  0.7478E+02
     12.193  0.5937E+01  0.7542E+02
     12.300  0.5630E+01  0.7602E+02
     12.407  0.4974E+01  0.7655E+02
     12.515  0.5673E+01  0.7716E+02
     12.622  0.6010E+01  0.7781E+02
     12.729  0.6006E+01  0.7845E+02
     12.836  0.5855E+01  0.7908E+02
     12.944  0.5874E+01  0.7971E+02
     13.051  0.5596E+01  0.8031E+02
     13.158  0.6360E+01  0.8099E+02
     13.265  0.6209E+01  0.8166E+02
     13.373  0.5424E+01  0.8224E+02
     13.480  0.6126E+01  0.8289E+02
     13.587  0.5320E+01  0.8347E+02
     13.694  0.4807E+01  0.8398E+02
     13.802  0.6180E+01  0.8464E+02
     13.909  0.5487E+01  0.8523E+02
     14.016  0.5353E+01  0.8581E+02
     14.123  0.5459E+01  0.8639E+02
     14.231  0.4644E+01  0.8689E+02
     14.338  0.4943E+01  0.8742E+02
     14.445  0.5010E+01  0.8796E+02
     14.552  0.4958E+01  0.8849E+02
     14.660  0.5266E+01  0.8905E+02
     14.767  0.5152E+01  0.8961E+02
     14.874  0.4075E+01  0.9004E+02
     14.981  0.5108E+01  0.9059E+02
     15.089  0.6189E+01  0.9125E+02
     15.196  0.5606E+01  0.9186E+02
     15.303  0.5728E+01  0.9247E+02
     15.410  0.6010E+01  0.9311E+02
     15.518  0.5727E+01  0.9373E+02
     15.625  0.5923E+01  0.9436E+02
     15.732  0.4558E+01  0.9485E+02
     15.839  0.2438E+01  0.9511E+02
     15.947  0.2721E+01  0.9541E+02
     16.054  0.1837E+01  0.9560E+02
     16.161  0.1129E+01  0.9572E+02
     16.268  0.8900E+00  0.9582E+02
     16.376  0.6967E+00  0.9589E+02
     16.483  0.8066E+00  0.9598E+02
     16.590  0.1760E+00  0.9600E+02
     16.697  0.1688E-02  0.9600E+02
     16.805  0.2049E-07  0.9600E+02
     16.912  0.3944E-16  0.9600E+02
     17.019  0.0000E+00  0.9600E+02
     17.126  0.0000E+00  0.9600E+02
     17.234  0.0000E+00  0.9600E+02
     17.341  0.0000E+00  0.9600E+02
     17.448  0.0000E+00  0.9600E+02
     17.555  0.0000E+00  0.9600E+02
     17.663  0.0000E+00  0.9600E+02
     17.770  0.0000E+00  0.9600E+02
     17.877  0.0000E+00  0.9600E+02
     17.984  0.0000E+00  0.9600E+02
