  14  14   0   0
  0.1020734E+02  0.5694721E-09  0.4046281E-09  0.6201718E-09  0.5000000E-15
  1.000000000000000E-004
  CAR 
 Convergence                             
     17.99540940    -14.18916418  301      1.89107485      1.00000000
    -14.189  0.0000E+00  0.0000E+00
    -14.082  0.0000E+00  0.0000E+00
    -13.975  0.0000E+00  0.0000E+00
    -13.867  0.0000E+00  0.0000E+00
    -13.760  0.0000E+00  0.0000E+00
    -13.653  0.0000E+00  0.0000E+00
    -13.545  0.0000E+00  0.0000E+00
    -13.438  0.0000E+00  0.0000E+00
    -13.331  0.0000E+00  0.0000E+00
    -13.224  0.0000E+00  0.0000E+00
    -13.116  0.0000E+00  0.0000E+00
    -13.009  0.4271E-16  0.4582E-17
    -12.902  0.2908E-07  0.3120E-08
    -12.794  0.3798E-02  0.4075E-03
    -12.687  0.5081E+00  0.5491E-01
    -12.580  0.2389E+01  0.3112E+00
    -12.473  0.3561E+01  0.6933E+00
    -12.365  0.4369E+01  0.1162E+01
    -12.258  0.3539E+01  0.1542E+01
    -12.151  0.2734E+01  0.1835E+01
    -12.044  0.2750E+01  0.2130E+01
    -11.936  0.2507E+01  0.2399E+01
    -11.829  0.2771E+01  0.2696E+01
    -11.722  0.3432E+01  0.3064E+01
    -11.614  0.3535E+01  0.3444E+01
    -11.507  0.3107E+01  0.3777E+01
    -11.400  0.1658E+01  0.3955E+01
    -11.293  0.4141E+00  0.3999E+01
    -11.185  0.6812E-02  0.4000E+01
    -11.078  0.1509E-06  0.4000E+01
    -10.971  0.7228E-15  0.4000E+01
    -10.863  0.0000E+00  0.4000E+01
    -10.756  0.0000E+00  0.4000E+01
    -10.649  0.0000E+00  0.4000E+01
    -10.542  0.0000E+00  0.4000E+01
    -10.434  0.0000E+00  0.4000E+01
    -10.327  0.0000E+00  0.4000E+01
    -10.220  0.0000E+00  0.4000E+01
    -10.112  0.0000E+00  0.4000E+01
    -10.005  0.0000E+00  0.4000E+01
     -9.898  0.0000E+00  0.4000E+01
     -9.791  0.0000E+00  0.4000E+01
     -9.683  0.0000E+00  0.4000E+01
     -9.576  0.0000E+00  0.4000E+01
     -9.469  0.0000E+00  0.4000E+01
     -9.361  0.0000E+00  0.4000E+01
     -9.254  0.0000E+00  0.4000E+01
     -9.147  0.0000E+00  0.4000E+01
     -9.040  0.8958E-09  0.4000E+01
     -8.932  0.6109E-03  0.4000E+01
     -8.825  0.2744E+00  0.4030E+01
     -8.718  0.2084E+01  0.4253E+01
     -8.611  0.5318E+01  0.4824E+01
     -8.503  0.6980E+01  0.5572E+01
     -8.396  0.6302E+01  0.6249E+01
     -8.289  0.5324E+01  0.6820E+01
     -8.181  0.4832E+01  0.7338E+01
     -8.074  0.3875E+01  0.7754E+01
     -7.967  0.1666E+01  0.7933E+01
     -7.860  0.5767E+00  0.7994E+01
     -7.752  0.5167E-01  0.8000E+01
     -7.645  0.2354E-04  0.8000E+01
     -7.538  0.2566E-11  0.8000E+01
     -7.430  0.0000E+00  0.8000E+01
     -7.323  0.0000E+00  0.8000E+01
     -7.216  0.0000E+00  0.8000E+01
     -7.109  0.5063E-09  0.8000E+01
     -7.001  0.4084E-03  0.8000E+01
     -6.894  0.1139E+00  0.8012E+01
     -6.787  0.2571E+00  0.8040E+01
     -6.679  0.4267E+00  0.8086E+01
     -6.572  0.7660E+00  0.8168E+01
     -6.465  0.8531E+00  0.8259E+01
     -6.358  0.1448E+01  0.8415E+01
     -6.250  0.1972E+01  0.8626E+01
     -6.143  0.3058E+01  0.8954E+01
     -6.036  0.3779E+01  0.9360E+01
     -5.928  0.4111E+01  0.9801E+01
     -5.821  0.4043E+01  0.1023E+02
     -5.714  0.3854E+01  0.1065E+02
     -5.607  0.4072E+01  0.1108E+02
     -5.499  0.4221E+01  0.1154E+02
     -5.392  0.4538E+01  0.1202E+02
     -5.285  0.4591E+01  0.1252E+02
     -5.177  0.4489E+01  0.1300E+02
     -5.070  0.3864E+01  0.1341E+02
     -4.963  0.3229E+01  0.1376E+02
     -4.856  0.2945E+01  0.1408E+02
     -4.748  0.2346E+01  0.1433E+02
     -4.641  0.2896E+01  0.1464E+02
     -4.534  0.3367E+01  0.1500E+02
     -4.427  0.3480E+01  0.1537E+02
     -4.319  0.3322E+01  0.1573E+02
     -4.212  0.2952E+01  0.1605E+02
     -4.105  0.2906E+01  0.1636E+02
     -3.997  0.2950E+01  0.1667E+02
     -3.890  0.2853E+01  0.1698E+02
     -3.783  0.3123E+01  0.1732E+02
     -3.676  0.2867E+01  0.1762E+02
     -3.568  0.2704E+01  0.1791E+02
     -3.461  0.3061E+01  0.1824E+02
     -3.354  0.2631E+01  0.1852E+02
     -3.246  0.2872E+01  0.1883E+02
     -3.139  0.2728E+01  0.1912E+02
     -3.032  0.2749E+01  0.1942E+02
     -2.925  0.3034E+01  0.1974E+02
     -2.817  0.2971E+01  0.2006E+02
     -2.710  0.2426E+01  0.2032E+02
     -2.603  0.2663E+01  0.2061E+02
     -2.495  0.3024E+01  0.2093E+02
     -2.388  0.2980E+01  0.2125E+02
     -2.281  0.3197E+01  0.2160E+02
     -2.174  0.4014E+01  0.2203E+02
     -2.066  0.3655E+01  0.2242E+02
     -1.959  0.3291E+01  0.2277E+02
     -1.852  0.5172E+01  0.2333E+02
     -1.744  0.5597E+01  0.2393E+02
     -1.637  0.5589E+01  0.2453E+02
     -1.530  0.6185E+01  0.2519E+02
     -1.423  0.6099E+01  0.2584E+02
     -1.315  0.5552E+01  0.2644E+02
     -1.208  0.4685E+01  0.2694E+02
     -1.101  0.6494E+01  0.2764E+02
     -0.993  0.3914E+01  0.2806E+02
     -0.886  0.2267E+01  0.2830E+02
     -0.779  0.2697E+01  0.2859E+02
     -0.672  0.2880E+01  0.2890E+02
     -0.564  0.4556E+01  0.2939E+02
     -0.457  0.6874E+01  0.3013E+02
     -0.350  0.5653E+01  0.3073E+02
     -0.243  0.6724E+01  0.3146E+02
     -0.135  0.6356E+01  0.3214E+02
     -0.028  0.6750E+01  0.3286E+02
      0.079  0.6728E+01  0.3358E+02
      0.187  0.6319E+01  0.3426E+02
      0.294  0.8793E+01  0.3520E+02
      0.401  0.7945E+01  0.3606E+02
      0.508  0.8703E+01  0.3699E+02
      0.616  0.5194E+01  0.3755E+02
      0.723  0.2910E+01  0.3786E+02
      0.830  0.3313E+01  0.3822E+02
      0.938  0.3586E+01  0.3860E+02
      1.045  0.3550E+01  0.3898E+02
      1.152  0.2788E+01  0.3928E+02
      1.259  0.3403E+01  0.3964E+02
      1.367  0.4502E+01  0.4013E+02
      1.474  0.3766E+01  0.4053E+02
      1.581  0.3733E+01  0.4093E+02
      1.689  0.4570E+01  0.4142E+02
      1.796  0.3188E+01  0.4176E+02
      1.903  0.2483E+01  0.4203E+02
      2.010  0.2652E+01  0.4232E+02
      2.118  0.2093E+01  0.4254E+02
      2.225  0.2653E+01  0.4282E+02
      2.332  0.2557E+01  0.4310E+02
      2.440  0.1920E+01  0.4331E+02
      2.547  0.8325E+00  0.4339E+02
      2.654  0.3783E+00  0.4343E+02
      2.761  0.5710E+00  0.4350E+02
      2.869  0.4191E+00  0.4354E+02
      2.976  0.3058E+00  0.4357E+02
      3.083  0.7680E+00  0.4366E+02
      3.191  0.1010E+01  0.4376E+02
      3.298  0.5247E+00  0.4382E+02
      3.405  0.1179E-01  0.4382E+02
      3.512  0.1358E+00  0.4384E+02
      3.620  0.3971E+00  0.4388E+02
      3.727  0.3261E+00  0.4391E+02
      3.834  0.3756E+00  0.4395E+02
      3.941  0.3973E+00  0.4400E+02
      4.049  0.2458E-01  0.4400E+02
      4.156  0.4123E-04  0.4400E+02
      4.263  0.3620E-01  0.4400E+02
      4.371  0.1803E+00  0.4402E+02
      4.478  0.4061E+00  0.4407E+02
      4.585  0.4783E+00  0.4412E+02
      4.692  0.6393E+00  0.4419E+02
      4.800  0.8931E+00  0.4428E+02
      4.907  0.8439E+00  0.4437E+02
      5.014  0.8562E+00  0.4446E+02
      5.122  0.1282E+01  0.4460E+02
      5.229  0.1145E+01  0.4473E+02
      5.336  0.1645E+01  0.4490E+02
      5.443  0.2205E+01  0.4514E+02
      5.551  0.2484E+01  0.4540E+02
      5.658  0.2786E+01  0.4570E+02
      5.765  0.3390E+01  0.4607E+02
      5.873  0.3208E+01  0.4641E+02
      5.980  0.4333E+01  0.4688E+02
      6.087  0.4739E+01  0.4738E+02
      6.194  0.4036E+01  0.4782E+02
      6.302  0.4629E+01  0.4831E+02
      6.409  0.4112E+01  0.4876E+02
      6.516  0.4038E+01  0.4919E+02
      6.624  0.4462E+01  0.4967E+02
      6.731  0.3221E+01  0.5001E+02
      6.838  0.4010E+01  0.5044E+02
      6.945  0.4614E+01  0.5094E+02
      7.053  0.4540E+01  0.5143E+02
      7.160  0.4341E+01  0.5189E+02
      7.267  0.5607E+01  0.5249E+02
      7.375  0.4899E+01  0.5302E+02
      7.482  0.4444E+01  0.5349E+02
      7.589  0.4177E+01  0.5394E+02
      7.696  0.3558E+01  0.5432E+02
      7.804  0.3131E+01  0.5466E+02
      7.911  0.3002E+01  0.5498E+02
      8.018  0.2984E+01  0.5530E+02
      8.125  0.4170E+01  0.5575E+02
      8.233  0.3876E+01  0.5617E+02
      8.340  0.3672E+01  0.5656E+02
      8.447  0.3986E+01  0.5699E+02
      8.555  0.4203E+01  0.5744E+02
      8.662  0.4446E+01  0.5792E+02
      8.769  0.4202E+01  0.5837E+02
      8.876  0.5239E+01  0.5893E+02
      8.984  0.4985E+01  0.5946E+02
      9.091  0.5294E+01  0.6003E+02
      9.198  0.5242E+01  0.6059E+02
      9.306  0.4955E+01  0.6112E+02
      9.413  0.4698E+01  0.6163E+02
      9.520  0.4359E+01  0.6210E+02
      9.627  0.5108E+01  0.6264E+02
      9.735  0.5023E+01  0.6318E+02
      9.842  0.5305E+01  0.6375E+02
      9.949  0.4474E+01  0.6423E+02
     10.057  0.3621E+01  0.6462E+02
     10.164  0.5171E+01  0.6518E+02
     10.271  0.4713E+01  0.6568E+02
     10.378  0.4104E+01  0.6612E+02
     10.486  0.5442E+01  0.6671E+02
     10.593  0.5801E+01  0.6733E+02
     10.700  0.4060E+01  0.6776E+02
     10.808  0.3876E+01  0.6818E+02
     10.915  0.3223E+01  0.6853E+02
     11.022  0.4663E+01  0.6903E+02
     11.129  0.5505E+01  0.6962E+02
     11.237  0.6160E+01  0.7028E+02
     11.344  0.5988E+01  0.7092E+02
     11.451  0.5312E+01  0.7149E+02
     11.558  0.4268E+01  0.7195E+02
     11.666  0.4472E+01  0.7243E+02
     11.773  0.4919E+01  0.7295E+02
     11.880  0.4801E+01  0.7347E+02
     11.988  0.6044E+01  0.7412E+02
     12.095  0.5946E+01  0.7476E+02
     12.202  0.5965E+01  0.7540E+02
     12.309  0.5635E+01  0.7600E+02
     12.417  0.5016E+01  0.7654E+02
     12.524  0.5674E+01  0.7715E+02
     12.631  0.5997E+01  0.7779E+02
     12.739  0.6044E+01  0.7844E+02
     12.846  0.5870E+01  0.7907E+02
     12.953  0.5855E+01  0.7970E+02
     13.060  0.5588E+01  0.8030E+02
     13.168  0.6348E+01  0.8098E+02
     13.275  0.6249E+01  0.8165E+02
     13.382  0.5366E+01  0.8222E+02
     13.490  0.6138E+01  0.8288E+02
     13.597  0.5313E+01  0.8345E+02
     13.704  0.4804E+01  0.8397E+02
     13.811  0.6112E+01  0.8462E+02
     13.919  0.5525E+01  0.8522E+02
     14.026  0.5337E+01  0.8579E+02
     14.133  0.5475E+01  0.8638E+02
     14.241  0.4690E+01  0.8688E+02
     14.348  0.4887E+01  0.8740E+02
     14.455  0.5036E+01  0.8794E+02
     14.562  0.4968E+01  0.8848E+02
     14.670  0.5272E+01  0.8904E+02
     14.777  0.5157E+01  0.8960E+02
     14.884  0.4091E+01  0.9003E+02
     14.992  0.5100E+01  0.9058E+02
     15.099  0.6199E+01  0.9125E+02
     15.206  0.5622E+01  0.9185E+02
     15.313  0.5658E+01  0.9246E+02
     15.421  0.6037E+01  0.9310E+02
     15.528  0.5724E+01  0.9372E+02
     15.635  0.5934E+01  0.9435E+02
     15.742  0.4583E+01  0.9485E+02
     15.850  0.2457E+01  0.9511E+02
     15.957  0.2704E+01  0.9540E+02
     16.064  0.1866E+01  0.9560E+02
     16.172  0.1149E+01  0.9572E+02
     16.279  0.8851E+00  0.9582E+02
     16.386  0.7017E+00  0.9589E+02
     16.493  0.8136E+00  0.9598E+02
     16.601  0.1754E+00  0.9600E+02
     16.708  0.1675E-02  0.9600E+02
     16.815  0.2031E-07  0.9600E+02
     16.923  0.3942E-16  0.9600E+02
     17.030  0.0000E+00  0.9600E+02
     17.137  0.0000E+00  0.9600E+02
     17.244  0.0000E+00  0.9600E+02
     17.352  0.0000E+00  0.9600E+02
     17.459  0.0000E+00  0.9600E+02
     17.566  0.0000E+00  0.9600E+02
     17.674  0.0000E+00  0.9600E+02
     17.781  0.0000E+00  0.9600E+02
     17.888  0.0000E+00  0.9600E+02
     17.995  0.0000E+00  0.9600E+02
