   14   14    1    1
  0.1020734E+02  0.5694721E-09  0.4046281E-09  0.6201718E-09  0.5000000E-15
  1.000000000000000E-004
  CAR 
 Convergence                             
     42    175     48
 
  0.5000000E-01  0.3571429E-01  0.0000000E+00  0.3174603E-02
      1        -12.726229   1.000000
      2        -11.584156   1.000000
      3         -8.656167   1.000000
      4         -8.419272   1.000000
      5         -6.060255   1.000000
      6         -5.126418   1.000000
      7         -4.661757   1.000000
      8         -4.272649   1.000000
      9         -4.029676   1.000000
     10         -3.540021   1.000000
     11         -2.588162   1.000000
     12         -2.318960   1.000000
     13         -1.827623   1.000000
     14         -1.090545   1.000000
     15         -0.064867   1.000000
     16         -0.034780   1.000000
     17          0.162709   1.000000
     18          0.184740   1.000000
     19          0.572202   1.000000
     20          2.025498   0.000072
     21          2.088751   0.000000
     22          2.224906   0.000000
     23          5.467320   0.000000
     24          5.758663   0.000000
     25          5.848420   0.000000
     26          5.968722   0.000000
     27          6.825211   0.000000
     28          7.559202   0.000000
     29          7.889143   0.000000
     30          8.549262   0.000000
     31          8.818451   0.000000
     32          8.964105   0.000000
     33          9.070355   0.000000
     34         10.134824   0.000000
     35         11.194710   0.000000
     36         11.349837   0.000000
     37         11.680733   0.000000
     38         11.796543   0.000000
     39         11.954087   0.000000
     40         12.415471   0.000000
     41         12.884823   0.000000
     42         13.469081   0.000000
     43         13.496288   0.000000
     44         15.402098   0.000000
     45         15.589854   0.000000
     46         16.081673   0.000000
     47         16.350957   0.000000
     48         16.374857   0.000000
 
  0.1500000E+00  0.3571429E-01  0.0000000E+00  0.3174603E-02
      1        -12.682469   1.000000
      2        -11.657931   1.000000
      3         -8.635107   1.000000
      4         -8.407771   1.000000
      5         -5.991970   1.000000
      6         -5.468031   1.000000
      7         -4.784679   1.000000
      8         -4.006569   1.000000
      9         -3.788777   1.000000
     10         -3.202009   1.000000
     11         -2.658511   1.000000
     12         -2.298785   1.000000
     13         -1.906575   1.000000
     14         -1.397620   1.000000
     15         -0.024470   1.000000
     16         -0.012159   1.000000
     17          0.099667   1.000000
     18          0.204695   1.000000
     19          0.477146   1.000000
     20          1.939222   0.086630
     21          2.010762   0.000356
     22          2.103562   0.000000
     23          5.555941   0.000000
     24          5.767939   0.000000
     25          5.875284   0.000000
     26          6.314832   0.000000
     27          6.739535   0.000000
     28          7.197052   0.000000
     29          8.100013   0.000000
     30          8.685601   0.000000
     31          9.076665   0.000000
     32          9.147185   0.000000
     33          9.218424   0.000000
     34         10.249178   0.000000
     35         10.956993   0.000000
     36         11.145768   0.000000
     37         11.267914   0.000000
     38         11.713415   0.000000
     39         12.171430   0.000000
     40         12.505360   0.000000
     41         13.138067   0.000000
     42         13.144301   0.000000
     43         14.028615   0.000000
     44         14.889635   0.000000
     45         15.768442   0.000000
     46         15.846380   0.000000
     47         16.245959   0.000000
     48         16.532474   0.000000
 
  0.2500000E+00  0.3571429E-01  0.0000000E+00  0.3174603E-02
      1        -12.596816   1.000000
      2        -11.790872   1.000000
      3         -8.591561   1.000000
      4         -8.393059   1.000000
      5         -5.970442   1.000000
      6         -5.794921   1.000000
      7         -4.738911   1.000000
      8         -3.878822   1.000000
      9         -3.277608   1.000000
     10         -2.827636   1.000000
     11         -2.709177   1.000000
     12         -2.258189   1.000000
     13         -2.017599   1.000000
     14         -1.902120   1.000000
     15         -0.212169   1.000000
     16          0.019717   1.000000
     17          0.149949   1.000000
     18          0.162375   1.000000
     19          0.446892   1.000000
     20          1.791604   0.997549
     21          1.873538   0.690061
     22          1.877902   0.645267
     23          5.676671   0.000000
     24          5.724513   0.000000
     25          6.184426   0.000000
     26          6.613281   0.000000
     27          6.773809   0.000000
     28          6.942307   0.000000
     29          8.251537   0.000000
     30          8.833884   0.000000
     31          9.016343   0.000000
     32          9.591158   0.000000
     33          9.662101   0.000000
     34         10.295009   0.000000
     35         10.501147   0.000000
     36         10.641314   0.000000
     37         11.388937   0.000000
     38         11.855099   0.000000
     39         12.406482   0.000000
     40         12.582850   0.000000
     41         12.806723   0.000000
     42         12.935776   0.000000
     43         14.654767   0.000000
     44         14.937122   0.000000
     45         15.241995   0.000000
     46         16.002084   0.000000
     47         16.020588   0.000000
     48         16.311293   0.000000
 
  0.3500000E+00  0.3571429E-01  0.0000000E+00  0.3174603E-02
      1        -12.473270   1.000000
      2        -11.960233   1.000000
      3         -8.529752   1.000000
      4         -8.389891   1.000000
      5         -6.051470   1.000000
      6         -6.028087   1.000000
      7         -4.411241   1.000000
      8         -3.709574   1.000000
      9         -3.022025   1.000000
     10         -2.892712   1.000000
     11         -2.439532   1.000000
     12         -2.247458   1.000000
     13         -2.139442   1.000000
     14         -2.119075   1.000000
     15         -0.511264   1.000000
     16         -0.238288   1.000000
     17          0.178075   1.000000
     18          0.253703   1.000000
     19          0.620183   1.000000
     20          1.537686   1.000000
     21          1.668541   1.000000
     22          1.729432   0.999998
     23          5.709050   0.000000
     24          5.762099   0.000000
     25          6.511656   0.000000
     26          6.682949   0.000000
     27          6.708955   0.000000
     28          7.424437   0.000000
     29          8.376317   0.000000
     30          8.701747   0.000000
     31          8.824119   0.000000
     32          9.548563   0.000000
     33         10.071701   0.000000
     34         10.132452   0.000000
     35         10.413962   0.000000
     36         11.166625   0.000000
     37         11.418075   0.000000
     38         11.962809   0.000000
     39         12.219488   0.000000
     40         12.292143   0.000000
     41         12.535318   0.000000
     42         13.271778   0.000000
     43         14.728669   0.000000
     44         14.994164   0.000000
     45         15.283755   0.000000
     46         15.392466   0.000000
     47         15.591841   0.000000
     48         16.396227   0.000000
 
  0.4500000E+00  0.3571429E-01  0.0000000E+00  0.3174603E-02
      1        -12.318499   1.000000
      2        -12.142624   1.000000
      3         -8.463602   1.000000
      4         -8.412558   1.000000
      5         -6.141632   1.000000
      6         -6.137025   1.000000
      7         -3.895560   1.000000
      8         -3.500007   1.000000
      9         -3.295873   1.000000
     10         -3.261523   1.000000
     11         -2.357562   1.000000
     12         -2.228414   1.000000
     13         -1.955372   1.000000
     14         -1.903022   1.000000
     15         -0.731760   1.000000
     16         -0.596479   1.000000
     17          0.261438   1.000000
     18          0.295145   1.000000
     19          0.881081   1.000000
     20          1.198672   1.000000
     21          1.587899   1.000000
     22          1.615433   1.000000
     23          5.736765   0.000000
     24          5.773782   0.000000
     25          6.489892   0.000000
     26          6.553725   0.000000
     27          7.378816   0.000000
     28          8.086124   0.000000
     29          8.107217   0.000000
     30          8.494468   0.000000
     31          8.633612   0.000000
     32          8.802538   0.000000
     33         10.515460   0.000000
     34         10.532519   0.000000
     35         10.777010   0.000000
     36         11.235316   0.000000
     37         11.419959   0.000000
     38         11.617510   0.000000
     39         11.951503   0.000000
     40         12.498479   0.000000
     41         12.730859   0.000000
     42         13.267687   0.000000
     43         14.605972   0.000000
     44         14.753331   0.000000
     45         14.885835   0.000000
     46         14.944355   0.000000
     47         16.122312   0.000000
     48         16.466579   0.000000
 
  0.5000000E-01  0.1071429E+00  0.0000000E+00  0.3174603E-02
      1        -12.702188   1.000000
      2        -11.562589   1.000000
      3         -8.637341   1.000000
      4         -8.396090   1.000000
      5         -6.033427   1.000000
      6         -5.092661   1.000000
      7         -4.639649   1.000000
      8         -4.570699   1.000000
      9         -4.173721   1.000000
     10         -3.517102   1.000000
     11         -3.281789   1.000000
     12         -1.788108   1.000000
     13         -1.085956   1.000000
     14         -1.028404   1.000000
     15         -0.298901   1.000000
     16         -0.270896   1.000000
     17          0.176204   1.000000
     18          0.255015   1.000000
     19          0.650676   1.000000
     20          1.757420   0.999922
     21          1.837557   0.934949
     22          2.277184   0.000000
     23          5.585180   0.000000
     24          5.717711   0.000000
     25          5.750828   0.000000
     26          6.017800   0.000000
     27          7.111704   0.000000
     28          7.844943   0.000000
     29          8.089874   0.000000
     30          8.199775   0.000000
     31          8.822448   0.000000
     32          9.116216   0.000000
     33          9.166458   0.000000
     34         10.587953   0.000000
     35         11.280930   0.000000
     36         11.410523   0.000000
     37         11.614490   0.000000
     38         11.899492   0.000000
     39         12.064708   0.000000
     40         12.696285   0.000000
     41         12.884696   0.000000
     42         13.205066   0.000000
     43         13.211836   0.000000
     44         15.350352   0.000000
     45         15.400870   0.000000
     46         15.876635   0.000000
     47         15.889763   0.000000
     48         16.239870   0.000000
 
  0.1500000E+00  0.1071429E+00  0.0000000E+00  0.3174603E-02
      1        -12.658525   1.000000
      2        -11.636214   1.000000
      3         -8.616140   1.000000
      4         -8.384970   1.000000
      5         -5.963353   1.000000
      6         -5.437930   1.000000
      7         -4.764602   1.000000
      8         -4.487445   1.000000
      9         -3.749176   1.000000
     10         -3.362752   1.000000
     11         -3.163814   1.000000
     12         -1.766351   1.000000
     13         -1.392206   1.000000
     14         -1.148093   1.000000
     15         -0.259830   1.000000
     16         -0.189490   1.000000
     17          0.143919   1.000000
     18          0.226081   1.000000
     19          0.547984   1.000000
     20          1.676816   1.000000
     21          1.761030   0.999883
     22          2.146196   0.000000
     23          5.660947   0.000000
     24          5.816162   0.000000
     25          5.945875   0.000000
     26          6.121472   0.000000
     27          7.028096   0.000000
     28          7.519587   0.000000
     29          8.235718   0.000000
     30          8.371247   0.000000
     31          9.147886   0.000000
     32          9.176136   0.000000
     33          9.431028   0.000000
     34         10.514087   0.000000
     35         10.887888   0.000000
     36         11.098189   0.000000
     37         11.465201   0.000000
     38         11.886290   0.000000
     39         12.284542   0.000000
     40         12.752470   0.000000
     41         12.882377   0.000000
     42         13.168419   0.000000
     43         13.745406   0.000000
     44         14.974940   0.000000
     45         15.417302   0.000000
     46         15.767503   0.000000
     47         15.815379   0.000000
     48         16.420016   0.000000
 
  0.2500000E+00  0.1071429E+00  0.0000000E+00  0.3174603E-02
      1        -12.573070   1.000000
      2        -11.768888   1.000000
      3         -8.572387   1.000000
      4         -8.370963   1.000000
      5         -5.939056   1.000000
      6         -5.764483   1.000000
      7         -4.722230   1.000000
      8         -4.378598   1.000000
      9         -3.484982   1.000000
     10         -3.222925   1.000000
     11         -2.696947   1.000000
     12         -1.897550   1.000000
     13         -1.721950   1.000000
     14         -1.311758   1.000000
     15         -0.214589   1.000000
     16         -0.212362   1.000000
     17          0.058062   1.000000
     18          0.213287   1.000000
     19          0.471514   1.000000
     20          1.541689   1.000000
     21          1.630823   1.000000
     22          1.897673   0.425980
     23          5.866168   0.000000
     24          5.943663   0.000000
     25          6.021224   0.000000
     26          6.570794   0.000000
     27          6.907144   0.000000
     28          7.291443   0.000000
     29          8.441782   0.000000
     30          8.504788   0.000000
     31          9.117102   0.000000
     32          9.628734   0.000000
     33          9.888120   0.000000
     34         10.138495   0.000000
     35         10.367908   0.000000
     36         10.839095   0.000000
     37         11.531688   0.000000
     38         12.120561   0.000000
     39         12.324435   0.000000
     40         12.568683   0.000000
     41         12.975389   0.000000
     42         13.037242   0.000000
     43         14.322718   0.000000
     44         15.105759   0.000000
     45         15.179865   0.000000
     46         15.664348   0.000000
     47         15.726674   0.000000
     48         16.440086   0.000000
 
  0.3500000E+00  0.1071429E+00  0.0000000E+00  0.3174603E-02
      1        -12.449795   1.000000
      2        -11.937878   1.000000
      3         -8.510330   1.000000
      4         -8.368686   1.000000
      5         -6.018871   1.000000
      6         -5.996744   1.000000
      7         -4.396698   1.000000
      8         -4.231163   1.000000
      9         -3.656984   1.000000
     10         -2.842752   1.000000
     11         -2.357710   1.000000
     12         -2.213408   1.000000
     13         -1.657530   1.000000
     14         -1.475343   1.000000
     15         -0.472561   1.000000
     16         -0.301866   1.000000
     17          0.090308   1.000000
     18          0.119928   1.000000
     19          0.630903   1.000000
     20          1.402032   1.000000
     21          1.485250   1.000000
     22          1.573293   1.000000
     23          5.884378   0.000000
     24          6.017392   0.000000
     25          6.526660   0.000000
     26          6.817236   0.000000
     27          6.889936   0.000000
     28          7.382745   0.000000
     29          8.429785   0.000000
     30          8.613010   0.000000
     31          8.954259   0.000000
     32          9.383607   0.000000
     33         10.086924   0.000000
     34         10.114125   0.000000
     35         10.455615   0.000000
     36         11.244037   0.000000
     37         11.378197   0.000000
     38         11.856983   0.000000
     39         12.311121   0.000000
     40         12.559640   0.000000
     41         12.735693   0.000000
     42         13.474683   0.000000
     43         14.783119   0.000000
     44         14.790312   0.000000
     45         15.172828   0.000000
     46         15.325180   0.000000
     47         15.671364   0.000000
     48         16.409040   0.000000
 
  0.4500000E+00  0.1071429E+00  0.0000000E+00  0.3174603E-02
      1        -12.295364   1.000000
      2        -12.119876   1.000000
      3         -8.443839   1.000000
      4         -8.392203   1.000000
      5         -6.109471   1.000000
      6         -6.104407   1.000000
      7         -4.051743   1.000000
      8         -3.888320   1.000000
      9         -3.847104   1.000000
     10         -3.282996   1.000000
     11         -2.103895   1.000000
     12         -1.909492   1.000000
     13         -1.589377   1.000000
     14         -1.587250   1.000000
     15         -0.693385   1.000000
     16         -0.592771   1.000000
     17          0.122950   1.000000
     18          0.154214   1.000000
     19          0.890495   1.000000
     20          1.205021   1.000000
     21          1.348374   1.000000
     22          1.372604   1.000000
     23          5.935244   0.000000
     24          6.000618   0.000000
     25          6.805899   0.000000
     26          6.856295   0.000000
     27          7.194984   0.000000
     28          7.908385   0.000000
     29          7.954163   0.000000
     30          8.637570   0.000000
     31          8.705996   0.000000
     32          8.819145   0.000000
     33         10.335128   0.000000
     34         10.583186   0.000000
     35         10.819545   0.000000
     36         10.925385   0.000000
     37         11.567116   0.000000
     38         11.676905   0.000000
     39         12.031055   0.000000
     40         12.668259   0.000000
     41         13.039989   0.000000
     42         13.499572   0.000000
     43         14.565922   0.000000
     44         14.750374   0.000000
     45         14.846808   0.000000
     46         15.064196   0.000000
     47         16.146317   0.000000
     48         16.440670   0.000000
 
  0.5000000E-01  0.1785714E+00  0.0000000E+00  0.3174603E-02
      1        -12.657772   1.000000
      2        -11.522816   1.000000
      3         -8.602869   1.000000
      4         -8.353318   1.000000
      5         -5.983824   1.000000
      6         -5.127749   1.000000
      7         -5.001564   1.000000
      8         -4.597742   1.000000
      9         -4.157678   1.000000
     10         -3.904239   1.000000
     11         -3.463775   1.000000
     12         -1.199308   1.000000
     13         -1.076598   1.000000
     14         -0.643476   1.000000
     15         -0.536912   1.000000
     16         -0.169389   1.000000
     17          0.197435   1.000000
     18          0.308108   1.000000
     19          0.729253   1.000000
     20          1.374085   1.000000
     21          1.437971   1.000000
     22          2.315394   0.000000
     23          5.295169   0.000000
     24          5.461270   0.000000
     25          6.133488   0.000000
     26          6.206680   0.000000
     27          7.548103   0.000000
     28          7.636844   0.000000
     29          8.328162   0.000000
     30          8.740336   0.000000
     31          8.896168   0.000000
     32          9.258662   0.000000
     33          9.386246   0.000000
     34         10.894771   0.000000
     35         11.332095   0.000000
     36         11.586753   0.000000
     37         11.712661   0.000000
     38         12.100453   0.000000
     39         12.280999   0.000000
     40         12.760413   0.000000
     41         12.774124   0.000000
     42         13.023039   0.000000
     43         13.237416   0.000000
     44         14.695634   0.000000
     45         15.179057   0.000000
     46         15.362466   0.000000
     47         15.446157   0.000000
     48         15.981081   0.000000
 
  0.1500000E+00  0.1785714E+00  0.0000000E+00  0.3174603E-02
      1        -12.614293   1.000000
      2        -11.596159   1.000000
      3         -8.581368   1.000000
      4         -8.342901   1.000000
      5         -5.910328   1.000000
      6         -5.389899   1.000000
      7         -5.028530   1.000000
      8         -4.726791   1.000000
      9         -3.970557   1.000000
     10         -3.706920   1.000000
     11         -3.124371   1.000000
     12         -1.383959   1.000000
     13         -1.172792   1.000000
     14         -0.750425   1.000000
     15         -0.498863   1.000000
     16         -0.088509   1.000000
     17          0.178474   1.000000
     18          0.251275   1.000000
     19          0.616833   1.000000
     20          1.294884   1.000000
     21          1.368197   1.000000
     22          2.179395   0.000000
     23          5.375388   0.000000
     24          5.807792   0.000000
     25          6.152698   0.000000
     26          6.247724   0.000000
     27          7.467254   0.000000
     28          7.793403   0.000000
     29          8.060399   0.000000
     30          8.830911   0.000000
     31          9.269957   0.000000
     32          9.300395   0.000000
     33          9.671149   0.000000
     34         10.530192   0.000000
     35         10.793054   0.000000
     36         11.290295   0.000000
     37         11.730702   0.000000
     38         12.212281   0.000000
     39         12.445151   0.000000
     40         12.514006   0.000000
     41         13.178132   0.000000
     42         13.286371   0.000000
     43         13.453478   0.000000
     44         14.705225   0.000000
     45         14.840099   0.000000
     46         15.304902   0.000000
     47         15.509896   0.000000
     48         16.005486   0.000000
 
  0.2500000E+00  0.1785714E+00  0.0000000E+00  0.3174603E-02
      1        -12.529190   1.000000
      2        -11.728310   1.000000
      3         -8.537202   1.000000
      4         -8.330230   1.000000
      5         -5.880618   1.000000
      6         -5.709603   1.000000
      7         -4.936806   1.000000
      8         -4.691064   1.000000
      9         -4.094519   1.000000
     10         -3.172421   1.000000
     11         -2.652906   1.000000
     12         -1.881134   1.000000
     13         -1.132058   1.000000
     14         -0.889100   1.000000
     15         -0.445785   1.000000
     16         -0.078584   1.000000
     17          0.019393   1.000000
     18          0.263358   1.000000
     19          0.501584   1.000000
     20          1.163263   1.000000
     21          1.249791   1.000000
     22          1.922571   0.186506
     23          5.696874   0.000000
     24          6.107700   0.000000
     25          6.284710   0.000000
     26          6.377381   0.000000
     27          7.364607   0.000000
     28          7.870823   0.000000
     29          8.027224   0.000000
     30          8.959416   0.000000
     31          9.262495   0.000000
     32          9.734015   0.000000
     33          9.864707   0.000000
     34         10.153102   0.000000
     35         10.267784   0.000000
     36         11.077939   0.000000
     37         11.599875   0.000000
     38         12.119253   0.000000
     39         12.523954   0.000000
     40         12.814636   0.000000
     41         13.061064   0.000000
     42         13.461095   0.000000
     43         13.976055   0.000000
     44         14.613184   0.000000
     45         14.889935   0.000000
     46         15.324028   0.000000
     47         15.529612   0.000000
     48         16.216062   0.000000
 
  0.3500000E+00  0.1785714E+00  0.0000000E+00  0.3174603E-02
      1        -12.406433   1.000000
      2        -11.896631   1.000000
      3         -8.474706   1.000000
      4         -8.329670   1.000000
      5         -5.958132   1.000000
      6         -5.938958   1.000000
      7         -4.800684   1.000000
      8         -4.369908   1.000000
      9         -4.259514   1.000000
     10         -2.803910   1.000000
     11         -2.316513   1.000000
     12         -2.172238   1.000000
     13         -1.075386   1.000000
     14         -1.025820   1.000000
     15         -0.450584   1.000000
     16         -0.364954   1.000000
     17          0.063396   1.000000
     18          0.067681   1.000000
     19          0.648561   1.000000
     20          1.033562   1.000000
     21          1.116921   1.000000
     22          1.587290   1.000000
     23          6.118754   0.000000
     24          6.232736   0.000000
     25          6.409158   0.000000
     26          6.812534   0.000000
     27          7.308296   0.000000
     28          7.791809   0.000000
     29          8.081686   0.000000
     30          9.059026   0.000000
     31          9.116571   0.000000
     32          9.190029   0.000000
     33          9.902759   0.000000
     34         10.201835   0.000000
     35         10.715033   0.000000
     36         11.092237   0.000000
     37         11.343232   0.000000
     38         11.965440   0.000000
     39         12.373745   0.000000
     40         12.999961   0.000000
     41         13.050911   0.000000
     42         13.805910   0.000000
     43         14.399028   0.000000
     44         14.414021   0.000000
     45         15.048281   0.000000
     46         15.141361   0.000000
     47         15.633192   0.000000
     48         16.392905   0.000000
 
  0.4500000E+00  0.1785714E+00  0.0000000E+00  0.3174603E-02
      1        -12.252645   1.000000
      2        -12.077883   1.000000
      3         -8.407554   1.000000
      4         -8.354802   1.000000
      5         -6.049762   1.000000
      6         -6.043664   1.000000
      7         -4.632504   1.000000
      8         -4.446372   1.000000
      9         -3.856950   1.000000
     10         -3.260361   1.000000
     11         -2.034657   1.000000
     12         -1.868766   1.000000
     13         -1.097056   1.000000
     14         -1.034947   1.000000
     15         -0.623171   1.000000
     16         -0.616060   1.000000
     17          0.013583   1.000000
     18          0.057139   1.000000
     19          0.906171   1.000000
     20          0.971296   1.000000
     21          1.012221   1.000000
     22          1.233554   1.000000
     23          6.210340   0.000000
     24          6.328241   0.000000
     25          6.886326   0.000000
     26          7.227048   0.000000
     27          7.285920   0.000000
     28          7.631516   0.000000
     29          7.939124   0.000000
     30          8.451350   0.000000
     31          9.115227   0.000000
     32          9.147544   0.000000
     33         10.026340   0.000000
     34         10.498166   0.000000
     35         10.722778   0.000000
     36         10.991874   0.000000
     37         11.747490   0.000000
     38         11.767172   0.000000
     39         12.152542   0.000000
     40         12.926678   0.000000
     41         13.430625   0.000000
     42         13.778658   0.000000
     43         14.245553   0.000000
     44         14.400232   0.000000
     45         15.009800   0.000000
     46         15.149990   0.000000
     47         16.009276   0.000000
     48         16.313561   0.000000
 
  0.5000000E-01  0.2500000E+00  0.0000000E+00  0.3174603E-02
      1        -12.600224   1.000000
      2        -11.471441   1.000000
      3         -8.558826   1.000000
      4         -8.297986   1.000000
      5         -5.919425   1.000000
      6         -5.608988   1.000000
      7         -4.931124   1.000000
      8         -4.541353   1.000000
      9         -4.424725   1.000000
     10         -4.118297   1.000000
     11         -3.401655   1.000000
     12         -1.216376   1.000000
     13         -1.062393   1.000000
     14         -0.998718   1.000000
     15         -0.188328   1.000000
     16          0.225756   1.000000
     17          0.351638   1.000000
     18          0.601708   1.000000
     19          0.793077   1.000000
     20          0.988595   1.000000
     21          1.002806   1.000000
     22          2.349713   0.000000
     23          4.950880   0.000000
     24          5.167155   0.000000
     25          6.367372   0.000000
     26          6.596771   0.000000
     27          7.277827   0.000000
     28          7.980422   0.000000
     29          8.715683   0.000000
     30          9.070173   0.000000
     31          9.481043   0.000000
     32          9.591955   0.000000
     33          9.667482   0.000000
     34         10.756257   0.000000
     35         11.283297   0.000000
     36         11.979493   0.000000
     37         12.029714   0.000000
     38         12.309939   0.000000
     39         12.437137   0.000000
     40         12.460885   0.000000
     41         12.579141   0.000000
     42         13.008539   0.000000
     43         13.812691   0.000000
     44         13.894736   0.000000
     45         14.435648   0.000000
     46         15.118383   0.000000
     47         15.418322   0.000000
     48         15.881073   0.000000
 
  0.1500000E+00  0.2500000E+00  0.0000000E+00  0.3174603E-02
      1        -12.556988   1.000000
      2        -11.544413   1.000000
      3         -8.536933   1.000000
      4         -8.288530   1.000000
      5         -5.841302   1.000000
      6         -5.574261   1.000000
      7         -5.268777   1.000000
      8         -4.676754   1.000000