<?xml version="1.0" encoding="ISO-8859-1"?>
<modeling>
 <generator>
  <i name="program" type="string">vasp </i>
  <i name="version" type="string">6.4.3  </i>
  <i name="subversion" type="string">19Mar24 (build May 31 2024 16:31:43) complex                          parallel </i>
  <i name="platform" type="string">LinuxIFC </i>
  <i name="date" type="string">2024 11 11 </i>
  <i name="time" type="string">15:58:00 </i>
 </generator>
 <incar>
  <i type="string" name="SYSTEM">Convergence</i>
  <i type="int" name="ISTART">     0</i>
  <i type="string" name="PREC">Accurate</i>
  <i type="string" name="ALGO">Normal</i>
  <i type="int" name="ISPIN">     1</i>
  <i type="int" name="ICHARG">     2</i>
  <i type="int" name="NELM">   100</i>
  <i type="int" name="IBRION">    -1</i>
  <i name="EDIFF">      0.00000100</i>
  <i name="EDIFFG">     -0.00100000</i>
  <i type="int" name="NSW">     0</i>
  <i type="int" name="ISIF">     2</i>
  <i name="ENCUT">    600.00000000</i>
  <i name="POTIM">      0.50000000</i>
  <i type="int" name="ISMEAR">     0</i>
  <i name="SIGMA">      0.05000000</i>
  <i type="logical" name="LWAVE"> F  </i>
  <i type="logical" name="LCHARG"> F  </i>
  <i type="string" name="GGA">PE</i>
 </incar>
 <primitive_cell>
  <structure name="primitive_cell" >
   <crystal>
    <varray name="basis" >
     <v>       5.69472120       0.00000000       0.00000000 </v>
     <v>       0.00000000       4.04628084       0.00000000 </v>
     <v>       0.00000000       0.00000000       6.20171832 </v>
    </varray>
    <i name="volume">    142.90273023 </i>
    <varray name="rec_basis" >
     <v>       0.17560122       0.00000000       0.00000000 </v>
     <v>       0.00000000       0.24714053       0.00000000 </v>
     <v>       0.00000000       0.00000000       0.16124563 </v>
    </varray>
   </crystal>
   <varray name="positions" >
    <v>       0.52123000       0.50000000       0.63796000 </v>
    <v>       0.47877000       0.50000000       0.36204000 </v>
    <v>       0.97877000       0.50000000       0.63796000 </v>
    <v>       0.02123000       0.50000000       0.36204000 </v>
    <v>       0.60090000       0.50000000       0.89991000 </v>
    <v>       0.39910000       0.50000000       0.10009000 </v>
    <v>       0.89910000       0.50000000       0.89991000 </v>
    <v>       0.10090000       0.50000000       0.10009000 </v>
    <v>       0.75000000       0.79171000       0.72973000 </v>
    <v>       0.25000000       0.20829000       0.27027000 </v>
    <v>       0.75000000       0.20829000       0.72973000 </v>
    <v>       0.25000000       0.79171000       0.27027000 </v>
    <v>       0.25000000       0.50000000       0.52367000 </v>
    <v>       0.75000000       0.50000000       0.47633000 </v>
   </varray>
  </structure>
  <varray name="primitive_index" >
   <v type="int" >        1 </v>
   <v type="int" >        2 </v>
   <v type="int" >        3 </v>
   <v type="int" >        4 </v>
   <v type="int" >        5 </v>
   <v type="int" >        6 </v>
   <v type="int" >        7 </v>
   <v type="int" >        8 </v>
   <v type="int" >        9 </v>
   <v type="int" >       10 </v>
   <v type="int" >       11 </v>
   <v type="int" >       12 </v>
   <v type="int" >       13 </v>
   <v type="int" >       14 </v>
  </varray>
 </primitive_cell>
 <kpoints>
  <generation param="Monkhorst-Pack">
   <v type="int" name="divisions">      10       14        9 </v>
   <v name="usershift">      0.00000000       0.00000000       0.00000000 </v>
   <v name="genvec1">      0.10000000       0.00000000       0.00000000 </v>
   <v name="genvec2">      0.00000000       0.07142857       0.00000000 </v>
   <v name="genvec3">      0.00000000       0.00000000       0.11111111 </v>
   <v name="shift">      0.50000000       0.50000000       0.00000000 </v>
  </generation>
  <varray name="kpointlist" >
   <v>       0.05000000       0.03571429       0.00000000 </v>
   <v>       0.15000000       0.03571429       0.00000000 </v>
   <v>       0.25000000       0.03571429       0.00000000 </v>
   <v>       0.35000000       0.03571429       0.00000000 </v>
   <v>       0.45000000       0.03571429       0.00000000 </v>
   <v>       0.05000000       0.10714286       0.00000000 </v>
   <v>       0.15000000       0.10714286       0.00000000 </v>
   <v>       0.25000000       0.10714286       0.00000000 </v>
   <v>       0.35000000       0.10714286       0.00000000 </v>
   <v>       0.45000000       0.10714286       0.00000000 </v>
   <v>       0.05000000       0.17857143       0.00000000 </v>
   <v>       0.15000000       0.17857143       0.00000000 </v>
   <v>       0.25000000       0.17857143       0.00000000 </v>
   <v>       0.35000000       0.17857143       0.00000000 </v>
   <v>       0.45000000       0.17857143       0.00000000 </v>
   <v>       0.05000000       0.25000000       0.00000000 </v>
   <v>       0.15000000       0.25000000       0.00000000 </v>
   <v>       0.25000000       0.25000000       0.00000000 </v>
   <v>       0.35000000       0.25000000       0.00000000 </v>
   <v>       0.45000000       0.25000000       0.00000000 </v>
   <v>       0.05000000       0.32142857       0.00000000 </v>
   <v>       0.15000000       0.32142857       0.00000000 </v>
   <v>       0.25000000       0.32142857       0.00000000 </v>
   <v>       0.35000000       0.32142857       0.00000000 </v>
   <v>       0.45000000       0.32142857       0.00000000 </v>
   <v>       0.05000000       0.39285714       0.00000000 </v>
   <v>       0.15000000       0.39285714       0.00000000 </v>
   <v>       0.25000000       0.39285714       0.00000000 </v>
   <v>       0.35000000       0.39285714       0.00000000 </v>
   <v>       0.45000000       0.39285714       0.00000000 </v>
   <v>       0.05000000       0.46428571       0.00000000 </v>
   <v>       0.15000000       0.46428571       0.00000000 </v>
   <v>       0.25000000       0.46428571       0.00000000 </v>
   <v>       0.35000000       0.46428571       0.00000000 </v>
   <v>       0.45000000       0.46428571       0.00000000 </v>
   <v>       0.05000000       0.03571429       0.11111111 </v>
   <v>       0.15000000       0.03571429       0.11111111 </v>
   <v>       0.25000000       0.03571429       0.11111111 </v>
   <v>       0.35000000       0.03571429       0.11111111 </v>
   <v>       0.45000000       0.03571429       0.11111111 </v>
   <v>       0.05000000       0.10714286       0.11111111 </v>
   <v>       0.15000000       0.10714286       0.11111111 </v>
   <v>       0.25000000       0.10714286       0.11111111 </v>
   <v>       0.35000000       0.10714286       0.11111111 </v>
   <v>       0.45000000       0.10714286       0.11111111 </v>
   <v>       0.05000000       0.17857143       0.11111111 </v>
   <v>       0.15000000       0.17857143       0.11111111 </v>
   <v>       0.25000000       0.17857143       0.11111111 </v>
   <v>       0.35000000       0.17857143       0.11111111 </v>
   <v>       0.45000000       0.17857143       0.11111111 </v>
   <v>       0.05000000       0.25000000       0.11111111 </v>
   <v>       0.15000000       0.25000000       0.11111111 </v>
   <v>       0.25000000       0.25000000       0.11111111 </v>
   <v>       0.35000000       0.25000000       0.11111111 </v>
   <v>       0.45000000       0.25000000       0.11111111 </v>
   <v>       0.05000000       0.32142857       0.11111111 </v>
   <v>       0.15000000       0.32142857       0.11111111 </v>
   <v>       0.25000000       0.32142857       0.11111111 </v>
   <v>       0.35000000       0.32142857       0.11111111 </v>
   <v>       0.45000000       0.32142857       0.11111111 </v>
   <v>       0.05000000       0.39285714       0.11111111 </v>
   <v>       0.15000000       0.39285714       0.11111111 </v>
   <v>       0.25000000       0.39285714       0.11111111 </v>
   <v>       0.35000000       0.39285714       0.11111111 </v>
   <v>       0.45000000       0.39285714       0.11111111 </v>
   <v>       0.05000000       0.46428571       0.11111111 </v>
   <v>       0.15000000       0.46428571       0.11111111 </v>
   <v>       0.25000000       0.46428571       0.11111111 </v>
   <v>       0.35000000       0.46428571       0.11111111 </v>
   <v>       0.45000000       0.46428571       0.11111111 </v>
   <v>       0.05000000       0.03571429       0.22222222 </v>
   <v>       0.15000000       0.03571429       0.22222222 </v>
   <v>       0.25000000       0.03571429       0.22222222 </v>
   <v>       0.35000000       0.03571429       0.22222222 </v>
   <v>       0.45000000       0.03571429       0.22222222 </v>
   <v>       0.05000000       0.10714286       0.22222222 </v>
   <v>       0.15000000       0.10714286       0.22222222 </v>
   <v>       0.25000000       0.10714286       0.22222222 </v>
   <v>       0.35000000       0.10714286       0.22222222 </v>
   <v>       0.45000000       0.10714286       0.22222222 </v>
   <v>       0.05000000       0.17857143       0.22222222 </v>
   <v>       0.15000000       0.17857143       0.22222222 </v>
   <v>       0.25000000       0.17857143       0.22222222 </v>
   <v>       0.35000000       0.17857143       0.22222222 </v>
   <v>       0.45000000       0.17857143       0.22222222 </v>
   <v>       0.05000000       0.25000000       0.22222222 </v>
   <v>       0.15000000       0.25000000       0.22222222 </v>
   <v>       0.25000000       0.25000000       0.22222222 </v>
   <v>       0.35000000       0.25000000       0.22222222 </v>
   <v>       0.45000000       0.25000000       0.22222222 </v>
   <v>       0.05000000       0.32142857       0.22222222 </v>
   <v>       0.15000000       0.32142857       0.22222222 </v>
   <v>       0.25000000       0.32142857       0.22222222 </v>
   <v>       0.35000000       0.32142857       0.22222222 </v>
   <v>       0.45000000       0.32142857       0.22222222 </v>
   <v>       0.05000000       0.39285714       0.22222222 </v>
   <v>       0.15000000       0.39285714       0.22222222 </v>
   <v>       0.25000000       0.39285714       0.22222222 </v>
   <v>       0.35000000       0.39285714       0.22222222 </v>
   <v>       0.45000000       0.39285714       0.22222222 </v>
   <v>       0.05000000       0.46428571       0.22222222 </v>
   <v>       0.15000000       0.46428571       0.22222222 </v>
   <v>       0.25000000       0.46428571       0.22222222 </v>
   <v>       0.35000000       0.46428571       0.22222222 </v>
   <v>       0.45000000       0.46428571       0.22222222 </v>
   <v>       0.05000000       0.03571429       0.33333333 </v>
   <v>       0.15000000       0.03571429       0.33333333 </v>
   <v>       0.25000000       0.03571429       0.33333333 </v>
   <v>       0.35000000       0.03571429       0.33333333 </v>
   <v>       0.45000000       0.03571429       0.33333333 </v>
   <v>       0.05000000       0.10714286       0.33333333 </v>
   <v>       0.15000000       0.10714286       0.33333333 </v>
   <v>       0.25000000       0.10714286       0.33333333 </v>
   <v>       0.35000000       0.10714286       0.33333333 </v>
   <v>       0.45000000       0.10714286       0.33333333 </v>
   <v>       0.05000000       0.17857143       0.33333333 </v>
   <v>       0.15000000       0.17857143       0.33333333 </v>
   <v>       0.25000000       0.17857143       0.33333333 </v>
   <v>       0.35000000       0.17857143       0.33333333 </v>
   <v>       0.45000000       0.17857143       0.33333333 </v>
   <v>       0.05000000       0.25000000       0.33333333 </v>
   <v>       0.15000000       0.25000000       0.33333333 </v>
   <v>       0.25000000       0.25000000       0.33333333 </v>
   <v>       0.35000000       0.25000000       0.33333333 </v>
   <v>       0.45000000       0.25000000       0.33333333 </v>
   <v>       0.05000000       0.32142857       0.33333333 </v>
   <v>       0.15000000       0.32142857       0.33333333 </v>
   <v>       0.25000000       0.32142857       0.33333333 </v>
   <v>       0.35000000       0.32142857       0.33333333 </v>
   <v>       0.45000000       0.32142857       0.33333333 </v>
   <v>       0.05000000       0.39285714       0.33333333 </v>
   <v>       0.15000000       0.39285714       0.33333333 </v>
   <v>       0.25000000       0.39285714       0.33333333 </v>
   <v>       0.35000000       0.39285714       0.33333333 </v>
   <v>       0.45000000       0.39285714       0.33333333 </v>
   <v>       0.05000000       0.46428571       0.33333333 </v>
   <v>       0.15000000       0.46428571       0.33333333 </v>
   <v>       0.25000000       0.46428571       0.33333333 </v>
   <v>       0.35000000       0.46428571       0.33333333 </v>
   <v>       0.45000000       0.46428571       0.33333333 </v>
   <v>       0.05000000       0.03571429       0.44444444 </v>
   <v>       0.15000000       0.03571429       0.44444444 </v>
   <v>       0.25000000       0.03571429       0.44444444 </v>
   <v>       0.35000000       0.03571429       0.44444444 </v>
   <v>       0.45000000       0.03571429       0.44444444 </v>
   <v>       0.05000000       0.10714286       0.44444444 </v>
   <v>       0.15000000       0.10714286       0.44444444 </v>
   <v>       0.25000000       0.10714286       0.44444444 </v>
   <v>       0.35000000       0.10714286       0.44444444 </v>
   <v>       0.45000000       0.10714286       0.44444444 </v>
   <v>       0.05000000       0.17857143       0.44444444 </v>
   <v>       0.15000000       0.17857143       0.44444444 </v>
   <v>       0.25000000       0.17857143       0.44444444 </v>
   <v>       0.35000000       0.17857143       0.44444444 </v>
   <v>       0.45000000       0.17857143       0.44444444 </v>
   <v>       0.05000000       0.25000000       0.44444444 </v>
   <v>       0.15000000       0.25000000       0.44444444 </v>
   <v>       0.25000000       0.25000000       0.44444444 </v>
   <v>       0.35000000       0.25000000       0.44444444 </v>
   <v>       0.45000000       0.25000000       0.44444444 </v>
   <v>       0.05000000       0.32142857       0.44444444 </v>
   <v>       0.15000000       0.32142857       0.44444444 </v>
   <v>       0.25000000       0.32142857       0.44444444 </v>
   <v>       0.35000000       0.32142857       0.44444444 </v>
   <v>       0.45000000       0.32142857       0.44444444 </v>
   <v>       0.05000000       0.39285714       0.44444444 </v>
   <v>       0.15000000       0.39285714       0.44444444 </v>
   <v>       0.25000000       0.39285714       0.44444444 </v>
   <v>       0.35000000       0.39285714       0.44444444 </v>
   <v>       0.45000000       0.39285714       0.44444444 </v>
   <v>       0.05000000       0.46428571       0.44444444 </v>
   <v>       0.15000000       0.46428571       0.44444444 </v>
   <v>       0.25000000       0.46428571       0.44444444 </v>
   <v>       0.35000000       0.46428571       0.44444444 </v>
   <v>       0.45000000       0.46428571       0.44444444 </v>
  </varray>
  <varray name="weights" >
   <v>       0.00317460 </v>
   <v>       0.00317460 </v>
   <v>       0.00317460 </v>
   <v>       0.00317460 </v>
   <v>       0.00317460 </v>
   <v>       0.00317460 </v>
   <v>       0.00317460 </v>
   <v>       0.00317460 </v>
   <v>       0.00317460 </v>
   <v>       0.00317460 </v>
   <v>       0.00317460 </v>
   <v>       0.00317460 </v>
   <v>       0.00317460 </v>
   <v>       0.00317460 </v>
   <v>       0.00317460 </v>
   <v>       0.00317460 </v>
   <v>       0.00317460 </v>
   <v>       0.00317460 </v>
   <v>       0.00317460 </v>
   <v>       0.00317460 </v>
   <v>       0.00317460 </v>
   <v>       0.00317460 </v>
   <v>       0.00317460 </v>
   <v>       0.00317460 </v>
   <v>       0.00317460 </v>
   <v>       0.00317460 </v>
   <v>       0.00317460 </v>
   <v>       0.00317460 </v>
   <v>       0.00317460 </v>
   <v>       0.00317460 </v>
   <v>       0.00317460 </v>
   <v>       0.00317460 </v>
   <v>       0.00317460 </v>
   <v>       0.00317460 </v>
   <v>       0.00317460 </v>
   <v>       0.00634921 </v>
   <v>       0.00634921 </v>
   <v>       0.00634921 </v>
   <v>       0.00634921 </v>
   <v>       0.00634921 </v>
   <v>       0.00634921 </v>
   <v>       0.00634921 </v>
   <v>       0.00634921 </v>
   <v>       0.00634921 </v>
   <v>       0.00634921 </v>
   <v>       0.00634921 </v>
   <v>       0.00634921 </v>
   <v>       0.00634921 </v>
   <v>       0.00634921 </v>
   <v>       0.00634921 </v>
   <v>       0.00634921 </v>
   <v>       0.00634921 </v>
   <v>       0.00634921 </v>
   <v>       0.00634921 </v>
   <v>       0.00634921 </v>
   <v>       0.00634921 </v>
   <v>       0.00634921 </v>
   <v>       0.00634921 </v>
   <v>       0.00634921 </v>
   <v>       0.00634921 </v>
   <v>       0.00634921 </v>
   <v>       0.00634921 </v>
   <v>       0.00634921 </v>
   <v>       0.00634921 </v>
   <v>       0.00634921 </v>
   <v>       0.00634921 </v>
   <v>       0.00634921 </v>
   <v>       0.00634921 </v>
   <v>       0.00634921 </v>
   <v>       0.00634921 </v>
   <v>       0.00634921 </v>
   <v>       0.00634921 </v>
   <v>       0.00634921 </v>
   <v>       0.00634921 </v>
   <v>       0.00634921 </v>
   <v>       0.00634921 </v>
   <v>       0.00634921 </v>
   <v>       0.00634921 </v>
   <v>       0.00634921 </v>
   <v>       0.00634921 </v>
   <v>       0.00634921 </v>
   <v>       0.00634921 </v>
   <v>       0.00634921 </v>
   <v>       0.00634921 </v>
   <v>       0.00634921 </v>
   <v>       0.00634921 </v>
   <v>       0.00634921 </v>
   <v>       0.00634921 </v>
   <v>       0.00634921 </v>
   <v>       0.00634921 </v>
   <v>       0.00634921 </v>
   <v>       0.00634921 </v>
   <v>       0.00634921 </v>
   <v>       0.00634921 </v>
   <v>       0.00634921 </v>
   <v>       0.00634921 </v>
   <v>       0.00634921 </v>
   <v>       0.00634921 </v>
   <v>       0.00634921 </v>
   <v>       0.00634921 </v>
   <v>       0.00634921 </v>
   <v>       0.00634921 </v>
   <v>       0.00634921 </v>
   <v>       0.00634921 </v>
   <v>       0.00634921 </v>
   <v>       0.00634921 </v>
   <v>       0.00634921 </v>
   <v>       0.00634921 </v>
   <v>       0.00634921 </v>
   <v>       0.00634921 </v>
   <v>       0.00634921 </v>
   <v>       0.00634921 </v>
   <v>       0.00634921 </v>
   <v>       0.00634921 </v>
   <v>       0.00634921 </v>
   <v>       0.00634921 </v>
   <v>       0.00634921 </v>
   <v>       0.00634921 </v>
   <v>       0.00634921 </v>
   <v>       0.00634921 </v>
   <v>       0.00634921 </v>
   <v>       0.00634921 </v>
   <v>       0.00634921 </v>
   <v>       0.00634921 </v>
   <v>       0.00634921 </v>
   <v>       0.00634921 </v>
   <v>       0.00634921 </v>
   <v>       0.00634921 </v>
   <v>       0.00634921 </v>
   <v>       0.00634921 </v>
   <v>       0.00634921 </v>
   <v>       0.00634921 </v>
   <v>       0.00634921 </v>
   <v>       0.00634921 </v>
   <v>       0.00634921 </v>
   <v>       0.00634921 </v>
   <v>       0.00634921 </v>
   <v>       0.00634921 </v>
   <v>       0.00634921 </v>
   <v>       0.00634921 </v>
   <v>       0.00634921 </v>
   <v>       0.00634921 </v>
   <v>       0.00634921 </v>
   <v>       0.00634921 </v>
   <v>       0.00634921 </v>
   <v>       0.00634921 </v>
   <v>       0.00634921 </v>
   <v>       0.00634921 </v>
   <v>       0.00634921 </v>
   <v>       0.00634921 </v>
   <v>       0.00634921 </v>
   <v>       0.00634921 </v>
   <v>       0.00634921 </v>
   <v>       0.00634921 </v>
   <v>       0.00634921 </v>
   <v>       0.00634921 </v>
   <v>       0.00634921 </v>
   <v>       0.00634921 </v>
   <v>       0.00634921 </v>
   <v>       0.00634921 </v>
   <v>       0.00634921 </v>
   <v>       0.00634921 </v>
   <v>       0.00634921 </v>
   <v>       0.00634921 </v>
   <v>       0.00634921 </v>
   <v>       0.00634921 </v>
   <v>       0.00634921 </v>
   <v>       0.00634921 </v>
   <v>       0.00634921 </v>
   <v>       0.00634921 </v>
   <v>       0.00634921 </v>
   <v>       0.00634921 </v>
   <v>       0.00634921 </v>
   <v>       0.00634921 </v>
   <v>       0.00634921 </v>
  </varray>
 </kpoints>
 <parameters>
  <separator name="general" >
   <i type="string" name="SYSTEM">Convergence</i>
   <i type="logical" name="LCOMPAT"> F  </i>
  </separator>
  <separator name="electronic" >
   <i type="string" name="PREC">accura</i>
   <i name="ENMAX">    600.00000000</i>
   <i name="ENAUG">    535.51400000</i>
   <i name="EDIFF">      0.00000100</i>
   <i type="int" name="IALGO">    38</i>
   <i type="int" name="IWAVPR">    10</i>
   <i type="int" name="NBANDS">    48</i>
   <i type="int" name="NBANDSLOW">    -1</i>
   <i type="int" name="NBANDSHIGH">    -1</i>
   <i name="NELECT">     42.00000000</i>
   <i type="int" name="TURBO">     0</i>
   <i type="int" name="IRESTART">     0</i>
   <i type="int" name="NREBOOT">     0</i>
   <i type="int" name="NMIN">     0</i>
   <i name="EREF">      0.00000000</i>
   <separator name="electronic smearing" >
    <i type="int" name="ISMEAR">     0</i>
    <i name="SIGMA">      0.05000000</i>
    <i name="KSPACING">      0.50000000</i>
    <i type="logical" name="KGAMMA"> T  </i>
    <i type="logical" name="KBLOWUP"> T  </i>
   </separator>
   <separator name="electronic projectors" >
    <i type="logical" name="LREAL"> F  </i>
    <v name="ROPT">      0.00000000</v>
    <i type="int" name="LMAXPAW">  -100</i>
    <i type="int" name="LMAXMIX">     2</i>
    <i type="logical" name="NLSPLINE"> F  </i>
   </separator>
   <separator name="electronic startup" >
    <i type="int" name="ISTART">     0</i>
    <i type="int" name="ICHARG">     2</i>
    <i type="int" name="INIWAV">     1</i>
   </separator>
   <separator name="electronic spin" >
    <i type="int" name="ISPIN">     1</i>
    <i type="logical" name="LNONCOLLINEAR"> F  </i>
    <v name="MAGMOM">      1.00000000      1.00000000      1.00000000      1.00000000      1.00000000      1.00000000      1.00000000      1.00000000      1.00000000      1.00000000      1.00000000      1.00000000      1.00000000      1.00000000</v>
    <i name="NUPDOWN">     -1.00000000</i>
    <i type="logical" name="LSORBIT"> F  </i>
    <v name="SAXIS">      0.00000000      0.00000000      1.00000000</v>
    <i type="logical" name="LSPIRAL"> F  </i>
    <v name="QSPIRAL">      0.00000000      0.00000000      0.00000000</v>
    <i type="logical" name="LZEROZ"> F  </i>
   </separator>
   <separator name="electronic exchange-correlation" >
    <i type="logical" name="LASPH"> F  </i>
   </separator>
   <separator name="electronic convergence" >
    <i type="int" name="NELM">   100</i>
    <i type="int" name="NELMDL">    -5</i>
    <i type="int" name="NELMIN">     2</i>
    <i name="ENINI">    600.00000000</i>
    <separator name="electronic convergence detail" >
     <i type="logical" name="LDIAG"> T  </i>
     <i type="logical" name="LSUBROT"> F  </i>
     <i name="WEIMIN">      0.00000000</i>
     <i name="EBREAK">      0.00000001</i>
     <i name="DEPER">      0.30000000</i>
     <i type="int" name="NRMM">     4</i>
     <i name="TIME">      0.40000000</i>
    </separator>
   </separator>
   <separator name="electronic mixer" >
    <i name="AMIX">      0.40000000</i>
    <i name="BMIX">      1.00000000</i>
    <i name="AMIN">      0.10000000</i>
    <i name="AMIX_MAG">      1.60000000</i>
    <i name="BMIX_MAG">      1.00000000</i>
    <separator name="electronic mixer details" >
     <i type="int" name="IMIX">     4</i>
     <i type="logical" name="MIXFIRST"> F  </i>
     <i type="int" name="MAXMIX">   -45</i>
     <i name="WC">    100.00000000</i>
     <i type="int" name="INIMIX">     1</i>
     <i type="int" name="MIXPRE">     1</i>
     <i type="int" name="MREMOVE">     5</i>
    </separator>
   </separator>
   <separator name="electronic dipolcorrection" >
    <i type="logical" name="LDIPOL"> F  </i>
    <i type="logical" name="LMONO"> F  </i>
    <i type="int" name="IDIPOL">     0</i>
    <i name="EPSILON">      1.00000000</i>
    <v name="DIPOL">   -100.00000000   -100.00000000   -100.00000000</v>
    <i name="EFIELD">      0.00000000</i>
    <i type="logical" name="LVACPOTAV"> F  </i>
   </separator>
  </separator>
  <separator name="grids" >
   <i type="int" name="NGX">    48</i>
   <i type="int" name="NGY">    32</i>
   <i type="int" name="NGZ">    50</i>
   <i type="int" name="NGXF">    96</i>
   <i type="int" name="NGYF">    64</i>
   <i type="int" name="NGZF">   100</i>
   <i type="logical" name="ADDGRID"> F  </i>
  </separator>
  <separator name="ionic" >
   <i type="int" name="NSW">     0</i>
   <i type="int" name="IBRION">    -1</i>
   <i type="int" name="MDALGO">     0</i>
   <i type="int" name="ISIF">     2</i>
   <i name="PSTRESS">      0.00000000</i>
   <i name="EDIFFG">     -0.00100000</i>
   <i type="int" name="NFREE">     0</i>
   <i name="POTIM">      0.50000000</i>
   <i name="SMASS">     -3.00000000</i>
   <i name="SCALEE">      1.00000000</i>
  </separator>
  <separator name="ionic md" >
   <i name="TEBEG">      0.00010000</i>
   <i name="TEEND">      0.00010000</i>
   <i type="int" name="NBLOCK">     1</i>
   <i type="int" name="KBLOCK">     1</i>
   <i type="int" name="NPACO">   256</i>
   <i name="APACO">     10.00000000</i>
  </separator>
  <separator name="symmetry" >
   <i type="int" name="ISYM">     2</i>
   <i name="SYMPREC">      0.00001000</i>
  </separator>
  <separator name="dos" >
   <i type="int" name="LORBIT">     0</i>
   <v name="RWIGS">     -1.00000000</v>
   <i type="int" name="NEDOS">   301</i>
   <i name="EMIN">     10.00000000</i>
   <i name="EMAX">    -10.00000000</i>
   <i name="EFERMI">      0.00000000</i>
  </separator>
  <separator name="writing" >
   <i type="int" name="NWRITE">     2</i>
   <i type="logical" name="LWAVE"> F  </i>
   <i type="logical" name="LDOWNSAMPLE"> F  </i>
   <i type="logical" name="LCHARG"> F  </i>
   <i type="logical" name="LPARD"> F  </i>
   <i type="logical" name="LVTOT"> F  </i>
   <i type="logical" name="LVHAR"> F  </i>
   <i type="logical" name="LELF"> F  </i>
   <i type="logical" name="LOPTICS"> F  </i>
   <v name="STM">      0.00000000      0.00000000      0.00000000      0.00000000      0.00000000      0.00000000      0.00000000</v>
  </separator>
  <separator name="performance" >
   <i type="int" name="NPAR">    24</i>
   <i type="int" name="NSIM">     4</i>
   <i type="int" name="NBLK">    -1</i>
   <i type="logical" name="LPLANE"> T  </i>
   <i type="logical" name="LSCALAPACK"> T  </i>
   <i type="logical" name="LSCAAWARE"> F  </i>
   <i type="logical" name="LSCALU"> F  </i>
   <i type="logical" name="LASYNC"> F  </i>
   <i type="logical" name="LORBITALREAL"> F  </i>
  </separator>
  <separator name="miscellaneous" >
   <i type="int" name="IDIOT">     3</i>
   <i type="int" name="PHON_NSTRUCT">    -1</i>
   <i type="logical" name="LMUSIC"> F  </i>
   <v name="POMASS">     10.81100000</v>
   <v name="DARWINR">      0.00000000</v>
   <v name="DARWINV">      1.00000000</v>
   <i type="logical" name="LCORR"> T  </i>
  </separator>
  <i type="logical" name="GGA_COMPAT"> T  </i>
  <i type="logical" name="LBERRY"> F  </i>
  <i type="int" name="ICORELEVEL">     0</i>
  <i type="logical" name="LDAU"> F  </i>
  <i type="int" name="I_CONSTRAINED_M">     0</i>
  <separator name="electronic exchange-correlation" >
   <i type="string" name="GGA    ">PE</i>
   <i type="string" name="XC_C">1</i>
   <i type="int" name="VOSKOWN">     0</i>
   <i type="logical" name="LHFCALC"> F  </i>
   <i type="string" name="PRECFOCK"></i>
   <i type="logical" name="LSYMGRAD"> F  </i>
   <i type="logical" name="LHFONE"> F  </i>
   <i type="logical" name="LRHFCALC"> F  </i>
   <i type="logical" name="LTHOMAS"> F  </i>
   <i type="logical" name="LMODELHF"> F  </i>
   <i type="logical" name="LFOCKACE"> F  </i>
   <i name="ENCUT4O">     -1.00000000</i>
   <i type="int" name="EXXOEP">     0</i>
   <i type="int" name="FOURORBIT">     0</i>
   <i name="AEXX">      0.00000000</i>
   <i name="HFALPHA">      0.00000000</i>
   <i name="MCALPHA">      0.00000000</i>
   <i name="ALDAX">      1.00000000</i>
   <i name="AGGAX">      1.00000000</i>
   <i name="AMGGAX">      1.00000000</i>
   <i name="ALDAC">      1.00000000</i>
   <i name="AGGAC">      1.00000000</i>
   <i name="AMGGAC">      1.00000000</i>
   <i type="int" name="NKREDX">     1</i>
   <i type="int" name="NKREDY">     1</i>
   <i type="int" name="NKREDZ">     1</i>
   <i type="logical" name="SHIFTRED"> F  </i>
   <i type="logical" name="ODDONLY"> F  </i>
   <i type="logical" name="EVENONLY"> F  </i>
   <i type="int" name="LMAXFOCK">     0</i>
   <i type="int" name="NMAXFOCKAE">     0</i>
   <i type="logical" name="LFOCKAEDFT"> F  </i>
   <i name="HFSCREEN">      0.00000000</i>
   <i name="HFSCREENC">      0.00000000</i>
   <i type="int" name="NBANDSGWLOW">     0</i>
  </separator>
  <separator name="vdW DFT" >
   <i type="logical" name="LUSE_VDW"> F  </i>
   <i type="int" name="IVDW_NL">    -1</i>
   <i type="logical" name="LSPIN_VDW"> F  </i>
   <i name="ZAB_VDW">     -0.84910000</i>
   <i name="GAMMA_VDW">      1.39626340</i>
   <i name="ALPHA_VDW">      0.00000000</i>
   <i name="PARAM1">      0.12340000</i>
   <i name="PARAM2">      1.00000000</i>
   <i name="BPARAM">      6.30000000</i>
   <i name="CPARAM">      0.00930000</i>
  </separator>
  <separator name="model GW" >
   <i type="int" name="MODEL_GW">     0</i>
   <i name="MODEL_EPS0">      6.12440272</i>
   <i name="MODEL_ALPHA">      1.00000000</i>
  </separator>
  <separator name="linear response parameters" >
   <i type="logical" name="LEPSILON"> F  </i>
   <i type="logical" name="LRPA"> F  </i>
   <i type="logical" name="LNABLA"> F  </i>
   <i type="logical" name="LVEL"> F  </i>
   <i name="CSHIFT">      0.10000000</i>
   <i name="OMEGAMAX">     -1.00000000</i>
   <i name="DEG_THRESHOLD">      0.00200000</i>
   <i name="RTIME">     -0.10000000</i>
   <i name="WPLASMAI">      0.00000000</i>
   <v name="DFIELD">      0.00000000      0.00000000      0.00000000</v>
   <v name="WPLASMA">      0.00000000      0.00000000      0.00000000      0.00000000      0.00000000      0.00000000      0.00000000      0.00000000      0.00000000</v>
  </separator>
  <separator name="orbital magnetization" >
   <i type="logical" name="NUCIND"> F  </i>
   <v name="MAGPOS">      0.00000000      0.00000000      0.00000000</v>
   <i type="logical" name="LNICSALL"> T  </i>
   <i type="logical" name="ORBITALMAG"> F  </i>
   <i type="logical" name="LMAGBLOCH"> F  </i>
   <i type="logical" name="LCHIMAG"> F  </i>
   <i type="logical" name="LGAUGE"> T  </i>
   <i type="int" name="MAGATOM">     0</i>
   <v name="MAGDIPOL">      0.00000000      0.00000000      0.00000000</v>
   <v name="AVECCONST">      0.00000000      0.00000000      0.00000000</v>
  </separator>
  <separator name="response functions" >
   <i type="logical" name="LALL_IN_ONE"> F  </i>
   <i type="int" name="IALL_IN_ONE">    -1</i>
   <i type="int" name="NBANDS_WAVE">    -1</i>
   <i type="logical" name="LFINITE_TEMPERATURE"> F  </i>
   <i type="logical" name="LADDER"> F  </i>
   <i type="logical" name="LRPAFORCE"> F  </i>
   <i type="logical" name="LFXC"> F  </i>
   <i type="logical" name="LHARTREE"> T  </i>
   <i type="int" name="IBSE">     0</i>
   <v type="int" name="KPOINT">    -1     0     0     0</v>
   <i type="logical" name="LTCTC"> F  </i>
   <i type="logical" name="LTCTE"> F  </i>
   <i type="logical" name="LTETE"> F  </i>
   <i type="logical" name="LTRIPLET"> F  </i>
   <i type="logical" name="LFXCEPS"> F  </i>
   <i type="logical" name="LFXHEG"> F  </i>
   <i type="int" name="NATURALO">     2</i>
   <i type="logical" name="LHOLEGF"> F  </i>
   <i type="logical" name="L2ORDER"> F  </i>
   <i type="logical" name="LDMP1"> F  </i>
   <i type="logical" name="LMP2LT"> F  </i>
   <i type="logical" name="LSMP2LT"> F  </i>
   <i type="logical" name="LGWLF"> F  </i>
   <i name="ENCUTGW">     -1.60000002</i>
   <i name="ENCUTGWSOFT">     -1.60000002</i>
   <i name="ENCUTLF">     -1.00000000</i>
   <i type="logical" name="ESF_SPLINES"> F  </i>
   <i name="ESF_CONV">      0.01000000</i>
   <i type="int" name="ESF_NINTER">    15</i>
   <i type="int" name="LMAXMP2">    -1</i>
   <i name="SCISSOR">      0.00000000</i>
   <i type="int" name="NOMEGA">     0</i>
   <i type="int" name="NOMEGAR">     0</i>
   <i type="int" name="NBANDSGW">    -1</i>
   <i type="int" name="NBANDSO">    -1</i>
   <i type="int" name="NBANDSV">    -1</i>
   <i type="int" name="NELMGW">     1</i>
   <i type="int" name="NELMHF">     1</i>
   <i type="int" name="DIM">     3</i>
   <i type="int" name="IESPILON">     4</i>
   <i type="int" name="ANTIRES">     0</i>
   <i name="OMEGAMAX">    -30.00000000</i>
   <i name="OMEGAMIN">    -30.00000000</i>
   <i name="OMEGATL">   -200.00000000</i>
   <i type="int" name="OMEGAGRID">     0</i>
   <i name="CSHIFT">     -0.10000000</i>
   <i type="logical" name="LSELFENERGY"> F  </i>
   <i type="logical" name="LSPECTRAL"> F  </i>
   <i type="logical" name="LSPECTRALGW"> F  </i>
   <i type="logical" name="LSINGLES"> F  </i>
   <i type="logical" name="LFERMIGW"> F  </i>
   <i type="logical" name="ODDONLYGW"> F  </i>
   <i type="logical" name="EVENONLYGW"> F  </i>
   <i type="int" name="NKREDLFX">     1</i>
   <i type="int" name="NKREDLFY">     1</i>
   <i type="int" name="NKREDLFZ">     1</i>
   <i type="int" name="MAXMEM">  2800</i>
   <i type="int" name="TELESCOPE">     0</i>
   <i type="int" name="NTAUPAR">    -1</i>
   <i type="int" name="NOMEGAPAR">    -1</i>
   <i name="DAMP_NEWTON">      0.80000001</i>
   <i name="LAMBDA">      1.00000000</i>
  </separator>
  <separator name="External order field" >
   <i name="OFIELD_KAPPA">      0.00000000</i>
   <v name="OFIELD_K">      0.00000000      0.00000000      0.00000000</v>
   <i name="OFIELD_Q6_NEAR">      0.00000000</i>
   <i name="OFIELD_Q6_FAR">      0.00000000</i>
   <i name="OFIELD_A">      0.00000000</i>
  </separator>
  <separator name="optional k-points parameters" >
   <i type="int" name="KPOINTS_OPT_MODE">     1</i>
   <i type="logical" name="LKPOINTS_OPT"> F  </i>
  </separator>
 </parameters>
 <atominfo>
  <atoms>      14 </atoms>
  <types>       1 </types>
  <array name="atoms" >
   <dimension dim="1">ion</dimension>
   <field type="string">element</field>
   <field type="int">atomtype</field>
   <set>
    <rc><c>B </c><c>   1</c></rc>
    <rc><c>B </c><c>   1</c></rc>
    <rc><c>B </c><c>   1</c></rc>
    <rc><c>B </c><c>   1</c></rc>
    <rc><c>B </c><c>   1</c></rc>
    <rc><c>B </c><c>   1</c></rc>
    <rc><c>B </c><c>   1</c></rc>
    <rc><c>B </c><c>   1</c></rc>
    <rc><c>B </c><c>   1</c></rc>
    <rc><c>B </c><c>   1</c></rc>
    <rc><c>B </c><c>   1</c></rc>
    <rc><c>B </c><c>   1</c></rc>
    <rc><c>B </c><c>   1</c></rc>
    <rc><c>B </c><c>   1</c></rc>
   </set>
  </array>
  <array name="atomtypes" >
   <dimension dim="1">type</dimension>
   <field type="int">atomspertype</field>
   <field type="string">element</field>
   <field>mass</field>
   <field>valence</field>
   <field type="string">pseudopotential</field>
   <set>
    <rc><c>  14</c><c>B </c><c>     10.81100000</c><c>      3.00000000</c><c>  PAW_PBE B 06Sep2000                   </c></rc>
   </set>
  </array>
 </atominfo>
 <structure name="initialpos" >
  <crystal>
   <varray name="basis" >
    <v>       5.69472120       0.00000000       0.00000000 </v>
    <v>       0.00000000       4.04628084       0.00000000 </v>
    <v>       0.00000000       0.00000000       6.20171832 </v>
   </varray>
   <i name="volume">    142.90273023 </i>
   <varray name="rec_basis" >
    <v>       0.17560122       0.00000000       0.00000000 </v>
    <v>       0.00000000       0.24714053       0.00000000 </v>
    <v>       0.00000000       0.00000000       0.16124563 </v>
   </varray>
  </crystal>
  <varray name="positions" >
   <v>       0.52123000       0.50000000       0.63796000 </v>
   <v>       0.47877000       0.50000000       0.36204000 </v>
   <v>       0.97877000       0.50000000       0.63796000 </v>
   <v>       0.02123000       0.50000000       0.36204000 </v>
   <v>       0.60090000       0.50000000       0.89991000 </v>
   <v>       0.39910000       0.50000000       0.10009000 </v>
   <v>       0.89910000       0.50000000       0.89991000 </v>
   <v>       0.10090000       0.50000000       0.10009000 </v>
   <v>       0.75000000       0.79171000       0.72973000 </v>
   <v>       0.25000000       0.20829000       0.27027000 </v>
   <v>       0.75000000       0.20829000       0.72973000 </v>
   <v>       0.25000000       0.79171000       0.27027000 </v>
   <v>       0.25000000       0.50000000       0.52367000 </v>
   <v>       0.75000000       0.50000000       0.47633000 </v>
  </varray>
 </structure>
 <calculation>
  <scstep>
   <time name="dav">    5.45    5.49</time>
   <time name="total">    5.47    5.51</time>
   <energy>
    <i name="alphaZ">     94.35676275 </i>
    <i name="ewald">   -796.08501492 </i>
    <i name="hartreedc">   -271.21637463 </i>
    <i name="XCdc">     97.53144382 </i>
    <i name="pawpsdc">    608.99811708 </i>
    <i name="pawaedc">   -597.02363782 </i>
    <i name="eentropy">     -0.00229020 </i>
    <i name="bandstr">    -52.99430503 </i>
    <i name="atom">    996.37441054 </i>
    <i name="e_fr_energy">     79.93911158 </i>
    <i name="e_wo_entrp">     79.94140178 </i>
    <i name="e_0_energy">     79.94025668 </i>
   </energy>
  </scstep>
  <scstep>
   <time name="dav">    7.12    7.17</time>
   <time name="total">    7.12    7.17</time>
   <energy>
    <i name="e_fr_energy">    -91.78901878 </i>
    <i name="e_wo_entrp">    -91.78597604 </i>
    <i name="e_0_energy">    -91.78749741 </i>
   </energy>
  </scstep>
  <scstep>
   <time name="dav">    7.60    7.66</time>
   <time name="total">    7.60    7.66</time>
   <energy>
    <i name="e_fr_energy">    -97.63049523 </i>
    <i name="e_wo_entrp">    -97.62684778 </i>
    <i name="e_0_energy">    -97.62867150 </i>
   </energy>
  </scstep>
  <scstep>
   <time name="dav">    6.30    6.35</time>
   <time name="total">    6.30    6.35</time>
   <energy>
    <i name="e_fr_energy">    -97.66475416 </i>
    <i name="e_wo_entrp">    -97.66110086 </i>
    <i name="e_0_energy">    -97.66292751 </i>
   </energy>
  </scstep>
  <scstep>
   <time name="dav">    7.59    7.66</time>
   <time name="total">    7.68    7.75</time>
   <energy>
    <i name="e_fr_energy">    -97.66513312 </i>
    <i name="e_wo_entrp">    -97.66147972 </i>
    <i name="e_0_energy">    -97.66330642 </i>
   </energy>
  </scstep>
  <scstep>
   <time name="dav">    7.49    7.57</time>
   <time name="total">    7.59    7.67</time>
   <energy>
    <i name="e_fr_energy">    -92.23170531 </i>
    <i name="e_wo_entrp">    -92.22827808 </i>
    <i name="e_0_energy">    -92.22999170 </i>
   </energy>
  </scstep>
  <scstep>
   <time name="dav">    7.79    7.85</time>
   <time name="total">    7.89    7.95</time>
   <energy>
    <i name="e_fr_energy">    -90.57548892 </i>
    <i name="e_wo_entrp">    -90.57235703 </i>
    <i name="e_0_energy">    -90.57392298 </i>
   </energy>
  </scstep>
  <scstep>
   <time name="dav">    5.93    5.98</time>
   <time name="total">    6.03    6.08</time>
   <energy>
    <i name="e_fr_energy">    -90.58785731 </i>
    <i name="e_wo_entrp">    -90.58468069 </i>
    <i name="e_0_energy">    -90.58626900 </i>
   </energy>
  </scstep>
  <scstep>
   <time name="dav">    7.30    7.35</time>
   <time name="total">    7.40    7.46</time>
   <energy>
    <i name="e_fr_energy">    -90.60201926 </i>
    <i name="e_wo_entrp">    -90.59875591 </i>
    <i name="e_0_energy">    -90.60038759 </i>
   </energy>
  </scstep>
  <scstep>
   <time name="dav">    6.02    6.07</time>
   <time name="total">    6.13    6.17</time>
   <energy>
    <i name="e_fr_energy">    -90.60606870 </i>
    <i name="e_wo_entrp">    -90.60285167 </i>
    <i name="e_0_energy">    -90.60446019 </i>
   </energy>
  </scstep>
  <scstep>
   <time name="dav">    6.80    6.86</time>
   <time name="total">    6.90    6.96</time>
   <energy>
    <i name="e_fr_energy">    -90.60713468 </i>
    <i name="e_wo_entrp">    -90.60392849 </i>
    <i name="e_0_energy">    -90.60553158 </i>
   </energy>
  </scstep>
  <scstep>
   <time name="dav">    6.49    6.54</time>
   <time name="total">    6.60    6.65</time>
   <energy>
    <i name="e_fr_energy">    -90.60725083 </i>
    <i name="e_wo_entrp">    -90.60403842 </i>
    <i name="e_0_energy">    -90.60564462 </i>
   </energy>
  </scstep>
  <scstep>
   <time name="dav">    7.28    7.33</time>
   <time name="total">    7.38    7.44</time>
   <energy>
    <i name="e_fr_energy">    -90.60725569 </i>
    <i name="e_wo_entrp">    -90.60404297 </i>
    <i name="e_0_energy">    -90.60564933 </i>
   </energy>
  </scstep>
  <scstep>
   <time name="dav">    6.47    6.52</time>
   <time name="total">    6.49    6.54</time>
   <energy>
    <i name="alphaZ">     94.35676275 </i>
    <i name="ewald">   -796.08501492 </i>
    <i name="hartreedc">   -349.10196910 </i>
    <i name="XCdc">    101.63134765 </i>
    <i name="pawpsdc">   3746.53166005 </i>
    <i name="pawaedc">  -3735.72259258 </i>
    <i name="eentropy">     -0.00321283 </i>
    <i name="bandstr">   -148.58864793 </i>
    <i name="atom">    996.37441054 </i>
    <i name="e_fr_energy">    -90.60725637 </i>
    <i name="e_wo_entrp">    -90.60404355 </i>
    <i name="e_0_energy">    -90.60564996 </i>
   </energy>
  </scstep>
  <structure>
   <crystal>
    <varray name="basis" >
     <v>       5.69472120       0.00000000       0.00000000 </v>
     <v>       0.00000000       4.04628084       0.00000000 </v>
     <v>       0.00000000       0.00000000       6.20171832 </v>
    </varray>
    <i name="volume">    142.90273023 </i>
    <varray name="rec_basis" >
     <v>       0.17560122       0.00000000       0.00000000 </v>
     <v>       0.00000000       0.24714053       0.00000000 </v>
     <v>       0.00000000       0.00000000       0.16124563 </v>
    </varray>
   </crystal>
   <varray name="positions" >
    <v>       0.52123000       0.50000000       0.63796000 </v>
    <v>       0.47877000       0.50000000       0.36204000 </v>
    <v>       0.97877000       0.50000000       0.63796000 </v>
    <v>       0.02123000       0.50000000       0.36204000 </v>
    <v>       0.60090000       0.50000000       0.89991000 </v>
    <v>       0.39910000       0.50000000       0.10009000 </v>
    <v>       0.89910000       0.50000000       0.89991000 </v>
    <v>       0.10090000       0.50000000       0.10009000 </v>
    <v>       0.75000000       0.79171000       0.72973000 </v>
    <v>       0.25000000       0.20829000       0.27027000 </v>
    <v>       0.75000000       0.20829000       0.72973000 </v>
    <v>       0.25000000       0.79171000       0.27027000 </v>
    <v>       0.25000000       0.50000000       0.52367000 </v>
    <v>       0.75000000       0.50000000       0.47633000 </v>
   </varray>
  </structure>
  <varray name="forces" >
   <v>      -0.01054938       0.00000000       0.05354287 </v>
   <v>       0.01054938       0.00000000      -0.05354287 </v>
   <v>       0.01054938       0.00000000       0.05354287 </v>
   <v>      -0.01054938       0.00000000      -0.05354287 </v>
   <v>      -0.83712479       0.00000000       0.28346808 </v>
   <v>       0.83712479       0.00000000      -0.28346808 </v>
   <v>       0.83712479       0.00000000       0.28346808 </v>
   <v>      -0.83712479       0.00000000      -0.28346808 </v>
   <v>      -0.00000000       0.06233027      -0.07926482 </v>
   <v>      -0.00000000      -0.06233027       0.07926482 </v>
   <v>      -0.00000000      -0.06233027      -0.07926482 </v>
   <v>      -0.00000000       0.06233027       0.07926482 </v>
   <v>      -0.00000000       0.00000000       0.07844809 </v>
   <v>      -0.00000000       0.00000000      -0.07844809 </v>
  </varray>
  <varray name="stress" >
   <v>      16.43063261       0.00000000       0.00000000 </v>
   <v>       0.00000000       1.87432003       0.00000000 </v>
   <v>       0.00000000       0.00000000      -4.99578406 </v>
  </varray>
  <energy>
   <i name="e_fr_energy">    -90.60725637 </i>
   <i name="e_wo_entrp">    -90.60404355 </i>
   <i name="e_0_energy">    -90.60564996 </i>
  </energy>
  <time name="totalsc">  101.36  102.20</time>
  <eigenvalues>
   <array>
    <dimension dim="1">band</dimension>
    <dimension dim="2">kpoint</dimension>
    <dimension dim="3">spin</dimension>
    <field>eigene</field>
    <field>occ</field>
    <set>
     <set comment="spin 1">
      <set comment="kpoint 1">
       <r>  -12.7262    1.0000 </r>
       <r>  -11.5842    1.0000 </r>
       <r>   -8.6562    1.0000 </r>
       <r>   -8.4193    1.0000 </r>
       <r>   -6.0603    1.0000 </r>
       <r>   -5.1264    1.0000 </r>
       <r>   -4.6618    1.0000 </r>
       <r>   -4.2726    1.0000 </r>
       <r>   -4.0297    1.0000 </r>
       <r>   -3.5400    1.0000 </r>
       <r>   -2.5882    1.0000 </r>
       <r>   -2.3190    1.0000 </r>
       <r>   -1.8276    1.0000 </r>
       <r>   -1.0905    1.0000 </r>
       <r>   -0.0649    1.0000 </r>
       <r>   -0.0348    1.0000 </r>
       <r>    0.1627    1.0000 </r>
       <r>    0.1847    1.0000 </r>
       <r>    0.5722    1.0000 </r>
       <r>    2.0255    0.0001 </r>
       <r>    2.0888    0.0000 </r>
       <r>    2.2249    0.0000 </r>
       <r>    5.4673    0.0000 </r>
       <r>    5.7587    0.0000 </r>
       <r>    5.8484    0.0000 </r>
       <r>    5.9687    0.0000 </r>
       <r>    6.8252    0.0000 </r>
       <r>    7.5592    0.0000 </r>
       <r>    7.8891    0.0000 </r>
       <r>    8.5493    0.0000 </r>
       <r>    8.8185    0.0000 </r>
       <r>    8.9641    0.0000 </r>
       <r>    9.0704    0.0000 </r>
       <r>   10.1348    0.0000 </r>
       <r>   11.1947    0.0000 </r>
       <r>   11.3498    0.0000 </r>
       <r>   11.6807    0.0000 </r>
       <r>   11.7965    0.0000 </r>
       <r>   11.9541    0.0000 </r>
       <r>   12.4155    0.0000 </r>
       <r>   12.8848    0.0000 </r>
       <r>   13.4691    0.0000 </r>
       <r>   13.4963    0.0000 </r>
       <r>   15.4021    0.0000 </r>
       <r>   15.5899    0.0000 </r>
       <r>   16.0817    0.0000 </r>
       <r>   16.3510    0.0000 </r>
       <r>   16.3749    0.0000 </r>
      </set>
      <set comment="kpoint 2">
       <r>  -12.6825    1.0000 </r>
       <r>  -11.6579    1.0000 </r>
       <r>   -8.6351    1.0000 </r>
       <r>   -8.4078    1.0000 </r>
       <r>   -5.9920    1.0000 </r>
       <r>   -5.4680    1.0000 </r>
       <r>   -4.7847    1.0000 </r>
       <r>   -4.0066    1.0000 </r>
       <r>   -3.7888    1.0000 </r>
       <r>   -3.2020    1.0000 </r>
       <r>   -2.6585    1.0000 </r>
       <r>   -2.2988    1.0000 </r>
       <r>   -1.9066    1.0000 </r>
       <r>   -1.3976    1.0000 </r>
       <r>   -0.0245    1.0000 </r>
       <r>   -0.0122    1.0000 </r>
       <r>    0.0997    1.0000 </r>
       <r>    0.2047    1.0000 </r>
       <r>    0.4771    1.0000 </r>
       <r>    1.9392    0.0866 </r>
       <r>    2.0108    0.0004 </r>
       <r>    2.1036    0.0000 </r>
       <r>    5.5559    0.0000 </r>
       <r>    5.7679    0.0000 </r>
       <r>    5.8753    0.0000 </r>
       <r>    6.3148    0.0000 </r>
       <r>    6.7395    0.0000 </r>
       <r>    7.1971    0.0000 </r>
       <r>    8.1000    0.0000 </r>
       <r>    8.6856    0.0000 </r>
       <r>    9.0767    0.0000 </r>
       <r>    9.1472    0.0000 </r>
       <r>    9.2184    0.0000 </r>
       <r>   10.2492    0.0000 </r>
       <r>   10.9570    0.0000 </r>
       <r>   11.1458    0.0000 </r>
       <r>   11.2679    0.0000 </r>
       <r>   11.7134    0.0000 </r>
       <r>   12.1714    0.0000 </r>
       <r>   12.5054    0.0000 </r>
       <r>   13.1381    0.0000 </r>
       <r>   13.1443    0.0000 </r>
       <r>   14.0286    0.0000 </r>
       <r>   14.8896    0.0000 </r>
       <r>   15.7684    0.0000 </r>
       <r>   15.8464    0.0000 </r>
       <r>   16.2460    0.0000 </r>
       <r>   16.5325    0.0000 </r>
      </set>
      <set comment="kpoint 3">
       <r>  -12.5968    1.0000 </r>
       <r>  -11.7909    1.0000 </r>
       <r>   -8.5916    1.0000 </r>
       <r>   -8.3931    1.0000 </r>
       <r>   -5.9704    1.0000 </r>
       <r>   -5.7949    1.0000 </r>
       <r>   -4.7389    1.0000 </r>
       <r>   -3.8788    1.0000 </r>
       <r>   -3.2776    1.0000 </r>
       <r>   -2.8276    1.0000 </r>
       <r>   -2.7092    1.0000 </r>
       <r>   -2.2582    1.0000 </r>
       <r>   -2.0176    1.0000 </r>
       <r>   -1.9021    1.0000 </r>
       <r>   -0.2122    1.0000 </r>
       <r>    0.0197    1.0000 </r>
       <r>    0.1499    1.0000 </r>
       <r>    0.1624    1.0000 </r>
       <r>    0.4469    1.0000 </r>
       <r>    1.7916    0.9975 </r>
       <r>    1.8735    0.6901 </r>
       <r>    1.8779    0.6453 </r>
       <r>    5.6767    0.0000 </r>
       <r>    5.7245    0.0000 </r>
       <r>    6.1844    0.0000 </r>
       <r>    6.6133    0.0000 </r>
       <r>    6.7738    0.0000 </r>
       <r>    6.9423    0.0000 </r>
       <r>    8.2515    0.0000 </r>
       <r>    8.8339    0.0000 </r>
       <r>    9.0163    0.0000 </r>
       <r>    9.5912    0.0000 </r>
       <r>    9.6621    0.0000 </r>
       <r>   10.2950    0.0000 </r>
       <r>   10.5011    0.0000 </r>
       <r>   10.6413    0.0000 </r>
       <r>   11.3889    0.0000 </r>
       <r>   11.8551    0.0000 </r>
       <r>   12.4065    0.0000 </r>
       <r>   12.5828    0.0000 </r>
       <r>   12.8067    0.0000 </r>
       <r>   12.9358    0.0000 </r>
       <r>   14.6548    0.0000 </r>
       <r>   14.9371    0.0000 </r>
       <r>   15.2420    0.0000 </r>
       <r>   16.0021    0.0000 </r>
       <r>   16.0206    0.0000 </r>
       <r>   16.3113    0.0000 </r>
      </set>
      <set comment="kpoint 4">
       <r>  -12.4733    1.0000 </r>
       <r>  -11.9602    1.0000 </r>
       <r>   -8.5298    1.0000 </r>
       <r>   -8.3899    1.0000 </r>
       <r>   -6.0515    1.0000 </r>
       <r>   -6.0281    1.0000 </r>
       <r>   -4.4112    1.0000 </r>
       <r>   -3.7096    1.0000 </r>
       <r>   -3.0220    1.0000 </r>
       <r>   -2.8927    1.0000 </r>
       <r>   -2.4395    1.0000 </r>
       <r>   -2.2475    1.0000 </r>
       <r>   -2.1394    1.0000 </r>
       <r>   -2.1191    1.0000 </r>
       <r>   -0.5113    1.0000 </r>
       <r>   -0.2383    1.0000 </r>
       <r>    0.1781    1.0000 </r>
       <r>    0.2537    1.0000 </r>
       <r>    0.6202    1.0000 </r>
       <r>    1.5377    1.0000 </r>
       <r>    1.6685    1.0000 </r>
       <r>    1.7294    1.0000 </r>
       <r>    5.7090    0.0000 </r>
       <r>    5.7621    0.0000 </r>
       <r>    6.5117    0.0000 </r>
       <r>    6.6829    0.0000 </r>
       <r>    6.7090    0.0000 </r>
       <r>    7.4244    0.0000 </r>
       <r>    8.3763    0.0000 </r>
       <r>    8.7017    0.0000 </r>
       <r>    8.8241    0.0000 </r>
       <r>    9.5486    0.0000 </r>
       <r>   10.0717    0.0000 </r>
       <r>   10.1325    0.0000 </r>
       <r>   10.4140    0.0000 </r>
       <r>   11.1666    0.0000 </r>
       <r>   11.4181    0.0000 </r>
       <r>   11.9628    0.0000 </r>
       <r>   12.2195    0.0000 </r>
       <r>   12.2921    0.0000 </r>
       <r>   12.5353    0.0000 </r>
       <r>   13.2718    0.0000 </r>
       <r>   14.7287    0.0000 </r>
       <r>   14.9942    0.0000 </r>
       <r>   15.2838    0.0000 </r>
       <r>   15.3925    0.0000 </r>
       <r>   15.5918    0.0000 </r>
       <r>   16.3962    0.0000 </r>
      </set>
      <set comment="kpoint 5">
       <r>  -12.3185    1.0000 </r>
       <r>  -12.1426    1.0000 </r>
       <r>   -8.4636    1.0000 </r>
       <r>   -8.4126    1.0000 </r>
       <r>   -6.1416    1.0000 </r>
       <r>   -6.1370    1.0000 </r>
       <r>   -3.8956    1.0000 </r>
       <r>   -3.5000    1.0000 </r>
       <r>   -3.2959    1.0000 </r>
       <r>   -3.2615    1.0000 </r>
       <r>   -2.3576    1.0000 </r>
       <r>   -2.2284    1.0000 </r>
       <r>   -1.9554    1.0000 </r>
       <r>   -1.9030    1.0000 </r>
       <r>   -0.7318    1.0000 </r>
       <r>   -0.5965    1.0000 </r>
       <r>    0.2614    1.0000 </r>
       <r>    0.2951    1.0000 </r>
       <r>    0.8811    1.0000 </r>
       <r>    1.1987    1.0000 </r>
       <r>    1.5879    1.0000 </r>
       <r>    1.6154    1.0000 </r>
       <r>    5.7368    0.0000 </r>
       <r>    5.7738    0.0000 </r>
       <r>    6.4899    0.0000 </r>
       <r>    6.5537    0.0000 </r>
       <r>    7.3788    0.0000 </r>
       <r>    8.0861    0.0000 </r>
       <r>    8.1072    0.0000 </r>
       <r>    8.4945    0.0000 </r>
       <r>    8.6336    0.0000 </r>
       <r>    8.8025    0.0000 </r>
       <r>   10.5155    0.0000 </r>
       <r>   10.5325    0.0000 </r>
       <r>   10.7770    0.0000 </r>
       <r>   11.2353    0.0000 </r>
       <r>   11.4200    0.0000 </r>
       <r>   11.6175    0.0000 </r>
       <r>   11.9515    0.0000 </r>
       <r>   12.4985    0.0000 </r>
       <r>   12.7309    0.0000 </r>
       <r>   13.2677    0.0000 </r>
       <r>   14.6060    0.0000 </r>
       <r>   14.7533    0.0000 </r>
       <r>   14.8858    0.0000 </r>
       <r>   14.9444    0.0000 </r>
       <r>   16.1223    0.0000 </r>
       <r>   16.4666    0.0000 </r>
      </set>
      <set comment="kpoint 6">
       <r>  -12.7022    1.0000 </r>
       <r>  -11.5626    1.0000 </r>
       <r>   -8.6373    1.0000 </r>
       <r>   -8.3961    1.0000 </r>
       <r>   -6.0334    1.0000 </r>
       <r>   -5.0927    1.0000 </r>
       <r>   -4.6396    1.0000 </r>
       <r>   -4.5707    1.0000 </r>
       <r>   -4.1737    1.0000 </r>
       <r>   -3.5171    1.0000 </r>
       <r>   -3.2818    1.0000 </r>
       <r>   -1.7881    1.0000 </r>
       <r>   -1.0860    1.0000 </r>
       <r>   -1.0284    1.0000 </r>
       <r>   -0.2989    1.0000 </r>
       <r>   -0.2709    1.0000 </r>
       <r>    0.1762    1.0000 </r>
       <r>    0.2550    1.0000 </r>
       <r>    0.6507    1.0000 </r>
       <r>    1.7574    0.9999 </r>
       <r>    1.8376    0.9349 </r>
       <r>    2.2772    0.0000 </r>
       <r>    5.5852    0.0000 </r>
       <r>    5.7177    0.0000 </r>
       <r>    5.7508    0.0000 </r>
       <r>    6.0178    0.0000 </r>
       <r>    7.1117    0.0000 </r>
       <r>    7.8449    0.0000 </r>
       <r>    8.0899    0.0000 </r>
       <r>    8.1998    0.0000 </r>
       <r>    8.8224    0.0000 </r>
       <r>    9.1162    0.0000 </r>
       <r>    9.1665    0.0000 </r>
       <r>   10.5880    0.0000 </r>
       <r>   11.2809    0.0000 </r>
       <r>   11.4105    0.0000 </r>
       <r>   11.6145    0.0000 </r>
       <r>   11.8995    0.0000 </r>
       <r>   12.0647    0.0000 </r>
       <r>   12.6963    0.0000 </r>
       <r>   12.8847    0.0000 </r>
       <r>   13.2051    0.0000 </r>
       <r>   13.2118    0.0000 </r>
       <r>   15.3504    0.0000 </r>
       <r>   15.4009    0.0000 </r>
       <r>   15.8766    0.0000 </r>
       <r>   15.8898    0.0000 </r>
       <r>   16.2399    0.0000 </r>
      </set>
      <set comment="kpoint 7">
       <r>  -12.6585    1.0000 </r>
       <r>  -11.6362    1.0000 </r>
       <r>   -8.6161    1.0000 </r>
       <r>   -8.3850    1.0000 </r>
       <r>   -5.9634    1.0000 </r>
       <r>   -5.4379    1.0000 </r>
       <r>   -4.7646    1.0000 </r>
       <r>   -4.4874    1.0000 </r>
       <r>   -3.7492    1.0000 </r>
       <r>   -3.3628    1.0000 </r>
       <r>   -3.1638    1.0000 </r>
       <r>   -1.7664    1.0000 </r>
       <r>   -1.3922    1.0000 </r>
       <r>   -1.1481    1.0000 </r>
       <r>   -0.2598    1.0000 </r>
       <r>   -0.1895    1.0000 </r>
       <r>    0.1439    1.0000 </r>
       <r>    0.2261    1.0000 </r>
       <r>    0.5480    1.0000 </r>
       <r>    1.6768    1.0000 </r>
       <r>    1.7610    0.9999 </r>
       <r>    2.1462    0.0000 </r>
       <r>    5.6609    0.0000 </r>
       <r>    5.8162    0.0000 </r>
       <r>    5.9459    0.0000 </r>
       <r>    6.1215    0.0000 </r>
       <r>    7.0281    0.0000 </r>
       <r>    7.5196    0.0000 </r>
       <r>    8.2357    0.0000 </r>
       <r>    8.3712    0.0000 </r>
       <r>    9.1479    0.0000 </r>
       <r>    9.1761    0.0000 </r>
       <r>    9.4310    0.0000 </r>
       <r>   10.5141    0.0000 </r>
       <r>   10.8879    0.0000 </r>
       <r>   11.0982    0.0000 </r>
       <r>   11.4652    0.0000 </r>
       <r>   11.8863    0.0000 </r>
       <r>   12.2845    0.0000 </r>
       <r>   12.7525    0.0000 </r>
       <r>   12.8824    0.0000 </r>
       <r>   13.1684    0.0000 </r>
       <r>   13.7454    0.0000 </r>
       <r>   14.9749    0.0000 </r>
       <r>   15.4173    0.0000 </r>
       <r>   15.7675    0.0000 </r>
       <r>   15.8154    0.0000 </r>
       <r>   16.4200    0.0000 </r>
      </set>
      <set comment="kpoint 8">
       <r>  -12.5731    1.0000 </r>
       <r>  -11.7689    1.0000 </r>
       <r>   -8.5724    1.0000 </r>
       <r>   -8.3710    1.0000 </r>
       <r>   -5.9391    1.0000 </r>
       <r>   -5.7645    1.0000 </r>
       <r>   -4.7222    1.0000 </r>
       <r>   -4.3786    1.0000 </r>
       <r>   -3.4850    1.0000 </r>
       <r>   -3.2229    1.0000 </r>
       <r>   -2.6969    1.0000 </r>
       <r>   -1.8976    1.0000 </r>
       <r>   -1.7220    1.0000 </r>
       <r>   -1.3118    1.0000 </r>
       <r>   -0.2146    1.0000 </r>
       <r>   -0.2124    1.0000 </r>
       <r>    0.0581    1.0000 </r>
       <r>    0.2133    1.0000 </r>
       <r>    0.4715    1.0000 </r>
       <r>    1.5417    1.0000 </r>
       <r>    1.6308    1.0000 </r>
       <r>    1.8977    0.4260 </r>
       <r>    5.8662    0.0000 </r>
       <r>    5.9437    0.0000 </r>
       <r>    6.0212    0.0000 </r>
       <r>    6.5708    0.0000 </r>
       <r>    6.9071    0.0000 </r>
       <r>    7.2914    0.0000 </r>
       <r>    8.4418    0.0000 </r>
       <r>    8.5048    0.0000 </r>
       <r>    9.1171    0.0000 </r>
       <r>    9.6287    0.0000 </r>
       <r>    9.8881    0.0000 </r>
       <r>   10.1385    0.0000 </r>
       <r>   10.3679    0.0000 </r>
       <r>   10.8391    0.0000 </r>
       <r>   11.5317    0.0000 </r>
       <r>   12.1206    0.0000 </r>
       <r>   12.3244    0.0000 </r>
       <r>   12.5687    0.0000 </r>
       <r>   12.9754    0.0000 </r>
       <r>   13.0372    0.0000 </r>
       <r>   14.3227    0.0000 </r>
       <r>   15.1058    0.0000 </r>
       <r>   15.1799    0.0000 </r>
       <r>   15.6643    0.0000 </r>
       <r>   15.7267    0.0000 </r>
       <r>   16.4401    0.0000 </r>
      </set>
      <set comment="kpoint 9">
       <r>  -12.4498    1.0000 </r>
       <r>  -11.9379    1.0000 </r>
       <r>   -8.5103    1.0000 </r>
       <r>   -8.3687    1.0000 </r>
       <r>   -6.0189    1.0000 </r>
       <r>   -5.9967    1.0000 </r>
       <r>   -4.3967    1.0000 </r>
       <r>   -4.2312    1.0000 </r>
       <r>   -3.6570    1.0000 </r>
       <r>   -2.8428    1.0000 </r>
       <r>   -2.3577    1.0000 </r>
       <r>   -2.2134    1.0000 </r>
       <r>   -1.6575    1.0000 </r>
       <r>   -1.4753    1.0000 </r>
       <r>   -0.4726    1.0000 </r>
       <r>   -0.3019    1.0000 </r>
       <r>    0.0903    1.0000 </r>
       <r>    0.1199    1.0000 </r>
       <r>    0.6309    1.0000 </r>
       <r>    1.4020    1.0000 </r>
       <r>    1.4852    1.0000 </r>
       <r>    1.5733    1.0000 </r>
       <r>    5.8844    0.0000 </r>
       <r>    6.0174    0.0000 </r>
       <r>    6.5267    0.0000 </r>
       <r>    6.8172    0.0000 </r>
       <r>    6.8899    0.0000 </r>
       <r>    7.3827    0.0000 </r>
       <r>    8.4298    0.0000 </r>
       <r>    8.6130    0.0000 </r>
       <r>    8.9543    0.0000 </r>
       <r>    9.3836    0.0000 </r>
       <r>   10.0869    0.0000 </r>
       <r>   10.1141    0.0000 </r>
       <r>   10.4556    0.0000 </r>
       <r>   11.2440    0.0000 </r>
       <r>   11.3782    0.0000 </r>
       <r>   11.8570    0.0000 </r>
       <r>   12.3111    0.0000 </r>
       <r>   12.5596    0.0000 </r>
       <r>   12.7357    0.0000 </r>
       <r>   13.4747    0.0000 </r>
       <r>   14.7831    0.0000 </r>
       <r>   14.7903    0.0000 </r>
       <r>   15.1728    0.0000 </r>
       <r>   15.3252    0.0000 </r>
       <r>   15.6714    0.0000 </r>
       <r>   16.4090    0.0000 </r>
      </set>
      <set comment="kpoint 10">
       <r>  -12.2954    1.0000 </r>
       <r>  -12.1199    1.0000 </r>
       <r>   -8.4438    1.0000 </r>
       <r>   -8.3922    1.0000 </r>
       <r>   -6.1095    1.0000 </r>
       <r>   -6.1044    1.0000 </r>
       <r>   -4.0517    1.0000 </r>
       <r>   -3.8883    1.0000 </r>
       <r>   -3.8471    1.0000 </r>
       <r>   -3.2830    1.0000 </r>
       <r>   -2.1039    1.0000 </r>
       <r>   -1.9095    1.0000 </r>
       <r>   -1.5894    1.0000 </r>
       <r>   -1.5873    1.0000 </r>
       <r>   -0.6934    1.0000 </r>
       <r>   -0.5928    1.0000 </r>
       <r>    0.1230    1.0000 </r>
       <r>    0.1542    1.0000 </r>
       <r>    0.8905    1.0000 </r>
       <r>    1.2050    1.0000 </r>
       <r>    1.3484    1.0000 </r>
       <r>    1.3726    1.0000 </r>
       <r>    5.9352    0.0000 </r>
       <r>    6.0006    0.0000 </r>
       <r>    6.8059    0.0000 </r>
       <r>    6.8563    0.0000 </r>
       <r>    7.1950    0.0000 </r>
       <r>    7.9084    0.0000 </r>
       <r>    7.9542    0.0000 </r>
       <r>    8.6376    0.0000 </r>
       <r>    8.7060    0.0000 </r>
       <r>    8.8191    0.0000 </r>
       <r>   10.3351    0.0000 </r>
       <r>   10.5832    0.0000 </r>
       <r>   10.8195    0.0000 </r>
       <r>   10.9254    0.0000 </r>
       <r>   11.5671    0.0000 </r>
       <r>   11.6769    0.0000 </r>
       <r>   12.0311    0.0000 </r>
       <r>   12.6683    0.0000 </r>
       <r>   13.0400    0.0000 </r>
       <r>   13.4996    0.0000 </r>
       <r>   14.5659    0.0000 </r>
       <r>   14.7504    0.0000 </r>
       <r>   14.8468    0.0000 </r>
       <r>   15.0642    0.0000 </r>
       <r>   16.1463    0.0000 </r>
       <r>   16.4407    0.0000 </r>
      </set>
      <set comment="kpoint 11">
       <r>  -12.6578    1.0000 </r>
       <r>  -11.5228    1.0000 </r>
       <r>   -8.6029    1.0000 </r>
       <r>   -8.3533    1.0000 </r>
       <r>   -5.9838    1.0000 </r>
       <r>   -5.1277    1.0000 </r>
       <r>   -5.0016    1.0000 </r>
       <r>   -4.5977    1.0000 </r>
       <r>   -4.1577    1.0000 </r>
       <r>   -3.9042    1.0000 </r>
       <r>   -3.4638    1.0000 </r>
       <r>   -1.1993    1.0000 </r>
       <r>   -1.0766    1.0000 </r>
       <r>   -0.6435    1.0000 </r>
       <r>   -0.5369    1.0000 </r>
       <r>   -0.1694    1.0000 </r>
       <r>    0.1974    1.0000 </r>
       <r>    0.3081    1.0000 </r>
       <r>    0.7293    1.0000 </r>
       <r>    1.3741    1.0000 </r>
       <r>    1.4380    1.0000 </r>
       <r>    2.3154    0.0000 </r>
       <r>    5.2952    0.0000 </r>
       <r>    5.4613    0.0000 </r>
       <r>    6.1335    0.0000 </r>
       <r>    6.2067    0.0000 </r>
       <r>    7.5481    0.0000 </r>
       <r>    7.6368    0.0000 </r>
       <r>    8.3282    0.0000 </r>
       <r>    8.7403    0.0000 </r>
       <r>    8.8962    0.0000 </r>
       <r>    9.2587    0.0000 </r>
       <r>    9.3862    0.0000 </r>
       <r>   10.8948    0.0000 </r>
       <r>   11.3321    0.0000 </r>
       <r>   11.5868    0.0000 </r>
       <r>   11.7127    0.0000 </r>
       <r>   12.1005    0.0000 </r>
       <r>   12.2810    0.0000 </r>
       <r>   12.7604    0.0000 </r>
       <r>   12.7741    0.0000 </r>
       <r>   13.0230    0.0000 </r>
       <r>   13.2374    0.0000 </r>
       <r>   14.6956    0.0000 </r>
       <r>   15.1791    0.0000 </r>
       <r>   15.3625    0.0000 </r>
       <r>   15.4462    0.0000 </r>
       <r>   15.9811    0.0000 </r>
      </set>
      <set comment="kpoint 12">
       <r>  -12.6143    1.0000 </r>
       <r>  -11.5962    1.0000 </r>
       <r>   -8.5814    1.0000 </r>
       <r>   -8.3429    1.0000 </r>
       <r>   -5.9103    1.0000 </r>
       <r>   -5.3899    1.0000 </r>
       <r>   -5.0285    1.0000 </r>
       <r>   -4.7268    1.0000 </r>
       <r>   -3.9706    1.0000 </r>
       <r>   -3.7069    1.0000 </r>
       <r>   -3.1244    1.0000 </r>
       <r>   -1.3840    1.0000 </r>
       <r>   -1.1728    1.0000 </r>
       <r>   -0.7504    1.0000 </r>
       <r>   -0.4989    1.0000 </r>
       <r>   -0.0885    1.0000 </r>
       <r>    0.1785    1.0000 </r>
       <r>    0.2513    1.0000 </r>
       <r>    0.6168    1.0000 </r>
       <r>    1.2949    1.0000 </r>
       <r>    1.3682    1.0000 </r>
       <r>    2.1794    0.0000 </r>
       <r>    5.3754    0.0000 </r>
       <r>    5.8078    0.0000 </r>
       <r>    6.1527    0.0000 </r>
       <r>    6.2477    0.0000 </r>
       <r>    7.4673    0.0000 </r>
       <r>    7.7934    0.0000 </r>
       <r>    8.0604    0.0000 </r>
       <r>    8.8309    0.0000 </r>
       <r>    9.2700    0.0000 </r>
       <r>    9.3004    0.0000 </r>
       <r>    9.6711    0.0000 </r>
       <r>   10.5302    0.0000 </r>
       <r>   10.7931    0.0000 </r>
       <r>   11.2903    0.0000 </r>
       <r>   11.7307    0.0000 </r>
       <r>   12.2123    0.0000 </r>
       <r>   12.4452    0.0000 </r>
       <r>   12.5140    0.0000 </r>
       <r>   13.1781    0.0000 </r>
       <r>   13.2864    0.0000 </r>
       <r>   13.4535    0.0000 </r>
       <r>   14.7052    0.0000 </r>
       <r>   14.8401    0.0000 </r>
       <r>   15.3049    0.0000 </r>
       <r>   15.5099    0.0000 </r>
       <r>   16.0055    0.0000 </r>
      </set>
      <set comment="kpoint 13">
       <r>  -12.5292    1.0000 </r>
       <r>  -11.7283    1.0000 </r>
       <r>   -8.5372    1.0000 </r>
       <r>   -8.3302    1.0000 </r>
       <r>   -5.8806    1.0000 </r>
       <r>   -5.7096    1.0000 </r>
       <r>   -4.9368    1.0000 </r>
       <r>   -4.6911    1.0000 </r>
       <r>   -4.0945    1.0000 </r>
       <r>   -3.1724    1.0000 </r>
       <r>   -2.6529    1.0000 </r>
       <r>   -1.8811    1.0000 </r>
       <r>   -1.1321    1.0000 </r>
       <r>   -0.8891    1.0000 </r>
       <r>   -0.4458    1.0000 </r>
       <r>   -0.0786    1.0000 </r>
       <r>    0.0194    1.0000 </r>
       <r>    0.2634    1.0000 </r>
       <r>    0.5016    1.0000 </r>
       <r>    1.1633    1.0000 </r>
       <r>    1.2498    1.0000 </r>
       <r>    1.9226    0.1865 </r>
       <r>    5.6969    0.0000 </r>
       <r>    6.1077    0.0000 </r>
       <r>    6.2847    0.0000 </r>
       <r>    6.3774    0.0000 </r>
       <r>    7.3646    0.0000 </r>
       <r>    7.8708    0.0000 </r>
       <r>    8.0272    0.0000 </r>
       <r>    8.9594    0.0000 </r>
       <r>    9.2625    0.0000 </r>
       <r>    9.7340    0.0000 </r>
       <r>    9.8647    0.0000 </r>
       <r>   10.1531    0.0000 </r>
       <r>   10.2678    0.0000 </r>
       <r>   11.0779    0.0000 </r>
       <r>   11.5999    0.0000 </r>
       <r>   12.1193    0.0000 </r>
       <r>   12.5240    0.0000 </r>
       <r>   12.8146    0.0000 </r>
       <r>   13.0611    0.0000 </r>
       <r>   13.4611    0.0000 </r>
       <r>   13.9761    0.0000 </r>
       <r>   14.6132    0.0000 </r>
       <r>   14.8899    0.0000 </r>
       <r>   15.3240    0.0000 </r>
       <r>   15.5296    0.0000 </r>
       <r>   16.2161    0.0000 </r>
      </set>
      <set comment="kpoint 14">
       <r>  -12.4064    1.0000 </r>
       <r>  -11.8966    1.0000 </r>
       <r>   -8.4747    1.0000 </r>
       <r>   -8.3297    1.0000 </r>
       <r>   -5.9581    1.0000 </r>
       <r>   -5.9390    1.0000 </r>
       <r>   -4.8007    1.0000 </r>
       <r>   -4.3699    1.0000 </r>
       <r>   -4.2595    1.0000 </r>
       <r>   -2.8039    1.0000 </r>
       <r>   -2.3165    1.0000 </r>
       <r>   -2.1722    1.0000 </r>
       <r>   -1.0754    1.0000 </r>
       <r>   -1.0258    1.0000 </r>
       <r>   -0.4506    1.0000 </r>
       <r>   -0.3650    1.0000 </r>
       <r>    0.0634    1.0000 </r>
       <r>    0.0677    1.0000 </r>
       <r>    0.6486    1.0000 </r>
       <r>    1.0336    1.0000 </r>
       <r>    1.1169    1.0000 </r>
       <r>    1.5873    1.0000 </r>
       <r>    6.1188    0.0000 </r>
       <r>    6.2327    0.0000 </r>
       <r>    6.4092    0.0000 </r>
       <r>    6.8125    0.0000 </r>
       <r>    7.3083    0.0000 </r>
       <r>    7.7918    0.0000 </r>
       <r>    8.0817    0.0000 </r>
       <r>    9.0590    0.0000 </r>
       <r>    9.1166    0.0000 </r>
       <r>    9.1900    0.0000 </r>
       <r>    9.9028    0.0000 </r>
       <r>   10.2018    0.0000 </r>
       <r>   10.7150    0.0000 </r>
       <r>   11.0922    0.0000 </r>
       <r>   11.3432    0.0000 </r>
       <r>   11.9654    0.0000 </r>
       <r>   12.3737    0.0000 </r>
       <r>   13.0000    0.0000 </r>
       <r>   13.0509    0.0000 </r>
       <r>   13.8059    0.0000 </r>
       <r>   14.3990    0.0000 </r>
       <r>   14.4140    0.0000 </r>
       <r>   15.0483    0.0000 </r>
       <r>   15.1414    0.0000 </r>
       <r>   15.6332    0.0000 </r>
       <r>   16.3929    0.0000 </r>
      </set>
      <set comment="kpoint 15">
       <r>  -12.2526    1.0000 </r>
       <r>  -12.0779    1.0000 </r>
       <r>   -8.4076    1.0000 </r>
       <r>   -8.3548    1.0000 </r>
       <r>   -6.0498    1.0000 </r>
       <r>   -6.0437    1.0000 </r>
       <r>   -4.6325    1.0000 </r>
       <r>   -4.4464    1.0000 </r>
       <r>   -3.8569    1.0000 </r>
       <r>   -3.2604    1.0000 </r>
       <r>   -2.0347    1.0000 </r>
       <r>   -1.8688    1.0000 </r>
       <r>   -1.0971    1.0000 </r>
       <r>   -1.0349    1.0000 </r>
       <r>   -0.6232    1.0000 </r>
       <r>   -0.6161    1.0000 </r>
       <r>    0.0136    1.0000 </r>
       <r>    0.0571    1.0000 </r>
       <r>    0.9062    1.0000 </r>
       <r>    0.9713    1.0000 </r>
       <r>    1.0122    1.0000 </r>
       <r>    1.2336    1.0000 </r>
       <r>    6.2103    0.0000 </r>
       <r>    6.3282    0.0000 </r>
       <r>    6.8863    0.0000 </r>
       <r>    7.2270    0.0000 </r>
       <r>    7.2859    0.0000 </r>
       <r>    7.6315    0.0000 </r>
       <r>    7.9391    0.0000 </r>
       <r>    8.4513    0.0000 </r>
       <r>    9.1152    0.0000 </r>
       <r>    9.1475    0.0000 </r>
       <r>   10.0263    0.0000 </r>
       <r>   10.4982    0.0000 </r>
       <r>   10.7228    0.0000 </r>
       <r>   10.9919    0.0000 </r>
       <r>   11.7475    0.0000 </r>
       <r>   11.7672    0.0000 </r>
       <r>   12.1525    0.0000 </r>
       <r>   12.9267    0.0000 </r>
       <r>   13.4306    0.0000 </r>
       <r>   13.7787    0.0000 </r>
       <r>   14.2456    0.0000 </r>
       <r>   14.4002    0.0000 </r>
       <r>   15.0098    0.0000 </r>
       <r>   15.1500    0.0000 </r>
       <r>   16.0093    0.0000 </r>
       <r>   16.3136    0.0000 </r>
      </set>
      <set comment="kpoint 16">
       <r>  -12.6002    1.0000 </r>
       <r>  -11.4714    1.0000 </r>
       <r>   -8.5588    1.0000 </r>
       <r>   -8.2980    1.0000 </r>
       <r>   -5.9194    1.0000 </r>
       <r>   -5.6090    1.0000 </r>
       <r>   -4.9311    1.0000 </r>
       <r>   -4.5414    1.0000 </r>
       <r>   -4.4247    1.0000 </r>
       <r>   -4.1183    1.0000 </r>
       <r>   -3.4017    1.0000 </r>
       <r>   -1.2164    1.0000 </r>
       <r>   -1.0624    1.0000 </r>
       <r>   -0.9987    1.0000 </r>
       <r>   -0.1883    1.0000 </r>
       <r>    0.2258    1.0000 </r>
       <r>    0.3516    1.0000 </r>
       <r>    0.6017    1.0000 </r>
       <r>    0.7931    1.0000 </r>
       <r>    0.9886    1.0000 </r>
       <r>    1.0028    1.0000 </r>
       <r>    2.3497    0.0000 </r>
       <r>    4.9509    0.0000 </r>
       <r>    5.1672    0.0000 </r>
       <r>    6.3674    0.0000 </r>
       <r>    6.5968    0.0000 </r>
       <r>    7.2778    0.0000 </r>
       <r>    7.9804    0.0000 </r>
       <r>    8.7157    0.0000 </r>
       <r>    9.0702    0.0000 </r>
       <r>    9.4810    0.0000 </r>
       <r>    9.5920    0.0000 </r>
       <r>    9.6675    0.0000 </r>
       <r>   10.7563    0.0000 </r>
       <r>   11.2833    0.0000 </r>
       <r>   11.9795    0.0000 </r>
       <r>   12.0297    0.0000 </r>
       <r>   12.3099    0.0000 </r>
       <r>   12.4371    0.0000 </r>
       <r>   12.4609    0.0000 </r>
       <r>   12.5791    0.0000 </r>
       <r>   13.0085    0.0000 </r>
       <r>   13.8127    0.0000 </r>
       <r>   13.8947    0.0000 </r>
       <r>   14.4356    0.0000 </r>
       <r>   15.1184    0.0000 </r>
       <r>   15.4183    0.0000 </r>
       <r>   15.8811    0.0000 </r>
      </set>
      <set comment="kpoint 17">
       <r>  -12.5570    1.0000 </r>
       <r>  -11.5444    1.0000 </r>
       <r>   -8.5369    1.0000 </r>
       <r>   -8.2885    1.0000 </r>
       <r>   -5.8413    1.0000 </r>
       <r>   -5.5743    1.0000 </r>
       <r>   -5.2688    1.0000 </r>
       <r>   -4.6768    1.0000 </r>
       <r>   -4.4904    1.0000 </r>
       <r>   -3.6529    1.0000 </r>
       <r>   -3.0626    1.0000 </r>
       <r>   -1.3780    1.0000 </r>
       <r>   -1.1587    1.0000 </r>
       <r>   -1.0134    1.0000 </r>
       <r>   -0.1898    1.0000 </r>
       <r>    0.2114    1.0000 </r>
       <r>    0.2830    1.0000 </r>
       <r>    0.5810    1.0000 </r>
       <r>    0.6717    1.0000 </r>
       <r>    0.9233    1.0000 </r>
       <r>    0.9614    1.0000 </r>
       <r>    2.2117    0.0000 </r>
       <r>    5.0469    0.0000 </r>
       <r>    5.4993    0.0000 </r>
       <r>    6.3135    0.0000 </r>
       <r>    6.7281    0.0000 </r>
       <r>    7.4135    0.0000 </r>
       <r>    7.9377    0.0000 </r>
       <r>    8.6468    0.0000 </r>
       <r>    9.1880    0.0000 </r>
       <r>    9.4438    0.0000 </r>
       <r>    9.8025    0.0000 </r>
       <r>    9.9126    0.0000 </r>
       <r>   10.3482    0.0000 </r>
       <r>   10.7203    0.0000 </r>
       <r>   11.7197    0.0000 </r>
       <r>   11.8981    0.0000 </r>
       <r>   12.2585    0.0000 </r>
       <r>   12.4935    0.0000 </r>
       <r>   12.6554    0.0000 </r>
       <r>   12.9762    0.0000 </r>
       <r>   13.4074    0.0000 </r>
       <r>   13.8091    0.0000 </r>
       <r>   13.9402    0.0000 </r>
       <r>   14.2713    0.0000 </r>
       <r>   15.0968    0.0000 </r>
       <r>   15.4473    0.0000 </r>
       <r>   15.7495    0.0000 </r>
      </set>
      <set comment="kpoint 18">
       <r>  -12.4724    1.0000 </r>
       <r>  -11.6759    1.0000 </r>
       <r>   -8.4922    1.0000 </r>
       <r>   -8.2777    1.0000 </r>
       <r>   -5.8040    1.0000 </r>
       <r>   -5.6578    1.0000 </r>
       <r>   -5.4178    1.0000 </r>
       <r>   -4.6511    1.0000 </r>
       <r>   -4.6131    1.0000 </r>
       <r>   -3.1130    1.0000 </r>
       <r>   -2.5924    1.0000 </r>
       <r>   -1.8622    1.0000 </r>
       <r>   -1.0979    1.0000 </r>
       <r>   -1.0320    1.0000 </r>
       <r>   -0.2082    1.0000 </r>
       <r>   -0.0431    1.0000 </r>
       <r>    0.3214    1.0000 </r>
       <r>    0.5126    1.0000 </r>
       <r>    0.5290    1.0000 </r>
       <r>    0.8351    1.0000 </r>
       <r>    0.8945    1.0000 </r>
       <r>    1.9512    0.0446 </r>
       <r>    5.3729    0.0000 </r>
       <r>    5.9747    0.0000 </r>
       <r>    6.2864    0.0000 </r>
       <r>    6.8409    0.0000 </r>
       <r>    7.5814    0.0000 </r>
       <r>    7.9573    0.0000 </r>
       <r>    8.5713    0.0000 </r>
       <r>    9.3777    0.0000 </r>
       <r>    9.4082    0.0000 </r>
       <r>    9.6040    0.0000 </r>
       <r>   10.0566    0.0000 </r>
       <r>   10.1272    0.0000 </r>
       <r>   10.5743    0.0000 </r>
       <r>   11.4016    0.0000 </r>
       <r>   11.4110    0.0000 </r>
       <r>   12.2516    0.0000 </r>
       <r>   12.7569    0.0000 </r>
       <r>   12.9699    0.0000 </r>
       <r>   13.1951    0.0000 </r>
       <r>   13.5384    0.0000 </r>
       <r>   13.7831    0.0000 </r>
       <r>   14.0326    0.0000 </r>
       <r>   14.4070    0.0000 </r>
       <r>   15.1882    0.0000 </r>
       <r>   15.3744    0.0000 </r>
       <r>   16.0099    0.0000 </r>
      </set>
      <set comment="kpoint 19">
       <r>  -12.3503    1.0000 </r>
       <r>  -11.8433    1.0000 </r>
       <r>   -8.4291    1.0000 </r>
       <r>   -8.2794    1.0000 </r>
       <r>   -5.8784    1.0000 </r>
       <r>   -5.8662    1.0000 </r>
       <r>   -5.3048    1.0000 </r>
       <r>   -4.7779    1.0000 </r>
       <r>   -4.3341    1.0000 </r>
       <r>   -2.7590    1.0000 </r>
       <r>   -2.2739    1.0000 </r>
       <r>   -2.1165    1.0000 </r>
       <r>   -1.0398    1.0000 </r>
       <r>   -1.0130    1.0000 </r>
       <r>   -0.3676    1.0000 </r>
       <r>   -0.3234    1.0000 </r>
       <r>    0.1579    1.0000 </r>
       <r>    0.3814    1.0000 </r>
       <r>    0.6686    1.0000 </r>
       <r>    0.7795    1.0000 </r>
       <r>    0.8283    1.0000 </r>
       <r>    1.6120    1.0000 </r>
       <r>    5.9008    0.0000 </r>
       <r>    6.3183    0.0000 </r>
       <r>    6.5547    0.0000 </r>
       <r>    6.7931    0.0000 </r>
       <r>    7.5805    0.0000 </r>
       <r>    8.0146    0.0000 </r>
       <r>    8.5247    0.0000 </r>
       <r>    8.9266    0.0000 </r>
       <r>    9.2837    0.0000 </r>
       <r>    9.5963    0.0000 </r>
       <r>    9.9197    0.0000 </r>
       <r>   10.3590    0.0000 </r>
       <r>   10.8077    0.0000 </r>
       <r>   11.1065    0.0000 </r>
       <r>   11.4600    0.0000 </r>
       <r>   12.1820    0.0000 </r>
       <r>   12.4394    0.0000 </r>
       <r>   13.1741    0.0000 </r>
       <r>   13.2943    0.0000 </r>
       <r>   13.6784    0.0000 </r>
       <r>   13.9182    0.0000 </r>
       <r>   14.1680    0.0000 </r>
       <r>   14.7744    0.0000 </r>
       <r>   15.0090    0.0000 </r>
       <r>   15.4523    0.0000 </r>
       <r>   16.3469    0.0000 </r>
      </set>
      <set comment="kpoint 20">
       <r>  -12.1974    1.0000 </r>
       <r>  -12.0236    1.0000 </r>
       <r>   -8.3610    1.0000 </r>
       <r>   -8.3067    1.0000 </r>
       <r>   -5.9722    1.0000 </r>
       <r>   -5.9641    1.0000 </r>
       <r>   -5.1432    1.0000 </r>
       <r>   -4.9612    1.0000 </r>
       <r>   -3.8247    1.0000 </r>
       <r>   -3.2301    1.0000 </r>
       <r>   -1.9776    1.0000 </r>
       <r>   -1.8228    1.0000 </r>
       <r>   -0.9760    1.0000 </r>
       <r>   -0.9167    1.0000 </r>
       <r>   -0.6656    1.0000 </r>
       <r>   -0.6225    1.0000 </r>
       <r>    0.1330    1.0000 </r>
       <r>    0.2334    1.0000 </r>
       <r>    0.7639    1.0000 </r>
       <r>    0.7797    1.0000 </r>
       <r>    0.9320    1.0000 </r>
       <r>    1.2553    1.0000 </r>
       <r>    6.4514    0.0000 </r>
       <r>    6.5628    0.0000 </r>
       <r>    6.6306    0.0000 </r>
       <r>    7.1453    0.0000 </r>
       <r>    7.2151    0.0000 </r>
       <r>    7.7029    0.0000 </r>
       <r>    8.5132    0.0000 </r>
       <r>    8.5775    0.0000 </r>
       <r>    9.4780    0.0000 </r>
       <r>    9.6520    0.0000 </r>
       <r>    9.8593    0.0000 </r>
       <r>   10.1551    0.0000 </r>
       <r>   10.8726    0.0000 </r>
       <r>   11.2461    0.0000 </r>
       <r>   11.8861    0.0000 </r>
       <r>   11.9599    0.0000 </r>
       <r>   12.2746    0.0000 </r>
       <r>   13.1646    0.0000 </r>
       <r>   13.4541    0.0000 </r>
       <r>   13.6410    0.0000 </r>
       <r>   13.8542    0.0000 </r>
       <r>   13.9641    0.0000 </r>
       <r>   15.1163    0.0000 </r>
       <r>   15.1340    0.0000 </r>
       <r>   15.6851    0.0000 </r>
       <r>   15.9874    0.0000 </r>
      </set>
      <set comment="kpoint 21">
       <r>  -12.5400    1.0000 </r>
[...]
       <r>   -2.3094    1.0000 </r>
       <r>   -2.1454    1.0000 </r>
       <r>   -1.9810    1.0000 </r>
       <r>   -1.4851    1.0000 </r>
       <r>   -0.7334    1.0000 </r>
       <r>   -0.1964    1.0000 </r>
       <r>    0.1700    1.0000 </r>
       <r>    0.3894    1.0000 </r>
       <r>    0.5197    1.0000 </r>
       <r>    1.5950    1.0000 </r>
       <r>    1.6227    1.0000 </r>
       <r>    1.8782    0.6425 </r>
       <r>    5.5196    0.0000 </r>
       <r>    6.1554    0.0000 </r>
       <r>    6.6762    0.0000 </r>
       <r>    7.2301    0.0000 </r>
       <r>    7.7949    0.0000 </r>
       <r>    8.2346    0.0000 </r>
       <r>    9.0025    0.0000 </r>
       <r>    9.1634    0.0000 </r>
       <r>    9.7321    0.0000 </r>
       <r>    9.9681    0.0000 </r>
       <r>   10.6000    0.0000 </r>
       <r>   11.0415    0.0000 </r>
       <r>   11.2223    0.0000 </r>
       <r>   11.4954    0.0000 </r>
       <r>   11.5808    0.0000 </r>
       <r>   11.9624    0.0000 </r>
       <r>   12.8517    0.0000 </r>
       <r>   13.1639    0.0000 </r>
       <r>   13.3827    0.0000 </r>
       <r>   13.7641    0.0000 </r>
       <r>   13.8909    0.0000 </r>
       <r>   14.1710    0.0000 </r>
       <r>   14.4941    0.0000 </r>
       <r>   14.9810    0.0000 </r>
       <r>   15.1105    0.0000 </r>
       <r>   15.4112    0.0000 </r>
      </set>
      <set comment="kpoint 175">
       <r>  -12.0218    1.0000 </r>
       <r>  -11.8827    1.0000 </r>
       <r>   -8.5451    1.0000 </r>
       <r>   -8.4328    1.0000 </r>
       <r>   -5.9241    1.0000 </r>
       <r>   -5.8177    1.0000 </r>
       <r>   -4.8881    1.0000 </r>
       <r>   -4.5641    1.0000 </r>
       <r>   -4.4103    1.0000 </r>
       <r>   -3.9716    1.0000 </r>
       <r>   -2.1975    1.0000 </r>
       <r>   -2.1358    1.0000 </r>
       <r>   -2.0517    1.0000 </r>
       <r>   -1.7674    1.0000 </r>
       <r>   -0.2145    1.0000 </r>
       <r>   -0.0003    1.0000 </r>
       <r>    0.3924    1.0000 </r>
       <r>    0.4804    1.0000 </r>
       <r>    0.5540    1.0000 </r>
       <r>    0.8799    1.0000 </r>
       <r>    1.6368    1.0000 </r>
       <r>    1.7364    1.0000 </r>
       <r>    5.8673    0.0000 </r>
       <r>    6.0533    0.0000 </r>
       <r>    6.8781    0.0000 </r>
       <r>    7.4194    0.0000 </r>
       <r>    7.4828    0.0000 </r>
       <r>    7.5895    0.0000 </r>
       <r>    9.4072    0.0000 </r>
       <r>    9.5921    0.0000 </r>
       <r>    9.8012    0.0000 </r>
       <r>    9.9788    0.0000 </r>
       <r>   10.4772    0.0000 </r>
       <r>   10.8281    0.0000 </r>
       <r>   11.2457    0.0000 </r>
       <r>   11.5221    0.0000 </r>
       <r>   11.5362    0.0000 </r>
       <r>   11.6259    0.0000 </r>
       <r>   13.0969    0.0000 </r>
       <r>   13.2034    0.0000 </r>
       <r>   13.7408    0.0000 </r>
       <r>   14.0704    0.0000 </r>
       <r>   14.2052    0.0000 </r>
       <r>   14.3093    0.0000 </r>
       <r>   14.6092    0.0000 </r>
       <r>   14.7517    0.0000 </r>
       <r>   14.8992    0.0000 </r>
       <r>   15.0653    0.0000 </r>
      </set>
     </set>
    </set>
   </array>
  </eigenvalues>
  <separator name="orbital magnetization" >
   <v name="MAGDIPOLOUT">      0.00000000      0.00000000      0.00000000</v>
  </separator>
  <dos>
   <i name="efermi">      1.89107485 </i>
   <total>
    <array>
     <dimension dim="1">gridpoints</dimension>
     <dimension dim="2">spin</dimension>
     <field>energy</field>
     <field>total</field>
     <field>integrated</field>
     <set>
      <set comment="spin 1">
       <r>   -14.1892     0.0000     0.0000 </r>
       <r>   -14.0819     0.0000     0.0000 </r>
       <r>   -13.9746     0.0000     0.0000 </r>
       <r>   -13.8673     0.0000     0.0000 </r>
       <r>   -13.7600     0.0000     0.0000 </r>
       <r>   -13.6528     0.0000     0.0000 </r>
       <r>   -13.5455     0.0000     0.0000 </r>
       <r>   -13.4382     0.0000     0.0000 </r>
       <r>   -13.3309     0.0000     0.0000 </r>
       <r>   -13.2236     0.0000     0.0000 </r>
       <r>   -13.1163     0.0000     0.0000 </r>
       <r>   -13.0091     0.0000     0.0000 </r>
       <r>   -12.9018     0.0000     0.0000 </r>
       <r>   -12.7945     0.0038     0.0004 </r>
       <r>   -12.6872     0.5081     0.0549 </r>
       <r>   -12.5799     2.3890     0.3112 </r>
       <r>   -12.4727     3.5612     0.6933 </r>
       <r>   -12.3654     4.3691     1.1620 </r>
       <r>   -12.2581     3.5390     1.5417 </r>
       <r>   -12.1508     2.7345     1.8350 </r>
       <r>   -12.0435     2.7497     2.1300 </r>
       <r>   -11.9362     2.5068     2.3990 </r>
       <r>   -11.8290     2.7709     2.6962 </r>
       <r>   -11.7217     3.4317     3.0644 </r>
       <r>   -11.6144     3.5348     3.4436 </r>
       <r>   -11.5071     3.1074     3.7770 </r>
       <r>   -11.3998     1.6581     3.9548 </r>
       <r>   -11.2926     0.4141     3.9993 </r>
       <r>   -11.1853     0.0068     4.0000 </r>
       <r>   -11.0780     0.0000     4.0000 </r>
       <r>   -10.9707     0.0000     4.0000 </r>
       <r>   -10.8634     0.0000     4.0000 </r>
       <r>   -10.7561     0.0000     4.0000 </r>
       <r>   -10.6489     0.0000     4.0000 </r>
       <r>   -10.5416     0.0000     4.0000 </r>
       <r>   -10.4343     0.0000     4.0000 </r>
       <r>   -10.3270     0.0000     4.0000 </r>
       <r>   -10.2197     0.0000     4.0000 </r>
       <r>   -10.1125     0.0000     4.0000 </r>
       <r>   -10.0052     0.0000     4.0000 </r>
       <r>    -9.8979     0.0000     4.0000 </r>
       <r>    -9.7906     0.0000     4.0000 </r>
       <r>    -9.6833     0.0000     4.0000 </r>
       <r>    -9.5760     0.0000     4.0000 </r>
       <r>    -9.4688     0.0000     4.0000 </r>
       <r>    -9.3615     0.0000     4.0000 </r>
       <r>    -9.2542     0.0000     4.0000 </r>
       <r>    -9.1469     0.0000     4.0000 </r>
       <r>    -9.0396     0.0000     4.0000 </r>
       <r>    -8.9324     0.0006     4.0001 </r>
       <r>    -8.8251     0.2744     4.0295 </r>
       <r>    -8.7178     2.0844     4.2531 </r>
       <r>    -8.6105     5.3178     4.8236 </r>
       <r>    -8.5032     6.9803     5.5725 </r>
       <r>    -8.3959     6.3018     6.2486 </r>
       <r>    -8.2887     5.3242     6.8197 </r>
       <r>    -8.1814     4.8317     7.3381 </r>
       <r>    -8.0741     3.8751     7.7538 </r>
       <r>    -7.9668     1.6663     7.9326 </r>
       <r>    -7.8595     0.5767     7.9945 </r>
       <r>    -7.7522     0.0517     8.0000 </r>
       <r>    -7.6450     0.0000     8.0000 </r>
       <r>    -7.5377     0.0000     8.0000 </r>
       <r>    -7.4304     0.0000     8.0000 </r>
       <r>    -7.3231     0.0000     8.0000 </r>
       <r>    -7.2158     0.0000     8.0000 </r>
       <r>    -7.1086     0.0000     8.0000 </r>
       <r>    -7.0013     0.0004     8.0000 </r>
       <r>    -6.8940     0.1139     8.0123 </r>
       <r>    -6.7867     0.2571     8.0398 </r>
       <r>    -6.6794     0.4267     8.0856 </r>
       <r>    -6.5721     0.7660     8.1678 </r>
       <r>    -6.4649     0.8531     8.2593 </r>
       <r>    -6.3576     1.4483     8.4147 </r>
       <r>    -6.2503     1.9715     8.6262 </r>
       <r>    -6.1430     3.0584     8.9543 </r>
       <r>    -6.0357     3.7789     9.3597 </r>
       <r>    -5.9285     4.1111     9.8008 </r>
       <r>    -5.8212     4.0431    10.2345 </r>
       <r>    -5.7139     3.8544    10.6480 </r>
       <r>    -5.6066     4.0717    11.0848 </r>
       <r>    -5.4993     4.2215    11.5377 </r>
       <r>    -5.3920     4.5381    12.0246 </r>
       <r>    -5.2848     4.5910    12.5171 </r>
       <r>    -5.1775     4.4888    12.9987 </r>
       <r>    -5.0702     3.8642    13.4132 </r>
       <r>    -4.9629     3.2295    13.7597 </r>
       <r>    -4.8556     2.9452    14.0757 </r>
       <r>    -4.7484     2.3463    14.3274 </r>
       <r>    -4.6411     2.8958    14.6381 </r>
       <r>    -4.5338     3.3672    14.9993 </r>
       <r>    -4.4265     3.4796    15.3726 </r>
       <r>    -4.3192     3.3220    15.7290 </r>
       <r>    -4.2119     2.9515    16.0456 </r>
       <r>    -4.1047     2.9059    16.3574 </r>
       <r>    -3.9974     2.9499    16.6739 </r>
       <r>    -3.8901     2.8533    16.9800 </r>
       <r>    -3.7828     3.1234    17.3151 </r>
       <r>    -3.6755     2.8673    17.6227 </r>
       <r>    -3.5683     2.7043    17.9128 </r>
       <r>    -3.4610     3.0605    18.2411 </r>
       <r>    -3.3537     2.6309    18.5234 </r>
       <r>    -3.2464     2.8716    18.8314 </r>
       <r>    -3.1391     2.7284    19.1242 </r>
       <r>    -3.0318     2.7488    19.4191 </r>
       <r>    -2.9246     3.0335    19.7445 </r>
       <r>    -2.8173     2.9708    20.0632 </r>
       <r>    -2.7100     2.4256    20.3234 </r>
       <r>    -2.6027     2.6634    20.6092 </r>
       <r>    -2.4954     3.0237    20.9336 </r>
       <r>    -2.3882     2.9797    21.2532 </r>
       <r>    -2.2809     3.1972    21.5962 </r>
       <r>    -2.1736     4.0142    22.0269 </r>
       <r>    -2.0663     3.6554    22.4191 </r>
       <r>    -1.9590     3.2912    22.7721 </r>
       <r>    -1.8517     5.1716    23.3270 </r>
       <r>    -1.7445     5.5971    23.9274 </r>
       <r>    -1.6372     5.5892    24.5270 </r>
       <r>    -1.5299     6.1850    25.1906 </r>
       <r>    -1.4226     6.0986    25.8449 </r>
       <r>    -1.3153     5.5515    26.4404 </r>
       <r>    -1.2081     4.6849    26.9430 </r>
       <r>    -1.1008     6.4944    27.6398 </r>
       <r>    -0.9935     3.9144    28.0597 </r>
       <r>    -0.8862     2.2666    28.3029 </r>
       <r>    -0.7789     2.6965    28.5922 </r>
       <r>    -0.6716     2.8798    28.9011 </r>
       <r>    -0.5644     4.5557    29.3899 </r>
       <r>    -0.4571     6.8743    30.1273 </r>
       <r>    -0.3498     5.6527    30.7338 </r>
       <r>    -0.2425     6.7240    31.4551 </r>
       <r>    -0.1352     6.3565    32.1371 </r>
       <r>    -0.0280     6.7500    32.8612 </r>
       <r>     0.0793     6.7280    33.5830 </r>
       <r>     0.1866     6.3194    34.2610 </r>
       <r>     0.2939     8.7934    35.2044 </r>
       <r>     0.4012     7.9447    36.0567 </r>
       <r>     0.5085     8.7032    36.9904 </r>
       <r>     0.6157     5.1943    37.5476 </r>
       <r>     0.7230     2.9099    37.8598 </r>
       <r>     0.8303     3.3135    38.2153 </r>
       <r>     0.9376     3.5860    38.6000 </r>
       <r>     1.0449     3.5501    38.9808 </r>
       <r>     1.1521     2.7875    39.2799 </r>
       <r>     1.2594     3.4029    39.6450 </r>
       <r>     1.3667     4.5019    40.1279 </r>
       <r>     1.4740     3.7657    40.5319 </r>
       <r>     1.5813     3.7333    40.9324 </r>
       <r>     1.6886     4.5703    41.4228 </r>
       <r>     1.7958     3.1881    41.7648 </r>
       <r>     1.9031     2.4827    42.0311 </r>
       <r>     2.0104     2.6519    42.3156 </r>
       <r>     2.1177     2.0928    42.5402 </r>
       <r>     2.2250     2.6529    42.8248 </r>
       <r>     2.3323     2.5568    43.0991 </r>
       <r>     2.4395     1.9202    43.3051 </r>
       <r>     2.5468     0.8325    43.3944 </r>
       <r>     2.6541     0.3783    43.4350 </r>
       <r>     2.7614     0.5710    43.4962 </r>
       <r>     2.8687     0.4191    43.5412 </r>
       <r>     2.9759     0.3058    43.5740 </r>
       <r>     3.0832     0.7680    43.6564 </r>
       <r>     3.1905     1.0101    43.7647 </r>
       <r>     3.2978     0.5247    43.8210 </r>
       <r>     3.4051     0.0118    43.8223 </r>
       <r>     3.5124     0.1358    43.8369 </r>
       <r>     3.6196     0.3971    43.8795 </r>
       <r>     3.7269     0.3261    43.9145 </r>
       <r>     3.8342     0.3756    43.9547 </r>
       <r>     3.9415     0.3973    43.9974 </r>
       <r>     4.0488     0.0246    44.0000 </r>
       <r>     4.1560     0.0000    44.0000 </r>
       <r>     4.2633     0.0362    44.0039 </r>
       <r>     4.3706     0.1803    44.0232 </r>
       <r>     4.4779     0.4061    44.0668 </r>
       <r>     4.5852     0.4783    44.1181 </r>
       <r>     4.6925     0.6393    44.1867 </r>
       <r>     4.7997     0.8931    44.2825 </r>
       <r>     4.9070     0.8439    44.3730 </r>
       <r>     5.0143     0.8562    44.4649 </r>
       <r>     5.1216     1.2825    44.6025 </r>
       <r>     5.2289     1.1450    44.7253 </r>
       <r>     5.3361     1.6449    44.9018 </r>
       <r>     5.4434     2.2047    45.1383 </r>
       <r>     5.5507     2.4837    45.4048 </r>
       <r>     5.6580     2.7858    45.7036 </r>
       <r>     5.7653     3.3899    46.0673 </r>
       <r>     5.8726     3.2082    46.4115 </r>
       <r>     5.9798     4.3333    46.8764 </r>
       <r>     6.0871     4.7392    47.3848 </r>
       <r>     6.1944     4.0355    47.8178 </r>
       <r>     6.3017     4.6290    48.3144 </r>
       <r>     6.4090     4.1125    48.7556 </r>
       <r>     6.5162     4.0376    49.1887 </r>
       <r>     6.6235     4.4624    49.6675 </r>
       <r>     6.7308     3.2206    50.0130 </r>
       <r>     6.8381     4.0096    50.4431 </r>
       <r>     6.9454     4.6140    50.9381 </r>
       <r>     7.0527     4.5405    51.4252 </r>
       <r>     7.1599     4.3413    51.8910 </r>
       <r>     7.2672     5.6072    52.4925 </r>
       <r>     7.3745     4.8991    53.0181 </r>
       <r>     7.4818     4.4441    53.4949 </r>
       <r>     7.5891     4.1766    53.9430 </r>
       <r>     7.6963     3.5581    54.3247 </r>
       <r>     7.8036     3.1311    54.6606 </r>
       <r>     7.9109     3.0020    54.9827 </r>
       <r>     8.0182     2.9836    55.3028 </r>
       <r>     8.1255     4.1703    55.7502 </r>
       <r>     8.2328     3.8759    56.1660 </r>
       <r>     8.3400     3.6719    56.5599 </r>
       <r>     8.4473     3.9861    56.9875 </r>
       <r>     8.5546     4.2031    57.4385 </r>
       <r>     8.6619     4.4460    57.9154 </r>
       <r>     8.7692     4.2016    58.3662 </r>
       <r>     8.8764     5.2389    58.9282 </r>
       <r>     8.9837     4.9851    59.4630 </r>
       <r>     9.0910     5.2937    60.0309 </r>
       <r>     9.1983     5.2420    60.5933 </r>
       <r>     9.3056     4.9549    61.1249 </r>
       <r>     9.4129     4.6984    61.6289 </r>
       <r>     9.5201     4.3590    62.0966 </r>
       <r>     9.6274     5.1079    62.6446 </r>
       <r>     9.7347     5.0234    63.1835 </r>
       <r>     9.8420     5.3054    63.7527 </r>
       <r>     9.9493     4.4745    64.2327 </r>
       <r>    10.0565     3.6210    64.6212 </r>
       <r>    10.1638     5.1714    65.1760 </r>
       <r>    10.2711     4.7134    65.6816 </r>
       <r>    10.3784     4.1035    66.1219 </r>
       <r>    10.4857     5.4416    66.7056 </r>
       <r>    10.5930     5.8014    67.3280 </r>
       <r>    10.7002     4.0600    67.7636 </r>
       <r>    10.8075     3.8765    68.1795 </r>
       <r>    10.9148     3.2233    68.5253 </r>
       <r>    11.0221     4.6626    69.0255 </r>
       <r>    11.1294     5.5047    69.6160 </r>
       <r>    11.2366     6.1600    70.2769 </r>
       <r>    11.3439     5.9880    70.9193 </r>
       <r>    11.4512     5.3122    71.4892 </r>
       <r>    11.5585     4.2678    71.9471 </r>
       <r>    11.6658     4.4723    72.4269 </r>
       <r>    11.7731     4.9185    72.9545 </r>
       <r>    11.8803     4.8007    73.4696 </r>
       <r>    11.9876     6.0441    74.1180 </r>
       <r>    12.0949     5.9458    74.7559 </r>
       <r>    12.2022     5.9650    75.3958 </r>
       <r>    12.3095     5.6351    76.0003 </r>
       <r>    12.4167     5.0158    76.5385 </r>
       <r>    12.5240     5.6742    77.1472 </r>
       <r>    12.6313     5.9967    77.7905 </r>
       <r>    12.7386     6.0441    78.4390 </r>
       <r>    12.8459     5.8697    79.0687 </r>
       <r>    12.9532     5.8547    79.6968 </r>
       <r>    13.0604     5.5876    80.2962 </r>
       <r>    13.1677     6.3482    80.9773 </r>
       <r>    13.2750     6.2495    81.6477 </r>
       <r>    13.3823     5.3663    82.2234 </r>
       <r>    13.4896     6.1377    82.8819 </r>
       <r>    13.5969     5.3132    83.4519 </r>
       <r>    13.7041     4.8043    83.9673 </r>
       <r>    13.8114     6.1122    84.6230 </r>
       <r>    13.9187     5.5249    85.2158 </r>
       <r>    14.0260     5.3371    85.7883 </r>
       <r>    14.1333     5.4746    86.3757 </r>
       <r>    14.2405     4.6897    86.8788 </r>
       <r>    14.3478     4.8875    87.4031 </r>
       <r>    14.4551     5.0361    87.9434 </r>
       <r>    14.5624     4.9676    88.4763 </r>
       <r>    14.6697     5.2716    89.0419 </r>
       <r>    14.7770     5.1568    89.5951 </r>
       <r>    14.8842     4.0907    90.0340 </r>
       <r>    14.9915     5.1004    90.5811 </r>
       <r>    15.0988     6.1990    91.2462 </r>
       <r>    15.2061     5.6224    91.8494 </r>
       <r>    15.3134     5.6577    92.4563 </r>
       <r>    15.4206     6.0375    93.1040 </r>
       <r>    15.5279     5.7235    93.7181 </r>
       <r>    15.6352     5.9336    94.3546 </r>
       <r>    15.7425     4.5830    94.8463 </r>
       <r>    15.8498     2.4574    95.1099 </r>
       <r>    15.9571     2.7040    95.4000 </r>
       <r>    16.0643     1.8663    95.6003 </r>
       <r>    16.1716     1.1486    95.7235 </r>
       <r>    16.2789     0.8851    95.8184 </r>
       <r>    16.3862     0.7017    95.8937 </r>
       <r>    16.4935     0.8136    95.9810 </r>
       <r>    16.6007     0.1754    95.9998 </r>
       <r>    16.7080     0.0017    96.0000 </r>
       <r>    16.8153     0.0000    96.0000 </r>
       <r>    16.9226     0.0000    96.0000 </r>
       <r>    17.0299     0.0000    96.0000 </r>
       <r>    17.1372     0.0000    96.0000 </r>
       <r>    17.2444     0.0000    96.0000 </r>
       <r>    17.3517     0.0000    96.0000 </r>
       <r>    17.4590     0.0000    96.0000 </r>
       <r>    17.5663     0.0000    96.0000 </r>
       <r>    17.6736     0.0000    96.0000 </r>
       <r>    17.7808     0.0000    96.0000 </r>
       <r>    17.8881     0.0000    96.0000 </r>
       <r>    17.9954     0.0000    96.0000 </r>
      </set>
     </set>
    </array>
   </total>
  </dos>
 </calculation>
 <structure name="finalpos" >
  <crystal>
   <varray name="basis" >
    <v>       5.69472120       0.00000000       0.00000000 </v>
    <v>       0.00000000       4.04628084       0.00000000 </v>
    <v>       0.00000000       0.00000000       6.20171832 </v>
   </varray>
   <i name="volume">    142.90273023 </i>
   <varray name="rec_basis" >
    <v>       0.17560122       0.00000000       0.00000000 </v>
    <v>       0.00000000       0.24714053       0.00000000 </v>
    <v>       0.00000000       0.00000000       0.16124563 </v>
   </varray>
  </crystal>
  <varray name="positions" >
   <v>       0.52123000       0.50000000       0.63796000 </v>
   <v>       0.47877000       0.50000000       0.36204000 </v>
   <v>       0.97877000       0.50000000       0.63796000 </v>
   <v>       0.02123000       0.50000000       0.36204000 </v>
   <v>       0.60090000       0.50000000       0.89991000 </v>
   <v>       0.39910000       0.50000000       0.10009000 </v>
   <v>       0.89910000       0.50000000       0.89991000 </v>
   <v>       0.10090000       0.50000000       0.10009000 </v>
   <v>       0.75000000       0.79171000       0.72973000 </v>
   <v>       0.25000000       0.20829000       0.27027000 </v>
   <v>       0.75000000       0.20829000       0.72973000 </v>
   <v>       0.25000000       0.79171000       0.27027000 </v>
   <v>       0.25000000       0.50000000       0.52367000 </v>
   <v>       0.75000000       0.50000000       0.47633000 </v>
  </varray>
 </structure>
</modeling>
