 running   24 mpi-ranks, with    1 threads/rank, on    1 nodes
 distrk:  each k-point on   24 cores,    1 groups
 distr:  one band on    1 cores,   24 groups
 vasp.6.4.3 19Mar24 (build May 31 2024 16:31:43) complex                        
  
 POSCAR found type information on POSCAR B 
 POSCAR found :  1 types and      14 ions
 Reading from existing POTCAR
 scaLAPACK will be used
 Reading from existing POTCAR
 LDA part: xc-table for (Slater+PW92), standard interpolation
 POSCAR, INCAR and KPOINTS ok, starting setup
 FFT: planning ... GRIDC
 FFT: planning ... GRID_SOFT
 FFT: planning ... GRID
 WAVECAR not read
 entering main loop
       N       E                     dE             d eps       ncg     rms          rms(c)
DAV:   1     0.799391115752E+02    0.79939E+02   -0.20051E+04 16800   0.862E+02
DAV:   2    -0.917890187757E+02   -0.17173E+03   -0.16094E+03 23040   0.168E+02
DAV:   3    -0.976304952278E+02   -0.58415E+01   -0.58084E+01 24624   0.275E+01
DAV:   4    -0.976647541644E+02   -0.34259E-01   -0.34257E-01 20136   0.244E+00
DAV:   5    -0.976651331152E+02   -0.37895E-03   -0.37894E-03 24576   0.245E-01    0.124E+01
DAV:   6    -0.922317053133E+02    0.54334E+01   -0.39608E+00 24192   0.660E+00    0.681E+00
DAV:   7    -0.905754889209E+02    0.16562E+01   -0.32274E+00 25176   0.587E+00    0.171E+00
DAV:   8    -0.905878573100E+02   -0.12368E-01   -0.23535E-01 18744   0.168E+00    0.705E-01
DAV:   9    -0.906020192620E+02   -0.14162E-01   -0.16936E-02 23496   0.439E-01    0.199E-01
DAV:  10    -0.906060687023E+02   -0.40494E-02   -0.20970E-03 19056   0.161E-01    0.609E-02
DAV:  11    -0.906071346750E+02   -0.10660E-02   -0.62531E-04 21672   0.868E-02    0.321E-02
DAV:  12    -0.906072508319E+02   -0.11616E-03   -0.93375E-05 20712   0.372E-02    0.429E-03
DAV:  13    -0.906072556876E+02   -0.48557E-05   -0.41231E-06 23520   0.882E-03    0.183E-03
DAV:  14    -0.906072563745E+02   -0.68689E-06   -0.29008E-07 20472   0.232E-03
   1 F= -.90607256E+02 E0= -.90605650E+02  d E =-.321283E-02
