   14   14    1    1
  0.1018897E+02  0.5691303E-09  0.4043852E-09  0.6197996E-09  0.5000000E-15
  1.000000000000000E-004
  CAR 
 Convergence                             
     42    175     48
 
  0.5000000E-01  0.3571429E-01  0.0000000E+00  0.3174603E-02
      1        -12.728282   1.000000
      2        -11.586004   1.000000
      3         -8.653557   1.000000
      4         -8.416414   1.000000
      5         -6.055189   1.000000
      6         -5.121166   1.000000
      7         -4.655957   1.000000
      8         -4.269443   1.000000
      9         -4.024907   1.000000
     10         -3.534535   1.000000
     11         -2.580182   1.000000
     12         -2.310767   1.000000
     13         -1.818977   1.000000
     14         -1.082717   1.000000
     15         -0.057722   1.000000
     16         -0.027766   1.000000
     17          0.172193   1.000000
     18          0.194876   1.000000
     19          0.581693   1.000000
     20          2.035336   0.000077
     21          2.098862   0.000000
     22          2.236437   0.000000
     23          5.481401   0.000000
     24          5.772962   0.000000
     25          5.863758   0.000000
     26          5.982950   0.000000
     27          6.841310   0.000000
     28          7.575269   0.000000
     29          7.906211   0.000000
     30          8.570061   0.000000
     31          8.842827   0.000000
     32          8.985777   0.000000
     33          9.098065   0.000000
     34         10.152385   0.000000
     35         11.210979   0.000000
     36         11.373130   0.000000
     37         11.705070   0.000000
     38         11.818899   0.000000
     39         11.973966   0.000000
     40         12.433917   0.000000
     41         12.909715   0.000000
     42         13.494608   0.000000
     43         13.521763   0.000000
     44         15.433677   0.000000
     45         15.618906   0.000000
     46         16.112641   0.000000
     47         16.378466   0.000000
     48         16.403537   0.000000
 
  0.1500000E+00  0.3571429E-01  0.0000000E+00  0.3174603E-02
      1        -12.684501   1.000000
      2        -11.659757   1.000000
      3         -8.632541   1.000000
      4         -8.404910   1.000000
      5         -5.986787   1.000000
      6         -5.463604   1.000000
      7         -4.779433   1.000000
      8         -4.002215   1.000000
      9         -3.784146   1.000000
     10         -3.195875   1.000000
     11         -2.650689   1.000000
     12         -2.290469   1.000000
     13         -1.898362   1.000000
     14         -1.389985   1.000000
     15         -0.017198   1.000000
     16         -0.003214   1.000000
     17          0.108197   1.000000
     18          0.214294   1.000000
     19          0.486693   1.000000
     20          1.948969   0.089987
     21          2.020789   0.000373
     22          2.114887   0.000000
     23          5.569799   0.000000
     24          5.783447   0.000000
     25          5.889254   0.000000
     26          6.329808   0.000000
     27          6.755402   0.000000
     28          7.212566   0.000000
     29          8.118465   0.000000
     30          8.706357   0.000000
     31          9.103080   0.000000
     32          9.170940   0.000000
     33          9.239960   0.000000
     34         10.269114   0.000000
     35         10.979575   0.000000
     36         11.168993   0.000000
     37         11.284478   0.000000
     38         11.735411   0.000000
     39         12.191479   0.000000
     40         12.524523   0.000000
     41         13.163820   0.000000
     42         13.169418   0.000000
     43         14.055356   0.000000
     44         14.920144   0.000000
     45         15.796162   0.000000
     46         15.872588   0.000000
     47         16.275578   0.000000
     48         16.561688   0.000000
 
  0.2500000E+00  0.3571429E-01  0.0000000E+00  0.3174603E-02
      1        -12.598809   1.000000
      2        -11.792684   1.000000
      3         -8.589044   1.000000
      4         -8.390212   1.000000
      5         -5.965352   1.000000
      6         -5.790905   1.000000
      7         -4.733858   1.000000
      8         -3.874017   1.000000
      9         -3.272716   1.000000
     10         -2.820340   1.000000
     11         -2.702252   1.000000
     12         -2.249624   1.000000
     13         -2.009942   1.000000
     14         -1.894798   1.000000
     15         -0.201918   1.000000
     16          0.027916   1.000000
     17          0.159064   1.000000
     18          0.169966   1.000000
     19          0.456387   1.000000
     20          1.801369   0.997701
     21          1.884318   0.687145
     22          1.887769   0.651790
     23          5.690353   0.000000
     24          5.740101   0.000000
     25          6.198485   0.000000
     26          6.628807   0.000000
     27          6.789469   0.000000
     28          6.957607   0.000000
     29          8.270849   0.000000
     30          8.854408   0.000000
     31          9.040280   0.000000
     32          9.614715   0.000000
     33          9.683224   0.000000
     34         10.316481   0.000000
     35         10.524103   0.000000
     36         10.664752   0.000000
     37         11.406562   0.000000
     38         11.876474   0.000000
     39         12.426682   0.000000
     40         12.608460   0.000000
     41         12.827362   0.000000
     42         12.962010   0.000000
     43         14.682219   0.000000
     44         14.965898   0.000000
     45         15.266426   0.000000
     46         16.030834   0.000000
     47         16.048532   0.000000
     48         16.342178   0.000000
 
  0.3500000E+00  0.3571429E-01  0.0000000E+00  0.3174603E-02
      1        -12.475214   1.000000
      2        -11.962048   1.000000
      3         -8.527232   1.000000
      4         -8.387095   1.000000
      5         -6.046790   1.000000
      6         -6.024205   1.000000
      7         -4.405876   1.000000
      8         -3.704386   1.000000
      9         -3.015156   1.000000
     10         -2.887239   1.000000
     11         -2.433117   1.000000
     12         -2.240036   1.000000
     13         -2.130407   1.000000
     14         -2.112020   1.000000
     15         -0.500999   1.000000
     16         -0.228418   1.000000
     17          0.185757   1.000000
     18          0.261588   1.000000
     19          0.629878   1.000000
     20          1.548320   1.000000
     21          1.677866   1.000000
     22          1.739065   0.999998
     23          5.724345   0.000000
     24          5.775951   0.000000
     25          6.526760   0.000000
     26          6.697637   0.000000
     27          6.723792   0.000000
     28          7.441363   0.000000
     29          8.396211   0.000000
     30          8.720867   0.000000
     31          8.846090   0.000000
     32          9.568844   0.000000
     33         10.095003   0.000000
     34         10.153343   0.000000
     35         10.437082   0.000000
     36         11.193046   0.000000
     37         11.438162   0.000000
     38         11.988074   0.000000
     39         12.242017   0.000000
     40         12.317192   0.000000
     41         12.556279   0.000000
     42         13.293487   0.000000
     43         14.751774   0.000000
     44         15.020149   0.000000
     45         15.314186   0.000000
     46         15.419010   0.000000
     47         15.620112   0.000000
     48         16.424646   0.000000
 
  0.4500000E+00  0.3571429E-01  0.0000000E+00  0.3174603E-02
      1        -12.320383   1.000000
      2        -12.144465   1.000000
      3         -8.461007   1.000000
      4         -8.409856   1.000000
      5         -6.137652   1.000000
      6         -6.132764   1.000000
      7         -3.889736   1.000000
      8         -3.494341   1.000000
      9         -3.289610   1.000000
     10         -3.255269   1.000000
     11         -2.351782   1.000000
     12         -2.221697   1.000000
     13         -1.946639   1.000000
     14         -1.895340   1.000000
     15         -0.721467   1.000000
     16         -0.586445   1.000000
     17          0.269298   1.000000
     18          0.303130   1.000000
     19          0.891051   1.000000
     20          1.208962   1.000000
     21          1.597159   1.000000
     22          1.624839   1.000000
     23          5.751660   0.000000
     24          5.788151   0.000000
     25          6.504585   0.000000
     26          6.568270   0.000000
     27          7.394760   0.000000
     28          8.104183   0.000000
     29          8.124522   0.000000
     30          8.514914   0.000000
     31          8.654721   0.000000
     32          8.821721   0.000000
     33         10.536316   0.000000
     34         10.554433   0.000000
     35         10.800680   0.000000
     36         11.259365   0.000000
     37         11.444235   0.000000
     38         11.643755   0.000000
     39         11.978327   0.000000
     40         12.522167   0.000000
     41         12.752091   0.000000
     42         13.290092   0.000000
     43         14.628668   0.000000
     44         14.780497   0.000000
     45         14.910309   0.000000
     46         14.968634   0.000000
     47         16.152764   0.000000
     48         16.496568   0.000000
 
  0.5000000E-01  0.1071429E+00  0.0000000E+00  0.3174603E-02
      1        -12.704203   1.000000
      2        -11.564431   1.000000
      3         -8.634673   1.000000
      4         -8.393173   1.000000
      5         -6.028282   1.000000
      6         -5.087384   1.000000
      7         -4.633785   1.000000
      8         -4.567234   1.000000
      9         -4.169119   1.000000
     10         -3.511535   1.000000
     11         -3.274338   1.000000
     12         -1.779936   1.000000
     13         -1.078120   1.000000
     14         -1.019230   1.000000
     15         -0.292111   1.000000
     16         -0.264103   1.000000
     17          0.185685   1.000000
     18          0.265144   1.000000
     19          0.660308   1.000000
     20          1.766804   0.999931
     21          1.847223   0.937851
     22          2.288788   0.000000
     23          5.598532   0.000000
     24          5.732419   0.000000
     25          5.764560   0.000000
     26          6.034017   0.000000
     27          7.128482   0.000000
     28          7.861226   0.000000
     29          8.109044   0.000000
     30          8.217486   0.000000
     31          8.846550   0.000000
     32          9.141529   0.000000
     33          9.190952   0.000000
     34         10.606840   0.000000
     35         11.303748   0.000000
     36         11.427831   0.000000
     37         11.638608   0.000000
     38         11.922028   0.000000
     39         12.084494   0.000000
     40         12.715575   0.000000
     41         12.909128   0.000000
     42         13.229501   0.000000
     43         13.237185   0.000000
     44         15.379662   0.000000
     45         15.431546   0.000000
     46         15.904781   0.000000
     47         15.921609   0.000000
     48         16.269734   0.000000
 
  0.1500000E+00  0.1071429E+00  0.0000000E+00  0.3174603E-02
      1        -12.660519   1.000000
      2        -11.638035   1.000000
      3         -8.613519   1.000000
      4         -8.382051   1.000000
      5         -5.958087   1.000000
      6         -5.433486   1.000000
      7         -4.759296   1.000000
      8         -4.483319   1.000000
      9         -3.744165   1.000000
     10         -3.355587   1.000000
     11         -3.157527   1.000000
     12         -1.758113   1.000000
     13         -1.384568   1.000000
     14         -1.139611   1.000000
     15         -0.252891   1.000000
     16         -0.181653   1.000000
     17          0.153608   1.000000
     18          0.235640   1.000000
     19          0.557676   1.000000
     20          1.686093   1.000000
     21          1.770612   0.999894
     22          2.157612   0.000000
     23          5.674187   0.000000
     24          5.830614   0.000000
     25          5.961924   0.000000
     26          6.136097   0.000000
     27          7.044669   0.000000
     28          7.535601   0.000000
     29          8.254886   0.000000
     30          8.390238   0.000000
     31          9.174499   0.000000
     32          9.199460   0.000000
     33          9.453461   0.000000
     34         10.534684   0.000000
     35         10.910037   0.000000
     36         11.121186   0.000000
     37         11.482713   0.000000
     38         11.908323   0.000000
     39         12.304576   0.000000
     40         12.773484   0.000000
     41         12.906120   0.000000
     42         13.193602   0.000000
     43         13.771328   0.000000
     44         15.005681   0.000000
     45         15.446146   0.000000
     46         15.794006   0.000000
     47         15.845151   0.000000
     48         16.449901   0.000000
 
  0.2500000E+00  0.1071429E+00  0.0000000E+00  0.3174603E-02
      1        -12.575026   1.000000
      2        -11.770683   1.000000
      3         -8.569815   1.000000
      4         -8.368060   1.000000
      5         -5.933874   1.000000
      6         -5.760411   1.000000
      7         -4.717124   1.000000
      8         -4.374132   1.000000
      9         -3.478129   1.000000
     10         -3.217428   1.000000
     11         -2.690109   1.000000
     12         -1.890232   1.000000
     13         -1.713577   1.000000
     14         -1.303927   1.000000
     15         -0.204956   1.000000
     16         -0.204465   1.000000
     17          0.065983   1.000000
     18          0.222889   1.000000
     19          0.481097   1.000000
     20          1.550787   1.000000
     21          1.640240   1.000000
     22          1.908711   0.419888
     23          5.881804   0.000000
     24          5.957925   0.000000
     25          6.035215   0.000000
     26          6.586196   0.000000
     27          6.923392   0.000000
     28          7.307094   0.000000
     29          8.460761   0.000000
     30          8.524454   0.000000
     31          9.141893   0.000000
     32          9.652047   0.000000
     33          9.909650   0.000000
     34         10.159532   0.000000
     35         10.390218   0.000000
     36         10.863157   0.000000
     37         11.550290   0.000000
     38         12.142315   0.000000
     39         12.348950   0.000000
     40         12.589166   0.000000
     41         13.001641   0.000000
     42         13.058552   0.000000
     43         14.349134   0.000000
     44         15.135567   0.000000
     45         15.206974   0.000000
     46         15.692943   0.000000
     47         15.753785   0.000000
     48         16.469799   0.000000
 
  0.3500000E+00  0.1071429E+00  0.0000000E+00  0.3174603E-02
      1        -12.451706   1.000000
      2        -11.939673   1.000000
      3         -8.507760   1.000000
      4         -8.365839   1.000000
      5         -6.014100   1.000000
      6         -5.992793   1.000000
      7         -4.391292   1.000000
      8         -4.226328   1.000000
      9         -3.650629   1.000000
     10         -2.836640   1.000000
     11         -2.351076   1.000000
     12         -2.206120   1.000000
     13         -1.648975   1.000000
     14         -1.468020   1.000000
     15         -0.462051   1.000000
     16         -0.292839   1.000000
     17          0.098574   1.000000
     18          0.127744   1.000000
     19          0.640638   1.000000
     20          1.411036   1.000000
     21          1.494447   1.000000
     22          1.583833   1.000000
     23          5.900258   0.000000
     24          6.031859   0.000000
     25          6.540931   0.000000
     26          6.833034   0.000000
     27          6.905475   0.000000
     28          7.398968   0.000000
     29          8.447880   0.000000
     30          8.633103   0.000000
     31          8.976595   0.000000
     32          9.403368   0.000000
     33         10.109167   0.000000
     34         10.137379   0.000000
     35         10.476991   0.000000
     36         11.270803   0.000000
     37         11.399785   0.000000
     38         11.880425   0.000000
     39         12.338393   0.000000
     40         12.580834   0.000000
     41         12.757120   0.000000
     42         13.497044   0.000000
     43         14.809575   0.000000
     44         14.816050   0.000000
     45         15.201284   0.000000
     46         15.351762   0.000000
     47         15.700672   0.000000
     48         16.437109   0.000000
 
  0.4500000E+00  0.1071429E+00  0.0000000E+00  0.3174603E-02
      1        -12.297226   1.000000
      2        -12.121695   1.000000
      3         -8.441199   1.000000
      4         -8.389455   1.000000
      5         -6.105418   1.000000
      6         -6.100063   1.000000
      7         -4.046462   1.000000
      8         -3.882586   1.000000
      9         -3.841158   1.000000
     10         -3.276680   1.000000
     11         -2.097698   1.000000
     12         -1.902556   1.000000
     13         -1.580810   1.000000
     14         -1.579644   1.000000
     15         -0.682939   1.000000
     16         -0.582862   1.000000
     17          0.130759   1.000000
     18          0.162087   1.000000
     19          0.900478   1.000000
     20          1.215275   1.000000
     21          1.357232   1.000000
     22          1.381563   1.000000
     23          5.950761   0.000000
     24          6.015625   0.000000
     25          6.821259   0.000000
     26          6.871547   0.000000
     27          7.210277   0.000000
     28          7.925007   0.000000
     29          7.971687   0.000000
     30          8.656387   0.000000
     31          8.726558   0.000000
     32          8.840174   0.000000
     33         10.357544   0.000000
     34         10.605209   0.000000
     35         10.840958   0.000000
     36         10.948981   0.000000
     37         11.591325   0.000000
     38         11.703365   0.000000
     39         12.058440   0.000000
     40         12.692794   0.000000
     41         13.062036   0.000000
     42         13.522666   0.000000
     43         14.591714   0.000000
     44         14.775921   0.000000
     45         14.871611   0.000000
     46         15.088811   0.000000
     47         16.176218   0.000000
     48         16.470404   0.000000
 
  0.5000000E-01  0.1785714E+00  0.0000000E+00  0.3174603E-02
      1        -12.659714   1.000000
      2        -11.524651   1.000000
      3         -8.600096   1.000000
      4         -8.350291   1.000000
      5         -5.978531   1.000000
      6         -5.124485   1.000000
      7         -4.995971   1.000000
      8         -4.591754   1.000000
      9         -4.153254   1.000000
     10         -3.897249   1.000000
     11         -3.458099   1.000000
     12         -1.191600   1.000000
     13         -1.068722   1.000000
     14         -0.637478   1.000000
     15         -0.529988   1.000000
     16         -0.159558   1.000000
     17          0.206958   1.000000
     18          0.318477   1.000000
     19          0.739069   1.000000
     20          1.382738   1.000000
     21          1.446941   1.000000
     22          2.327147   0.000000
     23          5.307507   0.000000
     24          5.474316   0.000000
     25          6.149294   0.000000
     26          6.223592   0.000000
     27          7.566205   0.000000
     28          7.654894   0.000000
     29          8.345352   0.000000
     30          8.761501   0.000000
     31          8.917152   0.000000
     32          9.285158   0.000000
     33          9.409355   0.000000
     34         10.915920   0.000000
     35         11.353996   0.000000
     36         11.609702   0.000000
     37         11.731390   0.000000
     38         12.123445   0.000000
     39         12.300917   0.000000
     40         12.783162   0.000000
     41         12.797271   0.000000
     42         13.049566   0.000000
     43         13.258270   0.000000
     44         14.726799   0.000000
     45         15.207595   0.000000
     46         15.393371   0.000000
     47         15.471128   0.000000
     48         16.011735   0.000000
 
  0.1500000E+00  0.1785714E+00  0.0000000E+00  0.3174603E-02
      1        -12.616218   1.000000
      2        -11.597964   1.000000
      3         -8.578646   1.000000
      4         -8.339878   1.000000
      5         -5.904904   1.000000
      6         -5.385603   1.000000
      7         -5.024482   1.000000
      8         -4.721373   1.000000
      9         -3.963782   1.000000
     10         -3.701731   1.000000
     11         -3.118060   1.000000
     12         -1.376341   1.000000
     13         -1.164913   1.000000
     14         -0.744082   1.000000
     15         -0.491877   1.000000
     16         -0.078922   1.000000
     17          0.188665   1.000000
     18          0.260880   1.000000
     19          0.626710   1.000000
     20          1.303429   1.000000
     21          1.377098   1.000000
     22          2.190941   0.000000
     23          5.387654   0.000000
     24          5.821622   0.000000
     25          6.169576   0.000000
     26          6.263197   0.000000
     27          7.485208   0.000000
     28          7.811470   0.000000
     29          8.077550   0.000000
     30          8.851671   0.000000
     31          9.295762   0.000000
     32          9.322051   0.000000
     33          9.694599   0.000000
     34         10.551267   0.000000
     35         10.814942   0.000000
     36         11.312780   0.000000
     37         11.749518   0.000000
     38         12.234720   0.000000
     39         12.467679   0.000000
     40         12.535286   0.000000
     41         13.203090   0.000000
     42         13.307990   0.000000
     43         13.479028   0.000000
     44         14.735487   0.000000
     45         14.867978   0.000000
     46         15.338193   0.000000
     47         15.534765   0.000000
     48         16.033641   0.000000
 
  0.2500000E+00  0.1785714E+00  0.0000000E+00  0.3174603E-02
      1        -12.531082   1.000000
      2        -11.730086   1.000000
      3         -8.534536   1.000000
      4         -8.327229   1.000000
      5         -5.875266   1.000000
      6         -5.705469   1.000000
      7         -4.932691   1.000000
      8         -4.685871   1.000000
      9         -4.088146   1.000000
     10         -3.166640   1.000000
     11         -2.645983   1.000000
     12         -1.873789   1.000000
     13         -1.124056   1.000000
     14         -0.882566   1.000000
     15         -0.438625   1.000000
     16         -0.067727   1.000000
     17          0.027955   1.000000
     18          0.273218   1.000000
     19          0.511288   1.000000
     20          1.171620   1.000000
     21          1.258561   1.000000
     22          1.933725   0.181500
     23          5.709518   0.000000
     24          6.124549   0.000000
     25          6.299444   0.000000
     26          6.392609   0.000000
     27          7.382224   0.000000
     28          7.887529   0.000000
     29          8.045190   0.000000
     30          8.980051   0.000000
     31          9.286674   0.000000
     32          9.756529   0.000000
     33          9.884963   0.000000
     34         10.176423   0.000000
     35         10.289231   0.000000
     36         11.101823   0.000000
     37         11.620553   0.000000
     38         12.141630   0.000000
     39         12.547018   0.000000
     40         12.835573   0.000000
     41         13.086860   0.000000
     42         13.483953   0.000000
     43         14.001836   0.000000
     44         14.642404   0.000000
     45         14.918067   0.000000
     46         15.355698   0.000000
     47         15.555375   0.000000
     48         16.244139   0.000000
 
  0.3500000E+00  0.1785714E+00  0.0000000E+00  0.3174603E-02
      1        -12.408283   1.000000
      2        -11.898394   1.000000
      3         -8.472044   1.000000
      4         -8.326730   1.000000
      5         -5.953194   1.000000
      6         -5.934887   1.000000
      7         -4.796271   1.000000
      8         -4.364423   1.000000
      9         -4.253639   1.000000
     10         -2.797543   1.000000
     11         -2.309658   1.000000
     12         -2.164916   1.000000
     13         -1.067236   1.000000
     14         -1.019117   1.000000
     15         -0.442697   1.000000
     16         -0.354624   1.000000
     17          0.072096   1.000000
     18          0.077043   1.000000
     19          0.658356   1.000000
     20          1.041774   1.000000
     21          1.125522   1.000000
     22          1.598015   1.000000
     23          6.135277   0.000000
     24          6.246312   0.000000
     25          6.424651   0.000000
     26          6.828295   0.000000
     27          7.325368   0.000000
     28          7.808195   0.000000
     29          8.098811   0.000000
     30          9.079722   0.000000
     31          9.136153   0.000000
     32          9.211196   0.000000
     33          9.925556   0.000000
     34         10.224807   0.000000
     35         10.736042   0.000000
     36         11.114414   0.000000
     37         11.370160   0.000000
     38         11.987943   0.000000
     39         12.401191   0.000000
     40         13.022164   0.000000
     41         13.073078   0.000000
     42         13.829833   0.000000
     43         14.427320   0.000000
     44         14.441106   0.000000
     45         15.076005   0.000000
     46         15.168571   0.000000
     47         15.662480   0.000000
     48         16.420348   0.000000
 
  0.4500000E+00  0.1785714E+00  0.0000000E+00  0.3174603E-02
      1        -12.254452   1.000000
      2        -12.079656   1.000000
      3         -8.404825   1.000000
      4         -8.351961   1.000000
      5         -6.045561   1.000000
      6         -6.039152   1.000000
      7         -4.627674   1.000000
      8         -4.441044   1.000000
      9         -3.850997   1.000000
     10         -3.253974   1.000000
     11         -2.027930   1.000000
     12         -1.861634   1.000000
     13         -1.089757   1.000000
     14         -1.026905   1.000000
     15         -0.613974   1.000000
     16         -0.606101   1.000000
     17          0.022066   1.000000
     18          0.065631   1.000000
     19          0.916181   1.000000
     20          0.979550   1.000000
     21          1.020656   1.000000
     22          1.243882   1.000000
     23          6.226780   0.000000
     24          6.344267   0.000000
     25          6.900951   0.000000
     26          7.243302   0.000000
     27          7.302592   0.000000
     28          7.647114   0.000000
     29          7.955816   0.000000
     30          8.469222   0.000000
     31          9.136173   0.000000
     32          9.168712   0.000000
     33         10.048750   0.000000
     34         10.520297   0.000000
     35         10.745502   0.000000
     36         11.012778   0.000000
     37         11.771907   0.000000
     38         11.793709   0.000000
     39         12.180742   0.000000
     40         12.952656   0.000000
     41         13.453731   0.000000
     42         13.802745   0.000000
     43         14.272351   0.000000
     44         14.427177   0.000000
     45         15.035417   0.000000
     46         15.176054   0.000000
     47         16.038004   0.000000
     48         16.342850   0.000000
 
  0.5000000E-01  0.2500000E+00  0.0000000E+00  0.3174603E-02
      1        -12.602072   1.000000
      2        -11.473261   1.000000
      3         -8.555911   1.000000
      4         -8.294816   1.000000
      5         -5.913933   1.000000
      6         -5.606073   1.000000
      7         -4.925302   1.000000
      8         -4.535190   1.000000
      9         -4.418112   1.000000
     10         -4.113802   1.000000
     11         -3.395826   1.000000
     12         -1.210937   1.000000
     13         -1.054522   1.000000
     14         -0.993581   1.000000
     15         -0.179381   1.000000
     16          0.235370   1.000000
     17          0.362195   1.000000
     18          0.611978   1.000000
     19          0.803058   1.000000
     20          0.996746   1.000000
     21          1.011033   1.000000
     22          2.361597   0.000000
     23          4.962249   0.000000
     24          5.179516   0.000000
     25          6.384703   0.000000
     26          6.613969   0.000000
     27          7.295108   0.000000
     28          8.000322   0.000000
     29          8.738443   0.000000
     30          9.088709   0.000000
     31          9.506794   0.000000
     32          9.611749   0.000000
     33          9.690609   0.000000
     34         10.777445   0.000000
     35         11.306246   0.000000
     36         12.001091   0.000000
     37         12.049410   0.000000
     38         12.333942   0.000000
     39         12.459109   0.000000
     40         12.481974   0.000000
     41         12.601937   0.000000
     42         13.035299   0.000000
     43         13.842953   0.000000
     44         13.918251   0.000000
     45         14.464158   0.000000
     46         15.143659   0.000000
     47         15.442792   0.000000
     48         15.914229   0.000000
 
  0.1500000E+00  0.2500000E+00  0.0000000E+00  0.3174603E-02
      1        -12.558820   1.000000
      2        -11.546203   1.000000
      3         -8.534076   1.000000
      4         -8.285370   1.000000
      5         -5.835668   1.000000
      6         -5.571357   1.000000
      7         -5.263562   1.000000
      8         -4.671187   1.000000