       N       E                     dE             d eps       ncg     rms          rms(c)
DAV:   1     0.885070262854E+01    0.88507E+01   -0.36649E+02  8400   0.488E+01
