 vasp.6.4.3 19Mar24 (build May 31 2024 16:31:43) complex                        
  
 executed on             LinuxIFC date 2024.11.03  02:05:52
 running   24 mpi-ranks, with    1 threads/rank, on    1 nodes
 distrk:  each k-point on   24 cores,    1 groups
 distr:  one band on NCORE=   1 cores,   24 groups


--------------------------------------------------------------------------------------------------------


 INCAR:
   SYSTEM = Convergence
   ISTART = 0
   ICHARG = 2
   PREC = Accurate
   ENCUT = 800
   LCHARG = .FALSE.
   LWAVE = .FALSE.
   ALGO = Normal
   NELM = 100
   EDIFF = 1E-6
   EDIFFG = -1E-3
   SIGMA = 0.05
   ISMEAR = 0
   ISPIN = 1
   NSW = 0
   IBRION = -1
   POTIM = .5
   ISIF = 2
   GGA = PE

 POTCAR:    PAW_PBE B 06Sep2000                   
 POTCAR:    PAW_PBE B 06Sep2000                   
   SHA256 =  a32ced30f5ae56fd4d10b4325ff17eb3e4e38ee0f4288bc219fb012fddfa6e97 B/POTCAR              
   COPYR  = (c) Copyright 06Sep2000 Georg Kresse                                                    
   COPYR  = This file is part of the software VASP. Any use, copying, and all other rights are regul
   COPYR  = If you do not have a valid VASP license, you may not use, copy or distribute this file. 
   VRHFIN =B: s2p1                                                                                  
   LEXCH  = PE                                                                                      
   EATOM  =    71.1703 eV,    5.2309 Ry                                                             
                                                                                                    
   TITEL  = PAW_PBE B 06Sep2000                                                                     
   LULTRA =        F    use ultrasoft PP ?                                                          
   IUNSCR =        1    unscreen: 0-lin 1-nonlin 2-no                                               
   RPACOR =    1.200    partial core radius                                                         
   POMASS =   10.811; ZVAL   =    3.000    mass and valenz                                          
   RCORE  =    1.700    outmost cutoff radius                                                       
   RWIGS  =    1.710; RWIGS  =    0.905    wigner-seitz radius (au A)                               
   ENMAX  =  318.614; ENMIN  =  238.960 eV                                                          
   ICORE  =        2    local potential                                                             
   LCOR   =        T    correct aug charges                                                         
   LPAW   =        T    paw PP                                                                      
   EAUG   =  535.514                                                                                
   DEXC   =    0.000                                                                                
   RMAX   =    1.732    core radius for proj-oper                                                   
   RAUG   =    1.300    factor for augmentation sphere                                              
   RDEP   =    1.757    radius for radial grids                                                     
   RDEPT  =    1.436    core radius for aug-charge                                                  
                                                                                                    
   Atomic configuration                                                                             
    4 entries                                                                                       
     n  l   j            E        occ.                                                              
     1  0  0.50      -180.5896   2.0000                                                             
     2  0  0.50        -9.4431   2.0000                                                             
     2  1  0.50        -3.6068   1.0000                                                             
     3  2  1.50        -4.0817   0.0000                                                             
   Description                                                                                      
     l       E           TYP  RCUT    TYP  RCUT                                                     
     0     -9.4430752     23  1.500                                                                 
     0      0.8675899     23  1.500                                                                 
     1     -3.6067955     23  1.700                                                                 
     1      6.1086146     23  1.700                                                                 
     2     -4.0817478      7  1.700                                                                 
  local pseudopotential read in
  partial core-charges read in
  partial kinetic energy density read in
  atomic valenz-charges read in
  non local Contribution for L=           0  read in
    real space projection operators read in
  non local Contribution for L=           0  read in
    real space projection operators read in
  non local Contribution for L=           1  read in
    real space projection operators read in
  non local Contribution for L=           1  read in
    real space projection operators read in
    PAW grid and wavefunctions read in
 
   number of l-projection  operators is LMAX  =           4
   number of lm-projection operators is LMMAX =           8
 
  PAW_PBE B 06Sep2000                   :
 energy of atom  1       EATOM=  -71.1703
 kinetic energy error for atom=    0.0002 (will be added to EATOM!!)
 
 
 POSCAR: B1
  positions in direct lattice
  No initial velocities read in


 exchange-correlation table for PE
   RHO(1)=    0.500       N(1)  =     2000
   RHO(2)=  100.500       N(2)  =     4000
 


--------------------------------------------------------------------------------------------------------


 ion  position               nearest neighbor table
   1  0.521  0.545  0.638-
 
  LATTYP: Found a simple orthorhombic cell.
 ALAT       =    12.5000000000
 B/A-ratio  =     1.2000000000
 C/A-ratio  =     1.4400000000
  
  Lattice vectors:
  
 A1 = (   0.0000000000, -12.5000000000,   0.0000000000)
 A2 = (  15.0000000000,   0.0000000000,   0.0000000000)
 A3 = (   0.0000000000,   0.0000000000,  18.0000000000)


Analysis of symmetry for initial positions (statically):
=====================================================================
 Subroutine PRICEL returns:
 Original cell was already a primitive cell.
 

 Routine SETGRP: Setting up the symmetry group for a 
 simple orthorhombic supercell.


 Subroutine GETGRP returns: Found  8 space group operations
 (whereof  1 operations were pure point group operations)
 out of a pool of  8 trial point group operations.


The static configuration has the point symmetry C_1 .
 The point group associated with its full space group is D_2h.


Analysis of symmetry for dynamics (positions and initial velocities):
=====================================================================
 Subroutine PRICEL returns:
 Original cell was already a primitive cell.
 

 Routine SETGRP: Setting up the symmetry group for a 
 simple orthorhombic supercell.


 Subroutine GETGRP returns: Found  8 space group operations
 (whereof  1 operations were pure point group operations)
 out of a pool of  8 trial point group operations.


The dynamic configuration has the point symmetry C_1 .
 The point group associated with its full space group is D_2h.


 Subroutine INISYM returns: Found  8 space group operations
 (whereof  1 operations are pure point group operations),
 and found     1 'primitive' translations


----------------------------------------------------------------------------------------

                                     Primitive cell                                     

  volume of cell :    3375.0000

  direct lattice vectors                    reciprocal lattice vectors
    15.000000000  0.000000000  0.000000000     0.066666667  0.000000000  0.000000000
     0.000000000 12.500000000  0.000000000     0.000000000  0.080000000  0.000000000
     0.000000000  0.000000000 18.000000000     0.000000000  0.000000000  0.055555556

  length of vectors
    15.000000000 12.500000000 18.000000000     0.066666667  0.080000000  0.055555556

  position of ions in fractional coordinates (direct lattice)
     0.521230000  0.545000000  0.637960000

  ion indices of the primitive-cell ions
   primitive index   ion index
                 1           1

----------------------------------------------------------------------------------------

 
 
 KPOINTS: k-points                                

Automatic generation of k-mesh.
 Grid dimensions read from file:
 generate k-points for:   10   14    9

 Generating k-lattice:

  Cartesian coordinates                     Fractional coordinates (reciprocal lattice)
     0.006666667  0.000000000  0.000000000     0.100000000  0.000000000  0.000000000
     0.000000000  0.005714286  0.000000000     0.000000000  0.071428571  0.000000000
     0.000000000  0.000000000  0.006172840     0.000000000  0.000000000  0.111111111

  Length of vectors
     0.006666667  0.005714286  0.006172840

  Shift w.r.t. Gamma in fractional coordinates (k-lattice)
     0.500000000  0.500000000  0.000000000

 
 Subroutine IBZKPT returns following result:
 ===========================================
 
 Found    175 irreducible k-points:
 
 Following reciprocal coordinates:
            Coordinates               Weight
  0.050000  0.035714  0.000000      4.000000
  0.150000  0.035714  0.000000      4.000000
  0.250000  0.035714  0.000000      4.000000
  0.350000  0.035714  0.000000      4.000000
  0.450000  0.035714  0.000000      4.000000
  0.050000  0.107143  0.000000      4.000000
  0.150000  0.107143  0.000000      4.000000
  0.250000  0.107143  0.000000      4.000000
  0.350000  0.107143  0.000000      4.000000
  0.450000  0.107143  0.000000      4.000000
  0.050000  0.178571  0.000000      4.000000
  0.150000  0.178571  0.000000      4.000000
  0.250000  0.178571  0.000000      4.000000
  0.350000  0.178571  0.000000      4.000000
  0.450000  0.178571  0.000000      4.000000
  0.050000  0.250000  0.000000      4.000000
  0.150000  0.250000  0.000000      4.000000
  0.250000  0.250000  0.000000      4.000000
  0.350000  0.250000  0.000000      4.000000
  0.450000  0.250000  0.000000      4.000000
  0.050000  0.321429  0.000000      4.000000
  0.150000  0.321429  0.000000      4.000000
  0.250000  0.321429  0.000000      4.000000
  0.350000  0.321429  0.000000      4.000000
  0.450000  0.321429  0.000000      4.000000
  0.050000  0.392857  0.000000      4.000000
  0.150000  0.392857  0.000000      4.000000
  0.250000  0.392857  0.000000      4.000000
  0.350000  0.392857  0.000000      4.000000
  0.450000  0.392857  0.000000      4.000000
  0.050000  0.464286  0.000000      4.000000
  0.150000  0.464286  0.000000      4.000000
  0.250000  0.464286  0.000000      4.000000
  0.350000  0.464286  0.000000      4.000000
  0.450000  0.464286  0.000000      4.000000
  0.050000  0.035714  0.111111      8.000000
  0.150000  0.035714  0.111111      8.000000
  0.250000  0.035714  0.111111      8.000000
  0.350000  0.035714  0.111111      8.000000
  0.450000  0.035714  0.111111      8.000000
  0.050000  0.107143  0.111111      8.000000
  0.150000  0.107143  0.111111      8.000000
  0.250000  0.107143  0.111111      8.000000
  0.350000  0.107143  0.111111      8.000000
  0.450000  0.107143  0.111111      8.000000
  0.050000  0.178571  0.111111      8.000000
  0.150000  0.178571  0.111111      8.000000
  0.250000  0.178571  0.111111      8.000000
  0.350000  0.178571  0.111111      8.000000
  0.450000  0.178571  0.111111      8.000000
  0.050000  0.250000  0.111111      8.000000
  0.150000  0.250000  0.111111      8.000000
  0.250000  0.250000  0.111111      8.000000
  0.350000  0.250000  0.111111      8.000000
  0.450000  0.250000  0.111111      8.000000
  0.050000  0.321429  0.111111      8.000000
  0.150000  0.321429  0.111111      8.000000
  0.250000  0.321429  0.111111      8.000000
  0.350000  0.321429  0.111111      8.000000
  0.450000  0.321429  0.111111      8.000000
  0.050000  0.392857  0.111111      8.000000
  0.150000  0.392857  0.111111      8.000000
  0.250000  0.392857  0.111111      8.000000
  0.350000  0.392857  0.111111      8.000000
  0.450000  0.392857  0.111111      8.000000
  0.050000  0.464286  0.111111      8.000000
  0.150000  0.464286  0.111111      8.000000
  0.250000  0.464286  0.111111      8.000000
  0.350000  0.464286  0.111111      8.000000
  0.450000  0.464286  0.111111      8.000000
  0.050000  0.035714  0.222222      8.000000
  0.150000  0.035714  0.222222      8.000000
  0.250000  0.035714  0.222222      8.000000
  0.350000  0.035714  0.222222      8.000000
  0.450000  0.035714  0.222222      8.000000
  0.050000  0.107143  0.222222      8.000000
  0.150000  0.107143  0.222222      8.000000
  0.250000  0.107143  0.222222      8.000000
  0.350000  0.107143  0.222222      8.000000
  0.450000  0.107143  0.222222      8.000000
  0.050000  0.178571  0.222222      8.000000
  0.150000  0.178571  0.222222      8.000000
  0.250000  0.178571  0.222222      8.000000
  0.350000  0.178571  0.222222      8.000000
  0.450000  0.178571  0.222222      8.000000
  0.050000  0.250000  0.222222      8.000000
  0.150000  0.250000  0.222222      8.000000
  0.250000  0.250000  0.222222      8.000000
  0.350000  0.250000  0.222222      8.000000
  0.450000  0.250000  0.222222      8.000000
  0.050000  0.321429  0.222222      8.000000
  0.150000  0.321429  0.222222      8.000000
  0.250000  0.321429  0.222222      8.000000
  0.350000  0.321429  0.222222      8.000000
  0.450000  0.321429  0.222222      8.000000
  0.050000  0.392857  0.222222      8.000000
  0.150000  0.392857  0.222222      8.000000
  0.250000  0.392857  0.222222      8.000000
  0.350000  0.392857  0.222222      8.000000
  0.450000  0.392857  0.222222      8.000000
  0.050000  0.464286  0.222222      8.000000
  0.150000  0.464286  0.222222      8.000000
  0.250000  0.464286  0.222222      8.000000
  0.350000  0.464286  0.222222      8.000000
  0.450000  0.464286  0.222222      8.000000
  0.050000  0.035714  0.333333      8.000000
  0.150000  0.035714  0.333333      8.000000
  0.250000  0.035714  0.333333      8.000000
  0.350000  0.035714  0.333333      8.000000
  0.450000  0.035714  0.333333      8.000000
  0.050000  0.107143  0.333333      8.000000
  0.150000  0.107143  0.333333      8.000000
  0.250000  0.107143  0.333333      8.000000
  0.350000  0.107143  0.333333      8.000000
  0.450000  0.107143  0.333333      8.000000
  0.050000  0.178571  0.333333      8.000000
  0.150000  0.178571  0.333333      8.000000
  0.250000  0.178571  0.333333      8.000000
  0.350000  0.178571  0.333333      8.000000
  0.450000  0.178571  0.333333      8.000000
  0.050000  0.250000  0.333333      8.000000
  0.150000  0.250000  0.333333      8.000000
  0.250000  0.250000  0.333333      8.000000
  0.350000  0.250000  0.333333      8.000000
  0.450000  0.250000  0.333333      8.000000
  0.050000  0.321429  0.333333      8.000000
  0.150000  0.321429  0.333333      8.000000
  0.250000  0.321429  0.333333      8.000000
  0.350000  0.321429  0.333333      8.000000
  0.450000  0.321429  0.333333      8.000000
  0.050000  0.392857  0.333333      8.000000
  0.150000  0.392857  0.333333      8.000000
  0.250000  0.392857  0.333333      8.000000
  0.350000  0.392857  0.333333      8.000000
  0.450000  0.392857  0.333333      8.000000
  0.050000  0.464286  0.333333      8.000000
  0.150000  0.464286  0.333333      8.000000
  0.250000  0.464286  0.333333      8.000000
  0.350000  0.464286  0.333333      8.000000
  0.450000  0.464286  0.333333      8.000000
  0.050000  0.035714  0.444444      8.000000
  0.150000  0.035714  0.444444      8.000000
  0.250000  0.035714  0.444444      8.000000
  0.350000  0.035714  0.444444      8.000000
  0.450000  0.035714  0.444444      8.000000
  0.050000  0.107143  0.444444      8.000000
  0.150000  0.107143  0.444444      8.000000
  0.250000  0.107143  0.444444      8.000000
  0.350000  0.107143  0.444444      8.000000
  0.450000  0.107143  0.444444      8.000000
  0.050000  0.178571  0.444444      8.000000
  0.150000  0.178571  0.444444      8.000000
  0.250000  0.178571  0.444444      8.000000
  0.350000  0.178571  0.444444      8.000000
  0.450000  0.178571  0.444444      8.000000
  0.050000  0.250000  0.444444      8.000000
  0.150000  0.250000  0.444444      8.000000
  0.250000  0.250000  0.444444      8.000000
  0.350000  0.250000  0.444444      8.000000
  0.450000  0.250000  0.444444      8.000000
  0.050000  0.321429  0.444444      8.000000
  0.150000  0.321429  0.444444      8.000000
  0.250000  0.321429  0.444444      8.000000
  0.350000  0.321429  0.444444      8.000000
  0.450000  0.321429  0.444444      8.000000
  0.050000  0.392857  0.444444      8.000000
  0.150000  0.392857  0.444444      8.000000
  0.250000  0.392857  0.444444      8.000000
  0.350000  0.392857  0.444444      8.000000
  0.450000  0.392857  0.444444      8.000000
  0.050000  0.464286  0.444444      8.000000
  0.150000  0.464286  0.444444      8.000000
  0.250000  0.464286  0.444444      8.000000
  0.350000  0.464286  0.444444      8.000000
  0.450000  0.464286  0.444444      8.000000
 
 Following cartesian coordinates:
            Coordinates               Weight
  0.003333  0.002857  0.000000      4.000000
  0.010000  0.002857  0.000000      4.000000
  0.016667  0.002857  0.000000      4.000000
  0.023333  0.002857  0.000000      4.000000
  0.030000  0.002857  0.000000      4.000000
  0.003333  0.008571  0.000000      4.000000
  0.010000  0.008571  0.000000      4.000000
  0.016667  0.008571  0.000000      4.000000
  0.023333  0.008571  0.000000      4.000000
  0.030000  0.008571  0.000000      4.000000
  0.003333  0.014286  0.000000      4.000000
  0.010000  0.014286  0.000000      4.000000
  0.016667  0.014286  0.000000      4.000000
  0.023333  0.014286  0.000000      4.000000
  0.030000  0.014286  0.000000      4.000000
  0.003333  0.020000  0.000000      4.000000
  0.010000  0.020000  0.000000      4.000000
  0.016667  0.020000  0.000000      4.000000
  0.023333  0.020000  0.000000      4.000000
  0.030000  0.020000  0.000000      4.000000
  0.003333  0.025714  0.000000      4.000000
  0.010000  0.025714  0.000000      4.000000
  0.016667  0.025714  0.000000      4.000000
  0.023333  0.025714  0.000000      4.000000
  0.030000  0.025714  0.000000      4.000000
  0.003333  0.031429  0.000000      4.000000
  0.010000  0.031429  0.000000      4.000000
  0.016667  0.031429  0.000000      4.000000
  0.023333  0.031429  0.000000      4.000000
  0.030000  0.031429  0.000000      4.000000
  0.003333  0.037143  0.000000      4.000000
  0.010000  0.037143  0.000000      4.000000
  0.016667  0.037143  0.000000      4.000000
  0.023333  0.037143  0.000000      4.000000
  0.030000  0.037143  0.000000      4.000000
  0.003333  0.002857  0.006173      8.000000
  0.010000  0.002857  0.006173      8.000000
  0.016667  0.002857  0.006173      8.000000
  0.023333  0.002857  0.006173      8.000000
  0.030000  0.002857  0.006173      8.000000
  0.003333  0.008571  0.006173      8.000000
  0.010000  0.008571  0.006173      8.000000
  0.016667  0.008571  0.006173      8.000000
  0.023333  0.008571  0.006173      8.000000
  0.030000  0.008571  0.006173      8.000000
  0.003333  0.014286  0.006173      8.000000
  0.010000  0.014286  0.006173      8.000000
  0.016667  0.014286  0.006173      8.000000
  0.023333  0.014286  0.006173      8.000000
  0.030000  0.014286  0.006173      8.000000
  0.003333  0.020000  0.006173      8.000000
  0.010000  0.020000  0.006173      8.000000
  0.016667  0.020000  0.006173      8.000000
  0.023333  0.020000  0.006173      8.000000
  0.030000  0.020000  0.006173      8.000000
  0.003333  0.025714  0.006173      8.000000
  0.010000  0.025714  0.006173      8.000000
  0.016667  0.025714  0.006173      8.000000
  0.023333  0.025714  0.006173      8.000000
  0.030000  0.025714  0.006173      8.000000
  0.003333  0.031429  0.006173      8.000000
  0.010000  0.031429  0.006173      8.000000
  0.016667  0.031429  0.006173      8.000000
  0.023333  0.031429  0.006173      8.000000
  0.030000  0.031429  0.006173      8.000000
  0.003333  0.037143  0.006173      8.000000
  0.010000  0.037143  0.006173      8.000000
  0.016667  0.037143  0.006173      8.000000
  0.023333  0.037143  0.006173      8.000000
  0.030000  0.037143  0.006173      8.000000
  0.003333  0.002857  0.012346      8.000000
  0.010000  0.002857  0.012346      8.000000
  0.016667  0.002857  0.012346      8.000000
  0.023333  0.002857  0.012346      8.000000
  0.030000  0.002857  0.012346      8.000000
  0.003333  0.008571  0.012346      8.000000
  0.010000  0.008571  0.012346      8.000000
  0.016667  0.008571  0.012346      8.000000
  0.023333  0.008571  0.012346      8.000000
  0.030000  0.008571  0.012346      8.000000
  0.003333  0.014286  0.012346      8.000000
  0.010000  0.014286  0.012346      8.000000
  0.016667  0.014286  0.012346      8.000000
  0.023333  0.014286  0.012346      8.000000
  0.030000  0.014286  0.012346      8.000000
  0.003333  0.020000  0.012346      8.000000
  0.010000  0.020000  0.012346      8.000000
  0.016667  0.020000  0.012346      8.000000
  0.023333  0.020000  0.012346      8.000000
  0.030000  0.020000  0.012346      8.000000
  0.003333  0.025714  0.012346      8.000000
  0.010000  0.025714  0.012346      8.000000
  0.016667  0.025714  0.012346      8.000000
  0.023333  0.025714  0.012346      8.000000
  0.030000  0.025714  0.012346      8.000000
  0.003333  0.031429  0.012346      8.000000
  0.010000  0.031429  0.012346      8.000000
  0.016667  0.031429  0.012346      8.000000
  0.023333  0.031429  0.012346      8.000000
  0.030000  0.031429  0.012346      8.000000
  0.003333  0.037143  0.012346      8.000000
  0.010000  0.037143  0.012346      8.000000
  0.016667  0.037143  0.012346      8.000000
  0.023333  0.037143  0.012346      8.000000
  0.030000  0.037143  0.012346      8.000000
  0.003333  0.002857  0.018519      8.000000
  0.010000  0.002857  0.018519      8.000000
  0.016667  0.002857  0.018519      8.000000
  0.023333  0.002857  0.018519      8.000000
  0.030000  0.002857  0.018519      8.000000
  0.003333  0.008571  0.018519      8.000000
  0.010000  0.008571  0.018519      8.000000
  0.016667  0.008571  0.018519      8.000000
  0.023333  0.008571  0.018519      8.000000
  0.030000  0.008571  0.018519      8.000000
  0.003333  0.014286  0.018519      8.000000
  0.010000  0.014286  0.018519      8.000000
  0.016667  0.014286  0.018519      8.000000
  0.023333  0.014286  0.018519      8.000000
  0.030000  0.014286  0.018519      8.000000
  0.003333  0.020000  0.018519      8.000000
  0.010000  0.020000  0.018519      8.000000
  0.016667  0.020000  0.018519      8.000000
  0.023333  0.020000  0.018519      8.000000
  0.030000  0.020000  0.018519      8.000000
  0.003333  0.025714  0.018519      8.000000
  0.010000  0.025714  0.018519      8.000000
  0.016667  0.025714  0.018519      8.000000
  0.023333  0.025714  0.018519      8.000000
  0.030000  0.025714  0.018519      8.000000
  0.003333  0.031429  0.018519      8.000000
  0.010000  0.031429  0.018519      8.000000
  0.016667  0.031429  0.018519      8.000000
  0.023333  0.031429  0.018519      8.000000
  0.030000  0.031429  0.018519      8.000000
  0.003333  0.037143  0.018519      8.000000
  0.010000  0.037143  0.018519      8.000000
  0.016667  0.037143  0.018519      8.000000
  0.023333  0.037143  0.018519      8.000000
  0.030000  0.037143  0.018519      8.000000
  0.003333  0.002857  0.024691      8.000000
  0.010000  0.002857  0.024691      8.000000
  0.016667  0.002857  0.024691      8.000000
  0.023333  0.002857  0.024691      8.000000
  0.030000  0.002857  0.024691      8.000000
  0.003333  0.008571  0.024691      8.000000
  0.010000  0.008571  0.024691      8.000000
  0.016667  0.008571  0.024691      8.000000
  0.023333  0.008571  0.024691      8.000000
  0.030000  0.008571  0.024691      8.000000
  0.003333  0.014286  0.024691      8.000000
  0.010000  0.014286  0.024691      8.000000
  0.016667  0.014286  0.024691      8.000000
  0.023333  0.014286  0.024691      8.000000
  0.030000  0.014286  0.024691      8.000000
  0.003333  0.020000  0.024691      8.000000
  0.010000  0.020000  0.024691      8.000000
  0.016667  0.020000  0.024691      8.000000
  0.023333  0.020000  0.024691      8.000000
  0.030000  0.020000  0.024691      8.000000
  0.003333  0.025714  0.024691      8.000000
  0.010000  0.025714  0.024691      8.000000
  0.016667  0.025714  0.024691      8.000000
  0.023333  0.025714  0.024691      8.000000
  0.030000  0.025714  0.024691      8.000000
  0.003333  0.031429  0.024691      8.000000
  0.010000  0.031429  0.024691      8.000000
  0.016667  0.031429  0.024691      8.000000
  0.023333  0.031429  0.024691      8.000000
  0.030000  0.031429  0.024691      8.000000
  0.003333  0.037143  0.024691      8.000000
  0.010000  0.037143  0.024691      8.000000
  0.016667  0.037143  0.024691      8.000000
  0.023333  0.037143  0.024691      8.000000
  0.030000  0.037143  0.024691      8.000000
 


--------------------------------------------------------------------------------------------------------




 Dimension of arrays:
   k-points           NKPTS =    175   k-points in BZ     NKDIM =    175   number of bands    NBANDS=     24
   number of dos      NEDOS =    301   number of ions     NIONS =      1
   non local maximal  LDIM  =      4   non local SUM 2l+1 LMDIM =      8
   total plane-waves  NPLWV = ******
   max r-space proj   IRMAX =      1   max aug-charges    IRDMAX=  13239
   dimension x,y,z NGX =   140 NGY =  120 NGZ =  168
   dimension x,y,z NGXF=   280 NGYF=  240 NGZF=  336
   support grid    NGXF=   280 NGYF=  240 NGZF=  336
   ions per type =               1
   NGX,Y,Z   is equivalent  to a cutoff of  15.52, 15.96, 15.52 a.u.
   NGXF,Y,Z  is equivalent  to a cutoff of  31.03, 31.92, 31.03 a.u.

 SYSTEM =  Convergence                             
 POSCAR =  B1                                      

 Startparameter for this run:
   NWRITE =      2    write-flag & timer
   PREC   = accura    normal or accurate (medium, high low for compatibility)
   ISTART =      0    job   : 0-new  1-cont  2-samecut
   ICHARG =      2    charge: 1-file 2-atom 10-const
   ISPIN  =      1    spin polarized calculation?
   LNONCOLLINEAR =      F non collinear calculations
   LSORBIT =      F    spin-orbit coupling
   INIWAV =      1    electr: 0-lowe 1-rand  2-diag
   LASPH  =      F    aspherical Exc in radial PAW
 Electronic Relaxation 1
   ENCUT  =  800.0 eV  58.80 Ry    7.67 a.u.  34.59 28.83 41.51*2*pi/ulx,y,z
   ENINI  =  800.0     initial cutoff
   ENAUG  =  535.5 eV  augmentation charge cutoff
   NELM   =    100;   NELMIN=  2; NELMDL= -5     # of ELM steps 
   EDIFF  = 0.1E-05   stopping-criterion for ELM
   LREAL  =      F    real-space projection
   NLSPLINE    = F    spline interpolate recip. space projectors
   LCOMPAT=      F    compatible to vasp.4.4
   GGA_COMPAT  = T    GGA compatible to vasp.4.4-vasp.4.6
   LMAXPAW     = -100 max onsite density
   LMAXMIX     =    2 max onsite mixed and CHGCAR
   VOSKOWN=      0    Vosko Wilk Nusair interpolation
   ROPT   =    0.00000
 Ionic relaxation
   EDIFFG = -.1E-02   stopping-criterion for IOM
   NSW    =      0    number of steps for IOM
   NBLOCK =      1;   KBLOCK =      1    inner block; outer block 
   IBRION =     -1    ionic relax: 0-MD 1-quasi-New 2-CG
   NFREE  =      0    steps in history (QN), initial steepest desc. (CG)
   ISIF   =      2    stress and relaxation
   IWAVPR =     10    prediction:  0-non 1-charg 2-wave 3-comb
   ISYM   =      2    0-nonsym 1-usesym 2-fastsym
   LCORR  =      T    Harris-Foulkes like correction to forces

   POTIM  = 0.5000    time-step for ionic-motion
   TEIN   =    0.0    initial temperature
   TEBEG  =    0.0;   TEEND  =   0.0 temperature during run
   SMASS  =  -3.00    Nose mass-parameter (am)
   estimated Nose-frequenzy (Omega)   =  0.10E-29 period in steps = 0.13E+47 mass=  -0.514E-26a.u.
   SCALEE = 1.0000    scale energy and forces
   NPACO  =    256;   APACO  = 10.0  distance and # of slots for P.C.
   PSTRESS=    0.0 pullay stress

  Mass of Ions in am
   POMASS =  10.81
  Ionic Valenz
   ZVAL   =   3.00
  Atomic Wigner-Seitz radii
   RWIGS  =  -1.00
  virtual crystal weights 
   VCA    =   1.00
   NELECT =       3.0000    total number of electrons
   NUPDOWN=      -1.0000    fix difference up-down

 DOS related values:
   EMIN   =  10.00;   EMAX   =-10.00  energy-range for DOS
   EFERMI =   0.00;   METHOD = LEGACY      
   ISMEAR =     0;   SIGMA  =   0.05  broadening in eV -4-tet -1-fermi 0-gaus

 Electronic relaxation 2 (details)
   IALGO  =     38    algorithm
   LDIAG  =      T    sub-space diagonalisation (order eigenvalues)
   LSUBROT=      F    optimize rotation matrix (better conditioning)
   TURBO    =      0    0=normal 1=particle mesh
   IRESTART =      0    0=no restart 2=restart with 2 vectors
   NREBOOT  =      0    no. of reboots
   NMIN     =      0    reboot dimension
   EREF     =   0.00    reference energy to select bands
   IMIX   =      4    mixing-type and parameters
     AMIX     =   0.40;   BMIX     =  1.00
     AMIX_MAG =   1.60;   BMIX_MAG =  1.00
     AMIN     =   0.10
     WC   =   100.;   INIMIX=   1;  MIXPRE=   1;  MAXMIX= -45

 Intra band minimization:
   WEIMIN = 0.0000     energy-eigenvalue tresh-hold
   EBREAK =  0.10E-07  absolut break condition
   DEPER  =   0.30     relativ break condition  

   TIME   =   0.40     timestep for ELM

  volume/ion in A,a.u.               =    3375.00     22775.62
  Fermi-wavevector in a.u.,A,eV,Ry     =   0.157407  0.297456  0.337111  0.024777
  Thomas-Fermi vector in A             =   0.845991
 
 Write flags
   LWAVE        =      F    write WAVECAR
   LDOWNSAMPLE  =      F    k-point downsampling of WAVECAR
   LCHARG       =      F    write CHGCAR
   LVTOT        =      F    write LOCPOT, total local potential
   LVHAR        =      F    write LOCPOT, Hartree potential only
   WRT_POTENTIAL= false  ! write potential to hdf5 file
   LELF         =      F    write electronic localiz. function (ELF)
   LORBIT       =      0    0 simple, 1 ext, 2 COOP (PROOUT), +10 PAW based schemes


 Dipole corrections
   LMONO      =      F    monopole corrections only (constant potential shift)
   LDIPOL     =      F    correct potential (dipole corrections)
   IDIPOL     =      0    1-x, 2-y, 3-z, 4-all directions 
   EPSILON    =  1.0000000 bulk dielectric constant
   LVACPOTAV  =      F  vacuum potentials using an averaging scheme for the charge density
   VACPOTFLAT =  0.1000000 required flatness to determine vacuum potential
 Exchange correlation treatment:
   GGA     = PE    functional components
   XC_C    = 1    coefficients multiplying the functional components
   LIBXC   =     F    Libxc                    
   VOSKOWN =     0    Vosko Wilk Nusair interpolation
   LHFCALC =     F    Hartree Fock is set to
   LHFONE  =     F    Hartree Fock one center treatment
   AEXX    =    0.0000 exact exchange contribution

 Parameters of functionals:
   PE:
     No parameter
 
 Van der Waals corrections
   IVDW    =     0    specifies the selected vdW correction

 Linear response parameters
   LEPSILON=     F    determine dielectric tensor
   LRPA    =     F    only Hartree local field effects (RPA)
   LNABLA  =     F    use nabla operator in PAW spheres
   LVEL    =     F    velocity operator in full k-point grid
   CSHIFT  =0.1000    complex shift for real part using Kramers Kronig
   OMEGAMAX=  -1.0    maximum frequency
   DEG_THRESHOLD= 0.2000000E-02 threshold for treating states as degnerate
   RTIME   =   -0.100 relaxation time in fs
  (WPLASMAI=    0.000 imaginary part of plasma frequency in eV, 0.658/RTIME)
   DFIELD  = 0.0000000 0.0000000 0.0000000 field for delta impulse in time
 
  Optional k-point grid parameters
   LKPOINTS_OPT  =     F    use optional k-point grid
   KPOINTS_OPT_MODE=     1    mode for optional k-point grid
 
 Orbital magnetization related:
   ORBITALMAG=     F  switch on orbital magnetization
   LCHIMAG   =     F  perturbation theory with respect to B field
   DQ        =  0.001000  dq finite difference perturbation B field
   LLRAUG    =     F  two centre corrections for induced B field
   LBONE     =     F  B-component reconstruction in AE one-centre
   LVGVCALC  =     T  calculate vGv susceptibility
   LVGVAPPL  =     F  apply vGv susceptibility instead of pGv for G=0

 Random number generation:
   RANDOM_GENERATOR = DEFAULT
   PCG_SEED         = not used


--------------------------------------------------------------------------------------------------------


 Static calculation
 charge density and potential will be updated during run
 non-spin polarized calculation
 Variant of blocked Davidson
 Davidson routine will perform the subspace rotation
 perform sub-space diagonalisation
    after iterative eigenvector-optimisation
 modified Broyden-mixing scheme, WC =      100.0
 initial mixing is a Kerker type mixing with AMIX =  0.4000 and BMIX =      1.0000
 Hartree-type preconditioning will be used
 using additional bands           22
 reciprocal scheme for non local part
 use partial core corrections
 calculate Harris-corrections to forces 
   (improved forces if not selfconsistent)
 use gradient corrections 
 use of overlap-Matrix (Vanderbilt PP)
 Gauss-broadening in eV      SIGMA  =   0.05


--------------------------------------------------------------------------------------------------------


  energy-cutoff  :      800.00
  volume of cell :     3375.00
      direct lattice vectors                 reciprocal lattice vectors
    15.000000000  0.000000000  0.000000000     0.066666667  0.000000000  0.000000000
     0.000000000 12.500000000  0.000000000     0.000000000  0.080000000  0.000000000
     0.000000000  0.000000000 18.000000000     0.000000000  0.000000000  0.055555556

  length of vectors
    15.000000000 12.500000000 18.000000000     0.066666667  0.080000000  0.055555556


 
 k-points in units of 2pi/SCALE and weight: k-points                                
   0.00333333  0.00285714  0.00000000       0.003
   0.01000000  0.00285714  0.00000000       0.003
   0.01666667  0.00285714  0.00000000       0.003
   0.02333333  0.00285714  0.00000000       0.003
   0.03000000  0.00285714  0.00000000       0.003
   0.00333333  0.00857143  0.00000000       0.003
   0.01000000  0.00857143  0.00000000       0.003
   0.01666667  0.00857143  0.00000000       0.003
   0.02333333  0.00857143  0.00000000       0.003
   0.03000000  0.00857143  0.00000000       0.003
   0.00333333  0.01428571  0.00000000       0.003
   0.01000000  0.01428571  0.00000000       0.003
   0.01666667  0.01428571  0.00000000       0.003
   0.02333333  0.01428571  0.00000000       0.003
   0.03000000  0.01428571  0.00000000       0.003
   0.00333333  0.02000000  0.00000000       0.003
   0.01000000  0.02000000  0.00000000       0.003
   0.01666667  0.02000000  0.00000000       0.003
   0.02333333  0.02000000  0.00000000       0.003
   0.03000000  0.02000000  0.00000000       0.003
   0.00333333  0.02571429  0.00000000       0.003
   0.01000000  0.02571429  0.00000000       0.003
   0.01666667  0.02571429  0.00000000       0.003
   0.02333333  0.02571429  0.00000000       0.003
   0.03000000  0.02571429  0.00000000       0.003
   0.00333333  0.03142857  0.00000000       0.003
   0.01000000  0.03142857  0.00000000       0.003
   0.01666667  0.03142857  0.00000000       0.003
   0.02333333  0.03142857  0.00000000       0.003
   0.03000000  0.03142857  0.00000000       0.003
   0.00333333  0.03714286  0.00000000       0.003
   0.01000000  0.03714286  0.00000000       0.003
   0.01666667  0.03714286  0.00000000       0.003
   0.02333333  0.03714286  0.00000000       0.003
   0.03000000  0.03714286  0.00000000       0.003
   0.00333333  0.00285714  0.00617284       0.006
   0.01000000  0.00285714  0.00617284       0.006
   0.01666667  0.00285714  0.00617284       0.006
   0.02333333  0.00285714  0.00617284       0.006
   0.03000000  0.00285714  0.00617284       0.006
   0.00333333  0.00857143  0.00617284       0.006
   0.01000000  0.00857143  0.00617284       0.006
   0.01666667  0.00857143  0.00617284       0.006
   0.02333333  0.00857143  0.00617284       0.006
   0.03000000  0.00857143  0.00617284       0.006
   0.00333333  0.01428571  0.00617284       0.006
   0.01000000  0.01428571  0.00617284       0.006
   0.01666667  0.01428571  0.00617284       0.006
   0.02333333  0.01428571  0.00617284       0.006
   0.03000000  0.01428571  0.00617284       0.006
   0.00333333  0.02000000  0.00617284       0.006
   0.01000000  0.02000000  0.00617284       0.006
   0.01666667  0.02000000  0.00617284       0.006
   0.02333333  0.02000000  0.00617284       0.006
   0.03000000  0.02000000  0.00617284       0.006
   0.00333333  0.02571429  0.00617284       0.006
   0.01000000  0.02571429  0.00617284       0.006
   0.01666667  0.02571429  0.00617284       0.006
   0.02333333  0.02571429  0.00617284       0.006
   0.03000000  0.02571429  0.00617284       0.006
   0.00333333  0.03142857  0.00617284       0.006
   0.01000000  0.03142857  0.00617284       0.006
   0.01666667  0.03142857  0.00617284       0.006
   0.02333333  0.03142857  0.00617284       0.006
   0.03000000  0.03142857  0.00617284       0.006
   0.00333333  0.03714286  0.00617284       0.006
   0.01000000  0.03714286  0.00617284       0.006
   0.01666667  0.03714286  0.00617284       0.006
   0.02333333  0.03714286  0.00617284       0.006
   0.03000000  0.03714286  0.00617284       0.006
   0.00333333  0.00285714  0.01234568       0.006
   0.01000000  0.00285714  0.01234568       0.006
   0.01666667  0.00285714  0.01234568       0.006
   0.02333333  0.00285714  0.01234568       0.006
   0.03000000  0.00285714  0.01234568       0.006
   0.00333333  0.00857143  0.01234568       0.006
   0.01000000  0.00857143  0.01234568       0.006
   0.01666667  0.00857143  0.01234568       0.006
   0.02333333  0.00857143  0.01234568       0.006
   0.03000000  0.00857143  0.01234568       0.006
   0.00333333  0.01428571  0.01234568       0.006
   0.01000000  0.01428571  0.01234568       0.006
   0.01666667  0.01428571  0.01234568       0.006
   0.02333333  0.01428571  0.01234568       0.006
   0.03000000  0.01428571  0.01234568       0.006
   0.00333333  0.02000000  0.01234568       0.006
   0.01000000  0.02000000  0.01234568       0.006
   0.01666667  0.02000000  0.01234568       0.006
   0.02333333  0.02000000  0.01234568       0.006
   0.03000000  0.02000000  0.01234568       0.006
   0.00333333  0.02571429  0.01234568       0.006
   0.01000000  0.02571429  0.01234568       0.006
   0.01666667  0.02571429  0.01234568       0.006
   0.02333333  0.02571429  0.01234568       0.006
   0.03000000  0.02571429  0.01234568       0.006
   0.00333333  0.03142857  0.01234568       0.006
   0.01000000  0.03142857  0.01234568       0.006
   0.01666667  0.03142857  0.01234568       0.006
   0.02333333  0.03142857  0.01234568       0.006
   0.03000000  0.03142857  0.01234568       0.006
   0.00333333  0.03714286  0.01234568       0.006
   0.01000000  0.03714286  0.01234568       0.006
   0.01666667  0.03714286  0.01234568       0.006
   0.02333333  0.03714286  0.01234568       0.006
   0.03000000  0.03714286  0.01234568       0.006
   0.00333333  0.00285714  0.01851852       0.006
   0.01000000  0.00285714  0.01851852       0.006
   0.01666667  0.00285714  0.01851852       0.006
   0.02333333  0.00285714  0.01851852       0.006
   0.03000000  0.00285714  0.01851852       0.006
   0.00333333  0.00857143  0.01851852       0.006
   0.01000000  0.00857143  0.01851852       0.006
   0.01666667  0.00857143  0.01851852       0.006
   0.02333333  0.00857143  0.01851852       0.006
   0.03000000  0.00857143  0.01851852       0.006
   0.00333333  0.01428571  0.01851852       0.006
   0.01000000  0.01428571  0.01851852       0.006
   0.01666667  0.01428571  0.01851852       0.006
   0.02333333  0.01428571  0.01851852       0.006
   0.03000000  0.01428571  0.01851852       0.006
   0.00333333  0.02000000  0.01851852       0.006
   0.01000000  0.02000000  0.01851852       0.006
   0.01666667  0.02000000  0.01851852       0.006
   0.02333333  0.02000000  0.01851852       0.006
   0.03000000  0.02000000  0.01851852       0.006
   0.00333333  0.02571429  0.01851852       0.006
   0.01000000  0.02571429  0.01851852       0.006
   0.01666667  0.02571429  0.01851852       0.006
   0.02333333  0.02571429  0.01851852       0.006
   0.03000000  0.02571429  0.01851852       0.006
   0.00333333  0.03142857  0.01851852       0.006
   0.01000000  0.03142857  0.01851852       0.006
   0.01666667  0.03142857  0.01851852       0.006
   0.02333333  0.03142857  0.01851852       0.006
   0.03000000  0.03142857  0.01851852       0.006
   0.00333333  0.03714286  0.01851852       0.006
   0.01000000  0.03714286  0.01851852       0.006
   0.01666667  0.03714286  0.01851852       0.006
   0.02333333  0.03714286  0.01851852       0.006
   0.03000000  0.03714286  0.01851852       0.006
   0.00333333  0.00285714  0.02469136       0.006
   0.01000000  0.00285714  0.02469136       0.006
   0.01666667  0.00285714  0.02469136       0.006
   0.02333333  0.00285714  0.02469136       0.006
   0.03000000  0.00285714  0.02469136       0.006
   0.00333333  0.00857143  0.02469136       0.006
   0.01000000  0.00857143  0.02469136       0.006
   0.01666667  0.00857143  0.02469136       0.006
   0.02333333  0.00857143  0.02469136       0.006
   0.03000000  0.00857143  0.02469136       0.006
   0.00333333  0.01428571  0.02469136       0.006
   0.01000000  0.01428571  0.02469136       0.006
   0.01666667  0.01428571  0.02469136       0.006
   0.02333333  0.01428571  0.02469136       0.006
   0.03000000  0.01428571  0.02469136       0.006
   0.00333333  0.02000000  0.02469136       0.006
   0.01000000  0.02000000  0.02469136       0.006
   0.01666667  0.02000000  0.02469136       0.006
   0.02333333  0.02000000  0.02469136       0.006
   0.03000000  0.02000000  0.02469136       0.006
   0.00333333  0.02571429  0.02469136       0.006
   0.01000000  0.02571429  0.02469136       0.006
   0.01666667  0.02571429  0.02469136       0.006
   0.02333333  0.02571429  0.02469136       0.006
   0.03000000  0.02571429  0.02469136       0.006
   0.00333333  0.03142857  0.02469136       0.006
   0.01000000  0.03142857  0.02469136       0.006
   0.01666667  0.03142857  0.02469136       0.006
   0.02333333  0.03142857  0.02469136       0.006
   0.03000000  0.03142857  0.02469136       0.006
   0.00333333  0.03714286  0.02469136       0.006
   0.01000000  0.03714286  0.02469136       0.006
   0.01666667  0.03714286  0.02469136       0.006
   0.02333333  0.03714286  0.02469136       0.006
   0.03000000  0.03714286  0.02469136       0.006
 
 k-points in reciprocal lattice and weights: k-points                                
   0.05000000  0.03571429  0.00000000       0.003
   0.15000000  0.03571429  0.00000000       0.003
   0.25000000  0.03571429  0.00000000       0.003
   0.35000000  0.03571429  0.00000000       0.003
   0.45000000  0.03571429  0.00000000       0.003
   0.05000000  0.10714286  0.00000000       0.003
   0.15000000  0.10714286  0.00000000       0.003
   0.25000000  0.10714286  0.00000000       0.003
   0.35000000  0.10714286  0.00000000       0.003
   0.45000000  0.10714286  0.00000000       0.003
   0.05000000  0.17857143  0.00000000       0.003
   0.15000000  0.17857143  0.00000000       0.003
   0.25000000  0.17857143  0.00000000       0.003
   0.35000000  0.17857143  0.00000000       0.003
   0.45000000  0.17857143  0.00000000       0.003
   0.05000000  0.25000000  0.00000000       0.003
   0.15000000  0.25000000  0.00000000       0.003
   0.25000000  0.25000000  0.00000000       0.003
   0.35000000  0.25000000  0.00000000       0.003
   0.45000000  0.25000000  0.00000000       0.003
   0.05000000  0.32142857  0.00000000       0.003
   0.15000000  0.32142857  0.00000000       0.003
   0.25000000  0.32142857  0.00000000       0.003
   0.35000000  0.32142857  0.00000000       0.003
   0.45000000  0.32142857  0.00000000       0.003
   0.05000000  0.39285714  0.00000000       0.003
   0.15000000  0.39285714  0.00000000       0.003
   0.25000000  0.39285714  0.00000000       0.003
   0.35000000  0.39285714  0.00000000       0.003
   0.45000000  0.39285714  0.00000000       0.003
   0.05000000  0.46428571  0.00000000       0.003
   0.15000000  0.46428571  0.00000000       0.003
   0.25000000  0.46428571  0.00000000       0.003
   0.35000000  0.46428571  0.00000000       0.003
   0.45000000  0.46428571  0.00000000       0.003
   0.05000000  0.03571429  0.11111111       0.006
   0.15000000  0.03571429  0.11111111       0.006
   0.25000000  0.03571429  0.11111111       0.006
   0.35000000  0.03571429  0.11111111       0.006
   0.45000000  0.03571429  0.11111111       0.006
   0.05000000  0.10714286  0.11111111       0.006
   0.15000000  0.10714286  0.11111111       0.006
   0.25000000  0.10714286  0.11111111       0.006
   0.35000000  0.10714286  0.11111111       0.006
   0.45000000  0.10714286  0.11111111       0.006
   0.05000000  0.17857143  0.11111111       0.006
   0.15000000  0.17857143  0.11111111       0.006
   0.25000000  0.17857143  0.11111111       0.006
   0.35000000  0.17857143  0.11111111       0.006
   0.45000000  0.17857143  0.11111111       0.006
   0.05000000  0.25000000  0.11111111       0.006
   0.15000000  0.25000000  0.11111111       0.006
   0.25000000  0.25000000  0.11111111       0.006
   0.35000000  0.25000000  0.11111111       0.006
   0.45000000  0.25000000  0.11111111       0.006
   0.05000000  0.32142857  0.11111111       0.006
   0.15000000  0.32142857  0.11111111       0.006
   0.25000000  0.32142857  0.11111111       0.006
   0.35000000  0.32142857  0.11111111       0.006
   0.45000000  0.32142857  0.11111111       0.006
   0.05000000  0.39285714  0.11111111       0.006
   0.15000000  0.39285714  0.11111111       0.006
   0.25000000  0.39285714  0.11111111       0.006
   0.35000000  0.39285714  0.11111111       0.006
   0.45000000  0.39285714  0.11111111       0.006
   0.05000000  0.46428571  0.11111111       0.006
   0.15000000  0.46428571  0.11111111       0.006
   0.25000000  0.46428571  0.11111111       0.006
   0.35000000  0.46428571  0.11111111       0.006
   0.45000000  0.46428571  0.11111111       0.006
   0.05000000  0.03571429  0.22222222       0.006
   0.15000000  0.03571429  0.22222222       0.006
   0.25000000  0.03571429  0.22222222       0.006
   0.35000000  0.03571429  0.22222222       0.006
   0.45000000  0.03571429  0.22222222       0.006
   0.05000000  0.10714286  0.22222222       0.006
   0.15000000  0.10714286  0.22222222       0.006
   0.25000000  0.10714286  0.22222222       0.006
   0.35000000  0.10714286  0.22222222       0.006
   0.45000000  0.10714286  0.22222222       0.006
   0.05000000  0.17857143  0.22222222       0.006
   0.15000000  0.17857143  0.22222222       0.006
   0.25000000  0.17857143  0.22222222       0.006
   0.35000000  0.17857143  0.22222222       0.006
   0.45000000  0.17857143  0.22222222       0.006
   0.05000000  0.25000000  0.22222222       0.006
   0.15000000  0.25000000  0.22222222       0.006
   0.25000000  0.25000000  0.22222222       0.006
   0.35000000  0.25000000  0.22222222       0.006
   0.45000000  0.25000000  0.22222222       0.006
   0.05000000  0.32142857  0.22222222       0.006
   0.15000000  0.32142857  0.22222222       0.006
   0.25000000  0.32142857  0.22222222       0.006
   0.35000000  0.32142857  0.22222222       0.006
   0.45000000  0.32142857  0.22222222       0.006
   0.05000000  0.39285714  0.22222222       0.006
   0.15000000  0.39285714  0.22222222       0.006
   0.25000000  0.39285714  0.22222222       0.006
   0.35000000  0.39285714  0.22222222       0.006
   0.45000000  0.39285714  0.22222222       0.006
   0.05000000  0.46428571  0.22222222       0.006
   0.15000000  0.46428571  0.22222222       0.006
   0.25000000  0.46428571  0.22222222       0.006
   0.35000000  0.46428571  0.22222222       0.006
   0.45000000  0.46428571  0.22222222       0.006
   0.05000000  0.03571429  0.33333333       0.006
   0.15000000  0.03571429  0.33333333       0.006
   0.25000000  0.03571429  0.33333333       0.006
   0.35000000  0.03571429  0.33333333       0.006
   0.45000000  0.03571429  0.33333333       0.006
   0.05000000  0.10714286  0.33333333       0.006
   0.15000000  0.10714286  0.33333333       0.006
   0.25000000  0.10714286  0.33333333       0.006
   0.35000000  0.10714286  0.33333333       0.006
   0.45000000  0.10714286  0.33333333       0.006
   0.05000000  0.17857143  0.33333333       0.006
   0.15000000  0.17857143  0.33333333       0.006
   0.25000000  0.17857143  0.33333333       0.006
   0.35000000  0.17857143  0.33333333       0.006
   0.45000000  0.17857143  0.33333333       0.006
   0.05000000  0.25000000  0.33333333       0.006
   0.15000000  0.25000000  0.33333333       0.006
   0.25000000  0.25000000  0.33333333       0.006
   0.35000000  0.25000000  0.33333333       0.006
   0.45000000  0.25000000  0.33333333       0.006
   0.05000000  0.32142857  0.33333333       0.006
   0.15000000  0.32142857  0.33333333       0.006
   0.25000000  0.32142857  0.33333333       0.006
   0.35000000  0.32142857  0.33333333       0.006
   0.45000000  0.32142857  0.33333333       0.006
   0.05000000  0.39285714  0.33333333       0.006
   0.15000000  0.39285714  0.33333333       0.006
   0.25000000  0.39285714  0.33333333       0.006
   0.35000000  0.39285714  0.33333333       0.006
   0.45000000  0.39285714  0.33333333       0.006
   0.05000000  0.46428571  0.33333333       0.006
   0.15000000  0.46428571  0.33333333       0.006
   0.25000000  0.46428571  0.33333333       0.006
   0.35000000  0.46428571  0.33333333       0.006
   0.45000000  0.46428571  0.33333333       0.006
   0.05000000  0.03571429  0.44444444       0.006
   0.15000000  0.03571429  0.44444444       0.006
   0.25000000  0.03571429  0.44444444       0.006
   0.35000000  0.03571429  0.44444444       0.006
   0.45000000  0.03571429  0.44444444       0.006
   0.05000000  0.10714286  0.44444444       0.006
   0.15000000  0.10714286  0.44444444       0.006
   0.25000000  0.10714286  0.44444444       0.006
   0.35000000  0.10714286  0.44444444       0.006
   0.45000000  0.10714286  0.44444444       0.006
   0.05000000  0.17857143  0.44444444       0.006
   0.15000000  0.17857143  0.44444444       0.006
   0.25000000  0.17857143  0.44444444       0.006
   0.35000000  0.17857143  0.44444444       0.006
   0.45000000  0.17857143  0.44444444       0.006
   0.05000000  0.25000000  0.44444444       0.006
   0.15000000  0.25000000  0.44444444       0.006
   0.25000000  0.25000000  0.44444444       0.006
   0.35000000  0.25000000  0.44444444       0.006
   0.45000000  0.25000000  0.44444444       0.006
   0.05000000  0.32142857  0.44444444       0.006
   0.15000000  0.32142857  0.44444444       0.006
   0.25000000  0.32142857  0.44444444       0.006
   0.35000000  0.32142857  0.44444444       0.006
   0.45000000  0.32142857  0.44444444       0.006
   0.05000000  0.39285714  0.44444444       0.006
   0.15000000  0.39285714  0.44444444       0.006
   0.25000000  0.39285714  0.44444444       0.006
   0.35000000  0.39285714  0.44444444       0.006
   0.45000000  0.39285714  0.44444444       0.006
   0.05000000  0.46428571  0.44444444       0.006
   0.15000000  0.46428571  0.44444444       0.006
   0.25000000  0.46428571  0.44444444       0.006
   0.35000000  0.46428571  0.44444444       0.006
   0.45000000  0.46428571  0.44444444       0.006
 
 position of ions in fractional coordinates (direct lattice) 
   0.52123000  0.54500000  0.63796000
 
 position of ions in cartesian coordinates  (Angst):
   7.81845000  6.81250000 11.48328000
 


--------------------------------------------------------------------------------------------------------


 k-point     1 :   0.0500 0.0357 0.0000  plane waves:  173363
 k-point     2 :   0.1500 0.0357 0.0000  plane waves:  173421
 k-point     3 :   0.2500 0.0357 0.0000  plane waves:  173427
 k-point     4 :   0.3500 0.0357 0.0000  plane waves:  173425
 k-point     5 :   0.4500 0.0357 0.0000  plane waves:  173464
 k-point     6 :   0.0500 0.1071 0.0000  plane waves:  173390
 k-point     7 :   0.1500 0.1071 0.0000  plane waves:  173410
 k-point     8 :   0.2500 0.1071 0.0000  plane waves:  173438
 k-point     9 :   0.3500 0.1071 0.0000  plane waves:  173410
 k-point    10 :   0.4500 0.1071 0.0000  plane waves:  173442
 k-point    11 :   0.0500 0.1786 0.0000  plane waves:  173404
 k-point    12 :   0.1500 0.1786 0.0000  plane waves:  173409
 k-point    13 :   0.2500 0.1786 0.0000  plane waves:  173463
 k-point    14 :   0.3500 0.1786 0.0000  plane waves:  173414
 k-point    15 :   0.4500 0.1786 0.0000  plane waves:  173408
 k-point    16 :   0.0500 0.2500 0.0000  plane waves:  173482
 k-point    17 :   0.1500 0.2500 0.0000  plane waves:  173452
 k-point    18 :   0.2500 0.2500 0.0000  plane waves:  173418
 k-point    19 :   0.3500 0.2500 0.0000  plane waves:  173429
 k-point    20 :   0.4500 0.2500 0.0000  plane waves:  173405
 k-point    21 :   0.0500 0.3214 0.0000  plane waves:  173445
 k-point    22 :   0.1500 0.3214 0.0000  plane waves:  173419
 k-point    23 :   0.2500 0.3214 0.0000  plane waves:  173377
 k-point    24 :   0.3500 0.3214 0.0000  plane waves:  173446
 k-point    25 :   0.4500 0.3214 0.0000  plane waves:  173413
 k-point    26 :   0.0500 0.3929 0.0000  plane waves:  173434
 k-point    27 :   0.1500 0.3929 0.0000  plane waves:  173405
 k-point    28 :   0.2500 0.3929 0.0000  plane waves:  173420
 k-point    29 :   0.3500 0.3929 0.0000  plane waves:  173367
 k-point    30 :   0.4500 0.3929 0.0000  plane waves:  173429
 k-point    31 :   0.0500 0.4643 0.0000  plane waves:  173400
 k-point    32 :   0.1500 0.4643 0.0000  plane waves:  173423
 k-point    33 :   0.2500 0.4643 0.0000  plane waves:  173403
 k-point    34 :   0.3500 0.4643 0.0000  plane waves:  173385
 k-point    35 :   0.4500 0.4643 0.0000  plane waves:  173410
 k-point    36 :   0.0500 0.0357 0.1111  plane waves:  173358
 k-point    37 :   0.1500 0.0357 0.1111  plane waves:  173368
 k-point    38 :   0.2500 0.0357 0.1111  plane waves:  173424
 k-point    39 :   0.3500 0.0357 0.1111  plane waves:  173459
 k-point    40 :   0.4500 0.0357 0.1111  plane waves:  173441
 k-point    41 :   0.0500 0.1071 0.1111  plane waves:  173402
 k-point    42 :   0.1500 0.1071 0.1111  plane waves:  173422
 k-point    43 :   0.2500 0.1071 0.1111  plane waves:  173421
 k-point    44 :   0.3500 0.1071 0.1111  plane waves:  173440
 k-point    45 :   0.4500 0.1071 0.1111  plane waves:  173412
 k-point    46 :   0.0500 0.1786 0.1111  plane waves:  173436
 k-point    47 :   0.1500 0.1786 0.1111  plane waves:  173420
 k-point    48 :   0.2500 0.1786 0.1111  plane waves:  173423
 k-point    49 :   0.3500 0.1786 0.1111  plane waves:  173408
 k-point    50 :   0.4500 0.1786 0.1111  plane waves:  173403
 k-point    51 :   0.0500 0.2500 0.1111  plane waves:  173472
 k-point    52 :   0.1500 0.2500 0.1111  plane waves:  173446
 k-point    53 :   0.2500 0.2500 0.1111  plane waves:  173426
 k-point    54 :   0.3500 0.2500 0.1111  plane waves:  173428
 k-point    55 :   0.4500 0.2500 0.1111  plane waves:  173409
 k-point    56 :   0.0500 0.3214 0.1111  plane waves:  173431
 k-point    57 :   0.1500 0.3214 0.1111  plane waves:  173423
 k-point    58 :   0.2500 0.3214 0.1111  plane waves:  173421
 k-point    59 :   0.3500 0.3214 0.1111  plane waves:  173398
 k-point    60 :   0.4500 0.3214 0.1111  plane waves:  173428
 k-point    61 :   0.0500 0.3929 0.1111  plane waves:  173411
 k-point    62 :   0.1500 0.3929 0.1111  plane waves:  173407
 k-point    63 :   0.2500 0.3929 0.1111  plane waves:  173409
 k-point    64 :   0.3500 0.3929 0.1111  plane waves:  173428
 k-point    65 :   0.4500 0.3929 0.1111  plane waves:  173419
 k-point    66 :   0.0500 0.4643 0.1111  plane waves:  173455
 k-point    67 :   0.1500 0.4643 0.1111  plane waves:  173442
 k-point    68 :   0.2500 0.4643 0.1111  plane waves:  173397
 k-point    69 :   0.3500 0.4643 0.1111  plane waves:  173403
 k-point    70 :   0.4500 0.4643 0.1111  plane waves:  173372
 k-point    71 :   0.0500 0.0357 0.2222  plane waves:  173410
 k-point    72 :   0.1500 0.0357 0.2222  plane waves:  173407
 k-point    73 :   0.2500 0.0357 0.2222  plane waves:  173431
 k-point    74 :   0.3500 0.0357 0.2222  plane waves:  173432
 k-point    75 :   0.4500 0.0357 0.2222  plane waves:  173410
 k-point    76 :   0.0500 0.1071 0.2222  plane waves:  173377
 k-point    77 :   0.1500 0.1071 0.2222  plane waves:  173394
 k-point    78 :   0.2500 0.1071 0.2222  plane waves:  173414
 k-point    79 :   0.3500 0.1071 0.2222  plane waves:  173415
 k-point    80 :   0.4500 0.1071 0.2222  plane waves:  173414
 k-point    81 :   0.0500 0.1786 0.2222  plane waves:  173450
 k-point    82 :   0.1500 0.1786 0.2222  plane waves:  173393
 k-point    83 :   0.2500 0.1786 0.2222  plane waves:  173393
 k-point    84 :   0.3500 0.1786 0.2222  plane waves:  173409
 k-point    85 :   0.4500 0.1786 0.2222  plane waves:  173383
 k-point    86 :   0.0500 0.2500 0.2222  plane waves:  173448
 k-point    87 :   0.1500 0.2500 0.2222  plane waves:  173409
 k-point    88 :   0.2500 0.2500 0.2222  plane waves:  173379
 k-point    89 :   0.3500 0.2500 0.2222  plane waves:  173386
 k-point    90 :   0.4500 0.2500 0.2222  plane waves:  173409
 k-point    91 :   0.0500 0.3214 0.2222  plane waves:  173464
 k-point    92 :   0.1500 0.3214 0.2222  plane waves:  173450
 k-point    93 :   0.2500 0.3214 0.2222  plane waves:  173418
 k-point    94 :   0.3500 0.3214 0.2222  plane waves:  173355
 k-point    95 :   0.4500 0.3214 0.2222  plane waves:  173392
 k-point    96 :   0.0500 0.3929 0.2222  plane waves:  173435
 k-point    97 :   0.1500 0.3929 0.2222  plane waves:  173471
 k-point    98 :   0.2500 0.3929 0.2222  plane waves:  173420
 k-point    99 :   0.3500 0.3929 0.2222  plane waves:  173405
 k-point   100 :   0.4500 0.3929 0.2222  plane waves:  173354
 k-point   101 :   0.0500 0.4643 0.2222  plane waves:  173455
 k-point   102 :   0.1500 0.4643 0.2222  plane waves:  173460
 k-point   103 :   0.2500 0.4643 0.2222  plane waves:  173433
 k-point   104 :   0.3500 0.4643 0.2222  plane waves:  173395
 k-point   105 :   0.4500 0.4643 0.2222  plane waves:  173366
 k-point   106 :   0.0500 0.0357 0.3333  plane waves:  173416
 k-point   107 :   0.1500 0.0357 0.3333  plane waves:  173402
 k-point   108 :   0.2500 0.0357 0.3333  plane waves:  173397
 k-point   109 :   0.3500 0.0357 0.3333  plane waves:  173388
 k-point   110 :   0.4500 0.0357 0.3333  plane waves:  173367
 k-point   111 :   0.0500 0.1071 0.3333  plane waves:  173382
 k-point   112 :   0.1500 0.1071 0.3333  plane waves:  173380
 k-point   113 :   0.2500 0.1071 0.3333  plane waves:  173400
 k-point   114 :   0.3500 0.1071 0.3333  plane waves:  173379
 k-point   115 :   0.4500 0.1071 0.3333  plane waves:  173368
 k-point   116 :   0.0500 0.1786 0.3333  plane waves:  173382
 k-point   117 :   0.1500 0.1786 0.3333  plane waves:  173364
 k-point   118 :   0.2500 0.1786 0.3333  plane waves:  173379
 k-point   119 :   0.3500 0.1786 0.3333  plane waves:  173374
 k-point   120 :   0.4500 0.1786 0.3333  plane waves:  173369
 k-point   121 :   0.0500 0.2500 0.3333  plane waves:  173423
 k-point   122 :   0.1500 0.2500 0.3333  plane waves:  173397
 k-point   123 :   0.2500 0.2500 0.3333  plane waves:  173396
 k-point   124 :   0.3500 0.2500 0.3333  plane waves:  173376
 k-point   125 :   0.4500 0.2500 0.3333  plane waves:  173377
 k-point   126 :   0.0500 0.3214 0.3333  plane waves:  173432
 k-point   127 :   0.1500 0.3214 0.3333  plane waves:  173430
 k-point   128 :   0.2500 0.3214 0.3333  plane waves:  173413
 k-point   129 :   0.3500 0.3214 0.3333  plane waves:  173383
 k-point   130 :   0.4500 0.3214 0.3333  plane waves:  173388
 k-point   131 :   0.0500 0.3929 0.3333  plane waves:  173482
 k-point   132 :   0.1500 0.3929 0.3333  plane waves:  173499
 k-point   133 :   0.2500 0.3929 0.3333  plane waves:  173412
 k-point   134 :   0.3500 0.3929 0.3333  plane waves:  173385
 k-point   135 :   0.4500 0.3929 0.3333  plane waves:  173388
 k-point   136 :   0.0500 0.4643 0.3333  plane waves:  173479
 k-point   137 :   0.1500 0.4643 0.3333  plane waves:  173472
 k-point   138 :   0.2500 0.4643 0.3333  plane waves:  173412
 k-point   139 :   0.3500 0.4643 0.3333  plane waves:  173404
 k-point   140 :   0.4500 0.4643 0.3333  plane waves:  173362
 k-point   141 :   0.0500 0.0357 0.4444  plane waves:  173349
 k-point   142 :   0.1500 0.0357 0.4444  plane waves:  173407
 k-point   143 :   0.2500 0.0357 0.4444  plane waves:  173379
 k-point   144 :   0.3500 0.0357 0.4444  plane waves:  173358
 k-point   145 :   0.4500 0.0357 0.4444  plane waves:  173325
 k-point   146 :   0.0500 0.1071 0.4444  plane waves:  173353
 k-point   147 :   0.1500 0.1071 0.4444  plane waves:  173395
 k-point   148 :   0.2500 0.1071 0.4444  plane waves:  173380
 k-point   149 :   0.3500 0.1071 0.4444  plane waves:  173379
 k-point   150 :   0.4500 0.1071 0.4444  plane waves:  173336
 k-point   151 :   0.0500 0.1786 0.4444  plane waves:  173350
 k-point   152 :   0.1500 0.1786 0.4444  plane waves:  173370
 k-point   153 :   0.2500 0.1786 0.4444  plane waves:  173403
 k-point   154 :   0.3500 0.1786 0.4444  plane waves:  173367
 k-point   155 :   0.4500 0.1786 0.4444  plane waves:  173349
 k-point   156 :   0.0500 0.2500 0.4444  plane waves:  173373
 k-point   157 :   0.1500 0.2500 0.4444  plane waves:  173407
 k-point   158 :   0.2500 0.2500 0.4444  plane waves:  173377
 k-point   159 :   0.3500 0.2500 0.4444  plane waves:  173354
 k-point   160 :   0.4500 0.2500 0.4444  plane waves:  173358
 k-point   161 :   0.0500 0.3214 0.4444  plane waves:  173449
 k-point   162 :   0.1500 0.3214 0.4444  plane waves:  173403
 k-point   163 :   0.2500 0.3214 0.4444  plane waves:  173415
 k-point   164 :   0.3500 0.3214 0.4444  plane waves:  173395
 k-point   165 :   0.4500 0.3214 0.4444  plane waves:  173364
 k-point   166 :   0.0500 0.3929 0.4444  plane waves:  173483
 k-point   167 :   0.1500 0.3929 0.4444  plane waves:  173444
 k-point   168 :   0.2500 0.3929 0.4444  plane waves:  173439
 k-point   169 :   0.3500 0.3929 0.4444  plane waves:  173401
 k-point   170 :   0.4500 0.3929 0.4444  plane waves:  173390
 k-point   171 :   0.0500 0.4643 0.4444  plane waves:  173479
 k-point   172 :   0.1500 0.4643 0.4444  plane waves:  173444
 k-point   173 :   0.2500 0.4643 0.4444  plane waves:  173408
 k-point   174 :   0.3500 0.4643 0.4444  plane waves:  173394
 k-point   175 :   0.4500 0.4643 0.4444  plane waves:  173388

 maximum and minimum number of plane-waves per node :    173499   173325

 maximum number of plane-waves:    173499
 maximum index in each direction: 
   IXMAX=   34   IYMAX=   28   IZMAX=   41
   IXMIN=  -35   IYMIN=  -29   IZMIN=  -41


 serial   3D FFT for wavefunctions
 parallel 3D FFT for charge:
    minimum data exchange during FFTs selected (reduces bandwidth)


 total amount of memory used by VASP MPI-rank0  2665739. kBytes
=======================================================================

   base      :      30000. kBytes
   nonl-proj :    1946200. kBytes
   fftplans  :      43816. kBytes
   grid      :     159797. kBytes
   one-center:          3. kBytes
   wavefun   :     485923. kBytes
 
     INWAV:  cpu time      0.0000: real time      0.0000
 Broyden mixing: mesh for mixing (old mesh)
   NGX = 69   NGY = 57   NGZ = 83
  (NGX  =280   NGY  =240   NGZ  =336)
  gives a total of 326439 points

 initial charge density was supplied:
 charge density of overlapping atoms calculated
 number of electron       3.0000000 magnetization 
 keeping initial charge density in first step


--------------------------------------------------------------------------------------------------------


 Maximum index for augmentation-charges          648 (set IRDMAX)


--------------------------------------------------------------------------------------------------------


 First call to EWALD:  gamma=   0.118
 Maximum number of real-space cells 3x 3x 2
 Maximum number of reciprocal cells 3x 2x 3

    FEWALD:  cpu time      0.0018: real time      0.0053


--------------------------------------- Ionic step        1  -------------------------------------------




--------------------------------------- Iteration      1(   1)  ---------------------------------------


    POTLOK:  cpu time      0.9154: real time      0.9667
    SETDIJ:  cpu time      0.0107: real time      0.0310
     EDDAV:  cpu time    110.2453: real time    115.7132
       DOS:  cpu time      0.0101: real time      0.0199
    --------------------------------------------
      LOOP:  cpu time    111.1815: real time    116.7311

 eigenvalue-minimisations  :  8400
 total energy-change (2. order) : 0.8850703E+01  (-0.3664934E+02)
 number of electron       3.0000000 magnetization 
 augmentation part        3.0000000 magnetization 

 Free energy of the ion-electron system (eV)
  ---------------------------------------------------
  alpha Z        PSCENC =         0.02038373
  Ewald energy   TEWEN  =       -11.82901664
  -Hartree energ DENC   =       -42.58396533
  -exchange      EXHF   =         0.00000000
  -V(xc)+E(xc)   XCENC  =         4.75549672
  PAW double counting   =        43.49986551      -42.64454556
  entropy T*S    EENTRO =        -0.00948955
  eigenvalues    EBANDS =       -13.52807990
  atomic energy  EATOM  =        71.17005366
  Solvation  Ediel_sol  =         0.00000000
  ---------------------------------------------------
  free energy    TOTEN  =         8.85070263 eV

  energy without entropy =        8.86019218  energy(sigma->0) =        8.85544740


--------------------------------------------------------------------------------------------------------




--------------------------------------- Iteration      1(   2)  ---------------------------------------


     EDDAV:  cpu time    170.5119: real time    172.3838
       DOS:  cpu time      0.0035: real time      0.0188
    --------------------------------------------
      LOOP:  cpu time    170.5154: real time    172.4027

 eigenvalue-minimisations  : 15408
 total energy-change (2. order) :-0.8654897E+01  (-0.8622584E+01)
 number of electron       3.0000000 magnetization 
 augmentation part        3.0000000 magnetization 

 Free energy of the ion-electron system (eV)
  ---------------------------------------------------
  alpha Z        PSCENC =         0.02038373
  Ewald energy   TEWEN  =       -11.82901664
  -Hartree energ DENC   =       -42.58396533
  -exchange      EXHF   =         0.00000000
  -V(xc)+E(xc)   XCENC  =         4.75549672
  PAW double counting   =        43.49986551      -42.64454556
  entropy T*S    EENTRO =        -0.02437932
  eigenvalues    EBANDS =       -22.16808732
  atomic energy  EATOM  =        71.17005366
  Solvation  Ediel_sol  =         0.00000000
  ---------------------------------------------------
  free energy    TOTEN  =         0.19580544 eV

  energy without entropy =        0.22018476  energy(sigma->0) =        0.20799510


--------------------------------------------------------------------------------------------------------




--------------------------------------- Iteration      1(   3)  ---------------------------------------


     EDDAV:  cpu time    114.9317: real time    115.2269
       DOS:  cpu time      0.0020: real time      0.7341
    --------------------------------------------
      LOOP:  cpu time    114.9337: real time    115.9608

 eigenvalue-minimisations  :  9096
 total energy-change (2. order) :-0.2485131E+00  (-0.2235708E+00)
 number of electron       3.0000000 magnetization 
 augmentation part        3.0000000 magnetization 

 Free energy of the ion-electron system (eV)
  ---------------------------------------------------
  alpha Z        PSCENC =         0.02038373
  Ewald energy   TEWEN  =       -11.82901664
  -Hartree energ DENC   =       -42.58396533
  -exchange      EXHF   =         0.00000000
  -V(xc)+E(xc)   XCENC  =         4.75549672
  PAW double counting   =        43.49986551      -42.64454556
  entropy T*S    EENTRO =        -0.05243305
  eigenvalues    EBANDS =       -22.38854668
  atomic energy  EATOM  =        71.17005366
  Solvation  Ediel_sol  =         0.00000000
  ---------------------------------------------------
  free energy    TOTEN  =        -0.05270765 eV

  energy without entropy =       -0.00027460  energy(sigma->0) =       -0.02649112


--------------------------------------------------------------------------------------------------------




--------------------------------------- Iteration      1(   4)  ---------------------------------------


     EDDAV:  cpu time    115.0122: real time    116.3757
       DOS:  cpu time      0.0012: real time      0.0012
    --------------------------------------------
      LOOP:  cpu time    115.0134: real time    116.3769

 eigenvalue-minimisations  :  9048
 total energy-change (2. order) :-0.5489844E-02  (-0.4932749E-02)
 number of electron       3.0000000 magnetization 
 augmentation part        3.0000000 magnetization 

 Free energy of the ion-electron system (eV)
  ---------------------------------------------------
  alpha Z        PSCENC =         0.02038373
  Ewald energy   TEWEN  =       -11.82901664
  -Hartree energ DENC   =       -42.58396533
  -exchange      EXHF   =         0.00000000
  -V(xc)+E(xc)   XCENC  =         4.75549672
  PAW double counting   =        43.49986551      -42.64454556
  entropy T*S    EENTRO =        -0.05300127
  eigenvalues    EBANDS =       -22.39346830
  atomic energy  EATOM  =        71.17005366
  Solvation  Ediel_sol  =         0.00000000
  ---------------------------------------------------
  free energy    TOTEN  =        -0.05819749 eV

  energy without entropy =       -0.00519622  energy(sigma->0) =       -0.03169685


--------------------------------------------------------------------------------------------------------




--------------------------------------- Iteration      1(   5)  ---------------------------------------


     EDDAV:  cpu time    160.3216: real time    160.5866
       DOS:  cpu time      0.0012: real time      0.0012
    CHARGE:  cpu time      6.7811: real time      6.8149
    MIXING:  cpu time      0.0560: real time      0.0607
    --------------------------------------------
      LOOP:  cpu time    167.1600: real time    167.4635

 eigenvalue-minimisations  : 14328
 total energy-change (2. order) :-0.6264393E-04  (-0.6259391E-04)
 number of electron       3.0000000 magnetization 
 augmentation part       -0.0946636 magnetization 

 Broyden mixing:
  rms(total) = 0.24538E-03    rms(broyden)= 0.21216E-03
  rms(prec ) = 0.21675E-03
  weight for this iteration     100.00
  WARNING: grid for Broyden might be to small

 Free energy of the ion-electron system (eV)
  ---------------------------------------------------
  alpha Z        PSCENC =         0.02038373
  Ewald energy   TEWEN  =       -11.82901664
  -Hartree energ DENC   =       -42.58396533
  -exchange      EXHF   =         0.00000000
  -V(xc)+E(xc)   XCENC  =         4.75549672
  PAW double counting   =        43.49986551      -42.64454556
  entropy T*S    EENTRO =        -0.05300134
  eigenvalues    EBANDS =       -22.39353088
  atomic energy  EATOM  =        71.17005366
  Solvation  Ediel_sol  =         0.00000000
  ---------------------------------------------------
  free energy    TOTEN  =        -0.05826014 eV

  energy without entropy =       -0.00525880  energy(sigma->0) =       -0.03175947


--------------------------------------------------------------------------------------------------------




--------------------------------------- Iteration      1(   6)  ---------------------------------------


    POTLOK:  cpu time      0.8513: real time      0.8542
    SETDIJ:  cpu time      0.0119: real time      0.0143
     EDDAV:  cpu time    128.9038: real time    129.1421
       DOS:  cpu time      0.0045: real time      0.0055
    CHARGE:  cpu time      6.8500: real time      6.8509
    MIXING:  cpu time      0.0400: real time      0.0582
    --------------------------------------------
      LOOP:  cpu time    136.6615: real time    136.9253

 eigenvalue-minimisations  : 10680
 total energy-change (2. order) :-0.1257950E-05  (-0.2173253E-06)
 number of electron       3.0000000 magnetization 
 augmentation part       -0.0946626 magnetization 

 Broyden mixing:
  rms(total) = 0.13699E-03    rms(broyden)= 0.13476E-03
  rms(prec ) = 0.13786E-03
  weight for this iteration     100.00

 eigenvalues of (default mixing * dielectric matrix)
  average eigenvalue GAMMA=   2.7173
  2.7173

 Free energy of the ion-electron system (eV)
  ---------------------------------------------------
  alpha Z        PSCENC =         0.02038373
  Ewald energy   TEWEN  =       -11.82901664
  -Hartree energ DENC   =       -42.58437882
  -exchange      EXHF   =         0.00000000
  -V(xc)+E(xc)   XCENC  =         4.75548700
  PAW double counting   =        43.47250904      -42.61721582
  entropy T*S    EENTRO =        -0.05300134
  eigenvalues    EBANDS =       -22.39308221
  atomic energy  EATOM  =        71.17005366
  Solvation  Ediel_sol  =         0.00000000
  ---------------------------------------------------
  free energy    TOTEN  =        -0.05826139 eV

  energy without entropy =       -0.00526005  energy(sigma->0) =       -0.03176072


--------------------------------------------------------------------------------------------------------




--------------------------------------- Iteration      1(   7)  ---------------------------------------


    POTLOK:  cpu time      0.8500: real time      0.8511
    SETDIJ:  cpu time      0.0031: real time      0.0031
     EDDAV:  cpu time    139.4397: real time    139.7058
       DOS:  cpu time      0.0019: real time      0.1975
    --------------------------------------------
      LOOP:  cpu time    140.2946: real time    140.7575

 eigenvalue-minimisations  : 11856
 total energy-change (2. order) :-0.5835653E-06  (-0.1616116E-07)
 number of electron       3.0000000 magnetization 
 augmentation part       -0.0946626 magnetization 

 Free energy of the ion-electron system (eV)
  ---------------------------------------------------
  alpha Z        PSCENC =         0.02038373
  Ewald energy   TEWEN  =       -11.82901664
  -Hartree energ DENC   =       -42.58522298
  -exchange      EXHF   =         0.00000000
  -V(xc)+E(xc)   XCENC  =         4.75548780
  PAW double counting   =        43.42526550      -42.57001569
  entropy T*S    EENTRO =        -0.05300134
  eigenvalues    EBANDS =       -22.39219602
  atomic energy  EATOM  =        71.17005366
  Solvation  Ediel_sol  =         0.00000000
  ---------------------------------------------------
  free energy    TOTEN  =        -0.05826198 eV

  energy without entropy =       -0.00526064  energy(sigma->0) =       -0.03176131


--------------------------------------------------------------------------------------------------------




 average (electrostatic) potential at core
  the test charge radii are     0.7672
  (the norm of the test charge is              1.0000)
       1 -39.4291
 
 
 
 E-fermi :  -3.6071     XC(G=0):  -0.2666     alpha+bet : -0.0329

 val. band max:       -9.4096365482   @ k =   0.0500   0.4643   0.0000
 cond. band min:      -3.5730353383   @ k =   0.0500   0.4643   0.0000
 fundamental gap:      5.8366012099
 Fermi energy:        -3.6071252144

 k-point     1 :       0.0500    0.0357    0.0000
  band No.  band energies     occupation 
      1      -9.4096      2.00000
      2      -3.5729      0.33346
      3      -3.5729      0.33334
      4      -3.5728      0.33175
      5      -0.2624      0.00000
      6       0.2977      0.00000
      7       0.3089      0.00000
      8       0.4388      0.00000
      9       0.5735      0.00000
     10       0.6859      0.00000
     11       0.8282      0.00000
     12       0.9101      0.00000
     13       0.9467      0.00000
     14       1.0357      0.00000
     15       1.0821      0.00000
     16       1.1729      0.00000
     17       1.2112      0.00000
     18       1.2890      0.00000
     19       1.3338      0.00000
     20       1.3556      0.00000
     21       1.4283      0.00000
     22       1.4978      0.00000
     23       1.5761      0.00000
     24       1.7088      0.00000

 k-point     2 :       0.1500    0.0357    0.0000
  band No.  band energies     occupation 
      1      -9.4096      2.00000
      2      -3.5729      0.33345
      3      -3.5729      0.33338
      4      -3.5728      0.33175
      5      -0.2525      0.00000
      6       0.2709      0.00000
      7       0.3201      0.00000
      8       0.3748      0.00000
      9       0.6891      0.00000
     10       0.7077      0.00000
     11       0.8004      0.00000
     12       0.8323      0.00000
     13       0.8413      0.00000
     14       1.1516      0.00000
     15       1.1655      0.00000
     16       1.1969      0.00000
     17       1.2225      0.00000
     18       1.2587      0.00000
     19       1.3332      0.00000
     20       1.3503      0.00000
     21       1.3900      0.00000
     22       1.5764      0.00000
     23       1.6386      0.00000
     24       1.6875      0.00000

 k-point     3 :       0.2500    0.0357    0.0000
  band No.  band energies     occupation 
      1      -9.4096      2.00000
      2      -3.5729      0.33345
      3      -3.5729      0.33345
      4      -3.5728      0.33175
      5      -0.2344      0.00000
      6       0.1997      0.00000
      7       0.3417      0.00000
      8       0.3782      0.00000
      9       0.7035      0.00000
     10       0.7127      0.00000
     11       0.7170      0.00000
     12       0.8542      0.00000
     13       0.8712      0.00000
     14       1.0893      0.00000
     15       1.1928      0.00000
     16       1.2345      0.00000
     17       1.2755      0.00000
     18       1.2954      0.00000
     19       1.3904      0.00000
     20       1.3976      0.00000
     21       1.4090      0.00000
     22       1.5964      0.00000
     23       1.5987      0.00000
     24       1.6504      0.00000

 k-point     4 :       0.3500    0.0357    0.0000
  band No.  band energies     occupation 
      1      -9.4096      2.00000
      2      -3.5729      0.33352
      3      -3.5729      0.33344
      4      -3.5728      0.33174
      5      -0.2122      0.00000
      6       0.1315      0.00000
      7       0.3708      0.00000
      8       0.4097      0.00000
      9       0.6240      0.00000
     10       0.6299      0.00000
     11       0.7387      0.00000
     12       0.8866      0.00000
     13       1.0007      0.00000
     14       1.0398      0.00000
     15       1.1673      0.00000
     16       1.2187      0.00000
     17       1.3097      0.00000
     18       1.3625      0.00000
     19       1.4390      0.00000
     20       1.4847      0.00000
     21       1.5080      0.00000
     22       1.5448      0.00000
     23       1.5619      0.00000
     24       1.6050      0.00000

 k-point     5 :       0.4500    0.0357    0.0000
  band No.  band energies     occupation 
      1      -9.4096      2.00000
      2      -3.5729      0.33356
      3      -3.5729      0.33344
      4      -3.5728      0.33174
[...]
      7       0.2980      0.00000
      8       0.5030      0.00000
      9       0.5543      0.00000
     10       0.7016      0.00000
     11       0.7538      0.00000
     12       0.8623      0.00000
     13       0.9188      0.00000
     14       0.9394      0.00000
     15       1.0445      0.00000
     16       1.0857      0.00000
     17       1.1009      0.00000
     18       1.2096      0.00000
     19       1.2917      0.00000
     20       1.4118      0.00000
     21       1.4742      0.00000
     22       1.5077      0.00000
     23       1.6388      0.00000
     24       1.6691      0.00000

 k-point   162 :       0.1500    0.3214    0.4444
  band No.  band energies     occupation 
      1      -9.4096      2.00000
      2      -3.5730      0.33405
      3      -3.5729      0.33329
      4      -3.5729      0.33321
      5      -0.1406      0.00000
      6       0.1720      0.00000
      7       0.3076      0.00000
      8       0.4524      0.00000
      9       0.5144      0.00000
     10       0.6419      0.00000
     11       0.7993      0.00000
     12       0.8510      0.00000
     13       0.9086      0.00000
     14       0.9823      0.00000
     15       1.0226      0.00000
     16       1.0988      0.00000
     17       1.1927      0.00000
     18       1.2626      0.00000
     19       1.3583      0.00000
     20       1.4076      0.00000
     21       1.4396      0.00000
     22       1.4921      0.00000
     23       1.5672      0.00000
     24       1.7097      0.00000

 k-point   163 :       0.2500    0.3214    0.4444
  band No.  band energies     occupation 
      1      -9.4096      2.00000
      2      -3.5730      0.33405
      3      -3.5729      0.33328
      4      -3.5729      0.33327
      5      -0.1242      0.00000
      6       0.1967      0.00000
      7       0.3200      0.00000
      8       0.3681      0.00000
      9       0.5210      0.00000
     10       0.5591      0.00000
     11       0.7187      0.00000
     12       0.8801      0.00000
     13       0.9338      0.00000
     14       0.9903      0.00000
     15       1.0766      0.00000
     16       1.2104      0.00000
     17       1.2744      0.00000
     18       1.2974      0.00000
     19       1.3448      0.00000
     20       1.4264      0.00000
     21       1.4508      0.00000
     22       1.5242      0.00000
     23       1.5704      0.00000
     24       1.6533      0.00000

 k-point   164 :       0.3500    0.3214    0.4444
  band No.  band energies     occupation 
      1      -9.4096      2.00000
      2      -3.5730      0.33404
      3      -3.5729      0.33334
      4      -3.5729      0.33328
      5      -0.1048      0.00000
      6       0.2318      0.00000
      7       0.2826      0.00000
      8       0.3613      0.00000
      9       0.4477      0.00000
     10       0.5810      0.00000
     11       0.6443      0.00000
     12       0.7943      0.00000
     13       0.9663      0.00000
     14       1.1120      0.00000
     15       1.1364      0.00000
     16       1.2183      0.00000
     17       1.3083      0.00000
     18       1.3512      0.00000
     19       1.3999      0.00000
     20       1.4398      0.00000
     21       1.5009      0.00000
     22       1.5274      0.00000
     23       1.6015      0.00000
     24       1.7037      0.00000

 k-point   165 :       0.4500    0.3214    0.4444
  band No.  band energies     occupation 
      1      -9.4096      2.00000
      2      -3.5730      0.33404
      3      -3.5729      0.33339
      4      -3.5729      0.33328
      5      -0.0905      0.00000
      6       0.2423      0.00000
      7       0.2735      0.00000
      8       0.3801      0.00000
      9       0.3840      0.00000
     10       0.5964      0.00000
     11       0.6217      0.00000
     12       0.7287      0.00000
     13       0.9962      0.00000
     14       1.1418      0.00000
     15       1.1471      0.00000
     16       1.2785      0.00000
     17       1.3334      0.00000
     18       1.3540      0.00000
     19       1.4730      0.00000
     20       1.4862      0.00000
     21       1.5009      0.00000
     22       1.5654      0.00000
     23       1.6262      0.00000
     24       1.6401      0.00000

 k-point   166 :       0.0500    0.3929    0.4444
  band No.  band energies     occupation 
      1      -9.4096      2.00000
      2      -3.5730      0.33462
      3      -3.5729      0.33325
      4      -3.5729      0.33312
      5      -0.1174      0.00000
      6       0.2038      0.00000
      7       0.2295      0.00000
      8       0.4200      0.00000
      9       0.5906      0.00000
     10       0.7436      0.00000
     11       0.7976      0.00000
     12       0.8489      0.00000
     13       0.9038      0.00000
     14       0.9737      0.00000
     15       0.9851      0.00000
     16       1.0234      0.00000
     17       1.1126      0.00000
     18       1.1316      0.00000
     19       1.2106      0.00000
     20       1.3410      0.00000
     21       1.5351      0.00000
     22       1.6102      0.00000
     23       1.6911      0.00000
     24       1.7164      0.00000

 k-point   167 :       0.1500    0.3929    0.4444
  band No.  band energies     occupation 
      1      -9.4096      2.00000
      2      -3.5730      0.33462
      3      -3.5729      0.33324
      4      -3.5729      0.33316
      5      -0.1085      0.00000
      6       0.2161      0.00000
      7       0.2403      0.00000
      8       0.4325      0.00000
      9       0.4902      0.00000
     10       0.6853      0.00000
     11       0.7364      0.00000
     12       0.8788      0.00000
     13       0.8993      0.00000
     14       0.9506      0.00000
     15       1.0631      0.00000
     16       1.1143      0.00000
     17       1.1459      0.00000
     18       1.1884      0.00000
     19       1.2941      0.00000
     20       1.3666      0.00000
     21       1.4376      0.00000
     22       1.5780      0.00000
     23       1.6401      0.00000
     24       1.6886      0.00000

 k-point   168 :       0.2500    0.3929    0.4444
  band No.  band energies     occupation 
      1      -9.4096      2.00000
      2      -3.5730      0.33462
      3      -3.5729      0.33324
      4      -3.5729      0.33323
      5      -0.0925      0.00000
      6       0.2401      0.00000
      7       0.2607      0.00000
      8       0.3997      0.00000
      9       0.4567      0.00000
     10       0.5860      0.00000
     11       0.6427      0.00000
     12       0.7976      0.00000
     13       0.9742      0.00000
     14       1.0269      0.00000
     15       1.1173      0.00000
     16       1.1973      0.00000
     17       1.2535      0.00000
     18       1.2778      0.00000
     19       1.3379      0.00000
     20       1.3676      0.00000
     21       1.4695      0.00000
     22       1.5078      0.00000
     23       1.5648      0.00000
     24       1.6655      0.00000

 k-point   169 :       0.3500    0.3929    0.4444
  band No.  band energies     occupation 
      1      -9.4096      2.00000
      2      -3.5730      0.33461
      3      -3.5729      0.33330
      4      -3.5729      0.33324
      5      -0.0737      0.00000
      6       0.2725      0.00000
      7       0.2881      0.00000
      8       0.3317      0.00000
      9       0.4796      0.00000
     10       0.5130      0.00000
     11       0.5663      0.00000
     12       0.7097      0.00000
     13       1.0069      0.00000
     14       1.1501      0.00000
     15       1.1737      0.00000
     16       1.2357      0.00000
     17       1.2606      0.00000
     18       1.3764      0.00000
     19       1.3931      0.00000
     20       1.4387      0.00000
     21       1.4507      0.00000
     22       1.4982      0.00000
     23       1.6204      0.00000
     24       1.6512      0.00000

 k-point   170 :       0.4500    0.3929    0.4444
  band No.  band energies     occupation 
      1      -9.4096      2.00000
      2      -3.5730      0.33461
      3      -3.5729      0.33334
      4      -3.5729      0.33323
      5      -0.0600      0.00000
      6       0.2832      0.00000
      7       0.3106      0.00000
      8       0.3196      0.00000
      9       0.4308      0.00000
     10       0.5171      0.00000
     11       0.5411      0.00000
     12       0.6424      0.00000
     13       1.0360      0.00000
     14       1.1803      0.00000
     15       1.1898      0.00000
     16       1.2628      0.00000
     17       1.3206      0.00000
     18       1.3835      0.00000
     19       1.4118      0.00000
     20       1.4412      0.00000
     21       1.5371      0.00000
     22       1.5576      0.00000
     23       1.6223      0.00000
     24       1.6485      0.00000

 k-point   171 :       0.0500    0.4643    0.4444
  band No.  band energies     occupation 
      1      -9.4096      2.00000
      2      -3.5730      0.33494
      3      -3.5729      0.33322
      4      -3.5729      0.33310
      5      -0.0942      0.00000
      6       0.1849      0.00000
      7       0.2546      0.00000
      8       0.3529      0.00000
      9       0.6204      0.00000
     10       0.7817      0.00000
     11       0.8016      0.00000
     12       0.8427      0.00000
     13       0.9235      0.00000
     14       0.9432      0.00000
     15       0.9506      0.00000
     16       1.0344      0.00000
     17       1.0724      0.00000
     18       1.1380      0.00000
     19       1.1605      0.00000
     20       1.2826      0.00000
     21       1.5676      0.00000
     22       1.6837      0.00000
     23       1.7172      0.00000
     24       1.7638      0.00000

 k-point   172 :       0.1500    0.4643    0.4444
  band No.  band energies     occupation 
      1      -9.4096      2.00000
      2      -3.5730      0.33494
      3      -3.5729      0.33322
      4      -3.5729      0.33314
      5      -0.0855      0.00000
      6       0.1959      0.00000
      7       0.2668      0.00000
      8       0.3658      0.00000
      9       0.5233      0.00000
     10       0.6850      0.00000
     11       0.7335      0.00000
     12       0.8330      0.00000
     13       0.9147      0.00000
     14       0.9870      0.00000
     15       1.0550      0.00000
     16       1.1093      0.00000
     17       1.1321      0.00000
     18       1.1914      0.00000
     19       1.2336      0.00000
     20       1.3059      0.00000
     21       1.4739      0.00000
     22       1.6033      0.00000
     23       1.6297      0.00000
     24       1.7495      0.00000

 k-point   173 :       0.2500    0.4643    0.4444
  band No.  band energies     occupation 
      1      -9.4096      2.00000
      2      -3.5730      0.33493
      3      -3.5729      0.33322
      4      -3.5729      0.33321
      5      -0.0700      0.00000
      6       0.2170      0.00000
      7       0.2906      0.00000
      8       0.3914      0.00000
      9       0.4337      0.00000
     10       0.5884      0.00000
     11       0.6348      0.00000
     12       0.7296      0.00000
     13       1.0136      0.00000
     14       1.0584      0.00000
     15       1.1373      0.00000
     16       1.1579      0.00000
     17       1.2220      0.00000
     18       1.2989      0.00000
     19       1.3099      0.00000
     20       1.3868      0.00000
     21       1.4187      0.00000
     22       1.5054      0.00000
     23       1.5437      0.00000
     24       1.6554      0.00000

 k-point   174 :       0.3500    0.4643    0.4444
  band No.  band energies     occupation 
      1      -9.4096      2.00000
      2      -3.5730      0.33493
      3      -3.5729      0.33328
      4      -3.5729      0.33321
      5      -0.0518      0.00000
      6       0.2452      0.00000
      7       0.3240      0.00000
      8       0.3652      0.00000
      9       0.4285      0.00000
     10       0.5102      0.00000
     11       0.5506      0.00000
     12       0.6398      0.00000
     13       1.0448      0.00000
     14       1.1740      0.00000
     15       1.1819      0.00000
     16       1.2173      0.00000
     17       1.2988      0.00000
     18       1.3187      0.00000
     19       1.3959      0.00000
     20       1.4235      0.00000
     21       1.4524      0.00000
     22       1.5058      0.00000
     23       1.5697      0.00000
     24       1.5863      0.00000

 k-point   175 :       0.4500    0.4643    0.4444
  band No.  band energies     occupation 
      1      -9.4096      2.00000
      2      -3.5730      0.33492
      3      -3.5729      0.33332
      4      -3.5729      0.33321
      5      -0.0388      0.00000
      6       0.2704      0.00000
      7       0.3245      0.00000
      8       0.3602      0.00000
      9       0.4552      0.00000
     10       0.4761      0.00000
     11       0.4918      0.00000
     12       0.5693      0.00000
     13       1.0723      0.00000
     14       1.2079      0.00000
     15       1.2151      0.00000
     16       1.2318      0.00000
     17       1.3425      0.00000
     18       1.3631      0.00000
     19       1.3752      0.00000
     20       1.4411      0.00000
     21       1.4963      0.00000
     22       1.5772      0.00000
     23       1.6053      0.00000
     24       1.6679      0.00000


--------------------------------------------------------------------------------------------------------


 soft charge-density along one line, spin component           1
         0         1         2         3         4         5         6         7         8         9
 total charge-density along one line
 
 pseudopotential strength for first ion, spin component:           1
  6.996  10.697   0.000  -0.000   0.000   0.000  -0.000   0.000
 10.697  16.352   0.000  -0.000   0.000   0.000  -0.000   0.000
  0.000   0.000  -2.483   0.000  -0.000  -4.297   0.000  -0.000
 -0.000  -0.000   0.000  -2.483  -0.000   0.000  -4.297  -0.000
  0.000   0.000  -0.000  -0.000  -2.483  -0.000  -0.000  -4.297
  0.000   0.000  -4.297   0.000  -0.000  -7.240   0.000  -0.000
 -0.000  -0.000   0.000  -4.297  -0.000   0.000  -7.240  -0.000
  0.000   0.000  -0.000  -0.000  -4.297  -0.000  -0.000  -7.240
 total augmentation occupancy for first ion, spin component:           1
  1.996   0.001   0.000   0.000   0.000   0.000   0.000   0.000
  0.001   0.000   0.000   0.000   0.000   0.000   0.000   0.000
  0.000   0.000   0.333   0.000   0.000   0.000   0.000   0.000
  0.000   0.000   0.000   0.333   0.000   0.000   0.000   0.000
  0.000   0.000   0.000   0.000   0.333   0.000   0.000   0.000
  0.000   0.000   0.000   0.000   0.000   0.000   0.000   0.000
  0.000   0.000   0.000   0.000   0.000   0.000   0.000   0.000
  0.000   0.000   0.000   0.000   0.000   0.000   0.000   0.000


------------------------ aborting loop because EDIFF is reached ----------------------------------------


    CHARGE:  cpu time      6.8568: real time      6.8579
    FORLOC:  cpu time      0.0484: real time      0.0490
    FORNL :  cpu time      2.6455: real time      2.6495
    STRESS:  cpu time     92.6202: real time     92.6293
    FORCOR:  cpu time      0.7211: real time      0.7219
    FORHAR:  cpu time      0.1761: real time      0.1771
    MIXING:  cpu time      0.0295: real time      0.0447
    OFIELD:  cpu time      0.0000: real time      0.0000

  FORCE on cell =-STRESS in cart. coord.  units (eV):
  Direction    XX          YY          ZZ          XY          YZ          ZX
  --------------------------------------------------------------------------------------
  Alpha Z     0.02038     0.02038     0.02038
  Ewald      -3.85600    -1.56275    -6.41027     0.00000    -0.00000    -0.00000
  Hartree    14.28964    16.49903    11.79612    -0.00000     0.00000    -0.00000
  E(xc)      -7.33298    -7.33298    -7.33298    -0.00000    -0.00000    -0.00000
  Local     -32.28344   -36.78617   -27.23569     0.00000    -0.00000     0.00000
  n-local     6.84376     6.84374     6.84375    -0.00000     0.00000    -0.00000
  augment     0.68536     0.68537     0.68538     0.00000    -0.00000     0.00000
  Kinetic    21.63250    21.63261    21.63255     0.00001    -0.00000     0.00001
  Fock        0.00000     0.00000     0.00000     0.00000     0.00000     0.00000
  -------------------------------------------------------------------------------------
  Total      -0.00077    -0.00077    -0.00075     0.00000     0.00000     0.00000
  in kB      -0.00037    -0.00037    -0.00036     0.00000     0.00000     0.00000
  external pressure =       -0.00 kB  Pullay stress =        0.00 kB


 VOLUME and BASIS-vectors are now :
 -----------------------------------------------------------------------------
  energy-cutoff  :      800.00
  volume of cell :     3375.00
      direct lattice vectors                 reciprocal lattice vectors
    15.000000000  0.000000000  0.000000000     0.066666667  0.000000000  0.000000000
     0.000000000 12.500000000  0.000000000     0.000000000  0.080000000  0.000000000
     0.000000000  0.000000000 18.000000000     0.000000000  0.000000000  0.055555556

  length of vectors
    15.000000000 12.500000000 18.000000000     0.066666667  0.080000000  0.055555556


 FORCES acting on ions
    electron-ion (+dipol)            ewald-force                    non-local-force                 convergence-correction
 -----------------------------------------------------------------------------------------------
   -.170E-06 -.445E-06 0.576E-07   0.332E-17 -.449E-17 -.121E-17   0.662E-22 -.238E-21 0.106E-21   0.512E-08 0.514E-08 -.962E-08
 -----------------------------------------------------------------------------------------------
   -.170E-06 -.445E-06 0.576E-07   0.332E-17 -.449E-17 -.121E-17   0.662E-22 -.238E-21 0.106E-21   0.512E-08 0.514E-08 -.962E-08
 
 
 POSITION                                       TOTAL-FORCE (eV/Angst)
 -----------------------------------------------------------------------------------
      7.81845      6.81250     11.48328         0.000000     -0.000000     -0.000000
 -----------------------------------------------------------------------------------
    total drift:                               -0.000000     -0.000000      0.000000


--------------------------------------------------------------------------------------------------------



  FREE ENERGIE OF THE ION-ELECTRON SYSTEM (eV)
  ---------------------------------------------------
  free  energy   TOTEN  =        -0.05826198 eV

  energy  without entropy=       -0.00526064  energy(sigma->0) =       -0.03176131
 


--------------------------------------------------------------------------------------------------------


    POTLOK:  cpu time      0.8196: real time      1.8968


--------------------------------------------------------------------------------------------------------


     LOOP+:  cpu time   1059.7102: real time   1075.7457
    4ORBIT:  cpu time      0.0000: real time      0.0000

 total amount of memory used by VASP MPI-rank0  2665739. kBytes
=======================================================================

   base      :      30000. kBytes
   nonl-proj :    1946200. kBytes
   fftplans  :      43816. kBytes
   grid      :     159797. kBytes
   one-center:          3. kBytes
   wavefun   :     485923. kBytes
 
  
  
 General timing and accounting informations for this job:
 ========================================================
  
                  Total CPU time used (sec):     1111.608
                            User time (sec):     1078.539
                          System time (sec):       33.069
                         Elapsed time (sec):     1148.745
  
                   Maximum memory used (kb):     4108100.
                   Average memory used (kb):          N/A
  
                          Minor page faults:     14968131
                          Major page faults:        47404
                 Voluntary context switches:        68060
