  14  14   0   0
  0.1021318E+02  0.5700971E-09  0.4044058E-09  0.6201871E-09  0.5000000E-15
  1.000000000000000E-004
  CAR 
 Dielectric                              
     46.53481457    -15.51877937 4000      1.91044012      1.00000000
    -15.519  0.0000E+00  0.0000E+00
    -15.503  0.0000E+00  0.0000E+00
    -15.488  0.0000E+00  0.0000E+00
    -15.472  0.0000E+00  0.0000E+00
    -15.457  0.0000E+00  0.0000E+00
    -15.441  0.0000E+00  0.0000E+00
    -15.426  0.0000E+00  0.0000E+00
    -15.410  0.0000E+00  0.0000E+00
    -15.395  0.0000E+00  0.0000E+00
    -15.379  0.0000E+00  0.0000E+00
    -15.364  0.0000E+00  0.0000E+00
    -15.348  0.0000E+00  0.0000E+00
    -15.333  0.0000E+00  0.0000E+00
    -15.317  0.0000E+00  0.0000E+00
    -15.302  0.0000E+00  0.0000E+00
    -15.286  0.0000E+00  0.0000E+00
    -15.271  0.0000E+00  0.0000E+00
    -15.255  0.0000E+00  0.0000E+00
    -15.239  0.0000E+00  0.0000E+00
    -15.224  0.0000E+00  0.0000E+00
    -15.208  0.0000E+00  0.0000E+00
    -15.193  0.0000E+00  0.0000E+00
    -15.177  0.0000E+00  0.0000E+00
    -15.162  0.0000E+00  0.0000E+00
    -15.146  0.0000E+00  0.0000E+00
    -15.131  0.0000E+00  0.0000E+00
    -15.115  0.0000E+00  0.0000E+00
    -15.100  0.0000E+00  0.0000E+00
    -15.084  0.0000E+00  0.0000E+00
    -15.069  0.0000E+00  0.0000E+00
    -15.053  0.0000E+00  0.0000E+00
    -15.038  0.0000E+00  0.0000E+00
    -15.022  0.0000E+00  0.0000E+00
    -15.007  0.0000E+00  0.0000E+00
    -14.991  0.0000E+00  0.0000E+00
    -14.976  0.0000E+00  0.0000E+00
    -14.960  0.0000E+00  0.0000E+00
    -14.945  0.0000E+00  0.0000E+00
    -14.929  0.0000E+00  0.0000E+00
    -14.914  0.0000E+00  0.0000E+00
    -14.898  0.0000E+00  0.0000E+00
    -14.883  0.0000E+00  0.0000E+00
    -14.867  0.0000E+00  0.0000E+00
    -14.852  0.0000E+00  0.0000E+00
    -14.836  0.0000E+00  0.0000E+00
    -14.821  0.0000E+00  0.0000E+00
    -14.805  0.0000E+00  0.0000E+00
    -14.789  0.0000E+00  0.0000E+00
    -14.774  0.0000E+00  0.0000E+00
    -14.758  0.0000E+00  0.0000E+00
    -14.743  0.0000E+00  0.0000E+00
    -14.727  0.0000E+00  0.0000E+00
    -14.712  0.0000E+00  0.0000E+00
    -14.696  0.0000E+00  0.0000E+00
    -14.681  0.0000E+00  0.0000E+00
    -14.665  0.0000E+00  0.0000E+00
    -14.650  0.0000E+00  0.0000E+00
    -14.634  0.0000E+00  0.0000E+00
    -14.619  0.0000E+00  0.0000E+00
    -14.603  0.0000E+00  0.0000E+00
    -14.588  0.0000E+00  0.0000E+00
    -14.572  0.0000E+00  0.0000E+00
    -14.557  0.0000E+00  0.0000E+00
    -14.541  0.0000E+00  0.0000E+00
    -14.526  0.0000E+00  0.0000E+00
    -14.510  0.0000E+00  0.0000E+00
    -14.495  0.0000E+00  0.0000E+00
    -14.479  0.0000E+00  0.0000E+00
    -14.464  0.0000E+00  0.0000E+00
    -14.448  0.0000E+00  0.0000E+00
    -14.433  0.0000E+00  0.0000E+00
    -14.417  0.0000E+00  0.0000E+00
    -14.402  0.0000E+00  0.0000E+00
    -14.386  0.0000E+00  0.0000E+00
    -14.371  0.0000E+00  0.0000E+00
    -14.355  0.0000E+00  0.0000E+00
    -14.339  0.0000E+00  0.0000E+00
    -14.324  0.0000E+00  0.0000E+00
    -14.308  0.0000E+00  0.0000E+00
    -14.293  0.0000E+00  0.0000E+00
    -14.277  0.0000E+00  0.0000E+00
    -14.262  0.0000E+00  0.0000E+00
    -14.246  0.0000E+00  0.0000E+00
    -14.231  0.0000E+00  0.0000E+00
    -14.215  0.0000E+00  0.0000E+00
    -14.200  0.0000E+00  0.0000E+00
    -14.184  0.0000E+00  0.0000E+00
    -14.169  0.0000E+00  0.0000E+00
    -14.153  0.0000E+00  0.0000E+00
    -14.138  0.0000E+00  0.0000E+00
    -14.122  0.0000E+00  0.0000E+00
    -14.107  0.0000E+00  0.0000E+00
    -14.091  0.0000E+00  0.0000E+00
    -14.076  0.0000E+00  0.0000E+00
    -14.060  0.0000E+00  0.0000E+00
    -14.045  0.0000E+00  0.0000E+00
    -14.029  0.0000E+00  0.0000E+00
    -14.014  0.0000E+00  0.0000E+00
    -13.998  0.0000E+00  0.0000E+00
    -13.983  0.0000E+00  0.0000E+00
    -13.967  0.0000E+00  0.0000E+00
    -13.952  0.0000E+00  0.0000E+00
    -13.936  0.0000E+00  0.0000E+00
    -13.920  0.0000E+00  0.0000E+00
    -13.905  0.0000E+00  0.0000E+00
    -13.889  0.0000E+00  0.0000E+00
    -13.874  0.0000E+00  0.0000E+00
    -13.858  0.0000E+00  0.0000E+00
    -13.843  0.0000E+00  0.0000E+00
    -13.827  0.0000E+00  0.0000E+00
    -13.812  0.0000E+00  0.0000E+00
    -13.796  0.0000E+00  0.0000E+00
    -13.781  0.0000E+00  0.0000E+00
    -13.765  0.0000E+00  0.0000E+00
    -13.750  0.0000E+00  0.0000E+00
    -13.734  0.0000E+00  0.0000E+00
    -13.719  0.0000E+00  0.0000E+00
    -13.703  0.0000E+00  0.0000E+00
    -13.688  0.0000E+00  0.0000E+00
    -13.672  0.0000E+00  0.0000E+00
    -13.657  0.0000E+00  0.0000E+00
    -13.641  0.0000E+00  0.0000E+00
    -13.626  0.0000E+00  0.0000E+00
    -13.610  0.0000E+00  0.0000E+00
    -13.595  0.0000E+00  0.0000E+00
    -13.579  0.0000E+00  0.0000E+00
    -13.564  0.0000E+00  0.0000E+00
    -13.548  0.0000E+00  0.0000E+00
    -13.533  0.0000E+00  0.0000E+00
    -13.517  0.0000E+00  0.0000E+00
    -13.502  0.0000E+00  0.0000E+00
    -13.486  0.0000E+00  0.0000E+00
    -13.470  0.0000E+00  0.0000E+00
    -13.455  0.0000E+00  0.0000E+00
    -13.439  0.0000E+00  0.0000E+00
    -13.424  0.0000E+00  0.0000E+00
    -13.408  0.0000E+00  0.0000E+00
    -13.393  0.0000E+00  0.0000E+00
    -13.377  0.0000E+00  0.0000E+00
    -13.362  0.0000E+00  0.0000E+00
    -13.346  0.0000E+00  0.0000E+00
    -13.331  0.0000E+00  0.0000E+00
    -13.315  0.0000E+00  0.0000E+00
    -13.300  0.0000E+00  0.0000E+00
    -13.284  0.0000E+00  0.0000E+00
    -13.269  0.0000E+00  0.0000E+00
    -13.253  0.0000E+00  0.0000E+00
    -13.238  0.0000E+00  0.0000E+00
    -13.222  0.0000E+00  0.0000E+00
    -13.207  0.0000E+00  0.0000E+00
    -13.191  0.0000E+00  0.0000E+00
    -13.176  0.0000E+00  0.0000E+00
    -13.160  0.0000E+00  0.0000E+00
    -13.145  0.0000E+00  0.0000E+00
    -13.129  0.0000E+00  0.0000E+00
    -13.114  0.0000E+00  0.0000E+00
    -13.098  0.0000E+00  0.0000E+00
    -13.083  0.0000E+00  0.0000E+00
    -13.067  0.0000E+00  0.0000E+00
    -13.052  0.0000E+00  0.0000E+00
    -13.036  0.0000E+00  0.0000E+00
    -13.020  0.0000E+00  0.0000E+00
    -13.005  0.0000E+00  0.0000E+00
    -12.989  0.0000E+00  0.0000E+00
    -12.974  0.0000E+00  0.0000E+00
    -12.958  0.0000E+00  0.0000E+00
    -12.943  0.0000E+00  0.0000E+00
    -12.927  0.0000E+00  0.0000E+00
    -12.912  0.0000E+00  0.0000E+00
    -12.896  0.0000E+00  0.0000E+00
    -12.881  0.0000E+00  0.0000E+00
    -12.865  0.0000E+00  0.0000E+00
    -12.850  0.0000E+00  0.0000E+00
    -12.834  0.0000E+00  0.0000E+00
    -12.819  0.0000E+00  0.0000E+00
    -12.803  0.0000E+00  0.0000E+00
    -12.788  0.0000E+00  0.0000E+00
    -12.772  0.0000E+00  0.0000E+00
    -12.757  0.3188E-17  0.4948E-19
    -12.741  0.3537E-10  0.5489E-12
    -12.726  0.3416E-05  0.5300E-07
    -12.710  0.4370E-02  0.6786E-04
    -12.695  0.1601E+00  0.2552E-02
    -12.679  0.6284E+00  0.1230E-01
    -12.664  0.1015E+01  0.2805E-01
    -12.648  0.1306E+01  0.4831E-01
    -12.633  0.1601E+01  0.7315E-01
    -12.617  0.1878E+01  0.1023E+00
    -12.602  0.2296E+01  0.1379E+00
    -12.586  0.2699E+01  0.1798E+00
    -12.570  0.3011E+01  0.2265E+00
    -12.555  0.3053E+01  0.2739E+00
    -12.539  0.3050E+01  0.3212E+00
    -12.524  0.3236E+01  0.3715E+00
    -12.508  0.3289E+01  0.4225E+00
    -12.493  0.3259E+01  0.4731E+00
    -12.477  0.3516E+01  0.5276E+00
    -12.462  0.3630E+01  0.5839E+00
    -12.446  0.3760E+01  0.6423E+00
    -12.431  0.3918E+01  0.7031E+00
    -12.415  0.4491E+01  0.7728E+00
    -12.400  0.4676E+01  0.8453E+00
    -12.384  0.4403E+01  0.9137E+00
    -12.369  0.4417E+01  0.9822E+00
    -12.353  0.4633E+01  0.1054E+01
    -12.338  0.4493E+01  0.1124E+01
    -12.322  0.4153E+01  0.1188E+01
    -12.307  0.3824E+01  0.1248E+01
    -12.291  0.3658E+01  0.1304E+01
    -12.276  0.3435E+01  0.1358E+01
    -12.260  0.3319E+01  0.1409E+01
    -12.245  0.3082E+01  0.1457E+01
    -12.229  0.2959E+01  0.1503E+01
    -12.214  0.3066E+01  0.1550E+01
    -12.198  0.3017E+01  0.1597E+01
    -12.183  0.2911E+01  0.1642E+01
    -12.167  0.2575E+01  0.1682E+01
    -12.152  0.2685E+01  0.1724E+01
    -12.136  0.2880E+01  0.1769E+01
    -12.120  0.2841E+01  0.1813E+01
    -12.105  0.2575E+01  0.1853E+01
    -12.089  0.2347E+01  0.1889E+01
    -12.074  0.2512E+01  0.1928E+01
    -12.058  0.3000E+01  0.1975E+01
    -12.043  0.2589E+01  0.2015E+01
    -12.027  0.2276E+01  0.2050E+01
    -12.012  0.2251E+01  0.2085E+01
    -11.996  0.2927E+01  0.2131E+01
    -11.981  0.2568E+01  0.2170E+01
    -11.965  0.2350E+01  0.2207E+01
    -11.950  0.2491E+01  0.2246E+01
    -11.934  0.2519E+01  0.2285E+01
    -11.919  0.2540E+01  0.2324E+01
    -11.903  0.2443E+01  0.2362E+01
    -11.888  0.2745E+01  0.2405E+01
    -11.872  0.2636E+01  0.2445E+01
    -11.857  0.2253E+01  0.2480E+01
    -11.841  0.2583E+01  0.2520E+01
    -11.826  0.2822E+01  0.2564E+01
    -11.810  0.3003E+01  0.2611E+01
    -11.795  0.2414E+01  0.2648E+01
    -11.779  0.2523E+01  0.2687E+01
    -11.764  0.2955E+01  0.2733E+01
    -11.748  0.3352E+01  0.2785E+01
    -11.733  0.2950E+01  0.2831E+01
    -11.717  0.2898E+01  0.2876E+01
    -11.702  0.3585E+01  0.2932E+01
    -11.686  0.3814E+01  0.2991E+01
    -11.670  0.3684E+01  0.3048E+01
    -11.655  0.3497E+01  0.3102E+01
    -11.639  0.3582E+01  0.3158E+01
    -11.624  0.3513E+01  0.3212E+01
    -11.608  0.3567E+01  0.3268E+01
    -11.593  0.3713E+01  0.3325E+01
    -11.577  0.3382E+01  0.3378E+01
    -11.562  0.3382E+01  0.3430E+01
    -11.546  0.3533E+01  0.3485E+01
    -11.531  0.3531E+01  0.3540E+01
    -11.515  0.3404E+01  0.3593E+01
    -11.500  0.3022E+01  0.3640E+01
    -11.484  0.2917E+01  0.3685E+01
    -11.469  0.2847E+01  0.3729E+01
    -11.453  0.2697E+01  0.3771E+01
    -11.438  0.2438E+01  0.3809E+01
    -11.422  0.2133E+01  0.3842E+01
    -11.407  0.1901E+01  0.3871E+01
    -11.391  0.1602E+01  0.3896E+01
    -11.376  0.1373E+01  0.3918E+01
    -11.360  0.1280E+01  0.3937E+01
    -11.345  0.1096E+01  0.3954E+01
    -11.329  0.9058E+00  0.3969E+01
    -11.314  0.8048E+00  0.3981E+01
    -11.298  0.6010E+00  0.3990E+01
    -11.283  0.4391E+00  0.3997E+01
    -11.267  0.1706E+00  0.4000E+01
    -11.252  0.1267E-01  0.4000E+01
    -11.236  0.3661E-04  0.4000E+01
    -11.220  0.1514E-08  0.4000E+01
    -11.205  0.6249E-15  0.4000E+01
    -11.189  0.0000E+00  0.4000E+01
    -11.174  0.0000E+00  0.4000E+01
    -11.158  0.0000E+00  0.4000E+01
    -11.143  0.0000E+00  0.4000E+01
    -11.127  0.0000E+00  0.4000E+01
    -11.112  0.0000E+00  0.4000E+01
    -11.096  0.0000E+00  0.4000E+01
    -11.081  0.0000E+00  0.4000E+01
    -11.065  0.0000E+00  0.4000E+01
    -11.050  0.0000E+00  0.4000E+01
    -11.034  0.0000E+00  0.4000E+01
    -11.019  0.0000E+00  0.4000E+01
    -11.003  0.0000E+00  0.4000E+01
    -10.988  0.0000E+00  0.4000E+01
    -10.972  0.0000E+00  0.4000E+01
    -10.957  0.0000E+00  0.4000E+01
    -10.941  0.0000E+00  0.4000E+01
    -10.926  0.0000E+00  0.4000E+01
    -10.910  0.0000E+00  0.4000E+01
    -10.895  0.0000E+00  0.4000E+01
    -10.879  0.0000E+00  0.4000E+01
    -10.864  0.0000E+00  0.4000E+01
    -10.848  0.0000E+00  0.4000E+01
    -10.833  0.0000E+00  0.4000E+01
    -10.817  0.0000E+00  0.4000E+01
    -10.802  0.0000E+00  0.4000E+01
    -10.786  0.0000E+00  0.4000E+01
    -10.770  0.0000E+00  0.4000E+01
    -10.755  0.0000E+00  0.4000E+01
    -10.739  0.0000E+00  0.4000E+01
    -10.724  0.0000E+00  0.4000E+01
    -10.708  0.0000E+00  0.4000E+01
    -10.693  0.0000E+00  0.4000E+01
    -10.677  0.0000E+00  0.4000E+01
    -10.662  0.0000E+00  0.4000E+01
    -10.646  0.0000E+00  0.4000E+01
    -10.631  0.0000E+00  0.4000E+01
    -10.615  0.0000E+00  0.4000E+01
    -10.600  0.0000E+00  0.4000E+01
    -10.584  0.0000E+00  0.4000E+01
    -10.569  0.0000E+00  0.4000E+01
    -10.553  0.0000E+00  0.4000E+01
    -10.538  0.0000E+00  0.4000E+01
    -10.522  0.0000E+00  0.4000E+01
    -10.507  0.0000E+00  0.4000E+01
    -10.491  0.0000E+00  0.4000E+01
    -10.476  0.0000E+00  0.4000E+01
    -10.460  0.0000E+00  0.4000E+01
    -10.445  0.0000E+00  0.4000E+01
    -10.429  0.0000E+00  0.4000E+01
    -10.414  0.0000E+00  0.4000E+01
    -10.398  0.0000E+00  0.4000E+01
    -10.383  0.0000E+00  0.4000E+01
    -10.367  0.0000E+00  0.4000E+01
    -10.352  0.0000E+00  0.4000E+01
    -10.336  0.0000E+00  0.4000E+01
    -10.320  0.0000E+00  0.4000E+01
    -10.305  0.0000E+00  0.4000E+01
    -10.289  0.0000E+00  0.4000E+01
    -10.274  0.0000E+00  0.4000E+01
    -10.258  0.0000E+00  0.4000E+01
    -10.243  0.0000E+00  0.4000E+01
    -10.227  0.0000E+00  0.4000E+01
    -10.212  0.0000E+00  0.4000E+01
    -10.196  0.0000E+00  0.4000E+01
    -10.181  0.0000E+00  0.4000E+01
    -10.165  0.0000E+00  0.4000E+01
    -10.150  0.0000E+00  0.4000E+01
    -10.134  0.0000E+00  0.4000E+01
    -10.119  0.0000E+00  0.4000E+01
    -10.103  0.0000E+00  0.4000E+01
    -10.088  0.0000E+00  0.4000E+01
    -10.072  0.0000E+00  0.4000E+01
    -10.057  0.0000E+00  0.4000E+01
    -10.041  0.0000E+00  0.4000E+01
    -10.026  0.0000E+00  0.4000E+01
    -10.010  0.0000E+00  0.4000E+01
     -9.995  0.0000E+00  0.4000E+01
     -9.979  0.0000E+00  0.4000E+01
     -9.964  0.0000E+00  0.4000E+01
     -9.948  0.0000E+00  0.4000E+01
     -9.933  0.0000E+00  0.4000E+01
     -9.917  0.0000E+00  0.4000E+01
     -9.902  0.0000E+00  0.4000E+01
     -9.886  0.0000E+00  0.4000E+01
     -9.870  0.0000E+00  0.4000E+01
     -9.855  0.0000E+00  0.4000E+01
     -9.839  0.0000E+00  0.4000E+01
     -9.824  0.0000E+00  0.4000E+01
     -9.808  0.0000E+00  0.4000E+01
     -9.793  0.0000E+00  0.4000E+01
     -9.777  0.0000E+00  0.4000E+01
     -9.762  0.0000E+00  0.4000E+01
     -9.746  0.0000E+00  0.4000E+01
     -9.731  0.0000E+00  0.4000E+01
     -9.715  0.0000E+00  0.4000E+01
     -9.700  0.0000E+00  0.4000E+01
     -9.684  0.0000E+00  0.4000E+01
     -9.669  0.0000E+00  0.4000E+01
     -9.653  0.0000E+00  0.4000E+01
     -9.638  0.0000E+00  0.4000E+01
     -9.622  0.0000E+00  0.4000E+01
     -9.607  0.0000E+00  0.4000E+01
     -9.591  0.0000E+00  0.4000E+01
     -9.576  0.0000E+00  0.4000E+01
     -9.560  0.0000E+00  0.4000E+01
     -9.545  0.0000E+00  0.4000E+01
     -9.529  0.0000E+00  0.4000E+01
     -9.514  0.0000E+00  0.4000E+01
     -9.498  0.0000E+00  0.4000E+01
     -9.483  0.0000E+00  0.4000E+01
     -9.467  0.0000E+00  0.4000E+01
     -9.452  0.0000E+00  0.4000E+01
     -9.436  0.0000E+00  0.4000E+01
     -9.420  0.0000E+00  0.4000E+01
     -9.405  0.0000E+00  0.4000E+01
     -9.389  0.0000E+00  0.4000E+01
     -9.374  0.0000E+00  0.4000E+01
     -9.358  0.0000E+00  0.4000E+01
     -9.343  0.0000E+00  0.4000E+01
     -9.327  0.0000E+00  0.4000E+01
     -9.312  0.0000E+00  0.4000E+01
     -9.296  0.0000E+00  0.4000E+01
     -9.281  0.0000E+00  0.4000E+01
     -9.265  0.0000E+00  0.4000E+01
     -9.250  0.0000E+00  0.4000E+01
     -9.234  0.0000E+00  0.4000E+01
     -9.219  0.0000E+00  0.4000E+01
     -9.203  0.0000E+00  0.4000E+01
     -9.188  0.0000E+00  0.4000E+01
     -9.172  0.0000E+00  0.4000E+01
     -9.157  0.0000E+00  0.4000E+01
     -9.141  0.0000E+00  0.4000E+01
     -9.126  0.0000E+00  0.4000E+01
     -9.110  0.0000E+00  0.4000E+01
     -9.095  0.0000E+00  0.4000E+01
     -9.079  0.0000E+00  0.4000E+01
     -9.064  0.0000E+00  0.4000E+01
     -9.048  0.0000E+00  0.4000E+01
     -9.033  0.0000E+00  0.4000E+01
     -9.017  0.0000E+00  0.4000E+01
     -9.002  0.0000E+00  0.4000E+01
     -8.986  0.0000E+00  0.4000E+01
     -8.970  0.0000E+00  0.4000E+01
     -8.955  0.0000E+00  0.4000E+01
     -8.939  0.0000E+00  0.4000E+01
     -8.924  0.0000E+00  0.4000E+01
     -8.908  0.0000E+00  0.4000E+01
     -8.893  0.0000E+00  0.4000E+01
     -8.877  0.2992E-13  0.4000E+01
     -8.862  0.2918E-07  0.4000E+01
     -8.846  0.3030E-03  0.4000E+01
     -8.831  0.5161E-01  0.4001E+01
     -8.815  0.4532E+00  0.4008E+01
     -8.800  0.9771E+00  0.4023E+01
     -8.784  0.1276E+01  0.4043E+01
     -8.769  0.1681E+01  0.4069E+01
     -8.753  0.1833E+01  0.4097E+01
     -8.738  0.2267E+01  0.4133E+01
     -8.722  0.2561E+01  0.4172E+01
     -8.707  0.2724E+01  0.4215E+01
     -8.691  0.3310E+01  0.4266E+01
     -8.676  0.3636E+01  0.4322E+01
     -8.660  0.4515E+01  0.4392E+01
     -8.645  0.5906E+01  0.4484E+01
     -8.629  0.6663E+01  0.4587E+01
     -8.614  0.6671E+01  0.4691E+01
     -8.598  0.6568E+01  0.4793E+01
     -8.583  0.6699E+01  0.4897E+01
     -8.567  0.6777E+01  0.5002E+01
     -8.552  0.6861E+01  0.5108E+01
     -8.536  0.6842E+01  0.5215E+01
     -8.520  0.6788E+01  0.5320E+01
     -8.505  0.6440E+01  0.5420E+01
     -8.489  0.6845E+01  0.5526E+01
     -8.474  0.6767E+01  0.5631E+01
     -8.458  0.7021E+01  0.5740E+01
     -8.443  0.7140E+01  0.5851E+01
     -8.427  0.5855E+01  0.5942E+01
     -8.412  0.4422E+01  0.6010E+01
     -8.396  0.3917E+01  0.6071E+01
     -8.381  0.3699E+01  0.6128E+01
     -8.365  0.3674E+01  0.6185E+01
     -8.350  0.4121E+01  0.6249E+01
     -8.334  0.4649E+01  0.6322E+01
     -8.319  0.5212E+01  0.6402E+01
     -8.303  0.5347E+01  0.6485E+01
     -8.288  0.5041E+01  0.6564E+01
     -8.272  0.4929E+01  0.6640E+01
     -8.257  0.4788E+01  0.6714E+01
     -8.241  0.4828E+01  0.6789E+01
     -8.226  0.5058E+01  0.6868E+01
     -8.210  0.4540E+01  0.6938E+01
     -8.195  0.4557E+01  0.7009E+01
     -8.179  0.4483E+01  0.7079E+01
     -8.164  0.4610E+01  0.7150E+01
     -8.148  0.4640E+01  0.7222E+01
     -8.133  0.4398E+01  0.7290E+01
     -8.117  0.4389E+01  0.7358E+01
     -8.102  0.4837E+01  0.7433E+01
     -8.086  0.4926E+01  0.7510E+01
     -8.070  0.4137E+01  0.7574E+01
     -8.055  0.3534E+01  0.7629E+01
     -8.039  0.3098E+01  0.7677E+01
     -8.024  0.2643E+01  0.7718E+01
     -8.008  0.2658E+01  0.7759E+01
     -7.993  0.2456E+01  0.7797E+01
     -7.977  0.1758E+01  0.7825E+01
     -7.962  0.1765E+01  0.7852E+01
     -7.946  0.1616E+01  0.7877E+01
     -7.931  0.1320E+01  0.7898E+01
     -7.915  0.1157E+01  0.7916E+01
     -7.900  0.9865E+00  0.7931E+01
     -7.884  0.9554E+00  0.7946E+01
     -7.869  0.8341E+00  0.7959E+01
     -7.853  0.6163E+00  0.7968E+01
     -7.838  0.6022E+00  0.7978E+01
     -7.822  0.5353E+00  0.7986E+01
     -7.807  0.3590E+00  0.7991E+01
     -7.791  0.3260E+00  0.7996E+01
     -7.776  0.1770E+00  0.7999E+01
     -7.760  0.5048E-01  0.8000E+01
     -7.745  0.1162E-02  0.8000E+01
     -7.729  0.4743E-06  0.8000E+01
     -7.714  0.2120E-11  0.8000E+01
     -7.698  0.0000E+00  0.8000E+01
     -7.683  0.0000E+00  0.8000E+01
     -7.667  0.0000E+00  0.8000E+01
     -7.652  0.0000E+00  0.8000E+01
     -7.636  0.0000E+00  0.8000E+01
     -7.620  0.0000E+00  0.8000E+01
     -7.605  0.0000E+00  0.8000E+01
     -7.589  0.0000E+00  0.8000E+01
     -7.574  0.0000E+00  0.8000E+01
     -7.558  0.0000E+00  0.8000E+01
     -7.543  0.0000E+00  0.8000E+01
     -7.527  0.0000E+00  0.8000E+01
     -7.512  0.0000E+00  0.8000E+01
     -7.496  0.0000E+00  0.8000E+01
     -7.481  0.0000E+00  0.8000E+01
     -7.465  0.0000E+00  0.8000E+01
     -7.450  0.0000E+00  0.8000E+01
     -7.434  0.0000E+00  0.8000E+01
     -7.419  0.0000E+00  0.8000E+01
     -7.403  0.0000E+00  0.8000E+01
     -7.388  0.0000E+00  0.8000E+01
     -7.372  0.0000E+00  0.8000E+01
     -7.357  0.0000E+00  0.8000E+01
     -7.341  0.0000E+00  0.8000E+01
     -7.326  0.0000E+00  0.8000E+01
     -7.310  0.0000E+00  0.8000E+01
     -7.295  0.0000E+00  0.8000E+01
     -7.279  0.0000E+00  0.8000E+01
     -7.264  0.0000E+00  0.8000E+01
     -7.248  0.0000E+00  0.8000E+01
     -7.233  0.0000E+00  0.8000E+01
     -7.217  0.0000E+00  0.8000E+01
     -7.202  0.0000E+00  0.8000E+01
     -7.186  0.0000E+00  0.8000E+01
     -7.170  0.0000E+00  0.8000E+01
     -7.155  0.0000E+00  0.8000E+01
     -7.139  0.0000E+00  0.8000E+01
     -7.124  0.0000E+00  0.8000E+01
     -7.108  0.0000E+00  0.8000E+01
     -7.093  0.0000E+00  0.8000E+01
     -7.077  0.0000E+00  0.8000E+01
     -7.062  0.0000E+00  0.8000E+01
     -7.046  0.0000E+00  0.8000E+01
     -7.031  0.0000E+00  0.8000E+01
     -7.015  0.3316E-15  0.8000E+01
     -7.000  0.9514E-09  0.8000E+01
     -6.984  0.2640E-04  0.8000E+01
     -6.969  0.9288E-02  0.8000E+01
     -6.953  0.8599E-01  0.8001E+01
     -6.938  0.8382E-01  0.8003E+01
     -6.922  0.1089E+00  0.8004E+01
     -6.907  0.2010E+00  0.8008E+01
     -6.891  0.1994E+00  0.8011E+01
     -6.876  0.1922E+00  0.8014E+01
     -6.860  0.2462E+00  0.8017E+01
     -6.845  0.2622E+00  0.8022E+01
     -6.829  0.2432E+00  0.8025E+01
     -6.814  0.2571E+00  0.8029E+01
     -6.798  0.3923E+00  0.8035E+01
     -6.783  0.3598E+00  0.8041E+01
     -6.767  0.3717E+00  0.8047E+01
     -6.752  0.4045E+00  0.8053E+01
     -6.736  0.4485E+00  0.8060E+01
     -6.720  0.5140E+00  0.8068E+01
     -6.705  0.4173E+00  0.8074E+01
     -6.689  0.4290E+00  0.8081E+01
     -6.674  0.4092E+00  0.8087E+01
     -6.658  0.6799E+00  0.8098E+01
     -6.643  0.7087E+00  0.8109E+01
     -6.627  0.8066E+00  0.8122E+01
     -6.612  0.7616E+00  0.8133E+01
     -6.596  0.6913E+00  0.8144E+01
     -6.581  0.8463E+00  0.8157E+01
     -6.565  0.6751E+00  0.8168E+01
     -6.550  0.6882E+00  0.8178E+01
     -6.534  0.6392E+00  0.8188E+01
     -6.519  0.8036E+00  0.8201E+01
     -6.503  0.8540E+00  0.8214E+01
     -6.488  0.1106E+01  0.8231E+01
     -6.472  0.1027E+01  0.8247E+01
     -6.457  0.9662E+00  0.8262E+01
     -6.441  0.1133E+01  0.8280E+01
     -6.426  0.1176E+01  0.8298E+01
     -6.410  0.1226E+01  0.8317E+01
     -6.395  0.1358E+01  0.8338E+01
     -6.379  0.1398E+01  0.8360E+01
     -6.364  0.1587E+01  0.8384E+01
     -6.348  0.1787E+01  0.8412E+01
     -6.333  0.1867E+01  0.8441E+01
     -6.317  0.1889E+01  0.8470E+01
     -6.302  0.1842E+01  0.8499E+01
     -6.286  0.2137E+01  0.8532E+01
     -6.270  0.2102E+01  0.8565E+01
     -6.255  0.2398E+01  0.8602E+01
     -6.239  0.2491E+01  0.8641E+01
     -6.224  0.2576E+01  0.8681E+01
     -6.208  0.2546E+01  0.8720E+01
     -6.193  0.2917E+01  0.8765E+01
     -6.177  0.3215E+01  0.8815E+01
     -6.162  0.3636E+01  0.8872E+01
     -6.146  0.3785E+01  0.8930E+01
     -6.131  0.3674E+01  0.8987E+01
     -6.115  0.3625E+01  0.9044E+01
     -6.100  0.3577E+01  0.9099E+01
     -6.084  0.3933E+01  0.9160E+01
     -6.069  0.4242E+01  0.9226E+01
     -6.053  0.4035E+01  0.9289E+01
     -6.038  0.3754E+01  0.9347E+01
     -6.022  0.4110E+01  0.9411E+01
     -6.007  0.4296E+01  0.9477E+01
     -5.991  0.4242E+01  0.9543E+01
     -5.976  0.4153E+01  0.9608E+01
     -5.960  0.3768E+01  0.9666E+01
     -5.945  0.3813E+01  0.9725E+01
     -5.929  0.4017E+01  0.9788E+01
     -5.914  0.3830E+01  0.9847E+01
     -5.898  0.4132E+01  0.9911E+01
     -5.883  0.4047E+01  0.9974E+01
     -5.867  0.4179E+01  0.1004E+02
     -5.852  0.4044E+01  0.1010E+02
     -5.836  0.3862E+01  0.1016E+02
     -5.820  0.3864E+01  0.1022E+02
     -5.805  0.4467E+01  0.1029E+02
     -5.789  0.4329E+01  0.1036E+02
     -5.774  0.4320E+01  0.1042E+02
     -5.758  0.4509E+01  0.1049E+02
     -5.743  0.3842E+01  0.1055E+02
     -5.727  0.4228E+01  0.1062E+02
     -5.712  0.4346E+01  0.1069E+02
     -5.696  0.4059E+01  0.1075E+02
     -5.681  0.3752E+01  0.1081E+02
     -5.665  0.3633E+01  0.1087E+02
     -5.650  0.3781E+01  0.1092E+02
     -5.634  0.4127E+01  0.1099E+02
     -5.619  0.4044E+01  0.1105E+02
     -5.603  0.4100E+01  0.1111E+02
     -5.588  0.3926E+01  0.1118E+02
     -5.572  0.4304E+01  0.1124E+02
     -5.557  0.4307E+01  0.1131E+02
     -5.541  0.4063E+01  0.1137E+02
     -5.526  0.4222E+01  0.1144E+02
     -5.510  0.4131E+01  0.1150E+02
     -5.495  0.4064E+01  0.1156E+02
     -5.479  0.4377E+01  0.1163E+02
     -5.464  0.4618E+01  0.1170E+02
     -5.448  0.4150E+01  0.1177E+02
     -5.433  0.4493E+01  0.1184E+02
     -5.417  0.4459E+01  0.1191E+02
     -5.402  0.4836E+01  0.1198E+02
     -5.386  0.5071E+01  0.1206E+02
     -5.370  0.5065E+01  0.1214E+02
     -5.355  0.4840E+01  0.1221E+02
     -5.339  0.4778E+01  0.1229E+02
     -5.324  0.5209E+01  0.1237E+02
     -5.308  0.4964E+01  0.1245E+02
     -5.293  0.4821E+01  0.1252E+02
     -5.277  0.4005E+01  0.1258E+02
     -5.262  0.4346E+01  0.1265E+02
     -5.246  0.4676E+01  0.1272E+02
     -5.231  0.4235E+01  0.1279E+02
     -5.215  0.4069E+01  0.1285E+02
     -5.200  0.4120E+01  0.1292E+02
     -5.184  0.4291E+01  0.1298E+02
     -5.169  0.4697E+01  0.1306E+02
     -5.153  0.4093E+01  0.1312E+02
     -5.138  0.3769E+01  0.1318E+02
     -5.122  0.3797E+01  0.1324E+02
     -5.107  0.3869E+01  0.1330E+02
     -5.091  0.3813E+01  0.1336E+02
     -5.076  0.3772E+01  0.1341E+02
     -5.060  0.3766E+01  0.1347E+02
     -5.045  0.3414E+01  0.1353E+02
     -5.029  0.3302E+01  0.1358E+02
     -5.014  0.3555E+01  0.1363E+02
     -4.998  0.3067E+01  0.1368E+02
     -4.983  0.2821E+01  0.1372E+02
     -4.967  0.2895E+01  0.1377E+02
     -4.952  0.2838E+01  0.1381E+02
     -4.936  0.2457E+01  0.1385E+02
     -4.920  0.2635E+01  0.1389E+02
     -4.905  0.2987E+01  0.1394E+02
     -4.889  0.2219E+01  0.1397E+02
     -4.874  0.1838E+01  0.1400E+02
     -4.858  0.2123E+01  0.1403E+02
     -4.843  0.2151E+01  0.1407E+02
     -4.827  0.2358E+01  0.1410E+02
     -4.812  0.2393E+01  0.1414E+02
     -4.796  0.2875E+01  0.1419E+02
     -4.781  0.2627E+01  0.1423E+02
     -4.765  0.2625E+01  0.1427E+02
     -4.750  0.3066E+01  0.1431E+02
     -4.734  0.2934E+01  0.1436E+02
     -4.719  0.3141E+01  0.1441E+02
     -4.703  0.3393E+01  0.1446E+02
     -4.688  0.2903E+01  0.1451E+02
     -4.672  0.3021E+01  0.1455E+02
     -4.657  0.3285E+01  0.1460E+02
     -4.641  0.3969E+01  0.1467E+02
     -4.626  0.3770E+01  0.1472E+02
     -4.610  0.3415E+01  0.1478E+02
     -4.595  0.3777E+01  0.1484E+02
     -4.579  0.3803E+01  0.1490E+02
     -4.564  0.3804E+01  0.1495E+02
     -4.548  0.3601E+01  0.1501E+02
     -4.533  0.3363E+01  0.1506E+02
     -4.517  0.3394E+01  0.1512E+02
     -4.502  0.3470E+01  0.1517E+02
     -4.486  0.3514E+01  0.1522E+02
     -4.470  0.3527E+01  0.1528E+02
     -4.455  0.3636E+01  0.1533E+02
     -4.439  0.3084E+01  0.1538E+02
     -4.424  0.2828E+01  0.1543E+02
     -4.408  0.3211E+01  0.1548E+02
     -4.393  0.3204E+01  0.1553E+02
     -4.377  0.3211E+01  0.1558E+02
     -4.362  0.2954E+01  0.1562E+02
     -4.346  0.2682E+01  0.1566E+02
     -4.331  0.3167E+01  0.1571E+02
     -4.315  0.2978E+01  0.1576E+02
     -4.300  0.2375E+01  0.1580E+02
     -4.284  0.2617E+01  0.1584E+02
     -4.269  0.3044E+01  0.1588E+02
     -4.253  0.3704E+01  0.1594E+02
     -4.238  0.2909E+01  0.1599E+02
     -4.222  0.2742E+01  0.1603E+02
     -4.207  0.2940E+01  0.1607E+02
     -4.191  0.3189E+01  0.1612E+02
     -4.176  0.2780E+01  0.1617E+02
     -4.160  0.2523E+01  0.1621E+02
     -4.145  0.2728E+01  0.1625E+02
     -4.129  0.2702E+01  0.1629E+02
     -4.114  0.2797E+01  0.1633E+02
     -4.098  0.2977E+01  0.1638E+02
     -4.083  0.3073E+01  0.1643E+02
     -4.067  0.2871E+01  0.1647E+02
     -4.052  0.3113E+01  0.1652E+02
     -4.036  0.3299E+01  0.1657E+02
     -4.020  0.2930E+01  0.1662E+02
     -4.005  0.2827E+01  0.1666E+02
     -3.989  0.2961E+01  0.1671E+02
     -3.974  0.3237E+01  0.1676E+02
     -3.958  0.2853E+01  0.1680E+02
     -3.943  0.2692E+01  0.1684E+02
     -3.927  0.2951E+01  0.1689E+02
     -3.912  0.3123E+01  0.1694E+02
     -3.896  0.2967E+01  0.1698E+02
     -3.881  0.3071E+01  0.1703E+02
     -3.865  0.2693E+01  0.1707E+02
     -3.850  0.3354E+01  0.1712E+02
     -3.834  0.2971E+01  0.1717E+02
     -3.819  0.2905E+01  0.1722E+02
     -3.803  0.2898E+01  0.1726E+02
     -3.788  0.3231E+01  0.1731E+02
     -3.772  0.2820E+01  0.1735E+02
     -3.757  0.3369E+01  0.1741E+02
     -3.741  0.3374E+01  0.1746E+02
     -3.726  0.3076E+01  0.1751E+02
     -3.710  0.2737E+01  0.1755E+02
     -3.695  0.2768E+01  0.1759E+02
     -3.679  0.2634E+01  0.1763E+02
     -3.664  0.2816E+01  0.1768E+02
     -3.648  0.2588E+01  0.1772E+02
     -3.633  0.2967E+01  0.1776E+02
     -3.617  0.2774E+01  0.1781E+02
     -3.602  0.2854E+01  0.1785E+02
     -3.586  0.2945E+01  0.1790E+02
     -3.570  0.2717E+01  0.1794E+02
     -3.555  0.2709E+01  0.1798E+02
     -3.539  0.3033E+01  0.1803E+02
     -3.524  0.2649E+01  0.1807E+02
     -3.508  0.2781E+01  0.1811E+02
     -3.493  0.3091E+01  0.1816E+02
     -3.477  0.2810E+01  0.1820E+02
     -3.462  0.2266E+01  0.1824E+02
     -3.446  0.2343E+01  0.1827E+02
     -3.431  0.2572E+01  0.1831E+02
     -3.415  0.2496E+01  0.1835E+02
     -3.400  0.2727E+01  0.1840E+02
     -3.384  0.2944E+01  0.1844E+02
     -3.369  0.2460E+01  0.1848E+02
     -3.353  0.2725E+01  0.1852E+02
     -3.338  0.2953E+01  0.1857E+02
     -3.322  0.2560E+01  0.1861E+02
     -3.307  0.2418E+01  0.1865E+02
     -3.291  0.2502E+01  0.1868E+02
     -3.276  0.2699E+01  0.1873E+02
     -3.260  0.2868E+01  0.1877E+02
     -3.245  0.2666E+01  0.1881E+02
     -3.229  0.2724E+01  0.1885E+02
     -3.214  0.2542E+01  0.1889E+02
     -3.198  0.2485E+01  0.1893E+02
     -3.183  0.2769E+01  0.1897E+02
     -3.167  0.2799E+01  0.1902E+02
     -3.152  0.2960E+01  0.1906E+02
     -3.136  0.2867E+01  0.1911E+02
     -3.120  0.2871E+01  0.1915E+02
     -3.105  0.2957E+01  0.1920E+02
     -3.089  0.2637E+01  0.1924E+02
     -3.074  0.2786E+01  0.1928E+02
     -3.058  0.3054E+01  0.1933E+02
     -3.043  0.2851E+01  0.1937E+02
     -3.027  0.3032E+01  0.1942E+02
     -3.012  0.3275E+01  0.1947E+02
     -2.996  0.2953E+01  0.1952E+02
     -2.981  0.3170E+01  0.1957E+02
     -2.965  0.3050E+01  0.1962E+02
     -2.950  0.3230E+01  0.1967E+02
     -2.934  0.3208E+01  0.1972E+02
     -2.919  0.3081E+01  0.1976E+02
     -2.903  0.2999E+01  0.1981E+02
     -2.888  0.3054E+01  0.1986E+02
     -2.872  0.2841E+01  0.1990E+02
     -2.857  0.2662E+01  0.1994E+02
     -2.841  0.2587E+01  0.1998E+02
     -2.826  0.2623E+01  0.2002E+02
     -2.810  0.2405E+01  0.2006E+02
     -2.795  0.1803E+01  0.2009E+02
     -2.779  0.1837E+01  0.2012E+02
     -2.764  0.2058E+01  0.2015E+02
     -2.748  0.2167E+01  0.2018E+02
     -2.733  0.2569E+01  0.2022E+02
     -2.717  0.2589E+01  0.2026E+02