 running   48 mpi-ranks, with    1 threads/rank, on    1 nodes
 distrk:  each k-point on   48 cores,    1 groups
 distr:  one band on   16 cores,    3 groups
 vasp.6.4.3 19Mar24 (build May 31 2024 16:31:43) complex                        
  
 POSCAR found type information on POSCAR B 
 POSCAR found :  1 types and      14 ions
 Reading from existing POTCAR
 scaLAPACK will be used
 Reading from existing POTCAR
 LDA part: xc-table for (Slater+PW92), standard interpolation
 -----------------------------------------------------------------------------
|                                                                             |
|           W    W    AA    RRRRR   N    N  II  N    N   GGGG   !!!           |
|           W    W   A  A   R    R  NN   N  II  NN   N  G    G  !!!           |
|           W    W  A    A  R    R  N N  N  II  N N  N  G       !!!           |
|           W WW W  AAAAAA  RRRRR   N  N N  II  N  N N  G  GGG   !            |
|           WW  WW  A    A  R   R   N   NN  II  N   NN  G    G                |
|           W    W  A    A  R    R  N    N  II  N    N   GGGG   !!!           |
|                                                                             |
|     The number of bands has been changed from the values supplied in        |
|     the INCAR file. This is a result of running the parallel version.       |
|     The orbitals not found in the WAVECAR file will be initialized with     |
|     random numbers, which is usually adequate. For correlated               |
|     calculations, however, you should redo the groundstate calculation.     |
|     I found NBANDS = 128. Now, NBANDS = 129.                                |
|                                                                             |
 -----------------------------------------------------------------------------

 found WAVECAR, reading the header
  number of bands has changed, file:   144 present:   129
  trying to continue reading WAVECAR, but it might fail
 POSCAR, INCAR and KPOINTS ok, starting setup
 FFT: planning ... GRIDC
 FFT: planning ... GRID_SOFT
 FFT: planning ... GRID
 reading WAVECAR
 the WAVECAR file was read successfully
 entering main loop
       N       E                     dE             d eps       ncg     rms          rms(c)
DAV:   1    -0.975269647816E+02   -0.97527E+02   -0.17788E+00623250   0.443E+00    0.123E+01
DAV:   2    -0.922812621921E+02    0.52457E+01   -0.55496E-01600894   0.241E+00    0.677E+00
DAV:   3    -0.906063547087E+02    0.16749E+01   -0.64442E-01636045   0.217E+00    0.164E+00
DAV:   4    -0.906122073681E+02   -0.58527E-02   -0.10341E-01661584   0.549E-01    0.741E-01
DAV:   5    -0.906271716824E+02   -0.14964E-01   -0.75007E-03615489   0.165E-01    0.191E-01
DAV:   6    -0.906312293154E+02   -0.40576E-02   -0.11794E-03658638   0.675E-02    0.656E-02
DAV:   7    -0.906322760629E+02   -0.10467E-02   -0.32669E-04630567   0.345E-02    0.321E-02
DAV:   8    -0.906323260054E+02   -0.49942E-04   -0.24879E-05672510   0.107E-02    0.509E-03
DAV:   9    -0.906323317842E+02   -0.57788E-05   -0.24709E-06632736   0.316E-03    0.170E-03
DAV:  10    -0.906323324507E+02   -0.66644E-06   -0.15863E-07633297   0.803E-04
   1 F= -.90632332E+02 E0= -.90632264E+02  d E =-.136922E-03
 writing wavefunctions
 optical routines
 imaginary and real dielectric function
 recalculating local potential from charge density
 direction            1
 direction            2
 direction            3
