  14  14   0   0
  0.1021318E+02  0.5700971E-09  0.4044058E-09  0.6201871E-09  0.5000000E-15
  1.000000000000000E-004
  CAR 
 Dielectric                              
     17.93969664    -14.15060956 4000      1.91650636      1.00000000
    -14.151  0.0000E+00  0.0000E+00
    -14.143  0.0000E+00  0.0000E+00
    -14.135  0.0000E+00  0.0000E+00
    -14.127  0.0000E+00  0.0000E+00
    -14.119  0.0000E+00  0.0000E+00
    -14.110  0.0000E+00  0.0000E+00
    -14.102  0.0000E+00  0.0000E+00
    -14.094  0.0000E+00  0.0000E+00
    -14.086  0.0000E+00  0.0000E+00
    -14.078  0.0000E+00  0.0000E+00
    -14.070  0.0000E+00  0.0000E+00
    -14.062  0.0000E+00  0.0000E+00
    -14.054  0.0000E+00  0.0000E+00
    -14.046  0.0000E+00  0.0000E+00
    -14.038  0.0000E+00  0.0000E+00
    -14.030  0.0000E+00  0.0000E+00
    -14.022  0.0000E+00  0.0000E+00
    -14.014  0.0000E+00  0.0000E+00
    -14.006  0.0000E+00  0.0000E+00
    -13.998  0.0000E+00  0.0000E+00
    -13.990  0.0000E+00  0.0000E+00
    -13.982  0.0000E+00  0.0000E+00
    -13.974  0.0000E+00  0.0000E+00
    -13.966  0.0000E+00  0.0000E+00
    -13.958  0.0000E+00  0.0000E+00
    -13.950  0.0000E+00  0.0000E+00
    -13.942  0.0000E+00  0.0000E+00
    -13.934  0.0000E+00  0.0000E+00
    -13.926  0.0000E+00  0.0000E+00
    -13.918  0.0000E+00  0.0000E+00
    -13.910  0.0000E+00  0.0000E+00
    -13.902  0.0000E+00  0.0000E+00
    -13.894  0.0000E+00  0.0000E+00
    -13.886  0.0000E+00  0.0000E+00
    -13.878  0.0000E+00  0.0000E+00
    -13.870  0.0000E+00  0.0000E+00
    -13.862  0.0000E+00  0.0000E+00
    -13.854  0.0000E+00  0.0000E+00
    -13.846  0.0000E+00  0.0000E+00
    -13.838  0.0000E+00  0.0000E+00
    -13.830  0.0000E+00  0.0000E+00
    -13.822  0.0000E+00  0.0000E+00
    -13.814  0.0000E+00  0.0000E+00
    -13.806  0.0000E+00  0.0000E+00
    -13.798  0.0000E+00  0.0000E+00
    -13.790  0.0000E+00  0.0000E+00
    -13.781  0.0000E+00  0.0000E+00
    -13.773  0.0000E+00  0.0000E+00
    -13.765  0.0000E+00  0.0000E+00
    -13.757  0.0000E+00  0.0000E+00
    -13.749  0.0000E+00  0.0000E+00
    -13.741  0.0000E+00  0.0000E+00
    -13.733  0.0000E+00  0.0000E+00
    -13.725  0.0000E+00  0.0000E+00
    -13.717  0.0000E+00  0.0000E+00
    -13.709  0.0000E+00  0.0000E+00
    -13.701  0.0000E+00  0.0000E+00
    -13.693  0.0000E+00  0.0000E+00
    -13.685  0.0000E+00  0.0000E+00
    -13.677  0.0000E+00  0.0000E+00
    -13.669  0.0000E+00  0.0000E+00
    -13.661  0.0000E+00  0.0000E+00
    -13.653  0.0000E+00  0.0000E+00
    -13.645  0.0000E+00  0.0000E+00
    -13.637  0.0000E+00  0.0000E+00
    -13.629  0.0000E+00  0.0000E+00
    -13.621  0.0000E+00  0.0000E+00
    -13.613  0.0000E+00  0.0000E+00
    -13.605  0.0000E+00  0.0000E+00
    -13.597  0.0000E+00  0.0000E+00
    -13.589  0.0000E+00  0.0000E+00
    -13.581  0.0000E+00  0.0000E+00
    -13.573  0.0000E+00  0.0000E+00
    -13.565  0.0000E+00  0.0000E+00
    -13.557  0.0000E+00  0.0000E+00
    -13.549  0.0000E+00  0.0000E+00
    -13.541  0.0000E+00  0.0000E+00
    -13.533  0.0000E+00  0.0000E+00
    -13.525  0.0000E+00  0.0000E+00
    -13.517  0.0000E+00  0.0000E+00
    -13.509  0.0000E+00  0.0000E+00
    -13.501  0.0000E+00  0.0000E+00
    -13.493  0.0000E+00  0.0000E+00
    -13.485  0.0000E+00  0.0000E+00
    -13.477  0.0000E+00  0.0000E+00
    -13.469  0.0000E+00  0.0000E+00
    -13.460  0.0000E+00  0.0000E+00
    -13.452  0.0000E+00  0.0000E+00
    -13.444  0.0000E+00  0.0000E+00
    -13.436  0.0000E+00  0.0000E+00
    -13.428  0.0000E+00  0.0000E+00
    -13.420  0.0000E+00  0.0000E+00
    -13.412  0.0000E+00  0.0000E+00
    -13.404  0.0000E+00  0.0000E+00
    -13.396  0.0000E+00  0.0000E+00
    -13.388  0.0000E+00  0.0000E+00
    -13.380  0.0000E+00  0.0000E+00
    -13.372  0.0000E+00  0.0000E+00
    -13.364  0.0000E+00  0.0000E+00
    -13.356  0.0000E+00  0.0000E+00
    -13.348  0.0000E+00  0.0000E+00
    -13.340  0.0000E+00  0.0000E+00
    -13.332  0.0000E+00  0.0000E+00
    -13.324  0.0000E+00  0.0000E+00
    -13.316  0.0000E+00  0.0000E+00
    -13.308  0.0000E+00  0.0000E+00
    -13.300  0.0000E+00  0.0000E+00
    -13.292  0.0000E+00  0.0000E+00
    -13.284  0.0000E+00  0.0000E+00
    -13.276  0.0000E+00  0.0000E+00
    -13.268  0.0000E+00  0.0000E+00
    -13.260  0.0000E+00  0.0000E+00
    -13.252  0.0000E+00  0.0000E+00
    -13.244  0.0000E+00  0.0000E+00
    -13.236  0.0000E+00  0.0000E+00
    -13.228  0.0000E+00  0.0000E+00
    -13.220  0.0000E+00  0.0000E+00
    -13.212  0.0000E+00  0.0000E+00
    -13.204  0.0000E+00  0.0000E+00
    -13.196  0.0000E+00  0.0000E+00
    -13.188  0.0000E+00  0.0000E+00
    -13.180  0.0000E+00  0.0000E+00
    -13.172  0.0000E+00  0.0000E+00
    -13.164  0.0000E+00  0.0000E+00
    -13.156  0.0000E+00  0.0000E+00
    -13.148  0.0000E+00  0.0000E+00
    -13.140  0.0000E+00  0.0000E+00
    -13.131  0.0000E+00  0.0000E+00
    -13.123  0.0000E+00  0.0000E+00
    -13.115  0.0000E+00  0.0000E+00
    -13.107  0.0000E+00  0.0000E+00
    -13.099  0.0000E+00  0.0000E+00
    -13.091  0.0000E+00  0.0000E+00
    -13.083  0.0000E+00  0.0000E+00
    -13.075  0.0000E+00  0.0000E+00
    -13.067  0.0000E+00  0.0000E+00
    -13.059  0.0000E+00  0.0000E+00
    -13.051  0.0000E+00  0.0000E+00
    -13.043  0.0000E+00  0.0000E+00
    -13.035  0.0000E+00  0.0000E+00
    -13.027  0.0000E+00  0.0000E+00
    -13.019  0.0000E+00  0.0000E+00
    -13.011  0.0000E+00  0.0000E+00
    -13.003  0.0000E+00  0.0000E+00
    -12.995  0.0000E+00  0.0000E+00
    -12.987  0.0000E+00  0.0000E+00
    -12.979  0.0000E+00  0.0000E+00
    -12.971  0.0000E+00  0.0000E+00
    -12.963  0.0000E+00  0.0000E+00
    -12.955  0.0000E+00  0.0000E+00
    -12.947  0.0000E+00  0.0000E+00
    -12.939  0.0000E+00  0.0000E+00
    -12.931  0.0000E+00  0.0000E+00
    -12.923  0.0000E+00  0.0000E+00
    -12.915  0.0000E+00  0.0000E+00
    -12.907  0.0000E+00  0.0000E+00
    -12.899  0.0000E+00  0.0000E+00
    -12.891  0.0000E+00  0.0000E+00
    -12.883  0.0000E+00  0.0000E+00
    -12.875  0.0000E+00  0.0000E+00
    -12.867  0.0000E+00  0.0000E+00
    -12.859  0.0000E+00  0.0000E+00
    -12.851  0.0000E+00  0.0000E+00
    -12.843  0.0000E+00  0.0000E+00
    -12.835  0.0000E+00  0.0000E+00
    -12.827  0.0000E+00  0.0000E+00
    -12.819  0.0000E+00  0.0000E+00
    -12.811  0.0000E+00  0.0000E+00
    -12.802  0.0000E+00  0.0000E+00
    -12.794  0.0000E+00  0.0000E+00
    -12.786  0.0000E+00  0.0000E+00
    -12.778  0.0000E+00  0.0000E+00
    -12.770  0.0000E+00  0.0000E+00
    -12.762  0.0000E+00  0.0000E+00
    -12.754  0.0000E+00  0.0000E+00
    -12.746  0.6017E-14  0.4829E-16
    -12.738  0.2258E-10  0.1812E-12
    -12.730  0.2405E-07  0.1932E-09
    -12.722  0.7326E-05  0.5898E-07
    -12.714  0.6484E-03  0.5262E-05
    -12.706  0.1717E-01  0.1430E-03
    -12.698  0.1457E+00  0.1312E-02
    -12.690  0.4758E+00  0.5130E-02
    -12.682  0.8123E+00  0.1165E-01
    -12.674  0.8256E+00  0.1827E-01
    -12.666  0.7386E+00  0.2420E-01
    -12.658  0.1166E+01  0.3355E-01
    -12.650  0.1650E+01  0.4680E-01
    -12.642  0.1435E+01  0.5831E-01
    -12.634  0.1357E+01  0.6920E-01
    -12.626  0.1790E+01  0.8356E-01
    -12.618  0.2542E+01  0.1040E+00
    -12.610  0.3010E+01  0.1281E+00
    -12.602  0.2040E+01  0.1445E+00
    -12.594  0.1665E+01  0.1578E+00
    -12.586  0.2665E+01  0.1792E+00
    -12.578  0.2878E+01  0.2023E+00
    -12.570  0.2732E+01  0.2242E+00
    -12.562  0.2912E+01  0.2476E+00
    -12.554  0.3538E+01  0.2760E+00
    -12.546  0.3950E+01  0.3077E+00
    -12.538  0.2910E+01  0.3310E+00
    -12.530  0.3083E+01  0.3558E+00
    -12.522  0.3930E+01  0.3873E+00
    -12.514  0.2987E+01  0.4113E+00
    -12.506  0.2696E+01  0.4329E+00
    -12.498  0.3262E+01  0.4591E+00
    -12.490  0.3840E+01  0.4899E+00
    -12.481  0.3772E+01  0.5202E+00
    -12.473  0.3318E+01  0.5468E+00
    -12.465  0.3361E+01  0.5738E+00
    -12.457  0.3398E+01  0.6010E+00
    -12.449  0.3593E+01  0.6299E+00
    -12.441  0.3264E+01  0.6561E+00
    -12.433  0.3605E+01  0.6850E+00
    -12.425  0.4977E+01  0.7249E+00
    -12.417  0.4835E+01  0.7637E+00
    -12.409  0.4987E+01  0.8037E+00
    -12.401  0.5156E+01  0.8451E+00
    -12.393  0.3829E+01  0.8758E+00
    -12.385  0.3750E+01  0.9059E+00
    -12.377  0.4785E+01  0.9443E+00
    -12.369  0.5592E+01  0.9892E+00
    -12.361  0.5765E+01  0.1035E+01
    -12.353  0.4949E+01  0.1075E+01
    -12.345  0.4434E+01  0.1111E+01
    -12.337  0.4094E+01  0.1144E+01
    -12.329  0.2756E+01  0.1166E+01
    -12.321  0.2778E+01  0.1188E+01
    -12.313  0.3972E+01  0.1220E+01
    -12.305  0.3606E+01  0.1249E+01
    -12.297  0.3456E+01  0.1277E+01
    -12.289  0.4089E+01  0.1309E+01
    -12.281  0.3263E+01  0.1336E+01
    -12.273  0.2303E+01  0.1354E+01
    -12.265  0.2747E+01  0.1376E+01
    -12.257  0.3596E+01  0.1405E+01
    -12.249  0.4010E+01  0.1437E+01
    -12.241  0.4660E+01  0.1475E+01
    -12.233  0.4157E+01  0.1508E+01
    -12.225  0.3006E+01  0.1532E+01
    -12.217  0.2738E+01  0.1554E+01
    -12.209  0.3054E+01  0.1578E+01
    -12.201  0.3225E+01  0.1604E+01
    -12.193  0.2849E+01  0.1627E+01
    -12.185  0.2339E+01  0.1646E+01
    -12.177  0.2470E+01  0.1666E+01
    -12.169  0.2718E+01  0.1688E+01
    -12.161  0.2426E+01  0.1707E+01
    -12.152  0.2480E+01  0.1727E+01
    -12.144  0.2616E+01  0.1748E+01
    -12.136  0.2224E+01  0.1766E+01
    -12.128  0.1921E+01  0.1781E+01
    -12.120  0.1858E+01  0.1796E+01
    -12.112  0.1917E+01  0.1812E+01
    -12.104  0.2262E+01  0.1830E+01
    -12.096  0.3213E+01  0.1855E+01
    -12.088  0.3904E+01  0.1887E+01
    -12.080  0.3298E+01  0.1913E+01
    -12.072  0.3319E+01  0.1940E+01
    -12.064  0.3518E+01  0.1968E+01
    -12.056  0.2593E+01  0.1989E+01
    -12.048  0.1841E+01  0.2004E+01
    -12.040  0.1887E+01  0.2019E+01
    -12.032  0.2806E+01  0.2041E+01
    -12.024  0.3914E+01  0.2073E+01
    -12.016  0.3677E+01  0.2102E+01
    -12.008  0.2702E+01  0.2124E+01
    -12.000  0.1899E+01  0.2139E+01
    -11.992  0.1273E+01  0.2149E+01
    -11.984  0.1637E+01  0.2163E+01
    -11.976  0.2919E+01  0.2186E+01
    -11.968  0.3215E+01  0.2212E+01
    -11.960  0.1792E+01  0.2226E+01
    -11.952  0.8767E+00  0.2233E+01
    -11.944  0.1063E+01  0.2242E+01
    -11.936  0.1289E+01  0.2252E+01
    -11.928  0.2067E+01  0.2269E+01
    -11.920  0.4000E+01  0.2301E+01
    -11.912  0.5051E+01  0.2341E+01
    -11.904  0.3550E+01  0.2370E+01
    -11.896  0.1989E+01  0.2386E+01
    -11.888  0.1703E+01  0.2399E+01
    -11.880  0.1923E+01  0.2415E+01
    -11.872  0.2929E+01  0.2438E+01
    -11.864  0.3804E+01  0.2469E+01
    -11.856  0.3237E+01  0.2495E+01
    -11.848  0.2832E+01  0.2518E+01
    -11.840  0.3451E+01  0.2545E+01
    -11.832  0.3584E+01  0.2574E+01
    -11.823  0.2621E+01  0.2595E+01
    -11.815  0.1906E+01  0.2610E+01
    -11.807  0.2394E+01  0.2630E+01
    -11.799  0.2519E+01  0.2650E+01
    -11.791  0.1796E+01  0.2664E+01
    -11.783  0.1418E+01  0.2676E+01
    -11.775  0.1714E+01  0.2689E+01
    -11.767  0.2279E+01  0.2708E+01
    -11.759  0.2494E+01  0.2728E+01
    -11.751  0.3160E+01  0.2753E+01
    -11.743  0.4051E+01  0.2785E+01
    -11.735  0.3320E+01  0.2812E+01
    -11.727  0.2588E+01  0.2833E+01
    -11.719  0.3257E+01  0.2859E+01
    -11.711  0.4102E+01  0.2892E+01
    -11.703  0.4182E+01  0.2925E+01
    -11.695  0.4016E+01  0.2958E+01
    -11.687  0.4956E+01  0.2997E+01
    -11.679  0.4960E+01  0.3037E+01
    -11.671  0.3568E+01  0.3066E+01
    -11.663  0.3181E+01  0.3091E+01
    -11.655  0.3374E+01  0.3118E+01
    -11.647  0.2938E+01  0.3142E+01
    -11.639  0.3226E+01  0.3168E+01
    -11.631  0.3753E+01  0.3198E+01
    -11.623  0.3142E+01  0.3223E+01
    -11.615  0.2065E+01  0.3240E+01
    -11.607  0.2013E+01  0.3256E+01
    -11.599  0.3944E+01  0.3288E+01
    -11.591  0.4724E+01  0.3326E+01
    -11.583  0.4013E+01  0.3358E+01
    -11.575  0.4103E+01  0.3391E+01
    -11.567  0.3255E+01  0.3417E+01
    -11.559  0.2546E+01  0.3437E+01
    -11.551  0.3049E+01  0.3462E+01
    -11.543  0.3589E+01  0.3490E+01
    -11.535  0.4116E+01  0.3524E+01
    -11.527  0.4584E+01  0.3560E+01
    -11.519  0.4135E+01  0.3593E+01
    -11.511  0.2483E+01  0.3613E+01
    -11.502  0.2088E+01  0.3630E+01
    -11.494  0.2748E+01  0.3652E+01
    -11.486  0.4051E+01  0.3685E+01
    -11.478  0.4435E+01  0.3720E+01
    -11.470  0.2596E+01  0.3741E+01
    -11.462  0.1413E+01  0.3752E+01
    -11.454  0.1433E+01  0.3764E+01
    -11.446  0.1956E+01  0.3780E+01
    -11.438  0.2655E+01  0.3801E+01
    -11.430  0.2851E+01  0.3824E+01
    -11.422  0.2239E+01  0.3842E+01
    -11.414  0.1750E+01  0.3856E+01
    -11.406  0.2039E+01  0.3872E+01
    -11.398  0.1702E+01  0.3886E+01
    -11.390  0.9735E+00  0.3894E+01
    -11.382  0.1253E+01  0.3904E+01
    -11.374  0.2139E+01  0.3921E+01
    -11.366  0.1762E+01  0.3935E+01
    -11.358  0.1187E+01  0.3945E+01
    -11.350  0.1228E+01  0.3954E+01
    -11.342  0.8026E+00  0.3961E+01
    -11.334  0.5363E+00  0.3965E+01
    -11.326  0.7073E+00  0.3971E+01
    -11.318  0.5484E+00  0.3975E+01
    -11.310  0.6378E+00  0.3980E+01
    -11.302  0.9206E+00  0.3988E+01
    -11.294  0.6681E+00  0.3993E+01
    -11.286  0.4130E+00  0.3996E+01
    -11.278  0.3210E+00  0.3999E+01
    -11.270  0.1103E+00  0.4000E+01
    -11.262  0.1205E-01  0.4000E+01
    -11.254  0.3984E-03  0.4000E+01
    -11.246  0.3882E-05  0.4000E+01
    -11.238  0.1094E-07  0.4000E+01
    -11.230  0.8806E-11  0.4000E+01
    -11.222  0.2020E-14  0.4000E+01
    -11.214  0.0000E+00  0.4000E+01
    -11.206  0.0000E+00  0.4000E+01
    -11.198  0.0000E+00  0.4000E+01
    -11.190  0.0000E+00  0.4000E+01
    -11.182  0.0000E+00  0.4000E+01
    -11.173  0.0000E+00  0.4000E+01
    -11.165  0.0000E+00  0.4000E+01
    -11.157  0.0000E+00  0.4000E+01
    -11.149  0.0000E+00  0.4000E+01
    -11.141  0.0000E+00  0.4000E+01
    -11.133  0.0000E+00  0.4000E+01
    -11.125  0.0000E+00  0.4000E+01
    -11.117  0.0000E+00  0.4000E+01
    -11.109  0.0000E+00  0.4000E+01
    -11.101  0.0000E+00  0.4000E+01
    -11.093  0.0000E+00  0.4000E+01
    -11.085  0.0000E+00  0.4000E+01
    -11.077  0.0000E+00  0.4000E+01
    -11.069  0.0000E+00  0.4000E+01
    -11.061  0.0000E+00  0.4000E+01
    -11.053  0.0000E+00  0.4000E+01
    -11.045  0.0000E+00  0.4000E+01
    -11.037  0.0000E+00  0.4000E+01
    -11.029  0.0000E+00  0.4000E+01
    -11.021  0.0000E+00  0.4000E+01
    -11.013  0.0000E+00  0.4000E+01
    -11.005  0.0000E+00  0.4000E+01
    -10.997  0.0000E+00  0.4000E+01
    -10.989  0.0000E+00  0.4000E+01
    -10.981  0.0000E+00  0.4000E+01
    -10.973  0.0000E+00  0.4000E+01
    -10.965  0.0000E+00  0.4000E+01
    -10.957  0.0000E+00  0.4000E+01
    -10.949  0.0000E+00  0.4000E+01
    -10.941  0.0000E+00  0.4000E+01
    -10.933  0.0000E+00  0.4000E+01
    -10.925  0.0000E+00  0.4000E+01
    -10.917  0.0000E+00  0.4000E+01
    -10.909  0.0000E+00  0.4000E+01
    -10.901  0.0000E+00  0.4000E+01
    -10.893  0.0000E+00  0.4000E+01
    -10.885  0.0000E+00  0.4000E+01
    -10.877  0.0000E+00  0.4000E+01
    -10.869  0.0000E+00  0.4000E+01
    -10.861  0.0000E+00  0.4000E+01
    -10.853  0.0000E+00  0.4000E+01
    -10.844  0.0000E+00  0.4000E+01
    -10.836  0.0000E+00  0.4000E+01
    -10.828  0.0000E+00  0.4000E+01
    -10.820  0.0000E+00  0.4000E+01
    -10.812  0.0000E+00  0.4000E+01
    -10.804  0.0000E+00  0.4000E+01
    -10.796  0.0000E+00  0.4000E+01
    -10.788  0.0000E+00  0.4000E+01
    -10.780  0.0000E+00  0.4000E+01
    -10.772  0.0000E+00  0.4000E+01
    -10.764  0.0000E+00  0.4000E+01
    -10.756  0.0000E+00  0.4000E+01
    -10.748  0.0000E+00  0.4000E+01
    -10.740  0.0000E+00  0.4000E+01
    -10.732  0.0000E+00  0.4000E+01
    -10.724  0.0000E+00  0.4000E+01
    -10.716  0.0000E+00  0.4000E+01
    -10.708  0.0000E+00  0.4000E+01
    -10.700  0.0000E+00  0.4000E+01
    -10.692  0.0000E+00  0.4000E+01
    -10.684  0.0000E+00  0.4000E+01
    -10.676  0.0000E+00  0.4000E+01
    -10.668  0.0000E+00  0.4000E+01
    -10.660  0.0000E+00  0.4000E+01
    -10.652  0.0000E+00  0.4000E+01
    -10.644  0.0000E+00  0.4000E+01
    -10.636  0.0000E+00  0.4000E+01
    -10.628  0.0000E+00  0.4000E+01
    -10.620  0.0000E+00  0.4000E+01
    -10.612  0.0000E+00  0.4000E+01
    -10.604  0.0000E+00  0.4000E+01
    -10.596  0.0000E+00  0.4000E+01
    -10.588  0.0000E+00  0.4000E+01
    -10.580  0.0000E+00  0.4000E+01
    -10.572  0.0000E+00  0.4000E+01
    -10.564  0.0000E+00  0.4000E+01
    -10.556  0.0000E+00  0.4000E+01
    -10.548  0.0000E+00  0.4000E+01
    -10.540  0.0000E+00  0.4000E+01
    -10.532  0.0000E+00  0.4000E+01
    -10.523  0.0000E+00  0.4000E+01
    -10.515  0.0000E+00  0.4000E+01
    -10.507  0.0000E+00  0.4000E+01
    -10.499  0.0000E+00  0.4000E+01
    -10.491  0.0000E+00  0.4000E+01
    -10.483  0.0000E+00  0.4000E+01
    -10.475  0.0000E+00  0.4000E+01
    -10.467  0.0000E+00  0.4000E+01
    -10.459  0.0000E+00  0.4000E+01
    -10.451  0.0000E+00  0.4000E+01
    -10.443  0.0000E+00  0.4000E+01
    -10.435  0.0000E+00  0.4000E+01
    -10.427  0.0000E+00  0.4000E+01
    -10.419  0.0000E+00  0.4000E+01
    -10.411  0.0000E+00  0.4000E+01
    -10.403  0.0000E+00  0.4000E+01
    -10.395  0.0000E+00  0.4000E+01
    -10.387  0.0000E+00  0.4000E+01
    -10.379  0.0000E+00  0.4000E+01
    -10.371  0.0000E+00  0.4000E+01
    -10.363  0.0000E+00  0.4000E+01
    -10.355  0.0000E+00  0.4000E+01
    -10.347  0.0000E+00  0.4000E+01
    -10.339  0.0000E+00  0.4000E+01
    -10.331  0.0000E+00  0.4000E+01
    -10.323  0.0000E+00  0.4000E+01
    -10.315  0.0000E+00  0.4000E+01
    -10.307  0.0000E+00  0.4000E+01
    -10.299  0.0000E+00  0.4000E+01
    -10.291  0.0000E+00  0.4000E+01
    -10.283  0.0000E+00  0.4000E+01
    -10.275  0.0000E+00  0.4000E+01
    -10.267  0.0000E+00  0.4000E+01
    -10.259  0.0000E+00  0.4000E+01
    -10.251  0.0000E+00  0.4000E+01
    -10.243  0.0000E+00  0.4000E+01
    -10.235  0.0000E+00  0.4000E+01
    -10.227  0.0000E+00  0.4000E+01
    -10.219  0.0000E+00  0.4000E+01
    -10.211  0.0000E+00  0.4000E+01
    -10.203  0.0000E+00  0.4000E+01
    -10.194  0.0000E+00  0.4000E+01
    -10.186  0.0000E+00  0.4000E+01
    -10.178  0.0000E+00  0.4000E+01
    -10.170  0.0000E+00  0.4000E+01
    -10.162  0.0000E+00  0.4000E+01
    -10.154  0.0000E+00  0.4000E+01
    -10.146  0.0000E+00  0.4000E+01
    -10.138  0.0000E+00  0.4000E+01
    -10.130  0.0000E+00  0.4000E+01
    -10.122  0.0000E+00  0.4000E+01
    -10.114  0.0000E+00  0.4000E+01
    -10.106  0.0000E+00  0.4000E+01
    -10.098  0.0000E+00  0.4000E+01
    -10.090  0.0000E+00  0.4000E+01
    -10.082  0.0000E+00  0.4000E+01
    -10.074  0.0000E+00  0.4000E+01
    -10.066  0.0000E+00  0.4000E+01
    -10.058  0.0000E+00  0.4000E+01
    -10.050  0.0000E+00  0.4000E+01
    -10.042  0.0000E+00  0.4000E+01
    -10.034  0.0000E+00  0.4000E+01
    -10.026  0.0000E+00  0.4000E+01
    -10.018  0.0000E+00  0.4000E+01
    -10.010  0.0000E+00  0.4000E+01
    -10.002  0.0000E+00  0.4000E+01
     -9.994  0.0000E+00  0.4000E+01
     -9.986  0.0000E+00  0.4000E+01
     -9.978  0.0000E+00  0.4000E+01
     -9.970  0.0000E+00  0.4000E+01
     -9.962  0.0000E+00  0.4000E+01
     -9.954  0.0000E+00  0.4000E+01
     -9.946  0.0000E+00  0.4000E+01
     -9.938  0.0000E+00  0.4000E+01
     -9.930  0.0000E+00  0.4000E+01
     -9.922  0.0000E+00  0.4000E+01
     -9.914  0.0000E+00  0.4000E+01
     -9.906  0.0000E+00  0.4000E+01
     -9.898  0.0000E+00  0.4000E+01
     -9.890  0.0000E+00  0.4000E+01
     -9.882  0.0000E+00  0.4000E+01
     -9.874  0.0000E+00  0.4000E+01
     -9.865  0.0000E+00  0.4000E+01
     -9.857  0.0000E+00  0.4000E+01
     -9.849  0.0000E+00  0.4000E+01
     -9.841  0.0000E+00  0.4000E+01
     -9.833  0.0000E+00  0.4000E+01
     -9.825  0.0000E+00  0.4000E+01
     -9.817  0.0000E+00  0.4000E+01
     -9.809  0.0000E+00  0.4000E+01
     -9.801  0.0000E+00  0.4000E+01
     -9.793  0.0000E+00  0.4000E+01
     -9.785  0.0000E+00  0.4000E+01
     -9.777  0.0000E+00  0.4000E+01
     -9.769  0.0000E+00  0.4000E+01
     -9.761  0.0000E+00  0.4000E+01
     -9.753  0.0000E+00  0.4000E+01
     -9.745  0.0000E+00  0.4000E+01
     -9.737  0.0000E+00  0.4000E+01
     -9.729  0.0000E+00  0.4000E+01
     -9.721  0.0000E+00  0.4000E+01
     -9.713  0.0000E+00  0.4000E+01
     -9.705  0.0000E+00  0.4000E+01
     -9.697  0.0000E+00  0.4000E+01
     -9.689  0.0000E+00  0.4000E+01
     -9.681  0.0000E+00  0.4000E+01
     -9.673  0.0000E+00  0.4000E+01
     -9.665  0.0000E+00  0.4000E+01
     -9.657  0.0000E+00  0.4000E+01
     -9.649  0.0000E+00  0.4000E+01
     -9.641  0.0000E+00  0.4000E+01
     -9.633  0.0000E+00  0.4000E+01
     -9.625  0.0000E+00  0.4000E+01
     -9.617  0.0000E+00  0.4000E+01
     -9.609  0.0000E+00  0.4000E+01
     -9.601  0.0000E+00  0.4000E+01
     -9.593  0.0000E+00  0.4000E+01
     -9.585  0.0000E+00  0.4000E+01
     -9.577  0.0000E+00  0.4000E+01
     -9.569  0.0000E+00  0.4000E+01
     -9.561  0.0000E+00  0.4000E+01
     -9.553  0.0000E+00  0.4000E+01
     -9.544  0.0000E+00  0.4000E+01
     -9.536  0.0000E+00  0.4000E+01
     -9.528  0.0000E+00  0.4000E+01
     -9.520  0.0000E+00  0.4000E+01
     -9.512  0.0000E+00  0.4000E+01
     -9.504  0.0000E+00  0.4000E+01
     -9.496  0.0000E+00  0.4000E+01
     -9.488  0.0000E+00  0.4000E+01
     -9.480  0.0000E+00  0.4000E+01
     -9.472  0.0000E+00  0.4000E+01
     -9.464  0.0000E+00  0.4000E+01
     -9.456  0.0000E+00  0.4000E+01
     -9.448  0.0000E+00  0.4000E+01
     -9.440  0.0000E+00  0.4000E+01
     -9.432  0.0000E+00  0.4000E+01
     -9.424  0.0000E+00  0.4000E+01
     -9.416  0.0000E+00  0.4000E+01
     -9.408  0.0000E+00  0.4000E+01
     -9.400  0.0000E+00  0.4000E+01
     -9.392  0.0000E+00  0.4000E+01
     -9.384  0.0000E+00  0.4000E+01
     -9.376  0.0000E+00  0.4000E+01
     -9.368  0.0000E+00  0.4000E+01
     -9.360  0.0000E+00  0.4000E+01
     -9.352  0.0000E+00  0.4000E+01
     -9.344  0.0000E+00  0.4000E+01
     -9.336  0.0000E+00  0.4000E+01
     -9.328  0.0000E+00  0.4000E+01
     -9.320  0.0000E+00  0.4000E+01
     -9.312  0.0000E+00  0.4000E+01
     -9.304  0.0000E+00  0.4000E+01
     -9.296  0.0000E+00  0.4000E+01
     -9.288  0.0000E+00  0.4000E+01
     -9.280  0.0000E+00  0.4000E+01
     -9.272  0.0000E+00  0.4000E+01
     -9.264  0.0000E+00  0.4000E+01
     -9.256  0.0000E+00  0.4000E+01
     -9.248  0.0000E+00  0.4000E+01
     -9.240  0.0000E+00  0.4000E+01
     -9.232  0.0000E+00  0.4000E+01
     -9.224  0.0000E+00  0.4000E+01
     -9.215  0.0000E+00  0.4000E+01
     -9.207  0.0000E+00  0.4000E+01
     -9.199  0.0000E+00  0.4000E+01
     -9.191  0.0000E+00  0.4000E+01
     -9.183  0.0000E+00  0.4000E+01
     -9.175  0.0000E+00  0.4000E+01
     -9.167  0.0000E+00  0.4000E+01
     -9.159  0.0000E+00  0.4000E+01
     -9.151  0.0000E+00  0.4000E+01
     -9.143  0.0000E+00  0.4000E+01
     -9.135  0.0000E+00  0.4000E+01
     -9.127  0.0000E+00  0.4000E+01
     -9.119  0.0000E+00  0.4000E+01
     -9.111  0.0000E+00  0.4000E+01
     -9.103  0.0000E+00  0.4000E+01
     -9.095  0.0000E+00  0.4000E+01
     -9.087  0.0000E+00  0.4000E+01
     -9.079  0.0000E+00  0.4000E+01
     -9.071  0.0000E+00  0.4000E+01
     -9.063  0.0000E+00  0.4000E+01
     -9.055  0.0000E+00  0.4000E+01
     -9.047  0.0000E+00  0.4000E+01
     -9.039  0.0000E+00  0.4000E+01
     -9.031  0.0000E+00  0.4000E+01
     -9.023  0.0000E+00  0.4000E+01
     -9.015  0.0000E+00  0.4000E+01
     -9.007  0.0000E+00  0.4000E+01
     -8.999  0.0000E+00  0.4000E+01
     -8.991  0.0000E+00  0.4000E+01
     -8.983  0.0000E+00  0.4000E+01
     -8.975  0.0000E+00  0.4000E+01
     -8.967  0.0000E+00  0.4000E+01
     -8.959  0.0000E+00  0.4000E+01
     -8.951  0.0000E+00  0.4000E+01
     -8.943  0.0000E+00  0.4000E+01
     -8.935  0.0000E+00  0.4000E+01
     -8.927  0.0000E+00  0.4000E+01
     -8.919  0.0000E+00  0.4000E+01
     -8.911  0.0000E+00  0.4000E+01
     -8.903  0.0000E+00  0.4000E+01
     -8.895  0.0000E+00  0.4000E+01
     -8.886  0.0000E+00  0.4000E+01
     -8.878  0.9663E-15  0.4000E+01
     -8.870  0.5067E-11  0.4000E+01
     -8.862  0.7688E-08  0.4000E+01
     -8.854  0.3325E-05  0.4000E+01
     -8.846  0.4150E-03  0.4000E+01
     -8.838  0.1521E-01  0.4000E+01
     -8.830  0.1677E+00  0.4001E+01
     -8.822  0.5703E+00  0.4006E+01
     -8.814  0.6401E+00  0.4011E+01
     -8.806  0.5476E+00  0.4016E+01
     -8.798  0.1145E+01  0.4025E+01
     -8.790  0.1262E+01  0.4035E+01
     -8.782  0.1057E+01  0.4043E+01
     -8.774  0.2158E+01  0.4061E+01
     -8.766  0.2650E+01  0.4082E+01
     -8.758  0.2161E+01  0.4099E+01
     -8.750  0.2457E+01  0.4119E+01
     -8.742  0.2127E+01  0.4136E+01
     -8.734  0.1274E+01  0.4146E+01
     -8.726  0.7832E+00  0.4153E+01
     -8.718  0.1526E+01  0.4165E+01
     -8.710  0.4087E+01  0.4198E+01
     -8.702  0.4954E+01  0.4237E+01
     -8.694  0.4105E+01  0.4270E+01
     -8.686  0.4699E+01  0.4308E+01
     -8.678  0.3594E+01  0.4337E+01
     -8.670  0.2084E+01  0.4354E+01
     -8.662  0.3407E+01  0.4381E+01
     -8.654  0.6343E+01  0.4432E+01
     -8.646  0.7527E+01  0.4492E+01
     -8.638  0.6423E+01  0.4544E+01
     -8.630  0.6688E+01  0.4597E+01
     -8.622  0.6041E+01  0.4646E+01
     -8.614  0.4883E+01  0.4685E+01
     -8.606  0.6957E+01  0.4741E+01
     -8.598  0.8512E+01  0.4809E+01
     -8.590  0.7123E+01  0.4866E+01
     -8.582  0.6789E+01  0.4921E+01
     -8.574  0.7031E+01  0.4977E+01
     -8.566  0.6699E+01  0.5031E+01
     -8.557  0.7254E+01  0.5089E+01
     -8.549  0.7372E+01  0.5148E+01
     -8.541  0.6065E+01  0.5197E+01
     -8.533  0.5986E+01  0.5245E+01
     -8.525  0.6291E+01  0.5296E+01
     -8.517  0.6743E+01  0.5350E+01
     -8.509  0.6690E+01  0.5403E+01
     -8.501  0.5506E+01  0.5448E+01
     -8.493  0.5495E+01  0.5492E+01
     -8.485  0.7161E+01  0.5549E+01
     -8.477  0.8086E+01  0.5614E+01
     -8.469  0.8353E+01  0.5681E+01
     -8.461  0.7950E+01  0.5745E+01
     -8.453  0.6832E+01  0.5800E+01
     -8.445  0.6149E+01  0.5849E+01
     -8.437  0.5198E+01  0.5891E+01
     -8.429  0.5205E+01  0.5933E+01
     -8.421  0.5673E+01  0.5978E+01
     -8.413  0.5179E+01  0.6020E+01
     -8.405  0.4258E+01  0.6054E+01
     -8.397  0.3548E+01  0.6082E+01
     -8.389  0.3166E+01  0.6108E+01
     -8.381  0.2574E+01  0.6128E+01
     -8.373  0.3617E+01  0.6157E+01
     -8.365  0.5256E+01  0.6200E+01
     -8.357  0.5300E+01  0.6242E+01
     -8.349  0.4184E+01  0.6276E+01
     -8.341  0.3675E+01  0.6305E+01
     -8.333  0.4597E+01  0.6342E+01
     -8.325  0.4886E+01  0.6381E+01
     -8.317  0.4245E+01  0.6415E+01
     -8.309  0.4577E+01  0.6452E+01
     -8.301  0.5244E+01  0.6494E+01
     -8.293  0.4996E+01  0.6534E+01
     -8.285  0.4952E+01  0.6574E+01
     -8.277  0.4680E+01  0.6611E+01
     -8.269  0.4719E+01  0.6649E+01
     -8.261  0.5586E+01  0.6694E+01
     -8.253  0.5456E+01  0.6738E+01
     -8.245  0.5182E+01  0.6780E+01
     -8.236  0.6044E+01  0.6828E+01
     -8.228  0.5743E+01  0.6874E+01
     -8.220  0.4694E+01  0.6912E+01
     -8.212  0.4401E+01  0.6947E+01
     -8.204  0.4620E+01  0.6984E+01
     -8.196  0.4644E+01  0.7021E+01
     -8.188  0.4338E+01  0.7056E+01
     -8.180  0.3782E+01  0.7087E+01
     -8.172  0.4137E+01  0.7120E+01
     -8.164  0.4557E+01  0.7156E+01
     -8.156  0.3907E+01  0.7188E+01
     -8.148  0.4140E+01  0.7221E+01
     -8.140  0.3748E+01  0.7251E+01
     -8.132  0.3725E+01  0.7281E+01
     -8.124  0.4929E+01  0.7320E+01
     -8.116  0.5464E+01  0.7364E+01
     -8.108  0.4786E+01  0.7403E+01
     -8.100  0.5317E+01  0.7445E+01
     -8.092  0.6378E+01  0.7497E+01
     -8.084  0.4494E+01  0.7533E+01
     -8.076  0.2389E+01  0.7552E+01
     -8.068  0.2823E+01  0.7574E+01
     -8.060  0.4685E+01  0.7612E+01
     -8.052  0.5300E+01  0.7655E+01
     -8.044  0.3469E+01  0.7682E+01
     -8.036  0.2026E+01  0.7699E+01
     -8.028  0.1913E+01  0.7714E+01
     -8.020  0.2258E+01  0.7732E+01
     -8.012  0.2829E+01  0.7755E+01
     -8.004  0.2769E+01  0.7777E+01
     -7.996  0.2667E+01  0.7798E+01
     -7.988  0.2671E+01  0.7820E+01
     -7.980  0.1532E+01  0.7832E+01
     -7.972  0.4802E+00  0.7836E+01
     -7.964  0.8793E+00  0.7843E+01
     -7.956  0.1942E+01  0.7859E+01
     -7.948  0.2089E+01  0.7875E+01
     -7.940  0.1086E+01  0.7884E+01
     -7.932  0.4729E+00  0.7888E+01
     -7.924  0.9746E+00  0.7896E+01
     -7.916  0.1836E+01  0.7910E+01
     -7.907  0.2006E+01  0.7927E+01
     -7.899  0.1219E+01  0.7936E+01
     -7.891  0.9718E+00  0.7944E+01
     -7.883  0.1191E+01  0.7954E+01
     -7.875  0.8841E+00  0.7961E+01
     -7.867  0.6639E+00  0.7966E+01
     -7.859  0.6912E+00  0.7972E+01
     -7.851  0.3160E+00  0.7974E+01
     -7.843  0.5039E-01  0.7975E+01
     -7.835  0.7790E-01  0.7975E+01
     -7.827  0.4064E+00  0.7979E+01
     -7.819  0.6846E+00  0.7984E+01
     -7.811  0.4506E+00  0.7988E+01
     -7.803  0.5083E+00  0.7992E+01
     -7.795  0.6732E+00  0.7997E+01
     -7.787  0.3139E+00  0.8000E+01
     -7.779  0.4565E-01  0.8000E+01
     -7.771  0.2016E-02  0.8000E+01
     -7.763  0.2638E-04  0.8000E+01
     -7.755  0.1003E-06  0.8000E+01
     -7.747  0.1091E-09  0.8000E+01
     -7.739  0.3373E-13  0.8000E+01
     -7.731  0.0000E+00  0.8000E+01
     -7.723  0.0000E+00  0.8000E+01
     -7.715  0.0000E+00  0.8000E+01
     -7.707  0.0000E+00  0.8000E+01
     -7.699  0.0000E+00  0.8000E+01
     -7.691  0.0000E+00  0.8000E+01
     -7.683  0.0000E+00  0.8000E+01
     -7.675  0.0000E+00  0.8000E+01
     -7.667  0.0000E+00  0.8000E+01
     -7.659  0.0000E+00  0.8000E+01
     -7.651  0.0000E+00  0.8000E+01
     -7.643  0.0000E+00  0.8000E+01
     -7.635  0.0000E+00  0.8000E+01
     -7.627  0.0000E+00  0.8000E+01
     -7.619  0.0000E+00  0.8000E+01
     -7.611  0.0000E+00  0.8000E+01
     -7.603  0.0000E+00  0.8000E+01
     -7.595  0.0000E+00  0.8000E+01
     -7.587  0.0000E+00  0.8000E+01
     -7.578  0.0000E+00  0.8000E+01
     -7.570  0.0000E+00  0.8000E+01
     -7.562  0.0000E+00  0.8000E+01
     -7.554  0.0000E+00  0.8000E+01
     -7.546  0.0000E+00  0.8000E+01
     -7.538  0.0000E+00  0.8000E+01
     -7.530  0.0000E+00  0.8000E+01