   14   14    1    1
  0.1021318E+02  0.5700971E-09  0.4044058E-09  0.6201871E-09  0.5000000E-15
  1.000000000000000E-004
  CAR 
 Dielectric                              
     42    175     48
 
  0.5000000E-01  0.3571429E-01  0.0000000E+00  0.3174603E-02
      1        -12.691959   1.000000
      2        -11.525709   1.000000
      3         -8.656029   1.000000
      4         -8.363586   1.000000
      5         -6.041032   1.000000
      6         -5.163271   1.000000
      7         -4.706285   1.000000
      8         -4.298961   1.000000
      9         -4.000722   1.000000
     10         -3.474256   1.000000
     11         -2.547166   1.000000
     12         -2.302712   1.000000
     13         -1.778713   1.000000
     14         -1.109743   1.000000
     15         -0.081167   1.000000
     16          0.006569   1.000000
     17          0.045408   1.000000
     18          0.098628   1.000000
     19          0.675273   1.000000
     20          2.074675   0.000000
     21          2.086950   0.000000
     22          2.248113   0.000000
     23          5.550599   0.000000
     24          5.685660   0.000000
     25          5.774063   0.000000
     26          5.990202   0.000000
     27          6.753928   0.000000
     28          7.570458   0.000000
     29          7.904784   0.000000
     30          8.526957   0.000000
     31          8.900021   0.000000
     32          8.943562   0.000000
     33          9.062903   0.000000
     34         10.114796   0.000000
     35         11.232810   0.000000
     36         11.339495   0.000000
     37         11.520472   0.000000
     38         11.673499   0.000000
     39         11.999113   0.000000
     40         12.343292   0.000000
     41         12.968850   0.000000
     42         13.408286   0.000000
     43         13.434538   0.000000
     44         15.394861   0.000000
     45         15.528684   0.000000
     46         16.043829   0.000000
     47         16.313303   0.000000
     48         16.335734   0.000000
 
  0.1500000E+00  0.3571429E-01  0.0000000E+00  0.3174603E-02
      1        -12.647685   1.000000
      2        -11.602095   1.000000
      3         -8.629651   1.000000
      4         -8.352064   1.000000
      5         -5.973954   1.000000
      6         -5.503438   1.000000
      7         -4.822584   1.000000
      8         -3.978196   1.000000
      9         -3.816096   1.000000
     10         -3.141590   1.000000
     11         -2.616723   1.000000
     12         -2.283013   1.000000
     13         -1.866122   1.000000
     14         -1.415945   1.000000
     15         -0.139748   1.000000
     16          0.045717   1.000000
     17          0.061207   1.000000
     18          0.146427   1.000000
     19          0.572746   1.000000
     20          1.990126   0.000000
     21          1.995103   0.000000
     22          2.121509   0.000000
     23          5.629968   0.000000
     24          5.698606   0.000000
     25          5.834334   0.000000
     26          6.308130   0.000000
     27          6.675218   0.000000
     28          7.212432   0.000000
     29          8.124568   0.000000
     30          8.665980   0.000000
     31          9.076794   0.000000
     32          9.200169   0.000000
     33          9.207465   0.000000
     34         10.189560   0.000000
     35         10.938532   0.000000
     36         11.124951   0.000000
     37         11.307372   0.000000
     38         11.542115   0.000000
     39         12.213000   0.000000
     40         12.437616   0.000000
     41         13.079352   0.000000
     42         13.189955   0.000000
     43         13.980962   0.000000
     44         14.856220   0.000000
     45         15.723141   0.000000
     46         15.820392   0.000000
     47         16.196106   0.000000
     48         16.478280   0.000000
 
  0.2500000E+00  0.3571429E-01  0.0000000E+00  0.3174603E-02
      1        -12.560964   1.000000
      2        -11.739205   1.000000
      3         -8.577058   1.000000
      4         -8.338015   1.000000
      5         -5.960701   1.000000
      6         -5.829298   1.000000
      7         -4.770408   1.000000
      8         -3.844005   1.000000
      9         -3.310545   1.000000
     10         -2.776719   1.000000
     11         -2.655575   1.000000
     12         -2.243351   1.000000
     13         -1.987228   1.000000
     14         -1.920243   1.000000
     15         -0.356988   1.000000
     16          0.063867   1.000000
     17          0.173459   1.000000
     18          0.182793   1.000000
     19          0.470878   1.000000
     20          1.820552   1.000000
     21          1.859526   1.000000
     22          1.886916   0.999986
     23          5.659935   0.000000
     24          5.731972   0.000000
     25          6.162855   0.000000
     26          6.562780   0.000000
     27          6.764655   0.000000
     28          6.953429   0.000000
     29          8.271633   0.000000
     30          8.823252   0.000000
     31          9.013700   0.000000
     32          9.636740   0.000000
     33          9.649715   0.000000
     34         10.261639   0.000000
     35         10.442136   0.000000
     36         10.582562   0.000000
     37         11.435207   0.000000
     38         11.768522   0.000000
     39         12.390324   0.000000
     40         12.528362   0.000000
     41         12.790610   0.000000
     42         12.984901   0.000000
     43         14.612306   0.000000
     44         14.880655   0.000000
     45         15.221090   0.000000
     46         15.950142   0.000000
     47         15.956852   0.000000
     48         16.244459   0.000000
 
  0.3500000E+00  0.3571429E-01  0.0000000E+00  0.3174603E-02
      1        -12.435728   1.000000
      2        -11.913052   1.000000
      3         -8.504353   1.000000
      4         -8.337603   1.000000
      5         -6.059821   1.000000
      6         -6.055540   1.000000
      7         -4.435480   1.000000
      8         -3.673321   1.000000
      9         -2.978777   1.000000
     10         -2.920476   1.000000
     11         -2.445452   1.000000
     12         -2.181136   1.000000
     13         -2.139702   1.000000
     14         -2.098169   1.000000
     15         -0.639679   1.000000
     16         -0.209114   1.000000
     17          0.254888   1.000000
     18          0.290229   1.000000
     19          0.601164   1.000000
     20          1.534122   1.000000
     21          1.682301   1.000000
     22          1.708618   1.000000
     23          5.656103   0.000000
     24          5.786834   0.000000
     25          6.484329   0.000000
     26          6.692611   0.000000
     27          6.705845   0.000000
     28          7.403271   0.000000
     29          8.383496   0.000000
     30          8.703998   0.000000
     31          8.814671   0.000000
     32          9.511655   0.000000
     33         10.105956   0.000000
     34         10.126550   0.000000
     35         10.369223   0.000000
     36         11.071513   0.000000
     37         11.471318   0.000000
     38         11.915148   0.000000
     39         12.184739   0.000000
     40         12.344336   0.000000
     41         12.478178   0.000000
     42         13.284186   0.000000
     43         14.701954   0.000000
     44         14.937005   0.000000
     45         15.213309   0.000000
     46         15.366161   0.000000
     47         15.534260   0.000000
     48         16.378520   0.000000
 
  0.4500000E+00  0.3571429E-01  0.0000000E+00  0.3174603E-02
      1        -12.278543   1.000000
      2        -12.099449   1.000000
      3         -8.427070   1.000000
      4         -8.366490   1.000000
      5         -6.167453   1.000000
      6         -6.153386   1.000000
      7         -3.916152   1.000000
      8         -3.462584   1.000000
      9         -3.315337   1.000000
     10         -3.220973   1.000000
     11         -2.347975   1.000000
     12         -2.207157   1.000000
     13         -1.959676   1.000000
     14         -1.861794   1.000000
     15         -0.814293   1.000000
     16         -0.599884   1.000000
     17          0.335604   1.000000
     18          0.355145   1.000000
     19          0.859846   1.000000
     20          1.184374   1.000000
     21          1.581159   1.000000
     22          1.596493   1.000000
     23          5.700223   0.000000
     24          5.762941   0.000000
     25          6.488708   0.000000
     26          6.567209   0.000000
     27          7.375474   0.000000
     28          8.059695   0.000000
     29          8.111310   0.000000
     30          8.488579   0.000000
     31          8.618489   0.000000
     32          8.771533   0.000000
     33         10.508948   0.000000
     34         10.544425   0.000000
     35         10.728734   0.000000
     36         11.218260   0.000000
     37         11.453249   0.000000
     38         11.678148   0.000000
     39         11.865063   0.000000
     40         12.417163   0.000000
     41         12.725007   0.000000
     42         13.283078   0.000000
     43         14.584971   0.000000
     44         14.679688   0.000000
     45         14.815338   0.000000
     46         14.925042   0.000000
     47         16.115411   0.000000
     48         16.481046   0.000000
 
  0.5000000E-01  0.1071429E+00  0.0000000E+00  0.3174603E-02
      1        -12.667661   1.000000
      2        -11.503785   1.000000
      3         -8.637040   1.000000
      4         -8.340109   1.000000
      5         -6.014372   1.000000
      6         -5.129292   1.000000
      7         -4.684438   1.000000
      8         -4.545882   1.000000
      9         -4.202611   1.000000
     10         -3.449162   1.000000
     11         -3.243750   1.000000
     12         -1.768669   1.000000
     13         -1.105025   1.000000
     14         -0.979150   1.000000
     15         -0.308812   1.000000
     16         -0.229943   1.000000
     17          0.108013   1.000000
     18          0.112491   1.000000
     19          0.760135   1.000000
     20          1.817635   1.000000
     21          1.823639   1.000000
     22          2.298104   0.000000
     23          5.526372   0.000000
     24          5.767557   0.000000
     25          5.796478   0.000000
     26          5.929312   0.000000
     27          7.034686   0.000000
     28          7.856754   0.000000
     29          8.073766   0.000000
     30          8.221930   0.000000
     31          8.903502   0.000000
     32          9.100851   0.000000
     33          9.145731   0.000000
     34         10.567243   0.000000
     35         11.266209   0.000000
     36         11.457498   0.000000
     37         11.590726   0.000000
     38         11.654785   0.000000
     39         12.101168   0.000000
     40         12.618531   0.000000
     41         12.939221   0.000000
     42         13.147300   0.000000
     43         13.191058   0.000000
     44         15.307061   0.000000
     45         15.386942   0.000000
     46         15.855226   0.000000
     47         15.884347   0.000000
     48         16.198828   0.000000
 
  0.1500000E+00  0.1071429E+00  0.0000000E+00  0.3174603E-02
      1        -12.623480   1.000000
      2        -11.580029   1.000000
      3         -8.610511   1.000000
      4         -8.328981   1.000000
      5         -5.945441   1.000000
      6         -5.473144   1.000000
      7         -4.802711   1.000000
      8         -4.457867   1.000000
      9         -3.785045   1.000000
     10         -3.318864   1.000000
     11         -3.108685   1.000000
     12         -1.746843   1.000000
     13         -1.410244   1.000000
     14         -1.111610   1.000000
     15         -0.237192   1.000000
     16         -0.191714   1.000000
     17          0.033010   1.000000
     18          0.165301   1.000000
     19          0.651822   1.000000
     20          1.727789   1.000000
     21          1.745855   1.000000
     22          2.161113   0.000000
     23          5.629437   0.000000
     24          5.880252   0.000000
     25          5.886060   0.000000
     26          6.097706   0.000000
     27          6.958378   0.000000
     28          7.536802   0.000000
     29          8.221080   0.000000
     30          8.402681   0.000000
     31          9.146425   0.000000
     32          9.232742   0.000000
     33          9.406445   0.000000
     34         10.456941   0.000000
     35         10.853679   0.000000
     36         11.068438   0.000000
     37         11.512983   0.000000
     38         11.750791   0.000000
     39         12.319478   0.000000
     40         12.680208   0.000000
     41         12.825059   0.000000
     42         13.205534   0.000000
     43         13.715372   0.000000
     44         14.933603   0.000000
     45         15.396757   0.000000
     46         15.751180   0.000000
     47         15.793689   0.000000
     48         16.384804   0.000000
 
  0.2500000E+00  0.1071429E+00  0.0000000E+00  0.3174603E-02
      1        -12.536953   1.000000
      2        -11.716888   1.000000
      3         -8.557707   1.000000
      4         -8.315668   1.000000
      5         -5.929373   1.000000
      6         -5.798853   1.000000
      7         -4.753889   1.000000
      8         -4.347838   1.000000
      9         -3.445657   1.000000
     10         -3.260907   1.000000
     11         -2.638072   1.000000
     12         -1.914176   1.000000
     13         -1.702830   1.000000
     14         -1.284573   1.000000
     15         -0.338849   1.000000
     16         -0.150430   1.000000
     17          0.058298   1.000000
     18          0.211184   1.000000
     19          0.515583   1.000000
     20          1.576590   1.000000
     21          1.613392   1.000000
     22          1.902978   0.972141
     23          5.806967   0.000000
     24          5.993865   0.000000
     25          5.995910   0.000000
     26          6.551239   0.000000
     27          6.853256   0.000000
     28          7.308283   0.000000
     29          8.432536   0.000000
     30          8.530674   0.000000
     31          9.119174   0.000000
     32          9.671282   0.000000
     33          9.866027   0.000000
     34         10.107523   0.000000
     35         10.343305   0.000000
     36         10.729210   0.000000
     37         11.580390   0.000000
     38         12.065541   0.000000
     39         12.281714   0.000000
     40         12.558478   0.000000
     41         12.999353   0.000000
     42         13.017988   0.000000
     43         14.293783   0.000000
     44         15.034943   0.000000
     45         15.174553   0.000000
     46         15.641098   0.000000
     47         15.692624   0.000000
     48         16.368094   0.000000
 
  0.3500000E+00  0.1071429E+00  0.0000000E+00  0.3174603E-02
      1        -12.411979   1.000000
      2        -11.890381   1.000000
      3         -8.484754   1.000000
      4         -8.316187   1.000000
      5         -6.028543   1.000000
      6         -6.023060   1.000000
      7         -4.420978   1.000000
      8         -4.199391   1.000000
      9         -3.619997   1.000000
     10         -2.874560   1.000000
     11         -2.379142   1.000000
     12         -2.152695   1.000000
     13         -1.636848   1.000000
     14         -1.451832   1.000000
     15         -0.596664   1.000000
     16         -0.266291   1.000000
     17          0.160427   1.000000
     18          0.161626   1.000000
     19          0.614322   1.000000
     20          1.416568   1.000000
     21          1.465626   1.000000
     22          1.567616   1.000000
     23          5.828540   0.000000
     24          6.034246   0.000000
     25          6.516686   0.000000
     26          6.790257   0.000000
     27          6.892149   0.000000
     28          7.374194   0.000000
     29          8.432575   0.000000
     30          8.625620   0.000000
     31          8.948446   0.000000
     32          9.345625   0.000000
     33         10.069919   0.000000
     34         10.145916   0.000000
     35         10.423584   0.000000
     36         11.138984   0.000000
     37         11.385648   0.000000
     38         11.863913   0.000000
     39         12.380053   0.000000
     40         12.521799   0.000000
     41         12.679043   0.000000
     42         13.475937   0.000000
     43         14.742917   0.000000
     44         14.776800   0.000000
     45         15.116466   0.000000
     46         15.315254   0.000000
     47         15.592860   0.000000
     48         16.378988   0.000000
 
  0.4500000E+00  0.1071429E+00  0.0000000E+00  0.3174603E-02
      1        -12.255123   1.000000
      2        -12.076400   1.000000
      3         -8.407132   1.000000
      4         -8.345952   1.000000
      5         -6.135381   1.000000
      6         -6.120881   1.000000
      7         -4.018711   1.000000
      8         -3.905546   1.000000
      9         -3.815520   1.000000
     10         -3.302989   1.000000
     11         -2.125073   1.000000
     12         -1.887115   1.000000
     13         -1.559167   1.000000
     14         -1.545137   1.000000
     15         -0.777267   1.000000
     16         -0.598425   1.000000
     17          0.199807   1.000000
     18          0.219256   1.000000
     19          0.869283   1.000000
     20          1.192022   1.000000
     21          1.339752   1.000000
     22          1.354301   1.000000
     23          5.893665   0.000000
     24          5.982236   0.000000
     25          6.805331   0.000000
     26          6.867605   0.000000
     27          7.191158   0.000000
     28          7.911539   0.000000
     29          7.929247   0.000000
     30          8.605003   0.000000
     31          8.705985   0.000000
     32          8.811992   0.000000
     33         10.311821   0.000000
     34         10.594918   0.000000
     35         10.781695   0.000000
     36         10.891328   0.000000
     37         11.619413   0.000000
     38         11.743666   0.000000
     39         11.947144   0.000000
     40         12.587074   0.000000
     41         13.034659   0.000000
     42         13.512201   0.000000
     43         14.531933   0.000000
     44         14.701678   0.000000
     45         14.806309   0.000000
     46         15.048769   0.000000
     47         16.110582   0.000000
     48         16.445625   0.000000
 
  0.5000000E-01  0.1785714E+00  0.0000000E+00  0.3174603E-02
      1        -12.622756   1.000000
      2        -11.463336   1.000000
      3         -8.602265   1.000000
      4         -8.296768   1.000000
      5         -5.965088   1.000000
      6         -5.115723   1.000000
      7         -5.023779   1.000000
      8         -4.643061   1.000000
      9         -4.193507   1.000000
     10         -3.865734   1.000000
     11         -3.397367   1.000000
     12         -1.183267   1.000000
     13         -1.094948   1.000000
     14         -0.672178   1.000000
     15         -0.465552   1.000000
     16         -0.114768   1.000000
     17          0.133690   1.000000
     18          0.149738   1.000000
     19          0.845184   1.000000
     20          1.424515   1.000000
     21          1.431055   1.000000
     22          2.333352   0.000000
     23          5.268260   0.000000
     24          5.441316   0.000000
     25          6.120643   0.000000
     26          6.203620   0.000000
     27          7.463481   0.000000
     28          7.624380   0.000000
     29          8.340725   0.000000
     30          8.795036   0.000000
     31          8.947218   0.000000
     32          9.235776   0.000000
     33          9.358960   0.000000
     34         10.881515   0.000000
     35         11.302797   0.000000
     36         11.574020   0.000000
     37         11.772517   0.000000
     38         11.879829   0.000000
     39         12.303108   0.000000
     40         12.717807   0.000000
     41         12.741567   0.000000
     42         13.081057   0.000000
     43         13.153334   0.000000
     44         14.700850   0.000000
     45         15.184809   0.000000
     46         15.352263   0.000000
     47         15.433319   0.000000
     48         15.947246   0.000000
 
  0.1500000E+00  0.1785714E+00  0.0000000E+00  0.3174603E-02
      1        -12.578754   1.000000
      2        -11.539315   1.000000
      3         -8.575423   1.000000
      4         -8.286370   1.000000
      5         -5.892617   1.000000
      6         -5.422390   1.000000
      7         -5.004683   1.000000
      8         -4.765311   1.000000
      9         -3.933093   1.000000
     10         -3.745315   1.000000
     11         -3.064422   1.000000
     12         -1.401520   1.000000
     13         -1.156820   1.000000
     14         -0.768794   1.000000
     15         -0.427242   1.000000
     16         -0.051549   1.000000
     17          0.041618   1.000000
     18          0.188793   1.000000
     19          0.727240   1.000000
     20          1.342674   1.000000
     21          1.354174   1.000000
     22          2.191750   0.000000
     23          5.357239   0.000000
     24          5.783142   0.000000
     25          6.072717   0.000000
     26          6.308992   0.000000
     27          7.390937   0.000000
     28          7.781527   0.000000
     29          8.080229   0.000000
     30          8.878941   0.000000
     31          9.260758   0.000000
     32          9.339522   0.000000
     33          9.638328   0.000000
     34         10.502728   0.000000
     35         10.774454   0.000000
     36         11.191961   0.000000
     37         11.786511   0.000000
     38         12.137937   0.000000
     39         12.413254   0.000000
     40         12.520280   0.000000
     41         13.189538   0.000000
     42         13.203482   0.000000
     43         13.447961   0.000000
     44         14.716431   0.000000
     45         14.815087   0.000000
     46         15.302902   0.000000
     47         15.496650   0.000000
     48         15.967129   0.000000
 
  0.2500000E+00  0.1785714E+00  0.0000000E+00  0.3174603E-02
      1        -12.492569   1.000000
      2        -11.675681   1.000000
      3         -8.522195   1.000000
      4         -8.274451   1.000000
      5         -5.871036   1.000000
      6         -5.743581   1.000000
      7         -4.909909   1.000000
      8         -4.723050   1.000000
      9         -4.058887   1.000000
     10         -3.212927   1.000000
     11         -2.592661   1.000000
     12         -1.898268   1.000000
     13         -1.116659   1.000000
     14         -0.900501   1.000000
     15         -0.374571   1.000000
     16         -0.207453   1.000000
     17          0.067896   1.000000
     18          0.245632   1.000000
     19          0.560426   1.000000
     20          1.194838   1.000000
     21          1.234562   1.000000
     22          1.925919   0.091574
     23          5.685232   0.000000
     24          6.037856   0.000000
     25          6.257551   0.000000
     26          6.415051   0.000000
     27          7.309541   0.000000
     28          7.890322   0.000000
     29          8.018810   0.000000
     30          8.993925   0.000000
     31          9.262892   0.000000
     32          9.767549   0.000000
     33          9.824554   0.000000
     34         10.113348   0.000000
     35         10.279618   0.000000
     36         10.947351   0.000000
     37         11.610643   0.000000
     38         12.128068   0.000000
     39         12.515056   0.000000
     40         12.811692   0.000000
     41         13.085247   0.000000
     42         13.397001   0.000000
     43         13.963392   0.000000
     44         14.625491   0.000000
     45         14.834406   0.000000
     46         15.312412   0.000000
     47         15.521772   0.000000
     48         16.189164   0.000000
 
  0.3500000E+00  0.1785714E+00  0.0000000E+00  0.3174603E-02
      1        -12.368096   1.000000
      2        -11.848536   1.000000
      3         -8.448796   1.000000
      4         -8.276762   1.000000
      5         -5.970766   1.000000
      6         -5.962536   1.000000
      7         -4.772410   1.000000
      8         -4.394235   1.000000
      9         -4.226044   1.000000
     10         -2.836588   1.000000
     11         -2.340936   1.000000
     12         -2.111325   1.000000
     13         -1.059470   1.000000
     14         -1.033665   1.000000
     15         -0.476284   1.000000
     16         -0.393181   1.000000
     17          0.123822   1.000000
     18          0.130391   1.000000
     19          0.633453   1.000000
     20          1.044420   1.000000
     21          1.100100   1.000000
     22          1.580305   1.000000
     23          6.061701   0.000000
     24          6.222884   0.000000
     25          6.408564   0.000000
     26          6.786214   0.000000
     27          7.286702   0.000000
     28          7.808249   0.000000
     29          8.080860   0.000000
     30          9.077466   0.000000
     31          9.088678   0.000000
     32          9.181044   0.000000
     33          9.880601   0.000000
     34         10.227748   0.000000
     35         10.692581   0.000000
     36         11.067771   0.000000
     37         11.231297   0.000000
     38         12.014469   0.000000
     39         12.438267   0.000000
     40         12.984545   0.000000
     41         12.999333   0.000000
     42         13.786027   0.000000
     43         14.396838   0.000000
     44         14.402660   0.000000
     45         15.030385   0.000000
     46         15.120800   0.000000
     47         15.583779   0.000000
     48         16.356123   0.000000
 
  0.4500000E+00  0.1785714E+00  0.0000000E+00  0.3174603E-02
      1        -12.211862   1.000000
      2        -12.033840   1.000000
      3         -8.370514   1.000000
      4         -8.308200   1.000000
      5         -6.075813   1.000000
      6         -6.060351   1.000000
      7         -4.602832   1.000000
      8         -4.415032   1.000000
      9         -3.877341   1.000000
     10         -3.280393   1.000000
     11         -2.059187   1.000000
     12         -1.841338   1.000000
     13         -1.075885   1.000000
     14         -1.004201   1.000000
     15         -0.691428   1.000000
     16         -0.623815   1.000000
     17          0.090230   1.000000
     18          0.135099   1.000000
     19          0.885735   1.000000
     20          0.963746   1.000000
     21          0.994256   1.000000
     22          1.216554   1.000000
     23          6.161369   0.000000
     24          6.296631   0.000000
     25          6.887250   0.000000
     26          7.209581   0.000000
     27          7.287855   0.000000
     28          7.626446   0.000000
     29          7.938508   0.000000
     30          8.427576   0.000000
     31          9.121068   0.000000
     32          9.147592   0.000000
     33          9.995230   0.000000
     34         10.470223   0.000000
     35         10.722492   0.000000
     36         10.954473   0.000000
     37         11.806173   0.000000
     38         11.840476   0.000000
     39         12.070683   0.000000
     40         12.846130   0.000000
     41         13.432839   0.000000
     42         13.783130   0.000000
     43         14.240215   0.000000
     44         14.380705   0.000000
     45         14.990949   0.000000
     46         15.145711   0.000000
     47         15.960074   0.000000
     48         16.299569   0.000000
 
  0.5000000E-01  0.2500000E+00  0.0000000E+00  0.3174603E-02
      1        -12.564551   1.000000
      2        -11.411054   1.000000
      3         -8.557817   1.000000
      4         -8.240642   1.000000
      5         -5.901117   1.000000
      6         -5.583988   1.000000
      7         -4.969347   1.000000
      8         -4.587337   1.000000
      9         -4.389648   1.000000
     10         -4.155766   1.000000
     11         -3.332320   1.000000
     12         -1.181914   1.000000
     13         -1.079513   1.000000
     14         -1.023906   1.000000
     15         -0.138557   1.000000
     16          0.164239   1.000000
     17          0.186535   1.000000
     18          0.677040   1.000000
     19          0.911844   1.000000
     20          0.991073   1.000000
     21          1.026605   1.000000
     22          2.366269   0.000000
     23          4.954628   0.000000
     24          5.113389   0.000000
     25          6.285921   0.000000
     26          6.654230   0.000000
     27          7.273016   0.000000
     28          7.889708   0.000000
     29          8.797589   0.000000
     30          9.077954   0.000000
     31          9.431092   0.000000
     32          9.615083   0.000000
     33          9.632530   0.000000
     34         10.744078   0.000000
     35         11.268860   0.000000
     36         11.969805   0.000000
     37         12.090487   0.000000
     38         12.146794   0.000000
     39         12.395651   0.000000
     40         12.474144   0.000000
     41         12.570705   0.000000
     42         13.034139   0.000000
     43         13.776369   0.000000
     44         13.848517   0.000000
     45         14.469319   0.000000
     46         15.077270   0.000000
     47         15.412868   0.000000
     48         15.856011   0.000000
 
  0.1500000E+00  0.2500000E+00  0.0000000E+00  0.3174603E-02
      1        -12.520785   1.000000
      2        -11.486687   1.000000
      3         -8.530575   1.000000
      4         -8.231245   1.000000
      5         -5.823859   1.000000
      6         -5.553085   1.000000
      7         -5.301854   1.000000
      8         -4.715686   1.000000