       N       E                     dE             d eps       ncg     rms          rms(c)
DAV:   1    -0.975027269538E+02   -0.97503E+02   -0.13208E+01 24768   0.119E+01    0.123E+01
DAV:   2    -0.923129762392E+02    0.51898E+01   -0.34718E+00 23328   0.646E+00    0.681E+00
DAV:   3    -0.906050368697E+02    0.17079E+01   -0.33730E+00 25176   0.593E+00    0.159E+00
DAV:   4    -0.906189073196E+02   -0.13870E-01   -0.21255E-01 19248   0.158E+00    0.740E-01
DAV:   5    -0.906340234231E+02   -0.15116E-01   -0.20788E-02 22344   0.481E-01    0.194E-01
DAV:   6    -0.906377653446E+02   -0.37419E-02   -0.22012E-03 19824   0.169E-01    0.612E-02
DAV:   7    -0.906388648877E+02   -0.10995E-02   -0.59712E-04 20904   0.840E-02    0.340E-02
DAV:   8    -0.906390312625E+02   -0.16637E-03   -0.11886E-04 20376   0.410E-02    0.551E-03
DAV:   9    -0.906390385585E+02   -0.72961E-05   -0.63574E-06 23376   0.105E-02    0.191E-03
DAV:  10    -0.906390394399E+02   -0.88135E-06   -0.48821E-07 20736   0.307E-03
   1 F= -.90639039E+02 E0= -.90638971E+02  d E =-.136730E-03
 imaginary and real dielectric function
