  14  14   0   0
  0.1021960E+02  0.5697000E-09  0.4047900E-09  0.6204200E-09  0.5000000E-15
  1.000000000000000E-004
  CAR 
 Kpoints                                 
     18.04594562    -14.19864511  301      1.88628188      1.00000000
    -14.199  0.0000E+00  0.0000E+00
    -14.091  0.0000E+00  0.0000E+00
    -13.984  0.0000E+00  0.0000E+00
    -13.876  0.0000E+00  0.0000E+00
    -13.769  0.0000E+00  0.0000E+00
    -13.661  0.0000E+00  0.0000E+00
    -13.554  0.0000E+00  0.0000E+00
    -13.446  0.0000E+00  0.0000E+00
    -13.339  0.0000E+00  0.0000E+00
    -13.231  0.0000E+00  0.0000E+00
    -13.124  0.0000E+00  0.0000E+00
    -13.016  0.7886E-17  0.8476E-18
    -12.909  0.9165E-08  0.9850E-09
    -12.801  0.2045E-02  0.2198E-03
    -12.694  0.4131E+00  0.4462E-01
    -12.586  0.2259E+01  0.2874E+00
    -12.479  0.3514E+01  0.6651E+00
    -12.371  0.4342E+01  0.1132E+01
    -12.264  0.3570E+01  0.1516E+01
    -12.156  0.2870E+01  0.1824E+01
    -12.049  0.2633E+01  0.2107E+01
    -11.942  0.2591E+01  0.2385E+01
    -11.834  0.2740E+01  0.2680E+01
    -11.727  0.3321E+01  0.3037E+01
    -11.619  0.3623E+01  0.3426E+01
    -11.512  0.3130E+01  0.3763E+01
    -11.404  0.1734E+01  0.3949E+01
    -11.297  0.4654E+00  0.3999E+01
    -11.189  0.9460E-02  0.4000E+01
    -11.082  0.3948E-06  0.4000E+01
    -10.974  0.4365E-14  0.4000E+01
    -10.867  0.0000E+00  0.4000E+01
    -10.759  0.0000E+00  0.4000E+01
    -10.652  0.0000E+00  0.4000E+01
    -10.544  0.0000E+00  0.4000E+01
    -10.437  0.0000E+00  0.4000E+01
    -10.329  0.0000E+00  0.4000E+01
    -10.222  0.0000E+00  0.4000E+01
    -10.114  0.0000E+00  0.4000E+01
    -10.007  0.0000E+00  0.4000E+01
     -9.899  0.0000E+00  0.4000E+01
     -9.792  0.0000E+00  0.4000E+01
     -9.684  0.0000E+00  0.4000E+01
     -9.577  0.0000E+00  0.4000E+01
     -9.469  0.0000E+00  0.4000E+01
     -9.362  0.0000E+00  0.4000E+01
     -9.254  0.0000E+00  0.4000E+01
     -9.147  0.0000E+00  0.4000E+01
     -9.040  0.9381E-09  0.4000E+01
     -8.932  0.6554E-03  0.4000E+01
     -8.825  0.2933E+00  0.4032E+01
     -8.717  0.2145E+01  0.4262E+01
     -8.610  0.5385E+01  0.4841E+01
     -8.502  0.7010E+01  0.5594E+01
     -8.395  0.6230E+01  0.6264E+01
     -8.287  0.5299E+01  0.6834E+01
     -8.180  0.4872E+01  0.7357E+01
     -8.072  0.3754E+01  0.7761E+01
     -7.965  0.1635E+01  0.7936E+01
     -7.857  0.5503E+00  0.7995E+01
     -7.750  0.4239E-01  0.8000E+01
     -7.642  0.2751E-04  0.8000E+01
     -7.535  0.8110E-11  0.8000E+01
     -7.427  0.0000E+00  0.8000E+01
     -7.320  0.0000E+00  0.8000E+01
     -7.212  0.1428E-13  0.8000E+01
     -7.105  0.4322E-06  0.8000E+01
     -6.997  0.3776E-02  0.8000E+01
     -6.890  0.1068E+00  0.8012E+01
     -6.782  0.2893E+00  0.8043E+01
     -6.675  0.4740E+00  0.8094E+01
     -6.567  0.6895E+00  0.8168E+01
     -6.460  0.9312E+00  0.8268E+01
     -6.352  0.1454E+01  0.8424E+01
     -6.245  0.2113E+01  0.8651E+01
     -6.137  0.3016E+01  0.8976E+01
     -6.030  0.3933E+01  0.9398E+01
     -5.923  0.4011E+01  0.9829E+01
     -5.815  0.3997E+01  0.1026E+02
     -5.708  0.4098E+01  0.1070E+02
     -5.600  0.4062E+01  0.1114E+02
     -5.493  0.4078E+01  0.1157E+02
     -5.385  0.4462E+01  0.1205E+02
     -5.278  0.4822E+01  0.1257E+02
     -5.170  0.4345E+01  0.1304E+02
     -5.063  0.3906E+01  0.1346E+02
     -4.955  0.3350E+01  0.1382E+02
     -4.848  0.2442E+01  0.1408E+02
     -4.740  0.2444E+01  0.1434E+02
     -4.633  0.3013E+01  0.1467E+02
     -4.525  0.3620E+01  0.1506E+02
     -4.418  0.3433E+01  0.1543E+02
     -4.310  0.3157E+01  0.1577E+02
     -4.203  0.2844E+01  0.1607E+02
     -4.095  0.2969E+01  0.1639E+02
     -3.988  0.2917E+01  0.1670E+02
     -3.880  0.3074E+01  0.1703E+02
     -3.773  0.2937E+01  0.1735E+02
     -3.665  0.2894E+01  0.1766E+02
     -3.558  0.2901E+01  0.1797E+02
     -3.450  0.2687E+01  0.1826E+02
     -3.343  0.2897E+01  0.1857E+02
     -3.235  0.2635E+01  0.1886E+02
     -3.128  0.2838E+01  0.1916E+02
     -3.021  0.2914E+01  0.1947E+02
     -2.913  0.3088E+01  0.1981E+02
     -2.806  0.2743E+01  0.2010E+02
     -2.698  0.2485E+01  0.2037E+02
     -2.591  0.2543E+01  0.2064E+02
     -2.483  0.3008E+01  0.2097E+02
     -2.376  0.3243E+01  0.2131E+02
     -2.268  0.3676E+01  0.2171E+02
     -2.161  0.3491E+01  0.2208E+02
     -2.053  0.3262E+01  0.2243E+02
     -1.946  0.4246E+01  0.2289E+02
     -1.838  0.4758E+01  0.2340E+02
     -1.731  0.5747E+01  0.2402E+02
     -1.623  0.5794E+01  0.2464E+02
     -1.516  0.5949E+01  0.2528E+02
     -1.408  0.6223E+01  0.2595E+02
     -1.301  0.5642E+01  0.2656E+02
     -1.193  0.5049E+01  0.2710E+02
     -1.086  0.5355E+01  0.2768E+02
     -0.978  0.3787E+01  0.2808E+02
     -0.871  0.2728E+01  0.2838E+02
     -0.763  0.2363E+01  0.2863E+02
     -0.656  0.3466E+01  0.2900E+02
     -0.548  0.5209E+01  0.2956E+02
     -0.441  0.5990E+01  0.3021E+02
     -0.333  0.6377E+01  0.3089E+02
     -0.226  0.6145E+01  0.3155E+02
     -0.119  0.6932E+01  0.3230E+02
     -0.011  0.6809E+01  0.3303E+02
      0.096  0.6234E+01  0.3370E+02
      0.204  0.6979E+01  0.3445E+02
      0.311  0.8518E+01  0.3536E+02
      0.419  0.8471E+01  0.3627E+02
      0.526  0.8380E+01  0.3718E+02
      0.634  0.4246E+01  0.3763E+02
      0.741  0.2936E+01  0.3795E+02
      0.849  0.3121E+01  0.3828E+02
      0.956  0.3340E+01  0.3864E+02
      1.064  0.3365E+01  0.3900E+02
      1.171  0.3937E+01  0.3943E+02
      1.279  0.3511E+01  0.3980E+02
      1.386  0.3736E+01  0.4021E+02
      1.494  0.4003E+01  0.4064E+02
      1.601  0.3860E+01  0.4105E+02
      1.709  0.3862E+01  0.4147E+02
      1.816  0.3035E+01  0.4179E+02
      1.924  0.2948E+01  0.4211E+02
      2.031  0.2769E+01  0.4241E+02
      2.139  0.2456E+01  0.4267E+02
      2.246  0.2387E+01  0.4293E+02
      2.354  0.1959E+01  0.4314E+02
      2.461  0.1259E+01  0.4327E+02
      2.569  0.9719E+00  0.4338E+02
      2.676  0.7746E+00  0.4346E+02
      2.784  0.5092E+00  0.4352E+02
      2.891  0.6089E+00  0.4358E+02
      2.998  0.5696E+00  0.4364E+02
      3.106  0.4635E+00  0.4369E+02
      3.213  0.4273E+00  0.4374E+02
      3.321  0.4651E+00  0.4379E+02
      3.428  0.3851E+00  0.4383E+02
      3.536  0.3406E+00  0.4387E+02
      3.643  0.3527E+00  0.4390E+02
      3.751  0.3039E+00  0.4394E+02
      3.858  0.2671E+00  0.4397E+02
      3.966  0.2420E+00  0.4399E+02
      4.073  0.7898E-01  0.4400E+02
      4.181  0.4218E-02  0.4400E+02
      4.288  0.7398E-01  0.4401E+02
      4.396  0.2588E+00  0.4404E+02
      4.503  0.3850E+00  0.4408E+02
      4.611  0.5489E+00  0.4414E+02
      4.718  0.7497E+00  0.4422E+02
      4.826  0.8208E+00  0.4431E+02
      4.933  0.8944E+00  0.4440E+02
      5.041  0.1008E+01  0.4451E+02
      5.148  0.1151E+01  0.4463E+02
      5.256  0.1400E+01  0.4478E+02
      5.363  0.1792E+01  0.4498E+02
      5.471  0.2182E+01  0.4521E+02
      5.578  0.2645E+01  0.4550E+02
      5.686  0.2969E+01  0.4581E+02
      5.793  0.3396E+01  0.4618E+02
      5.900  0.3721E+01  0.4658E+02
      6.008  0.4231E+01  0.4703E+02
      6.115  0.4588E+01  0.4753E+02
      6.223  0.4493E+01  0.4801E+02
      6.330  0.4157E+01  0.4846E+02
      6.438  0.4219E+01  0.4891E+02
      6.545  0.4346E+01  0.4938E+02
      6.653  0.3828E+01  0.4979E+02
      6.760  0.3551E+01  0.5017E+02
      6.868  0.4080E+01  0.5061E+02
      6.975  0.4445E+01  0.5109E+02
      7.083  0.4947E+01  0.5162E+02
      7.190  0.4989E+01  0.5215E+02
      7.298  0.5061E+01  0.5270E+02
      7.405  0.4519E+01  0.5318E+02
      7.513  0.4434E+01  0.5366E+02
      7.620  0.4041E+01  0.5410E+02
      7.728  0.3342E+01  0.5445E+02
      7.835  0.3089E+01  0.5479E+02
      7.943  0.3216E+01  0.5513E+02
      8.050  0.3363E+01  0.5549E+02
      8.158  0.3689E+01  0.5589E+02
      8.265  0.3871E+01  0.5631E+02
      8.373  0.4129E+01  0.5675E+02
      8.480  0.4101E+01  0.5719E+02
      8.588  0.3936E+01  0.5761E+02
      8.695  0.4490E+01  0.5810E+02
      8.802  0.4902E+01  0.5862E+02
      8.910  0.5092E+01  0.5917E+02
      9.017  0.5167E+01  0.5973E+02
      9.125  0.4929E+01  0.6026E+02
      9.232  0.5193E+01  0.6081E+02
      9.340  0.4964E+01  0.6135E+02
      9.447  0.4670E+01  0.6185E+02
      9.555  0.4622E+01  0.6235E+02
      9.662  0.4760E+01  0.6286E+02
      9.770  0.5111E+01  0.6341E+02
      9.877  0.5214E+01  0.6397E+02
      9.985  0.4755E+01  0.6448E+02
     10.092  0.4011E+01  0.6491E+02
     10.200  0.4166E+01  0.6536E+02
     10.307  0.4407E+01  0.6583E+02
     10.415  0.5275E+01  0.6640E+02
     10.522  0.5608E+01  0.6700E+02
     10.630  0.4790E+01  0.6752E+02
     10.737  0.4372E+01  0.6799E+02
     10.845  0.3633E+01  0.6838E+02
     10.952  0.3600E+01  0.6876E+02
     11.060  0.4979E+01  0.6930E+02
     11.167  0.5664E+01  0.6991E+02
     11.275  0.6249E+01  0.7058E+02
     11.382  0.5545E+01  0.7117E+02
     11.490  0.4880E+01  0.7170E+02
     11.597  0.4670E+01  0.7220E+02
     11.705  0.4636E+01  0.7270E+02
     11.812  0.4834E+01  0.7322E+02
     11.919  0.5339E+01  0.7379E+02
     12.027  0.6203E+01  0.7446E+02
     12.134  0.5892E+01  0.7509E+02
     12.242  0.5436E+01  0.7568E+02
     12.349  0.5218E+01  0.7624E+02
     12.457  0.5700E+01  0.7685E+02
     12.564  0.5963E+01  0.7749E+02
     12.672  0.5844E+01  0.7812E+02
     12.779  0.5896E+01  0.7875E+02
     12.887  0.5852E+01  0.7938E+02
     12.994  0.5979E+01  0.8003E+02
     13.102  0.6083E+01  0.8068E+02
     13.209  0.6290E+01  0.8136E+02
     13.317  0.5802E+01  0.8198E+02
     13.424  0.5534E+01  0.8257E+02
     13.532  0.5408E+01  0.8315E+02
     13.639  0.5372E+01  0.8373E+02
     13.747  0.5556E+01  0.8433E+02
     13.854  0.5672E+01  0.8494E+02
     13.962  0.5501E+01  0.8553E+02
     14.069  0.5573E+01  0.8613E+02
     14.177  0.4880E+01  0.8665E+02
     14.284  0.4967E+01  0.8719E+02
     14.392  0.5055E+01  0.8773E+02
     14.499  0.4650E+01  0.8823E+02
     14.607  0.5497E+01  0.8882E+02
     14.714  0.5068E+01  0.8937E+02
     14.821  0.4333E+01  0.8983E+02
     14.929  0.4429E+01  0.9031E+02
     15.036  0.5939E+01  0.9095E+02
     15.144  0.5957E+01  0.9159E+02
     15.251  0.5799E+01  0.9221E+02
     15.359  0.5859E+01  0.9284E+02
     15.466  0.5914E+01  0.9348E+02
     15.574  0.5925E+01  0.9411E+02
     15.681  0.4907E+01  0.9464E+02
     15.789  0.3521E+01  0.9502E+02
     15.896  0.2603E+01  0.9530E+02
     16.004  0.1969E+01  0.9551E+02
     16.111  0.1357E+01  0.9566E+02
     16.219  0.1110E+01  0.9577E+02
     16.326  0.9322E+00  0.9587E+02
     16.434  0.7648E+00  0.9596E+02
     16.541  0.3612E+00  0.9600E+02
     16.649  0.3741E-01  0.9600E+02
     16.756  0.1538E-03  0.9600E+02
     16.864  0.9453E-09  0.9600E+02
     16.971  0.1337E-17  0.9600E+02
     17.079  0.0000E+00  0.9600E+02
     17.186  0.0000E+00  0.9600E+02
     17.294  0.0000E+00  0.9600E+02
     17.401  0.0000E+00  0.9600E+02
     17.509  0.0000E+00  0.9600E+02
     17.616  0.0000E+00  0.9600E+02
     17.723  0.0000E+00  0.9600E+02
     17.831  0.0000E+00  0.9600E+02
     17.938  0.0000E+00  0.9600E+02
     18.046  0.0000E+00  0.9600E+02
