   14   14    1    1
  0.1021960E+02  0.5697000E-09  0.4047900E-09  0.6204200E-09  0.5000000E-15
  1.000000000000000E-004
  CAR 
 Kpoints                                 
     42   2112     48
 
  0.0000000E+00  0.1562500E-01  0.0000000E+00  0.1293996E-03
      1        -12.732982   1.000000
      2        -11.575585   1.000000
      3         -8.662439   1.000000
      4         -8.424719   1.000000
      5         -6.077583   1.000000
      6         -5.058870   1.000000
      7         -4.638797   1.000000
      8         -4.352385   1.000000
      9         -3.986820   1.000000
     10         -3.599462   1.000000
     11         -2.399581   1.000000
     12         -2.377362   1.000000
     13         -2.039403   1.000000
     14         -1.054114   1.000000
     15         -0.043236   1.000000
     16         -0.011461   1.000000
     17          0.148478   1.000000
     18          0.177442   1.000000
     19          0.567381   1.000000
     20          2.071160   0.000000
     21          2.121018   0.000000
     22          2.218225   0.000000
     23          5.419722   0.000000
     24          5.788961   0.000000
     25          5.831263   0.000000
     26          5.904948   0.000000
     27          6.795133   0.000000
     28          7.685770   0.000000
     29          7.707244   0.000000
     30          8.607751   0.000000
     31          8.752381   0.000000
     32          8.870562   0.000000
     33          9.042893   0.000000
     34         10.046770   0.000000
     35         11.150705   0.000000
     36         11.398477   0.000000
     37         11.768175   0.000000
     38         11.805229   0.000000
     39         11.901583   0.000000
     40         12.363708   0.000000
     41         12.804716   0.000000
     42         13.389105   0.000000
     43         13.568180   0.000000
     44         15.553928   0.000000
     45         15.563334   0.000000
     46         15.946112   0.000000
     47         16.355850   0.000000
     48         16.580282   0.000000
 
  0.4347826E-01  0.1562500E-01  0.0000000E+00  0.2587992E-03
      1        -12.728813   1.000000
      2        -11.582860   1.000000
      3         -8.660506   1.000000
      4         -8.423469   1.000000
      5         -6.068689   1.000000
      6         -5.117118   1.000000
      7         -4.661166   1.000000
      8         -4.284403   1.000000
      9         -3.980620   1.000000
     10         -3.558507   1.000000
     11         -2.397773   1.000000
     12         -2.383598   1.000000
     13         -2.048055   1.000000
     14         -1.085678   1.000000
     15         -0.039086   1.000000
     16         -0.004813   1.000000
     17          0.153436   1.000000
     18          0.165030   1.000000
     19          0.557775   1.000000
     20          2.062346   0.000000
     21          2.113194   0.000000
     22          2.206943   0.000000
     23          5.429309   0.000000
     24          5.779683   0.000000
     25          5.816724   0.000000
     26          5.965081   0.000000
     27          6.786066   0.000000
     28          7.541219   0.000000
     29          7.831034   0.000000
     30          8.622012   0.000000
     31          8.790862   0.000000
     32          8.895552   0.000000
     33          9.045107   0.000000
     34         10.058731   0.000000
     35         11.157692   0.000000
     36         11.357530   0.000000
     37         11.695779   0.000000
     38         11.779473   0.000000
     39         11.924035   0.000000
     40         12.372023   0.000000
     41         12.853594   0.000000
     42         13.464912   0.000000
     43         13.528821   0.000000
     44         15.413897   0.000000
     45         15.587069   0.000000
     46         16.047846   0.000000
     47         16.367660   0.000000
     48         16.389584   0.000000
 
  0.8695652E-01  0.1562500E-01  0.0000000E+00  0.2587992E-03
      1        -12.716339   1.000000
      2        -11.604375   1.000000
      3         -8.654653   1.000000
      4         -8.419890   1.000000
      5         -6.044420   1.000000
      6         -5.249382   1.000000
      7         -4.714696   1.000000
      8         -4.124201   1.000000
      9         -3.960984   1.000000
     10         -3.447505   1.000000
     11         -2.403242   1.000000
     12         -2.392325   1.000000
     13         -2.072089   1.000000
     14         -1.177677   1.000000
     15         -0.026783   1.000000
     16          0.013608   1.000000
     17          0.128933   1.000000
     18          0.167462   1.000000
     19          0.529064   1.000000
     20          2.036427   0.000011
     21          2.090177   0.000000
     22          2.173005   0.000000
     23          5.456696   0.000000
     24          5.773248   0.000000
     25          5.808951   0.000000
     26          6.088214   0.000000
     27          6.759840   0.000000
     28          7.378246   0.000000
     29          7.939132   0.000000
     30          8.663206   0.000000
     31          8.897440   0.000000
     32          8.969278   0.000000
     33          9.049865   0.000000
     34         10.095120   0.000000
     35         11.178848   0.000000
     36         11.238725   0.000000
     37         11.508854   0.000000
     38         11.727082   0.000000
     39         11.990016   0.000000
     40         12.396587   0.000000
     41         12.970381   0.000000
     42         13.417026   0.000000
     43         13.660549   0.000000
     44         15.166510   0.000000
     45         15.652953   0.000000
     46         16.166460   0.000000
     47         16.189848   0.000000
     48         16.403373   0.000000
 
  0.1304348E+00  0.1562500E-01  0.0000000E+00  0.2587992E-03
      1        -12.695650   1.000000
      2        -11.639269   1.000000
      3         -8.644684   1.000000
      4         -8.414432   1.000000
      5         -6.012052   1.000000
      6         -5.404156   1.000000
      7         -4.771256   1.000000
      8         -3.956338   1.000000
      9         -3.895582   1.000000
     10         -3.289092   1.000000
     11         -2.438769   1.000000
     12         -2.383107   1.000000
     13         -2.106209   1.000000
     14         -1.322788   1.000000
     15         -0.006768   1.000000
     16          0.030451   1.000000
     17          0.081569   1.000000
     18          0.186841   1.000000
     19          0.483531   1.000000
     20          1.995035   0.001049
     21          2.053303   0.000001
     22          2.116455   0.000000
     23          5.498154   0.000000
     24          5.759597   0.000000
     25          5.844122   0.000000
     26          6.248167   0.000000
     27          6.719302   0.000000
     28          7.219280   0.000000
     29          8.026447   0.000000
     30          8.726370   0.000000
     31          9.044000   0.000000
     32          9.051214   0.000000
     33          9.095874   0.000000
     34         10.158289   0.000000
     35         11.053103   0.000000
     36         11.214441   0.000000
     37         11.261233   0.000000
     38         11.688159   0.000000
     39         12.093393   0.000000
     40         12.438520   0.000000
     41         13.090686   0.000000
     42         13.247470   0.000000
     43         13.923088   0.000000
     44         14.933833   0.000000
     45         15.748721   0.000000
     46         15.923521   0.000000
     47         16.281165   0.000000
     48         16.461447   0.000000
 
  0.1739130E+00  0.1562500E-01  0.0000000E+00  0.2587992E-03
      1        -12.666920   1.000000
      2        -11.686191   1.000000
      3         -8.630412   1.000000
      4         -8.407849   1.000000
      5         -5.983213   1.000000
      6         -5.558541   1.000000
      7         -4.803645   1.000000
      8         -3.901143   1.000000
      9         -3.688462   1.000000
     10         -3.101825   1.000000
     11         -2.492887   1.000000
     12         -2.369898   1.000000
     13         -2.143634   1.000000
     14         -1.510962   1.000000
     15         -0.028507   1.000000
     16          0.020055   1.000000
     17          0.096081   1.000000
     18          0.198491   1.000000
     19          0.433483   1.000000
     20          1.940808   0.061509
     21          2.004678   0.000406
     22          2.037863   0.000009
     23          5.548400   0.000000
     24          5.735654   0.000000
     25          5.932147   0.000000
     26          6.437525   0.000000
     27          6.668655   0.000000
     28          7.072916   0.000000
     29          8.100871   0.000000
     30          8.801772   0.000000
     31          9.033017   0.000000
     32          9.231156   0.000000
     33          9.256491   0.000000
     34         10.253706   0.000000
     35         10.815270   0.000000
     36         10.992242   0.000000
     37         11.263179   0.000000
     38         11.689374   0.000000
     39         12.215918   0.000000
     40         12.508300   0.000000
     41         13.035898   0.000000
     42         13.139582   0.000000
     43         14.216941   0.000000
     44         14.784812   0.000000
     45         15.665957   0.000000
     46         15.865782   0.000000
     47         16.292131   0.000000
     48         16.535165   0.000000
 
  0.2173913E+00  0.1562500E-01  0.0000000E+00  0.2587992E-03
      1        -12.630381   1.000000
      2        -11.743429   1.000000
      3         -8.611833   1.000000
      4         -8.401154   1.000000
      5         -5.970647   1.000000
      6         -5.702738   1.000000
      7         -4.790677   1.000000
      8         -3.848420   1.000000
      9         -3.462500   1.000000
     10         -2.898616   1.000000
     11         -2.565962   1.000000
     12         -2.352488   1.000000
     13         -2.178975   1.000000
     14         -1.730646   1.000000
     15         -0.129581   1.000000
     16          0.051096   1.000000
     17          0.137973   1.000000
     18          0.168413   1.000000
     19          0.415022   1.000000
     20          1.876977   0.603791
     21          1.939167   0.067351
     22          1.947046   0.042837
     23          5.601550   0.000000
     24          5.711493   0.000000
     25          6.066476   0.000000
     26          6.612934   0.000000
     27          6.650387   0.000000
     28          6.944391   0.000000
     29          8.167552   0.000000
     30          8.870909   0.000000
     31          9.002957   0.000000
     32          9.423777   0.000000
     33          9.451603   0.000000
     34         10.387237   0.000000
     35         10.539720   0.000000
     36         10.735500   0.000000
     37         11.319619   0.000000
     38         11.741337   0.000000
     39         12.321433   0.000000
     40         12.632519   0.000000
     41         12.795631   0.000000
     42         13.058874   0.000000
     43         14.518951   0.000000
     44         14.768652   0.000000
     45         15.406195   0.000000
     46         15.988314   0.000000
     47         16.179744   0.000000
     48         16.454494   0.000000
 
  0.2608696E+00  0.1562500E-01  0.0000000E+00  0.2587992E-03
      1        -12.586360   1.000000
      2        -11.809062   1.000000
      3         -8.589215   1.000000
      4         -8.395603   1.000000
      5         -5.981489   1.000000
      6         -5.831523   1.000000
      7         -4.721260   1.000000
      8         -3.786155   1.000000
      9         -3.240888   1.000000
     10         -2.703102   1.000000
     11         -2.641256   1.000000
     12         -2.332112   1.000000
     13         -2.209828   1.000000
     14         -1.967034   1.000000
     15         -0.248803   1.000000
     16          0.048797   1.000000
     17          0.113060   1.000000
     18          0.183189   1.000000
     19          0.450154   1.000000
     20          1.801301   0.991883
     21          1.829817   0.944875
     22          1.883637   0.529812
     23          5.651885   0.000000
     24          5.692189   0.000000
     25          6.243270   0.000000
     26          6.557617   0.000000
     27          6.813620   0.000000
     28          6.904037   0.000000
     29          8.228572   0.000000
     30          8.896343   0.000000
     31          8.962945   0.000000
     32          9.623508   0.000000
     33          9.666396   0.000000
     34         10.226907   0.000000
     35         10.509589   0.000000
     36         10.597492   0.000000
     37         11.372128   0.000000
     38         11.843223   0.000000
     39         12.392596   0.000000
     40         12.534733   0.000000
     41         12.819970   0.000000
     42         12.856144   0.000000
     43         14.777290   0.000000
     44         14.901202   0.000000
     45         15.149296   0.000000
     46         15.976388   0.000000
     47         16.056359   0.000000
     48         16.185026   0.000000
 
  0.3043478E+00  0.1562500E-01  0.0000000E+00  0.2587992E-03
      1        -12.535250   1.000000
      2        -11.881076   1.000000
      3         -8.563210   1.000000
      4         -8.392576   1.000000
      5         -6.012904   1.000000
      6         -5.941484   1.000000
      7         -4.596617   1.000000
      8         -3.713990   1.000000
      9         -3.041712   1.000000
     10         -2.767109   1.000000
     11         -2.472904   1.000000
     12         -2.334055   1.000000
     13         -2.234330   1.000000
     14         -2.175023   1.000000
     15         -0.379669   1.000000
     16         -0.075574   1.000000
     17          0.143284   1.000000
     18          0.226546   1.000000
     19          0.518913   1.000000
     20          1.681188   1.000000
     21          1.751428   0.999932
     22          1.818109   0.973086
     23          5.680779   0.000000
     24          5.694268   0.000000
     25          6.458292   0.000000
     26          6.508359   0.000000
     27          6.728823   0.000000
     28          7.146290   0.000000
     29          8.284773   0.000000
     30          8.848720   0.000000
     31          8.904787   0.000000
     32          9.829642   0.000000
     33          9.877976   0.000000
     34          9.911717   0.000000
     35         10.403926   0.000000
     36         10.829079   0.000000
     37         11.404198   0.000000
     38         11.987990   0.000000
     39         12.262780   0.000000
     40         12.448526   0.000000
     41         12.582347   0.000000
     42         13.033630   0.000000
     43         14.907380   0.000000
     44         14.918429   0.000000
     45         15.175161   0.000000
     46         15.702707   0.000000
     47         15.730497   0.000000
     48         16.262655   0.000000
 
  0.3478261E+00  0.1562500E-01  0.0000000E+00  0.2587992E-03
      1        -12.477548   1.000000
      2        -11.957484   1.000000
      3         -8.534846   1.000000
      4         -8.393426   1.000000
      5         -6.055395   1.000000
      6         -6.030195   1.000000
      7         -4.425813   1.000000
      8         -3.632326   1.000000
      9         -2.914171   1.000000
     10         -2.878210   1.000000
     11         -2.467398   1.000000
     12         -2.314216   1.000000
     13         -2.217928   1.000000
     14         -2.195700   1.000000
     15         -0.513860   1.000000
     16         -0.231449   1.000000
     17          0.185409   1.000000
     18          0.263973   1.000000
     19          0.607859   1.000000
     20          1.539522   1.000000
     21          1.691349   1.000000
     22          1.754480   0.999903
     23          5.678578   0.000000
     24          5.724556   0.000000
     25          6.470537   0.000000
     26          6.648933   0.000000
     27          6.706766   0.000000
     28          7.413967   0.000000
     29          8.337368   0.000000
     30          8.740505   0.000000
     31          8.793660   0.000000
     32          9.572724   0.000000
     33         10.042218   0.000000
     34         10.098945   0.000000
     35         10.408888   0.000000
     36         11.123618   0.000000
     37         11.401837   0.000000
     38         11.985378   0.000000
     39         12.164841   0.000000
     40         12.281921   0.000000
     41         12.498323   0.000000
     42         13.228263   0.000000
     43         14.701014   0.000000
     44         14.998054   0.000000
     45         15.304167   0.000000
     46         15.422538   0.000000
     47         15.511560   0.000000
     48         16.371546   0.000000
 
  0.3913043E+00  0.1562500E-01  0.0000000E+00  0.2587992E-03
      1        -12.413862   1.000000
      2        -12.036386   1.000000
      3         -8.505496   1.000000
      4         -8.399269   1.000000
      5         -6.098528   1.000000
      6         -6.096037   1.000000
      7         -4.219449   1.000000
      8         -3.541809   1.000000
      9         -2.994270   1.000000
     10         -2.985453   1.000000
     11         -2.515356   1.000000
     12         -2.310492   1.000000
     13         -2.121157   1.000000
     14         -2.069549   1.000000
     15         -0.637216   1.000000
     16         -0.396179   1.000000
     17          0.226904   1.000000
     18          0.291616   1.000000
     19          0.712231   1.000000
     20          1.391504   1.000000
     21          1.644824   1.000000
     22          1.697102   1.000000
     23          5.685182   0.000000
     24          5.740284   0.000000
     25          6.448442   0.000000
     26          6.582107   0.000000
     27          6.983150   0.000000
     28          7.695300   0.000000
     29          8.388427   0.000000
     30          8.514676   0.000000
     31          8.707020   0.000000
     32          9.243999   0.000000
     33         10.256941   0.000000
     34         10.294105   0.000000
     35         10.519435   0.000000
     36         11.364093   0.000000
     37         11.456263   0.000000
     38         11.708146   0.000000
     39         11.974213   0.000000
     40         12.373589   0.000000
     41         12.527222   0.000000
     42         13.336485   0.000000
     43         14.569175   0.000000
     44         14.969638   0.000000
     45         15.008418   0.000000
     46         15.194072   0.000000
     47         15.758338   0.000000
     48         16.449156   0.000000
 
  0.4347826E+00  0.1562500E-01  0.0000000E+00  0.2587992E-03
      1        -12.344933   1.000000
      2        -12.116050   1.000000
      3         -8.476797   1.000000
      4         -8.410801   1.000000
      5         -6.138324   1.000000
      6         -6.133811   1.000000
      7         -3.986782   1.000000
      8         -3.443389   1.000000
      9         -3.212510   1.000000
     10         -3.111226   1.000000
     11         -2.462570   1.000000
     12         -2.336461   1.000000
     13         -2.017703   1.000000
     14         -1.940962   1.000000
     15         -0.725167   1.000000
     16         -0.553763   1.000000
     17          0.263442   1.000000
     18          0.306243   1.000000
     19          0.829796   1.000000
     20          1.242667   1.000000
     21          1.615790   1.000000
     22          1.650563   1.000000
     23          5.698654   0.000000
     24          5.741646   0.000000
     25          6.444146   0.000000
     26          6.527697   0.000000
     27          7.281575   0.000000
     28          7.987923   0.000000
     29          8.227606   0.000000
     30          8.440781   0.000000
     31          8.629754   0.000000
     32          8.919703   0.000000
     33         10.455714   0.000000
     34         10.464484   0.000000
     35         10.697498   0.000000
     36         11.308303   0.000000
     37         11.442058   0.000000
     38         11.678282   0.000000
     39         11.813950   0.000000
     40         12.497202   0.000000
     41         12.598058   0.000000
     42         13.283399   0.000000
     43         14.556337   0.000000
     44         14.769521   0.000000
     45         14.946994   0.000000
     46         14.958231   0.000000
     47         16.015132   0.000000
     48         16.465491   0.000000
 
  0.4782609E+00  0.1562500E-01  0.0000000E+00  0.2587992E-03
      1        -12.271606   1.000000
      2        -12.194915   1.000000
      3         -8.450458   1.000000
      4         -8.428065   1.000000
      5         -6.157421   1.000000
      6         -6.154929   1.000000
      7         -3.735660   1.000000
      8         -3.474164   1.000000
      9         -3.337149   1.000000
     10         -3.226304   1.000000
     11         -2.410036   1.000000
     12         -2.369187   1.000000
     13         -1.923927   1.000000
     14         -1.888182   1.000000
     15         -0.744850   1.000000
     16         -0.680740   1.000000
     17          0.290983   1.000000
     18          0.305984   1.000000
     19          0.958821   1.000000
     20          1.097308   1.000000
     21          1.607118   1.000000
     22          1.619346   1.000000
     23          5.715696   0.000000
     24          5.731789   0.000000
     25          6.457230   0.000000
     26          6.485732   0.000000
     27          7.594994   0.000000
     28          7.914512   0.000000
     29          8.290121   0.000000
     30          8.497420   0.000000
     31          8.558206   0.000000
     32          8.602929   0.000000
     33         10.581969   0.000000
     34         10.586512   0.000000
     35         10.915212   0.000000
     36         11.154887   0.000000
     37         11.333319   0.000000
     38         11.452650   0.000000
     39         12.126435   0.000000
     40         12.367343   0.000000
     41         12.839443   0.000000
     42         13.086186   0.000000
     43         14.635775   0.000000
     44         14.744796   0.000000
     45         14.763252   0.000000
     46         14.843895   0.000000
     47         16.234942   0.000000
     48         16.393647   0.000000
 
  0.0000000E+00  0.4687500E-01  0.0000000E+00  0.1293996E-03
      1        -12.728270   1.000000
      2        -11.571356   1.000000
      3         -8.658742   1.000000
      4         -8.420164   1.000000
      5         -6.072370   1.000000
      6         -5.051578   1.000000
      7         -4.634463   1.000000
      8         -4.368150   1.000000
      9         -4.087050   1.000000
     10         -3.594579   1.000000
     11         -2.697437   1.000000
     12         -2.265865   1.000000
     13         -1.697965   1.000000
     14         -1.053207   1.000000
     15         -0.098868   1.000000
     16         -0.074536   1.000000
     17          0.151727   1.000000
     18          0.205308   1.000000
     19          0.589236   1.000000
     20          2.001855   0.000540
     21          2.068511   0.000000
     22          2.242804   0.000000
     23          5.470479   0.000000
     24          5.744418   0.000000
     25          5.858510   0.000000
     26          5.877654   0.000000
     27          6.855319   0.000000
     28          7.747494   0.000000
     29          7.764253   0.000000
     30          8.454311   0.000000
     31          8.752040   0.000000
     32          8.946445   0.000000
     33          9.054649   0.000000
     34         10.164855   0.000000
     35         11.197978   0.000000
     36         11.382201   0.000000
     37         11.753343   0.000000
     38         11.826104   0.000000
     39         11.921859   0.000000
     40         12.420279   0.000000
     41         12.806774   0.000000
     42         13.325509   0.000000
     43         13.502084   0.000000
     44         15.522160   0.000000
     45         15.546317   0.000000
     46         15.959267   0.000000
     47         16.318865   0.000000
     48         16.422180   0.000000
 
  0.4347826E-01  0.4687500E-01  0.0000000E+00  0.2587992E-03
      1        -12.724101   1.000000
      2        -11.578625   1.000000
      3         -8.656813   1.000000
      4         -8.418924   1.000000
      5         -6.063447   1.000000
      6         -5.110283   1.000000
      7         -4.656868   1.000000
      8         -4.305230   1.000000
      9         -4.075465   1.000000
     10         -3.553694   1.000000
     11         -2.703918   1.000000
     12         -2.263948   1.000000
     13         -1.706880   1.000000
     14         -1.084775   1.000000
     15         -0.094838   1.000000
     16         -0.068517   1.000000
     17          0.156841   1.000000
     18          0.193990   1.000000
     19          0.579569   1.000000
     20          1.993311   0.001234
     21          2.060699   0.000000
     22          2.231134   0.000000
     23          5.480310   0.000000
     24          5.732972   0.000000
     25          5.853369   0.000000
     26          5.930281   0.000000
     27          6.846281   0.000000
     28          7.602059   0.000000
     29          7.888763   0.000000
     30          8.469004   0.000000
     31          8.791223   0.000000
     32          8.971084   0.000000
     33          9.058279   0.000000
     34         10.173323   0.000000
     35         11.204598   0.000000
     36         11.341304   0.000000
     37         11.681567   0.000000
     38         11.799327   0.000000
     39         11.944388   0.000000
     40         12.428419   0.000000
     41         12.855873   0.000000
     42         13.402115   0.000000
     43         13.462981   0.000000
     44         15.418025   0.000000
     45         15.544614   0.000000
     46         16.036243   0.000000
     47         16.325405   0.000000
     48         16.338906   0.000000
 
  0.8695652E-01  0.4687500E-01  0.0000000E+00  0.2587992E-03
      1        -12.711628   1.000000
      2        -11.600135   1.000000
      3         -8.650948   1.000000
      4         -8.415367   1.000000
      5         -6.039081   1.000000
      6         -5.243091   1.000000
      7         -4.710487   1.000000
      8         -4.177485   1.000000
      9         -4.023209   1.000000
     10         -3.442895   1.000000
     11         -2.723372   1.000000
     12         -2.258181   1.000000
     13         -1.732389   1.000000
     14         -1.176743   1.000000
     15         -0.083040   1.000000
     16         -0.052817   1.000000
     17          0.161899   1.000000
     18          0.171491   1.000000
     19          0.550693   1.000000
     20          1.968169   0.010276
     21          2.037721   0.000009
     22          2.196139   0.000000
     23          5.508390   0.000000
     24          5.733192   0.000000
     25          5.843083   0.000000
     26          6.048479   0.000000
     27          6.820165   0.000000
     28          7.441002   0.000000
     29          7.994923   0.000000
     30          8.511546   0.000000
     31          8.899549   0.000000
     32          9.041324   0.000000
     33          9.069894   0.000000
     34         10.198964   0.000000
     35         11.222659   0.000000
     36         11.224703   0.000000
     37         11.493286   0.000000
     38         11.749350   0.000000
     39         12.010571   0.000000
     40         12.452516   0.000000
     41         12.973475   0.000000
     42         13.351922   0.000000
     43         13.597571   0.000000
     44         15.181661   0.000000
     45         15.606242   0.000000
     46         16.129883   0.000000
     47         16.138179   0.000000
     48         16.400039   0.000000
 
  0.1304348E+00  0.4687500E-01  0.0000000E+00  0.2587992E-03
      1        -12.690953   1.000000
      2        -11.635017   1.000000
      3         -8.640963   1.000000
      4         -8.409942   1.000000
      5         -6.006551   1.000000
      6         -5.398117   1.000000
      7         -4.767239   1.000000
      8         -4.093099   1.000000
      9         -3.874650   1.000000
     10         -3.285074   1.000000
     11         -2.755675   1.000000
     12         -2.248496   1.000000
     13         -1.771238   1.000000
     14         -1.321775   1.000000
     15         -0.064422   1.000000
     16         -0.038088   1.000000
     17          0.118426   1.000000
     18          0.192677   1.000000
     19          0.504620   1.000000
     20          1.927840   0.119912
     21          2.000913   0.000593
     22          2.138068   0.000000
     23          5.550829   0.000000
     24          5.755672   0.000000
     25          5.843698   0.000000
     26          6.205314   0.000000
     27          6.779793   0.000000
     28          7.285250   0.000000
     29          8.080131   0.000000
     30          8.576964   0.000000
     31          9.055190   0.000000
     32          9.069255   0.000000
     33          9.168553   0.000000
     34         10.243497   0.000000
     35         11.037357   0.000000
     36         11.244331   0.000000
     37         11.258549   0.000000
     38         11.716885   0.000000
     39         12.114299   0.000000
     40         12.493526   0.000000
     41         13.095247   0.000000
     42         13.183512   0.000000
     43         13.854939   0.000000
     44         14.959605   0.000000
     45         15.690794   0.000000
     46         15.923092   0.000000
     47         16.172338   0.000000
     48         16.484513   0.000000
 
  0.1739130E+00  0.4687500E-01  0.0000000E+00  0.2587992E-03
      1        -12.662233   1.000000
      2        -11.681917   1.000000
      3         -8.626675   1.000000
      4         -8.403400   1.000000
      5         -5.977482   1.000000
      6         -5.552581   1.000000
      7         -4.799890   1.000000
      8         -4.040870   1.000000