 running   24 mpi-ranks, with    1 threads/rank, on    1 nodes
 distrk:  each k-point on   24 cores,    1 groups
 distr:  one band on    1 cores,   24 groups
 vasp.6.4.3 19Mar24 (build May 31 2024 16:31:43) complex                        
  
 POSCAR found type information on POSCAR B 
 POSCAR found :  1 types and      14 ions
 Reading from existing POTCAR
 scaLAPACK will be used
 Reading from existing POTCAR
 LDA part: xc-table for (Slater+PW92), standard interpolation
 POSCAR, INCAR and KPOINTS ok, starting setup
 FFT: planning ... GRIDC
 FFT: planning ... GRID_SOFT
 FFT: planning ... GRID
 WAVECAR not read
 entering main loop
       N       E                     dE             d eps       ncg     rms          rms(c)
DAV:   1     0.536906938308E+02    0.53691E+02   -0.17651E+04202752   0.724E+02
DAV:   2    -0.929144844924E+02   -0.14661E+03   -0.13801E+03283008   0.150E+02
DAV:   3    -0.975872874088E+02   -0.46728E+01   -0.46495E+01295032   0.240E+01
DAV:   4    -0.976144103569E+02   -0.27123E-01   -0.27121E-01251664   0.209E+00
DAV:   5    -0.976147213554E+02   -0.31100E-03   -0.31099E-03293928   0.216E-01    0.123E+01
DAV:   6    -0.922021459072E+02    0.54126E+01   -0.39605E+00294000   0.658E+00    0.678E+00
DAV:   7    -0.905521750920E+02    0.16500E+01   -0.31930E+00302712   0.583E+00    0.173E+00
