<?xml version="1.0" encoding="ISO-8859-1"?>
<modeling>
 <generator>
  <i name="program" type="string">vasp </i>
  <i name="version" type="string">6.4.3  </i>
  <i name="subversion" type="string">19Mar24 (build May 31 2024 16:31:43) complex                          parallel </i>
  <i name="platform" type="string">LinuxIFC </i>
  <i name="date" type="string">2024 10 29 </i>
  <i name="time" type="string">15:51:20 </i>
 </generator>
 <incar>
  <i type="string" name="SYSTEM">Kpoints</i>
  <i type="int" name="ISTART">     0</i>
  <i type="string" name="PREC">Accurate</i>
  <i type="string" name="ALGO">Normal</i>
  <i type="int" name="ISPIN">     1</i>
  <i type="int" name="ICHARG">     2</i>
  <i type="int" name="NELM">   100</i>
  <i type="int" name="IBRION">    -1</i>
  <i name="EDIFF">      0.00000100</i>
  <i name="EDIFFG">     -0.00100000</i>
  <i type="int" name="NSW">     0</i>
  <i type="int" name="ISIF">     2</i>
  <i name="ENCUT">    450.00000000</i>
  <i name="POTIM">      0.50000000</i>
  <i type="int" name="ISMEAR">     0</i>
  <i name="SIGMA">      0.05000000</i>
  <i type="logical" name="LWAVE"> F  </i>
  <i type="logical" name="LCHARG"> F  </i>
  <i type="string" name="GGA">PE</i>
 </incar>
 <primitive_cell>
  <structure name="primitive_cell" >
   <crystal>
    <varray name="basis" >
     <v>       5.69700000       0.00000000       0.00000000 </v>
     <v>       0.00000000       4.04790000       0.00000000 </v>
     <v>       0.00000000       0.00000000       6.20420000 </v>
    </varray>
    <i name="volume">    143.07435078 </i>
    <varray name="rec_basis" >
     <v>       0.17553098       0.00000000       0.00000000 </v>
     <v>       0.00000000       0.24704168       0.00000000 </v>
     <v>       0.00000000       0.00000000       0.16118114 </v>
    </varray>
   </crystal>
   <varray name="positions" >
    <v>       0.52123000       0.50000000       0.63796000 </v>
    <v>       0.47877000       0.50000000       0.36204000 </v>
    <v>       0.97877000       0.50000000       0.63796000 </v>
    <v>       0.02123000       0.50000000       0.36204000 </v>
    <v>       0.60090000       0.50000000       0.89991000 </v>
    <v>       0.39910000       0.50000000       0.10009000 </v>
    <v>       0.89910000       0.50000000       0.89991000 </v>
    <v>       0.10090000       0.50000000       0.10009000 </v>
    <v>       0.75000000       0.79171000       0.72973000 </v>
    <v>       0.25000000       0.20829000       0.27027000 </v>
    <v>       0.75000000       0.20829000       0.72973000 </v>
    <v>       0.25000000       0.79171000       0.27027000 </v>
    <v>       0.25000000       0.50000000       0.52367000 </v>
    <v>       0.75000000       0.50000000       0.47633000 </v>
   </varray>
  </structure>
  <varray name="primitive_index" >
   <v type="int" >        1 </v>
   <v type="int" >        2 </v>
   <v type="int" >        3 </v>
   <v type="int" >        4 </v>
   <v type="int" >        5 </v>
   <v type="int" >        6 </v>
   <v type="int" >        7 </v>
   <v type="int" >        8 </v>
   <v type="int" >        9 </v>
   <v type="int" >       10 </v>
   <v type="int" >       11 </v>
   <v type="int" >       12 </v>
   <v type="int" >       13 </v>
   <v type="int" >       14 </v>
  </varray>
 </primitive_cell>
 <kpoints>
  <generation param="Monkhorst-Pack">
   <v type="int" name="divisions">      23       32       21 </v>
   <v name="usershift">      0.00000000       0.00000000       0.00000000 </v>
   <v name="genvec1">      0.04347826       0.00000000       0.00000000 </v>
   <v name="genvec2">      0.00000000       0.03125000       0.00000000 </v>
   <v name="genvec3">      0.00000000       0.00000000       0.04761905 </v>
   <v name="shift">      0.00000000       0.50000000       0.00000000 </v>
  </generation>
  <varray name="kpointlist" >
   <v>       0.00000000       0.01562500       0.00000000 </v>
   <v>       0.04347826       0.01562500       0.00000000 </v>
   <v>       0.08695652       0.01562500       0.00000000 </v>
   <v>       0.13043478       0.01562500       0.00000000 </v>
   <v>       0.17391304       0.01562500       0.00000000 </v>
   <v>       0.21739130       0.01562500       0.00000000 </v>
   <v>       0.26086957       0.01562500       0.00000000 </v>
   <v>       0.30434783       0.01562500       0.00000000 </v>
   <v>       0.34782609       0.01562500       0.00000000 </v>
   <v>       0.39130435       0.01562500       0.00000000 </v>
   <v>       0.43478261       0.01562500       0.00000000 </v>
   <v>       0.47826087       0.01562500       0.00000000 </v>
   <v>       0.00000000       0.04687500       0.00000000 </v>
   <v>       0.04347826       0.04687500       0.00000000 </v>
   <v>       0.08695652       0.04687500       0.00000000 </v>
   <v>       0.13043478       0.04687500       0.00000000 </v>
   <v>       0.17391304       0.04687500       0.00000000 </v>
   <v>       0.21739130       0.04687500       0.00000000 </v>
   <v>       0.26086957       0.04687500       0.00000000 </v>
   <v>       0.30434783       0.04687500       0.00000000 </v>
   <v>       0.34782609       0.04687500       0.00000000 </v>
   <v>       0.39130435       0.04687500       0.00000000 </v>
   <v>       0.43478261       0.04687500       0.00000000 </v>
   <v>       0.47826087       0.04687500       0.00000000 </v>
   <v>       0.00000000       0.07812500       0.00000000 </v>
   <v>       0.04347826       0.07812500       0.00000000 </v>
   <v>       0.08695652       0.07812500       0.00000000 </v>
   <v>       0.13043478       0.07812500       0.00000000 </v>
   <v>       0.17391304       0.07812500       0.00000000 </v>
   <v>       0.21739130       0.07812500       0.00000000 </v>
   <v>       0.26086957       0.07812500       0.00000000 </v>
   <v>       0.30434783       0.07812500       0.00000000 </v>
   <v>       0.34782609       0.07812500       0.00000000 </v>
   <v>       0.39130435       0.07812500       0.00000000 </v>
   <v>       0.43478261       0.07812500       0.00000000 </v>
   <v>       0.47826087       0.07812500       0.00000000 </v>
   <v>       0.00000000       0.10937500       0.00000000 </v>
   <v>       0.04347826       0.10937500       0.00000000 </v>
   <v>       0.08695652       0.10937500       0.00000000 </v>
   <v>       0.13043478       0.10937500       0.00000000 </v>
   <v>       0.17391304       0.10937500       0.00000000 </v>
   <v>       0.21739130       0.10937500       0.00000000 </v>
   <v>       0.26086957       0.10937500       0.00000000 </v>
   <v>       0.30434783       0.10937500       0.00000000 </v>
   <v>       0.34782609       0.10937500       0.00000000 </v>
   <v>       0.39130435       0.10937500       0.00000000 </v>
   <v>       0.43478261       0.10937500       0.00000000 </v>
   <v>       0.47826087       0.10937500       0.00000000 </v>
   <v>       0.00000000       0.14062500       0.00000000 </v>
   <v>       0.04347826       0.14062500       0.00000000 </v>
   <v>       0.08695652       0.14062500       0.00000000 </v>
   <v>       0.13043478       0.14062500       0.00000000 </v>
   <v>       0.17391304       0.14062500       0.00000000 </v>
   <v>       0.21739130       0.14062500       0.00000000 </v>
   <v>       0.26086957       0.14062500       0.00000000 </v>
   <v>       0.30434783       0.14062500       0.00000000 </v>
   <v>       0.34782609       0.14062500       0.00000000 </v>
   <v>       0.39130435       0.14062500       0.00000000 </v>
   <v>       0.43478261       0.14062500       0.00000000 </v>
   <v>       0.47826087       0.14062500       0.00000000 </v>
   <v>       0.00000000       0.17187500       0.00000000 </v>
   <v>       0.04347826       0.17187500       0.00000000 </v>
   <v>       0.08695652       0.17187500       0.00000000 </v>
   <v>       0.13043478       0.17187500       0.00000000 </v>
   <v>       0.17391304       0.17187500       0.00000000 </v>
   <v>       0.21739130       0.17187500       0.00000000 </v>
   <v>       0.26086957       0.17187500       0.00000000 </v>
   <v>       0.30434783       0.17187500       0.00000000 </v>
   <v>       0.34782609       0.17187500       0.00000000 </v>
   <v>       0.39130435       0.17187500       0.00000000 </v>
   <v>       0.43478261       0.17187500       0.00000000 </v>
   <v>       0.47826087       0.17187500       0.00000000 </v>
   <v>       0.00000000       0.20312500       0.00000000 </v>
   <v>       0.04347826       0.20312500       0.00000000 </v>
   <v>       0.08695652       0.20312500       0.00000000 </v>
   <v>       0.13043478       0.20312500       0.00000000 </v>
   <v>       0.17391304       0.20312500       0.00000000 </v>
   <v>       0.21739130       0.20312500       0.00000000 </v>
   <v>       0.26086957       0.20312500       0.00000000 </v>
   <v>       0.30434783       0.20312500       0.00000000 </v>
   <v>       0.34782609       0.20312500       0.00000000 </v>
   <v>       0.39130435       0.20312500       0.00000000 </v>
   <v>       0.43478261       0.20312500       0.00000000 </v>
   <v>       0.47826087       0.20312500       0.00000000 </v>
   <v>       0.00000000       0.23437500       0.00000000 </v>
   <v>       0.04347826       0.23437500       0.00000000 </v>
   <v>       0.08695652       0.23437500       0.00000000 </v>
   <v>       0.13043478       0.23437500       0.00000000 </v>
   <v>       0.17391304       0.23437500       0.00000000 </v>
   <v>       0.21739130       0.23437500       0.00000000 </v>
   <v>       0.26086957       0.23437500       0.00000000 </v>
   <v>       0.30434783       0.23437500       0.00000000 </v>
   <v>       0.34782609       0.23437500       0.00000000 </v>
   <v>       0.39130435       0.23437500       0.00000000 </v>
   <v>       0.43478261       0.23437500       0.00000000 </v>
   <v>       0.47826087       0.23437500       0.00000000 </v>
   <v>       0.00000000       0.26562500       0.00000000 </v>
   <v>       0.04347826       0.26562500       0.00000000 </v>
   <v>       0.08695652       0.26562500       0.00000000 </v>
   <v>       0.13043478       0.26562500       0.00000000 </v>
   <v>       0.17391304       0.26562500       0.00000000 </v>
   <v>       0.21739130       0.26562500       0.00000000 </v>
   <v>       0.26086957       0.26562500       0.00000000 </v>
   <v>       0.30434783       0.26562500       0.00000000 </v>
   <v>       0.34782609       0.26562500       0.00000000 </v>
   <v>       0.39130435       0.26562500       0.00000000 </v>
   <v>       0.43478261       0.26562500       0.00000000 </v>
   <v>       0.47826087       0.26562500       0.00000000 </v>
   <v>       0.00000000       0.29687500       0.00000000 </v>
   <v>       0.04347826       0.29687500       0.00000000 </v>
   <v>       0.08695652       0.29687500       0.00000000 </v>
   <v>       0.13043478       0.29687500       0.00000000 </v>
   <v>       0.17391304       0.29687500       0.00000000 </v>
   <v>       0.21739130       0.29687500       0.00000000 </v>
   <v>       0.26086957       0.29687500       0.00000000 </v>
   <v>       0.30434783       0.29687500       0.00000000 </v>
   <v>       0.34782609       0.29687500       0.00000000 </v>
   <v>       0.39130435       0.29687500       0.00000000 </v>
   <v>       0.43478261       0.29687500       0.00000000 </v>
   <v>       0.47826087       0.29687500       0.00000000 </v>
   <v>       0.00000000       0.32812500       0.00000000 </v>
   <v>       0.04347826       0.32812500       0.00000000 </v>
   <v>       0.08695652       0.32812500       0.00000000 </v>
   <v>       0.13043478       0.32812500       0.00000000 </v>
   <v>       0.17391304       0.32812500       0.00000000 </v>
   <v>       0.21739130       0.32812500       0.00000000 </v>
   <v>       0.26086957       0.32812500       0.00000000 </v>
   <v>       0.30434783       0.32812500       0.00000000 </v>
   <v>       0.34782609       0.32812500       0.00000000 </v>
   <v>       0.39130435       0.32812500       0.00000000 </v>
   <v>       0.43478261       0.32812500       0.00000000 </v>
   <v>       0.47826087       0.32812500       0.00000000 </v>
   <v>       0.00000000       0.35937500       0.00000000 </v>
   <v>       0.04347826       0.35937500       0.00000000 </v>
   <v>       0.08695652       0.35937500       0.00000000 </v>
   <v>       0.13043478       0.35937500       0.00000000 </v>
   <v>       0.17391304       0.35937500       0.00000000 </v>
   <v>       0.21739130       0.35937500       0.00000000 </v>
   <v>       0.26086957       0.35937500       0.00000000 </v>
   <v>       0.30434783       0.35937500       0.00000000 </v>
   <v>       0.34782609       0.35937500       0.00000000 </v>
   <v>       0.39130435       0.35937500       0.00000000 </v>
   <v>       0.43478261       0.35937500       0.00000000 </v>
   <v>       0.47826087       0.35937500       0.00000000 </v>
   <v>       0.00000000       0.39062500       0.00000000 </v>
   <v>       0.04347826       0.39062500       0.00000000 </v>
   <v>       0.08695652       0.39062500       0.00000000 </v>
   <v>       0.13043478       0.39062500       0.00000000 </v>
   <v>       0.17391304       0.39062500       0.00000000 </v>
   <v>       0.21739130       0.39062500       0.00000000 </v>
   <v>       0.26086957       0.39062500       0.00000000 </v>
   <v>       0.30434783       0.39062500       0.00000000 </v>
   <v>       0.34782609       0.39062500       0.00000000 </v>
   <v>       0.39130435       0.39062500       0.00000000 </v>
   <v>       0.43478261       0.39062500       0.00000000 </v>
   <v>       0.47826087       0.39062500       0.00000000 </v>
   <v>       0.00000000       0.42187500       0.00000000 </v>
   <v>       0.04347826       0.42187500       0.00000000 </v>
   <v>       0.08695652       0.42187500       0.00000000 </v>
   <v>       0.13043478       0.42187500       0.00000000 </v>
   <v>       0.17391304       0.42187500       0.00000000 </v>
   <v>       0.21739130       0.42187500       0.00000000 </v>
   <v>       0.26086957       0.42187500       0.00000000 </v>
   <v>       0.30434783       0.42187500       0.00000000 </v>
   <v>       0.34782609       0.42187500       0.00000000 </v>
   <v>       0.39130435       0.42187500       0.00000000 </v>
   <v>       0.43478261       0.42187500       0.00000000 </v>
   <v>       0.47826087       0.42187500       0.00000000 </v>
   <v>       0.00000000       0.45312500       0.00000000 </v>
   <v>       0.04347826       0.45312500       0.00000000 </v>
   <v>       0.08695652       0.45312500       0.00000000 </v>
   <v>       0.13043478       0.45312500       0.00000000 </v>
   <v>       0.17391304       0.45312500       0.00000000 </v>
   <v>       0.21739130       0.45312500       0.00000000 </v>
   <v>       0.26086957       0.45312500       0.00000000 </v>
   <v>       0.30434783       0.45312500       0.00000000 </v>
   <v>       0.34782609       0.45312500       0.00000000 </v>
   <v>       0.39130435       0.45312500       0.00000000 </v>
   <v>       0.43478261       0.45312500       0.00000000 </v>
   <v>       0.47826087       0.45312500       0.00000000 </v>
   <v>       0.00000000       0.48437500       0.00000000 </v>
   <v>       0.04347826       0.48437500       0.00000000 </v>
   <v>       0.08695652       0.48437500       0.00000000 </v>
   <v>       0.13043478       0.48437500       0.00000000 </v>
   <v>       0.17391304       0.48437500       0.00000000 </v>
   <v>       0.21739130       0.48437500       0.00000000 </v>
   <v>       0.26086957       0.48437500       0.00000000 </v>
   <v>       0.30434783       0.48437500       0.00000000 </v>
   <v>       0.34782609       0.48437500       0.00000000 </v>
   <v>       0.39130435       0.48437500       0.00000000 </v>
   <v>       0.43478261       0.48437500       0.00000000 </v>
   <v>       0.47826087       0.48437500       0.00000000 </v>
   <v>       0.00000000       0.01562500       0.04761905 </v>
   <v>       0.04347826       0.01562500       0.04761905 </v>
   <v>       0.08695652       0.01562500       0.04761905 </v>
   <v>       0.13043478       0.01562500       0.04761905 </v>
   <v>       0.17391304       0.01562500       0.04761905 </v>
   <v>       0.21739130       0.01562500       0.04761905 </v>
   <v>       0.26086957       0.01562500       0.04761905 </v>
   <v>       0.30434783       0.01562500       0.04761905 </v>
   <v>       0.34782609       0.01562500       0.04761905 </v>
   <v>       0.39130435       0.01562500       0.04761905 </v>
   <v>       0.43478261       0.01562500       0.04761905 </v>
   <v>       0.47826087       0.01562500       0.04761905 </v>
   <v>       0.00000000       0.04687500       0.04761905 </v>
   <v>       0.04347826       0.04687500       0.04761905 </v>
   <v>       0.08695652       0.04687500       0.04761905 </v>
   <v>       0.13043478       0.04687500       0.04761905 </v>
   <v>       0.17391304       0.04687500       0.04761905 </v>
   <v>       0.21739130       0.04687500       0.04761905 </v>
   <v>       0.26086957       0.04687500       0.04761905 </v>
   <v>       0.30434783       0.04687500       0.04761905 </v>
   <v>       0.34782609       0.04687500       0.04761905 </v>
   <v>       0.39130435       0.04687500       0.04761905 </v>
   <v>       0.43478261       0.04687500       0.04761905 </v>
   <v>       0.47826087       0.04687500       0.04761905 </v>
   <v>       0.00000000       0.07812500       0.04761905 </v>
   <v>       0.04347826       0.07812500       0.04761905 </v>
   <v>       0.08695652       0.07812500       0.04761905 </v>
   <v>       0.13043478       0.07812500       0.04761905 </v>
   <v>       0.17391304       0.07812500       0.04761905 </v>
   <v>       0.21739130       0.07812500       0.04761905 </v>
   <v>       0.26086957       0.07812500       0.04761905 </v>
   <v>       0.30434783       0.07812500       0.04761905 </v>
   <v>       0.34782609       0.07812500       0.04761905 </v>
   <v>       0.39130435       0.07812500       0.04761905 </v>
   <v>       0.43478261       0.07812500       0.04761905 </v>
   <v>       0.47826087       0.07812500       0.04761905 </v>
   <v>       0.00000000       0.10937500       0.04761905 </v>
   <v>       0.04347826       0.10937500       0.04761905 </v>
   <v>       0.08695652       0.10937500       0.04761905 </v>
   <v>       0.13043478       0.10937500       0.04761905 </v>
   <v>       0.17391304       0.10937500       0.04761905 </v>
   <v>       0.21739130       0.10937500       0.04761905 </v>
   <v>       0.26086957       0.10937500       0.04761905 </v>
   <v>       0.30434783       0.10937500       0.04761905 </v>
   <v>       0.34782609       0.10937500       0.04761905 </v>
   <v>       0.39130435       0.10937500       0.04761905 </v>
   <v>       0.43478261       0.10937500       0.04761905 </v>
   <v>       0.47826087       0.10937500       0.04761905 </v>
   <v>       0.00000000       0.14062500       0.04761905 </v>
   <v>       0.04347826       0.14062500       0.04761905 </v>
   <v>       0.08695652       0.14062500       0.04761905 </v>
   <v>       0.13043478       0.14062500       0.04761905 </v>
   <v>       0.17391304       0.14062500       0.04761905 </v>
   <v>       0.21739130       0.14062500       0.04761905 </v>
   <v>       0.26086957       0.14062500       0.04761905 </v>
   <v>       0.30434783       0.14062500       0.04761905 </v>
   <v>       0.34782609       0.14062500       0.04761905 </v>
   <v>       0.39130435       0.14062500       0.04761905 </v>
   <v>       0.43478261       0.14062500       0.04761905 </v>
   <v>       0.47826087       0.14062500       0.04761905 </v>
   <v>       0.00000000       0.17187500       0.04761905 </v>
   <v>       0.04347826       0.17187500       0.04761905 </v>
   <v>       0.08695652       0.17187500       0.04761905 </v>
   <v>       0.13043478       0.17187500       0.04761905 </v>
   <v>       0.17391304       0.17187500       0.04761905 </v>
   <v>       0.21739130       0.17187500       0.04761905 </v>
   <v>       0.26086957       0.17187500       0.04761905 </v>
   <v>       0.30434783       0.17187500       0.04761905 </v>
   <v>       0.34782609       0.17187500       0.04761905 </v>
   <v>       0.39130435       0.17187500       0.04761905 </v>
   <v>       0.43478261       0.17187500       0.04761905 </v>
   <v>       0.47826087       0.17187500       0.04761905 </v>
   <v>       0.00000000       0.20312500       0.04761905 </v>
   <v>       0.04347826       0.20312500       0.04761905 </v>
   <v>       0.08695652       0.20312500       0.04761905 </v>
   <v>       0.13043478       0.20312500       0.04761905 </v>
   <v>       0.17391304       0.20312500       0.04761905 </v>
   <v>       0.21739130       0.20312500       0.04761905 </v>
   <v>       0.26086957       0.20312500       0.04761905 </v>
   <v>       0.30434783       0.20312500       0.04761905 </v>
   <v>       0.34782609       0.20312500       0.04761905 </v>
   <v>       0.39130435       0.20312500       0.04761905 </v>
   <v>       0.43478261       0.20312500       0.04761905 </v>
   <v>       0.47826087       0.20312500       0.04761905 </v>
   <v>       0.00000000       0.23437500       0.04761905 </v>
   <v>       0.04347826       0.23437500       0.04761905 </v>
   <v>       0.08695652       0.23437500       0.04761905 </v>
   <v>       0.13043478       0.23437500       0.04761905 </v>
   <v>       0.17391304       0.23437500       0.04761905 </v>
   <v>       0.21739130       0.23437500       0.04761905 </v>
   <v>       0.26086957       0.23437500       0.04761905 </v>
   <v>       0.30434783       0.23437500       0.04761905 </v>
   <v>       0.34782609       0.23437500       0.04761905 </v>
   <v>       0.39130435       0.23437500       0.04761905 </v>
   <v>       0.43478261       0.23437500       0.04761905 </v>
   <v>       0.47826087       0.23437500       0.04761905 </v>
   <v>       0.00000000       0.26562500       0.04761905 </v>
   <v>       0.04347826       0.26562500       0.04761905 </v>
   <v>       0.08695652       0.26562500       0.04761905 </v>
   <v>       0.13043478       0.26562500       0.04761905 </v>
   <v>       0.17391304       0.26562500       0.04761905 </v>
   <v>       0.21739130       0.26562500       0.04761905 </v>
   <v>       0.26086957       0.26562500       0.04761905 </v>
   <v>       0.30434783       0.26562500       0.04761905 </v>
   <v>       0.34782609       0.26562500       0.04761905 </v>
   <v>       0.39130435       0.26562500       0.04761905 </v>
   <v>       0.43478261       0.26562500       0.04761905 </v>
   <v>       0.47826087       0.26562500       0.04761905 </v>
   <v>       0.00000000       0.29687500       0.04761905 </v>
   <v>       0.04347826       0.29687500       0.04761905 </v>
   <v>       0.08695652       0.29687500       0.04761905 </v>
   <v>       0.13043478       0.29687500       0.04761905 </v>
   <v>       0.17391304       0.29687500       0.04761905 </v>
   <v>       0.21739130       0.29687500       0.04761905 </v>
   <v>       0.26086957       0.29687500       0.04761905 </v>
   <v>       0.30434783       0.29687500       0.04761905 </v>
   <v>       0.34782609       0.29687500       0.04761905 </v>
   <v>       0.39130435       0.29687500       0.04761905 </v>
   <v>       0.43478261       0.29687500       0.04761905 </v>
   <v>       0.47826087       0.29687500       0.04761905 </v>
   <v>       0.00000000       0.32812500       0.04761905 </v>
   <v>       0.04347826       0.32812500       0.04761905 </v>
   <v>       0.08695652       0.32812500       0.04761905 </v>
   <v>       0.13043478       0.32812500       0.04761905 </v>
   <v>       0.17391304       0.32812500       0.04761905 </v>
   <v>       0.21739130       0.32812500       0.04761905 </v>
   <v>       0.26086957       0.32812500       0.04761905 </v>
   <v>       0.30434783       0.32812500       0.04761905 </v>
   <v>       0.34782609       0.32812500       0.04761905 </v>
   <v>       0.39130435       0.32812500       0.04761905 </v>
   <v>       0.43478261       0.32812500       0.04761905 </v>
   <v>       0.47826087       0.32812500       0.04761905 </v>
   <v>       0.00000000       0.35937500       0.04761905 </v>
   <v>       0.04347826       0.35937500       0.04761905 </v>
   <v>       0.08695652       0.35937500       0.04761905 </v>
   <v>       0.13043478       0.35937500       0.04761905 </v>
   <v>       0.17391304       0.35937500       0.04761905 </v>
   <v>       0.21739130       0.35937500       0.04761905 </v>
   <v>       0.26086957       0.35937500       0.04761905 </v>
   <v>       0.30434783       0.35937500       0.04761905 </v>
   <v>       0.34782609       0.35937500       0.04761905 </v>
   <v>       0.39130435       0.35937500       0.04761905 </v>
   <v>       0.43478261       0.35937500       0.04761905 </v>
   <v>       0.47826087       0.35937500       0.04761905 </v>
   <v>       0.00000000       0.39062500       0.04761905 </v>
   <v>       0.04347826       0.39062500       0.04761905 </v>
   <v>       0.08695652       0.39062500       0.04761905 </v>
   <v>       0.13043478       0.39062500       0.04761905 </v>
   <v>       0.17391304       0.39062500       0.04761905 </v>
   <v>       0.21739130       0.39062500       0.04761905 </v>
   <v>       0.26086957       0.39062500       0.04761905 </v>
   <v>       0.30434783       0.39062500       0.04761905 </v>
   <v>       0.34782609       0.39062500       0.04761905 </v>
   <v>       0.39130435       0.39062500       0.04761905 </v>
   <v>       0.43478261       0.39062500       0.04761905 </v>
   <v>       0.47826087       0.39062500       0.04761905 </v>
   <v>       0.00000000       0.42187500       0.04761905 </v>
   <v>       0.04347826       0.42187500       0.04761905 </v>
   <v>       0.08695652       0.42187500       0.04761905 </v>
   <v>       0.13043478       0.42187500       0.04761905 </v>
   <v>       0.17391304       0.42187500       0.04761905 </v>
   <v>       0.21739130       0.42187500       0.04761905 </v>
   <v>       0.26086957       0.42187500       0.04761905 </v>
   <v>       0.30434783       0.42187500       0.04761905 </v>
   <v>       0.34782609       0.42187500       0.04761905 </v>
   <v>       0.39130435       0.42187500       0.04761905 </v>
   <v>       0.43478261       0.42187500       0.04761905 </v>
   <v>       0.47826087       0.42187500       0.04761905 </v>
   <v>       0.00000000       0.45312500       0.04761905 </v>
   <v>       0.04347826       0.45312500       0.04761905 </v>
   <v>       0.08695652       0.45312500       0.04761905 </v>
   <v>       0.13043478       0.45312500       0.04761905 </v>
   <v>       0.17391304       0.45312500       0.04761905 </v>
   <v>       0.21739130       0.45312500       0.04761905 </v>
   <v>       0.26086957       0.45312500       0.04761905 </v>
   <v>       0.30434783       0.45312500       0.04761905 </v>
   <v>       0.34782609       0.45312500       0.04761905 </v>
   <v>       0.39130435       0.45312500       0.04761905 </v>
   <v>       0.43478261       0.45312500       0.04761905 </v>
   <v>       0.47826087       0.45312500       0.04761905 </v>
   <v>       0.00000000       0.48437500       0.04761905 </v>
   <v>       0.04347826       0.48437500       0.04761905 </v>
   <v>       0.08695652       0.48437500       0.04761905 </v>
   <v>       0.13043478       0.48437500       0.04761905 </v>
   <v>       0.17391304       0.48437500       0.04761905 </v>
   <v>       0.21739130       0.48437500       0.04761905 </v>
   <v>       0.26086957       0.48437500       0.04761905 </v>
   <v>       0.30434783       0.48437500       0.04761905 </v>
   <v>       0.34782609       0.48437500       0.04761905 </v>
   <v>       0.39130435       0.48437500       0.04761905 </v>
   <v>       0.43478261       0.48437500       0.04761905 </v>
   <v>       0.47826087       0.48437500       0.04761905 </v>
   <v>       0.00000000       0.01562500       0.09523810 </v>
   <v>       0.04347826       0.01562500       0.09523810 </v>
   <v>       0.08695652       0.01562500       0.09523810 </v>
   <v>       0.13043478       0.01562500       0.09523810 </v>
   <v>       0.17391304       0.01562500       0.09523810 </v>
   <v>       0.21739130       0.01562500       0.09523810 </v>
   <v>       0.26086957       0.01562500       0.09523810 </v>
   <v>       0.30434783       0.01562500       0.09523810 </v>
   <v>       0.34782609       0.01562500       0.09523810 </v>
   <v>       0.39130435       0.01562500       0.09523810 </v>
   <v>       0.43478261       0.01562500       0.09523810 </v>
   <v>       0.47826087       0.01562500       0.09523810 </v>
   <v>       0.00000000       0.04687500       0.09523810 </v>
   <v>       0.04347826       0.04687500       0.09523810 </v>
   <v>       0.08695652       0.04687500       0.09523810 </v>
   <v>       0.13043478       0.04687500       0.09523810 </v>
   <v>       0.17391304       0.04687500       0.09523810 </v>
   <v>       0.21739130       0.04687500       0.09523810 </v>
   <v>       0.26086957       0.04687500       0.09523810 </v>
   <v>       0.30434783       0.04687500       0.09523810 </v>
   <v>       0.34782609       0.04687500       0.09523810 </v>
   <v>       0.39130435       0.04687500       0.09523810 </v>
   <v>       0.43478261       0.04687500       0.09523810 </v>
   <v>       0.47826087       0.04687500       0.09523810 </v>
   <v>       0.00000000       0.07812500       0.09523810 </v>
   <v>       0.04347826       0.07812500       0.09523810 </v>
   <v>       0.08695652       0.07812500       0.09523810 </v>
   <v>       0.13043478       0.07812500       0.09523810 </v>
   <v>       0.17391304       0.07812500       0.09523810 </v>
   <v>       0.21739130       0.07812500       0.09523810 </v>
   <v>       0.26086957       0.07812500       0.09523810 </v>
   <v>       0.30434783       0.07812500       0.09523810 </v>
   <v>       0.34782609       0.07812500       0.09523810 </v>
   <v>       0.39130435       0.07812500       0.09523810 </v>
   <v>       0.43478261       0.07812500       0.09523810 </v>
   <v>       0.47826087       0.07812500       0.09523810 </v>
   <v>       0.00000000       0.10937500       0.09523810 </v>
   <v>       0.04347826       0.10937500       0.09523810 </v>
   <v>       0.08695652       0.10937500       0.09523810 </v>
   <v>       0.13043478       0.10937500       0.09523810 </v>
   <v>       0.17391304       0.10937500       0.09523810 </v>
   <v>       0.21739130       0.10937500       0.09523810 </v>
   <v>       0.26086957       0.10937500       0.09523810 </v>
   <v>       0.30434783       0.10937500       0.09523810 </v>
   <v>       0.34782609       0.10937500       0.09523810 </v>
   <v>       0.39130435       0.10937500       0.09523810 </v>
   <v>       0.43478261       0.10937500       0.09523810 </v>
   <v>       0.47826087       0.10937500       0.09523810 </v>
   <v>       0.00000000       0.14062500       0.09523810 </v>
   <v>       0.04347826       0.14062500       0.09523810 </v>
   <v>       0.08695652       0.14062500       0.09523810 </v>
   <v>       0.13043478       0.14062500       0.09523810 </v>
   <v>       0.17391304       0.14062500       0.09523810 </v>
   <v>       0.21739130       0.14062500       0.09523810 </v>
   <v>       0.26086957       0.14062500       0.09523810 </v>
   <v>       0.30434783       0.14062500       0.09523810 </v>
   <v>       0.34782609       0.14062500       0.09523810 </v>
   <v>       0.39130435       0.14062500       0.09523810 </v>
   <v>       0.43478261       0.14062500       0.09523810 </v>
   <v>       0.47826087       0.14062500       0.09523810 </v>
   <v>       0.00000000       0.17187500       0.09523810 </v>
   <v>       0.04347826       0.17187500       0.09523810 </v>
   <v>       0.08695652       0.17187500       0.09523810 </v>
   <v>       0.13043478       0.17187500       0.09523810 </v>
   <v>       0.17391304       0.17187500       0.09523810 </v>
   <v>       0.21739130       0.17187500       0.09523810 </v>
   <v>       0.26086957       0.17187500       0.09523810 </v>
   <v>       0.30434783       0.17187500       0.09523810 </v>
   <v>       0.34782609       0.17187500       0.09523810 </v>
   <v>       0.39130435       0.17187500       0.09523810 </v>
   <v>       0.43478261       0.17187500       0.09523810 </v>
   <v>       0.47826087       0.17187500       0.09523810 </v>
   <v>       0.00000000       0.20312500       0.09523810 </v>
   <v>       0.04347826       0.20312500       0.09523810 </v>
   <v>       0.08695652       0.20312500       0.09523810 </v>
   <v>       0.13043478       0.20312500       0.09523810 </v>
   <v>       0.17391304       0.20312500       0.09523810 </v>
   <v>       0.21739130       0.20312500       0.09523810 </v>
   <v>       0.26086957       0.20312500       0.09523810 </v>
   <v>       0.30434783       0.20312500       0.09523810 </v>
   <v>       0.34782609       0.20312500       0.09523810 </v>
   <v>       0.39130435       0.20312500       0.09523810 </v>
   <v>       0.43478261       0.20312500       0.09523810 </v>
   <v>       0.47826087       0.20312500       0.09523810 </v>
   <v>       0.00000000       0.23437500       0.09523810 </v>
   <v>       0.04347826       0.23437500       0.09523810 </v>
   <v>       0.08695652       0.23437500       0.09523810 </v>
   <v>       0.13043478       0.23437500       0.09523810 </v>
   <v>       0.17391304       0.23437500       0.09523810 </v>
   <v>       0.21739130       0.23437500       0.09523810 </v>
   <v>       0.26086957       0.23437500       0.09523810 </v>
   <v>       0.30434783       0.23437500       0.09523810 </v>
   <v>       0.34782609       0.23437500       0.09523810 </v>
   <v>       0.39130435       0.23437500       0.09523810 </v>
   <v>       0.43478261       0.23437500       0.09523810 </v>
   <v>       0.47826087       0.23437500       0.09523810 </v>
   <v>       0.00000000       0.26562500       0.09523810 </v>
   <v>       0.04347826       0.26562500       0.09523810 </v>
   <v>       0.08695652       0.26562500       0.09523810 </v>
   <v>       0.13043478       0.26562500       0.09523810 </v>
   <v>       0.17391304       0.26562500       0.09523810 </v>
   <v>       0.21739130       0.26562500       0.09523810 </v>
   <v>       0.26086957       0.26562500       0.09523810 </v>
   <v>       0.30434783       0.26562500       0.09523810 </v>
   <v>       0.34782609       0.26562500       0.09523810 </v>
   <v>       0.39130435       0.26562500       0.09523810 </v>
   <v>       0.43478261       0.26562500       0.09523810 </v>
   <v>       0.47826087       0.26562500       0.09523810 </v>
   <v>       0.00000000       0.29687500       0.09523810 </v>
   <v>       0.04347826       0.29687500       0.09523810 </v>
   <v>       0.08695652       0.29687500       0.09523810 </v>
   <v>       0.13043478       0.29687500       0.09523810 </v>
   <v>       0.17391304       0.29687500       0.09523810 </v>
   <v>       0.21739130       0.29687500       0.09523810 </v>
   <v>       0.26086957       0.29687500       0.09523810 </v>
   <v>       0.30434783       0.29687500       0.09523810 </v>
   <v>       0.34782609       0.29687500       0.09523810 </v>
   <v>       0.39130435       0.29687500       0.09523810 </v>
   <v>       0.43478261       0.29687500       0.09523810 </v>
   <v>       0.47826087       0.29687500       0.09523810 </v>
   <v>       0.00000000       0.32812500       0.09523810 </v>
   <v>       0.04347826       0.32812500       0.09523810 </v>
   <v>       0.08695652       0.32812500       0.09523810 </v>
   <v>       0.13043478       0.32812500       0.09523810 </v>
   <v>       0.17391304       0.32812500       0.09523810 </v>
   <v>       0.21739130       0.32812500       0.09523810 </v>
   <v>       0.26086957       0.32812500       0.09523810 </v>
   <v>       0.30434783       0.32812500       0.09523810 </v>
   <v>       0.34782609       0.32812500       0.09523810 </v>
   <v>       0.39130435       0.32812500       0.09523810 </v>
   <v>       0.43478261       0.32812500       0.09523810 </v>
   <v>       0.47826087       0.32812500       0.09523810 </v>
   <v>       0.00000000       0.35937500       0.09523810 </v>
   <v>       0.04347826       0.35937500       0.09523810 </v>
   <v>       0.08695652       0.35937500       0.09523810 </v>
   <v>       0.13043478       0.35937500       0.09523810 </v>
   <v>       0.17391304       0.35937500       0.09523810 </v>
   <v>       0.21739130       0.35937500       0.09523810 </v>
   <v>       0.26086957       0.35937500       0.09523810 </v>
   <v>       0.30434783       0.35937500       0.09523810 </v>
   <v>       0.34782609       0.35937500       0.09523810 </v>
   <v>       0.39130435       0.35937500       0.09523810 </v>
   <v>       0.43478261       0.35937500       0.09523810 </v>
   <v>       0.47826087       0.35937500       0.09523810 </v>
   <v>       0.00000000       0.39062500       0.09523810 </v>
   <v>       0.04347826       0.39062500       0.09523810 </v>
   <v>       0.08695652       0.39062500       0.09523810 </v>
   <v>       0.13043478       0.39062500       0.09523810 </v>
   <v>       0.17391304       0.39062500       0.09523810 </v>
   <v>       0.21739130       0.39062500       0.09523810 </v>
   <v>       0.26086957       0.39062500       0.09523810 </v>
   <v>       0.30434783       0.39062500       0.09523810 </v>
   <v>       0.34782609       0.39062500       0.09523810 </v>
   <v>       0.39130435       0.39062500       0.09523810 </v>
   <v>       0.43478261       0.39062500       0.09523810 </v>
   <v>       0.47826087       0.39062500       0.09523810 </v>
   <v>       0.00000000       0.42187500       0.09523810 </v>
   <v>       0.04347826       0.42187500       0.09523810 </v>
   <v>       0.08695652       0.42187500       0.09523810 </v>
   <v>       0.13043478       0.42187500       0.09523810 </v>
   <v>       0.17391304       0.42187500       0.09523810 </v>
   <v>       0.21739130       0.42187500       0.09523810 </v>
   <v>       0.26086957       0.42187500       0.09523810 </v>
   <v>       0.30434783       0.42187500       0.09523810 </v>
   <v>       0.34782609       0.42187500       0.09523810 </v>
   <v>       0.39130435       0.42187500       0.09523810 </v>
   <v>       0.43478261       0.42187500       0.09523810 </v>
   <v>       0.47826087       0.42187500       0.09523810 </v>
   <v>       0.00000000       0.45312500       0.09523810 </v>
   <v>       0.04347826       0.45312500       0.09523810 </v>
   <v>       0.08695652       0.45312500       0.09523810 </v>
   <v>       0.13043478       0.45312500       0.09523810 </v>
   <v>       0.17391304       0.45312500       0.09523810 </v>
   <v>       0.21739130       0.45312500       0.09523810 </v>
   <v>       0.26086957       0.45312500       0.09523810 </v>
   <v>       0.30434783       0.45312500       0.09523810 </v>
   <v>       0.34782609       0.45312500       0.09523810 </v>
   <v>       0.39130435       0.45312500       0.09523810 </v>
   <v>       0.43478261       0.45312500       0.09523810 </v>
   <v>       0.47826087       0.45312500       0.09523810 </v>
   <v>       0.00000000       0.48437500       0.09523810 </v>
   <v>       0.04347826       0.48437500       0.09523810 </v>
   <v>       0.08695652       0.48437500       0.09523810 </v>
   <v>       0.13043478       0.48437500       0.09523810 </v>
   <v>       0.17391304       0.48437500       0.09523810 </v>
   <v>       0.21739130       0.48437500       0.09523810 </v>
   <v>       0.26086957       0.48437500       0.09523810 </v>
   <v>       0.30434783       0.48437500       0.09523810 </v>
   <v>       0.34782609       0.48437500       0.09523810 </v>
   <v>       0.39130435       0.48437500       0.09523810 </v>
   <v>       0.43478261       0.48437500       0.09523810 </v>
   <v>       0.47826087       0.48437500       0.09523810 </v>
   <v>       0.00000000       0.01562500       0.14285714 </v>
   <v>       0.04347826       0.01562500       0.14285714 </v>
   <v>       0.08695652       0.01562500       0.14285714 </v>
   <v>       0.13043478       0.01562500       0.14285714 </v>
   <v>       0.17391304       0.01562500       0.14285714 </v>
   <v>       0.21739130       0.01562500       0.14285714 </v>
   <v>       0.26086957       0.01562500       0.14285714 </v>
   <v>       0.30434783       0.01562500       0.14285714 </v>
   <v>       0.34782609       0.01562500       0.14285714 </v>
   <v>       0.39130435       0.01562500       0.14285714 </v>
   <v>       0.43478261       0.01562500       0.14285714 </v>
   <v>       0.47826087       0.01562500       0.14285714 </v>
   <v>       0.00000000       0.04687500       0.14285714 </v>
   <v>       0.04347826       0.04687500       0.14285714 </v>
   <v>       0.08695652       0.04687500       0.14285714 </v>
   <v>       0.13043478       0.04687500       0.14285714 </v>
   <v>       0.17391304       0.04687500       0.14285714 </v>
   <v>       0.21739130       0.04687500       0.14285714 </v>
   <v>       0.26086957       0.04687500       0.14285714 </v>
   <v>       0.30434783       0.04687500       0.14285714 </v>
   <v>       0.34782609       0.04687500       0.14285714 </v>
   <v>       0.39130435       0.04687500       0.14285714 </v>
   <v>       0.43478261       0.04687500       0.14285714 </v>
   <v>       0.47826087       0.04687500       0.14285714 </v>
   <v>       0.00000000       0.07812500       0.14285714 </v>
   <v>       0.04347826       0.07812500       0.14285714 </v>
   <v>       0.08695652       0.07812500       0.14285714 </v>
   <v>       0.13043478       0.07812500       0.14285714 </v>
   <v>       0.17391304       0.07812500       0.14285714 </v>
   <v>       0.21739130       0.07812500       0.14285714 </v>
   <v>       0.26086957       0.07812500       0.14285714 </v>
   <v>       0.30434783       0.07812500       0.14285714 </v>
   <v>       0.34782609       0.07812500       0.14285714 </v>
   <v>       0.39130435       0.07812500       0.14285714 </v>
   <v>       0.43478261       0.07812500       0.14285714 </v>
   <v>       0.47826087       0.07812500       0.14285714 </v>
   <v>       0.00000000       0.10937500       0.14285714 </v>
   <v>       0.04347826       0.10937500       0.14285714 </v>
   <v>       0.08695652       0.10937500       0.14285714 </v>
   <v>       0.13043478       0.10937500       0.14285714 </v>
   <v>       0.17391304       0.10937500       0.14285714 </v>
   <v>       0.21739130       0.10937500       0.14285714 </v>
   <v>       0.26086957       0.10937500       0.14285714 </v>
   <v>       0.30434783       0.10937500       0.14285714 </v>
   <v>       0.34782609       0.10937500       0.14285714 </v>
   <v>       0.39130435       0.10937500       0.14285714 </v>
   <v>       0.43478261       0.10937500       0.14285714 </v>
   <v>       0.47826087       0.10937500       0.14285714 </v>
   <v>       0.00000000       0.14062500       0.14285714 </v>
   <v>       0.04347826       0.14062500       0.14285714 </v>
   <v>       0.08695652       0.14062500       0.14285714 </v>
   <v>       0.13043478       0.14062500       0.14285714 </v>
   <v>       0.17391304       0.14062500       0.14285714 </v>
   <v>       0.21739130       0.14062500       0.14285714 </v>
   <v>       0.26086957       0.14062500       0.14285714 </v>
   <v>       0.30434783       0.14062500       0.14285714 </v>
   <v>       0.34782609       0.14062500       0.14285714 </v>
   <v>       0.39130435       0.14062500       0.14285714 </v>
   <v>       0.43478261       0.14062500       0.14285714 </v>
   <v>       0.47826087       0.14062500       0.14285714 </v>
   <v>       0.00000000       0.17187500       0.14285714 </v>
   <v>       0.04347826       0.17187500       0.14285714 </v>
   <v>       0.08695652       0.17187500       0.14285714 </v>
   <v>       0.13043478       0.17187500       0.14285714 </v>
   <v>       0.17391304       0.17187500       0.14285714 </v>
   <v>       0.21739130       0.17187500       0.14285714 </v>
   <v>       0.26086957       0.17187500       0.14285714 </v>
   <v>       0.30434783       0.17187500       0.14285714 </v>
   <v>       0.34782609       0.17187500       0.14285714 </v>
   <v>       0.39130435       0.17187500       0.14285714 </v>
   <v>       0.43478261       0.17187500       0.14285714 </v>
   <v>       0.47826087       0.17187500       0.14285714 </v>
   <v>       0.00000000       0.20312500       0.14285714 </v>
   <v>       0.04347826       0.20312500       0.14285714 </v>
   <v>       0.08695652       0.20312500       0.14285714 </v>
   <v>       0.13043478       0.20312500       0.14285714 </v>
   <v>       0.17391304       0.20312500       0.14285714 </v>
   <v>       0.21739130       0.20312500       0.14285714 </v>
   <v>       0.26086957       0.20312500       0.14285714 </v>
   <v>       0.30434783       0.20312500       0.14285714 </v>
   <v>       0.34782609       0.20312500       0.14285714 </v>
   <v>       0.39130435       0.20312500       0.14285714 </v>
   <v>       0.43478261       0.20312500       0.14285714 </v>
   <v>       0.47826087       0.20312500       0.14285714 </v>
   <v>       0.00000000       0.23437500       0.14285714 </v>
   <v>       0.04347826       0.23437500       0.14285714 </v>
   <v>       0.08695652       0.23437500       0.14285714 </v>
   <v>       0.13043478       0.23437500       0.14285714 </v>
   <v>       0.17391304       0.23437500       0.14285714 </v>
   <v>       0.21739130       0.23437500       0.14285714 </v>
   <v>       0.26086957       0.23437500       0.14285714 </v>
   <v>       0.30434783       0.23437500       0.14285714 </v>
   <v>       0.34782609       0.23437500       0.14285714 </v>
   <v>       0.39130435       0.23437500       0.14285714 </v>
   <v>       0.43478261       0.23437500       0.14285714 </v>
   <v>       0.47826087       0.23437500       0.14285714 </v>
   <v>       0.00000000       0.26562500       0.14285714 </v>
   <v>       0.04347826       0.26562500       0.14285714 </v>
   <v>       0.08695652       0.26562500       0.14285714 </v>
   <v>       0.13043478       0.26562500       0.14285714 </v>
   <v>       0.17391304       0.26562500       0.14285714 </v>
   <v>       0.21739130       0.26562500       0.14285714 </v>
   <v>       0.26086957       0.26562500       0.14285714 </v>
   <v>       0.30434783       0.26562500       0.14285714 </v>
   <v>       0.34782609       0.26562500       0.14285714 </v>
   <v>       0.39130435       0.26562500       0.14285714 </v>
   <v>       0.43478261       0.26562500       0.14285714 </v>
   <v>       0.47826087       0.26562500       0.14285714 </v>
   <v>       0.00000000       0.29687500       0.14285714 </v>
   <v>       0.04347826       0.29687500       0.14285714 </v>
   <v>       0.08695652       0.29687500       0.14285714 </v>
   <v>       0.13043478       0.29687500       0.14285714 </v>
   <v>       0.17391304       0.29687500       0.14285714 </v>
   <v>       0.21739130       0.29687500       0.14285714 </v>
   <v>       0.26086957       0.29687500       0.14285714 </v>
   <v>       0.30434783       0.29687500       0.14285714 </v>
   <v>       0.34782609       0.29687500       0.14285714 </v>
   <v>       0.39130435       0.29687500       0.14285714 </v>
   <v>       0.43478261       0.29687500       0.14285714 </v>
   <v>       0.47826087       0.29687500       0.14285714 </v>
   <v>       0.00000000       0.32812500       0.14285714 </v>
   <v>       0.04347826       0.32812500       0.14285714 </v>
   <v>       0.08695652       0.32812500       0.14285714 </v>
   <v>       0.13043478       0.32812500       0.14285714 </v>
   <v>       0.17391304       0.32812500       0.14285714 </v>
   <v>       0.21739130       0.32812500       0.14285714 </v>
   <v>       0.26086957       0.32812500       0.14285714 </v>
   <v>       0.30434783       0.32812500       0.14285714 </v>
   <v>       0.34782609       0.32812500       0.14285714 </v>
   <v>       0.39130435       0.32812500       0.14285714 </v>
   <v>       0.43478261       0.32812500       0.14285714 </v>
   <v>       0.47826087       0.32812500       0.14285714 </v>
   <v>       0.00000000       0.35937500       0.14285714 </v>
   <v>       0.04347826       0.35937500       0.14285714 </v>
   <v>       0.08695652       0.35937500       0.14285714 </v>
   <v>       0.13043478       0.35937500       0.14285714 </v>
   <v>       0.17391304       0.35937500       0.14285714 </v>
   <v>       0.21739130       0.35937500       0.14285714 </v>
   <v>       0.26086957       0.35937500       0.14285714 </v>
   <v>       0.30434783       0.35937500       0.14285714 </v>
   <v>       0.34782609       0.35937500       0.14285714 </v>
   <v>       0.39130435       0.35937500       0.14285714 </v>
   <v>       0.43478261       0.35937500       0.14285714 </v>
   <v>       0.47826087       0.35937500       0.14285714 </v>
   <v>       0.00000000       0.39062500       0.14285714 </v>
   <v>       0.04347826       0.39062500       0.14285714 </v>
   <v>       0.08695652       0.39062500       0.14285714 </v>
   <v>       0.13043478       0.39062500       0.14285714 </v>
   <v>       0.17391304       0.39062500       0.14285714 </v>
   <v>       0.21739130       0.39062500       0.14285714 </v>
   <v>       0.26086957       0.39062500       0.14285714 </v>
   <v>       0.30434783       0.39062500       0.14285714 </v>
   <v>       0.34782609       0.39062500       0.14285714 </v>
   <v>       0.39130435       0.39062500       0.14285714 </v>
   <v>       0.43478261       0.39062500       0.14285714 </v>
   <v>       0.47826087       0.39062500       0.14285714 </v>
   <v>       0.00000000       0.42187500       0.14285714 </v>
   <v>       0.04347826       0.42187500       0.14285714 </v>
   <v>       0.08695652       0.42187500       0.14285714 </v>
   <v>       0.13043478       0.42187500       0.14285714 </v>
   <v>       0.17391304       0.42187500       0.14285714 </v>
   <v>       0.21739130       0.42187500       0.14285714 </v>
   <v>       0.26086957       0.42187500       0.14285714 </v>
   <v>       0.30434783       0.42187500       0.14285714 </v>
   <v>       0.34782609       0.42187500       0.14285714 </v>
   <v>       0.39130435       0.42187500       0.14285714 </v>
   <v>       0.43478261       0.42187500       0.14285714 </v>
   <v>       0.47826087       0.42187500       0.14285714 </v>
   <v>       0.00000000       0.45312500       0.14285714 </v>
   <v>       0.04347826       0.45312500       0.14285714 </v>
   <v>       0.08695652       0.45312500       0.14285714 </v>
   <v>       0.13043478       0.45312500       0.14285714 </v>
   <v>       0.17391304       0.45312500       0.14285714 </v>
   <v>       0.21739130       0.45312500       0.14285714 </v>
   <v>       0.26086957       0.45312500       0.14285714 </v>
   <v>       0.30434783       0.45312500       0.14285714 </v>
   <v>       0.34782609       0.45312500       0.14285714 </v>
   <v>       0.39130435       0.45312500       0.14285714 </v>
   <v>       0.43478261       0.45312500       0.14285714 </v>
   <v>       0.47826087       0.45312500       0.14285714 </v>
   <v>       0.00000000       0.48437500       0.14285714 </v>
   <v>       0.04347826       0.48437500       0.14285714 </v>
   <v>       0.08695652       0.48437500       0.14285714 </v>
   <v>       0.13043478       0.48437500       0.14285714 </v>
   <v>       0.17391304       0.48437500       0.14285714 </v>
   <v>       0.21739130       0.48437500       0.14285714 </v>
   <v>       0.26086957       0.48437500       0.14285714 </v>
   <v>       0.30434783       0.48437500       0.14285714 </v>
   <v>       0.34782609       0.48437500       0.14285714 </v>
   <v>       0.39130435       0.48437500       0.14285714 </v>
   <v>       0.43478261       0.48437500       0.14285714 </v>
   <v>       0.47826087       0.48437500       0.14285714 </v>
   <v>       0.00000000       0.01562500       0.19047619 </v>
   <v>       0.04347826       0.01562500       0.19047619 </v>
   <v>       0.08695652       0.01562500       0.19047619 </v>
   <v>       0.13043478       0.01562500       0.19047619 </v>
   <v>       0.17391304       0.01562500       0.19047619 </v>
   <v>       0.21739130       0.01562500       0.19047619 </v>
   <v>       0.26086957       0.01562500       0.19047619 </v>
   <v>       0.30434783       0.01562500       0.19047619 </v>
   <v>       0.34782609       0.01562500       0.19047619 </v>
   <v>       0.39130435       0.01562500       0.19047619 </v>
   <v>       0.43478261       0.01562500       0.19047619 </v>
   <v>       0.47826087       0.01562500       0.19047619 </v>
   <v>       0.00000000       0.04687500       0.19047619 </v>
   <v>       0.04347826       0.04687500       0.19047619 </v>
   <v>       0.08695652       0.04687500       0.19047619 </v>
   <v>       0.13043478       0.04687500       0.19047619 </v>
   <v>       0.17391304       0.04687500       0.19047619 </v>
   <v>       0.21739130       0.04687500       0.19047619 </v>
   <v>       0.26086957       0.04687500       0.19047619 </v>
   <v>       0.30434783       0.04687500       0.19047619 </v>
   <v>       0.34782609       0.04687500       0.19047619 </v>
   <v>       0.39130435       0.04687500       0.19047619 </v>
   <v>       0.43478261       0.04687500       0.19047619 </v>
   <v>       0.47826087       0.04687500       0.19047619 </v>
   <v>       0.00000000       0.07812500       0.19047619 </v>
   <v>       0.04347826       0.07812500       0.19047619 </v>
   <v>       0.08695652       0.07812500       0.19047619 </v>
   <v>       0.13043478       0.07812500       0.19047619 </v>
   <v>       0.17391304       0.07812500       0.19047619 </v>
   <v>       0.21739130       0.07812500       0.19047619 </v>
   <v>       0.26086957       0.07812500       0.19047619 </v>
   <v>       0.30434783       0.07812500       0.19047619 </v>
   <v>       0.34782609       0.07812500       0.19047619 </v>
   <v>       0.39130435       0.07812500       0.19047619 </v>
   <v>       0.43478261       0.07812500       0.19047619 </v>
   <v>       0.47826087       0.07812500       0.19047619 </v>
   <v>       0.00000000       0.10937500       0.19047619 </v>
   <v>       0.04347826       0.10937500       0.19047619 </v>
   <v>       0.08695652       0.10937500       0.19047619 </v>
   <v>       0.13043478       0.10937500       0.19047619 </v>
   <v>       0.17391304       0.10937500       0.19047619 </v>
   <v>       0.21739130       0.10937500       0.19047619 </v>
   <v>       0.26086957       0.10937500       0.19047619 </v>
   <v>       0.30434783       0.10937500       0.19047619 </v>
   <v>       0.34782609       0.10937500       0.19047619 </v>
   <v>       0.39130435       0.10937500       0.19047619 </v>
   <v>       0.43478261       0.10937500       0.19047619 </v>
   <v>       0.47826087       0.10937500       0.19047619 </v>
   <v>       0.00000000       0.14062500       0.19047619 </v>
   <v>       0.04347826       0.14062500       0.19047619 </v>
   <v>       0.08695652       0.14062500       0.19047619 </v>
   <v>       0.13043478       0.14062500       0.19047619 </v>
   <v>       0.17391304       0.14062500       0.19047619 </v>
   <v>       0.21739130       0.14062500       0.19047619 </v>
   <v>       0.26086957       0.14062500       0.19047619 </v>
   <v>       0.30434783       0.14062500       0.19047619 </v>
   <v>       0.34782609       0.14062500       0.19047619 </v>
   <v>       0.39130435       0.14062500       0.19047619 </v>
   <v>       0.43478261       0.14062500       0.19047619 </v>
   <v>       0.47826087       0.14062500       0.19047619 </v>
   <v>       0.00000000       0.17187500       0.19047619 </v>
   <v>       0.04347826       0.17187500       0.19047619 </v>
   <v>       0.08695652       0.17187500       0.19047619 </v>
   <v>       0.13043478       0.17187500       0.19047619 </v>
   <v>       0.17391304       0.17187500       0.19047619 </v>
   <v>       0.21739130       0.17187500       0.19047619 </v>
   <v>       0.26086957       0.17187500       0.19047619 </v>
   <v>       0.30434783       0.17187500       0.19047619 </v>
   <v>       0.34782609       0.17187500       0.19047619 </v>
   <v>       0.39130435       0.17187500       0.19047619 </v>
   <v>       0.43478261       0.17187500       0.19047619 </v>
   <v>       0.47826087       0.17187500       0.19047619 </v>
   <v>       0.00000000       0.20312500       0.19047619 </v>
   <v>       0.04347826       0.20312500       0.19047619 </v>
   <v>       0.08695652       0.20312500       0.19047619 </v>
   <v>       0.13043478       0.20312500       0.19047619 </v>
   <v>       0.17391304       0.20312500       0.19047619 </v>
   <v>       0.21739130       0.20312500       0.19047619 </v>
   <v>       0.26086957       0.20312500       0.19047619 </v>
   <v>       0.30434783       0.20312500       0.19047619 </v>
   <v>       0.34782609       0.20312500       0.19047619 </v>
   <v>       0.39130435       0.20312500       0.19047619 </v>
   <v>       0.43478261       0.20312500       0.19047619 </v>
   <v>       0.47826087       0.20312500       0.19047619 </v>
   <v>       0.00000000       0.23437500       0.19047619 </v>
   <v>       0.04347826       0.23437500       0.19047619 </v>
   <v>       0.08695652       0.23437500       0.19047619 </v>
   <v>       0.13043478       0.23437500       0.19047619 </v>
   <v>       0.17391304       0.23437500       0.19047619 </v>
   <v>       0.21739130       0.23437500       0.19047619 </v>
   <v>       0.26086957       0.23437500       0.19047619 </v>
   <v>       0.30434783       0.23437500       0.19047619 </v>
   <v>       0.34782609       0.23437500       0.19047619 </v>
   <v>       0.39130435       0.23437500       0.19047619 </v>
   <v>       0.43478261       0.23437500       0.19047619 </v>
   <v>       0.47826087       0.23437500       0.19047619 </v>
   <v>       0.00000000       0.26562500       0.19047619 </v>
   <v>       0.04347826       0.26562500       0.19047619 </v>
   <v>       0.08695652       0.26562500       0.19047619 </v>
   <v>       0.13043478       0.26562500       0.19047619 </v>
   <v>       0.17391304       0.26562500       0.19047619 </v>
   <v>       0.21739130       0.26562500       0.19047619 </v>
   <v>       0.26086957       0.26562500       0.19047619 </v>
   <v>       0.30434783       0.26562500       0.19047619 </v>
   <v>       0.34782609       0.26562500       0.19047619 </v>
   <v>       0.39130435       0.26562500       0.19047619 </v>
   <v>       0.43478261       0.26562500       0.19047619 </v>
   <v>       0.47826087       0.26562500       0.19047619 </v>
   <v>       0.00000000       0.29687500       0.19047619 </v>
   <v>       0.04347826       0.29687500       0.19047619 </v>
   <v>       0.08695652       0.29687500       0.19047619 </v>
   <v>       0.13043478       0.29687500       0.19047619 </v>
   <v>       0.17391304       0.29687500       0.19047619 </v>
   <v>       0.21739130       0.29687500       0.19047619 </v>
   <v>       0.26086957       0.29687500       0.19047619 </v>
   <v>       0.30434783       0.29687500       0.19047619 </v>
   <v>       0.34782609       0.29687500       0.19047619 </v>
   <v>       0.39130435       0.29687500       0.19047619 </v>
   <v>       0.43478261       0.29687500       0.19047619 </v>
   <v>       0.47826087       0.29687500       0.19047619 </v>
   <v>       0.00000000       0.32812500       0.19047619 </v>
   <v>       0.04347826       0.32812500       0.19047619 </v>
   <v>       0.08695652       0.32812500       0.19047619 </v>
   <v>       0.13043478       0.32812500       0.19047619 </v>
   <v>       0.17391304       0.32812500       0.19047619 </v>
   <v>       0.21739130       0.32812500       0.19047619 </v>
   <v>       0.26086957       0.32812500       0.19047619 </v>
   <v>       0.30434783       0.32812500       0.19047619 </v>
   <v>       0.34782609       0.32812500       0.19047619 </v>
   <v>       0.39130435       0.32812500       0.19047619 </v>
   <v>       0.43478261       0.32812500       0.19047619 </v>
   <v>       0.47826087       0.32812500       0.19047619 </v>
   <v>       0.00000000       0.35937500       0.19047619 </v>
   <v>       0.04347826       0.35937500       0.19047619 </v>
   <v>       0.08695652       0.35937500       0.19047619 </v>
   <v>       0.13043478       0.35937500       0.19047619 </v>
   <v>       0.17391304       0.35937500       0.19047619 </v>
   <v>       0.21739130       0.35937500       0.19047619 </v>
   <v>       0.26086957       0.35937500       0.19047619 </v>
   <v>       0.30434783       0.35937500       0.19047619 </v>
   <v>       0.34782609       0.35937500       0.19047619 </v>
   <v>       0.39130435       0.35937500       0.19047619 </v>
   <v>       0.43478261       0.35937500       0.19047619 </v>
   <v>       0.47826087       0.35937500       0.19047619 </v>
   <v>       0.00000000       0.39062500       0.19047619 </v>
   <v>       0.04347826       0.39062500       0.19047619 </v>
   <v>       0.08695652       0.39062500       0.19047619 </v>
   <v>       0.13043478       0.39062500       0.19047619 </v>
   <v>       0.17391304       0.39062500       0.19047619 </v>
   <v>       0.21739130       0.39062500       0.19047619 </v>
   <v>       0.26086957       0.39062500       0.19047619 </v>
   <v>       0.30434783       0.39062500       0.19047619 </v>
   <v>       0.34782609       0.39062500       0.19047619 </v>
   <v>       0.39130435       0.39062500       0.19047619 </v>
   <v>       0.43478261       0.39062500       0.19047619 </v>
   <v>       0.47826087       0.39062500       0.19047619 </v>
   <v>       0.00000000       0.42187500       0.19047619 </v>
   <v>       0.04347826       0.42187500       0.19047619 </v>
   <v>       0.08695652       0.42187500       0.19047619 </v>
   <v>       0.13043478       0.42187500       0.19047619 </v>
   <v>       0.17391304       0.42187500       0.19047619 </v>
   <v>       0.21739130       0.42187500       0.19047619 </v>
   <v>       0.26086957       0.42187500       0.19047619 </v>
   <v>       0.30434783       0.42187500       0.19047619 </v>
   <v>       0.34782609       0.42187500       0.19047619 </v>
   <v>       0.39130435       0.42187500       0.19047619 </v>
   <v>       0.43478261       0.42187500       0.19047619 </v>
   <v>       0.47826087       0.42187500       0.19047619 </v>
   <v>       0.00000000       0.45312500       0.19047619 </v>
   <v>       0.04347826       0.45312500       0.19047619 </v>
   <v>       0.08695652       0.45312500       0.19047619 </v>
   <v>       0.13043478       0.45312500       0.19047619 </v>
   <v>       0.17391304       0.45312500       0.19047619 </v>
   <v>       0.21739130       0.45312500       0.19047619 </v>
   <v>       0.26086957       0.45312500       0.19047619 </v>
   <v>       0.30434783       0.45312500       0.19047619 </v>
   <v>       0.34782609       0.45312500       0.19047619 </v>
   <v>       0.39130435       0.45312500       0.19047619 </v>
   <v>       0.43478261       0.45312500       0.19047619 </v>
   <v>       0.47826087       0.45312500       0.19047619 </v>
   <v>       0.00000000       0.48437500       0.19047619 </v>
   <v>       0.04347826       0.48437500       0.19047619 </v>
   <v>       0.08695652       0.48437500       0.19047619 </v>
   <v>       0.13043478       0.48437500       0.19047619 </v>
   <v>       0.17391304       0.48437500       0.19047619 </v>
   <v>       0.21739130       0.48437500       0.19047619 </v>
   <v>       0.26086957       0.48437500       0.19047619 </v>
   <v>       0.30434783       0.48437500       0.19047619 </v>
   <v>       0.34782609       0.48437500       0.19047619 </v>
   <v>       0.39130435       0.48437500       0.19047619 </v>
   <v>       0.43478261       0.48437500       0.19047619 </v>
   <v>       0.47826087       0.48437500       0.19047619 </v>
   <v>       0.00000000       0.01562500       0.23809524 </v>
   <v>       0.04347826       0.01562500       0.23809524 </v>
   <v>       0.08695652       0.01562500       0.23809524 </v>
   <v>       0.13043478       0.01562500       0.23809524 </v>
   <v>       0.17391304       0.01562500       0.23809524 </v>
   <v>       0.21739130       0.01562500       0.23809524 </v>
   <v>       0.26086957       0.01562500       0.23809524 </v>
   <v>       0.30434783       0.01562500       0.23809524 </v>
   <v>       0.34782609       0.01562500       0.23809524 </v>
   <v>       0.39130435       0.01562500       0.23809524 </v>
   <v>       0.43478261       0.01562500       0.23809524 </v>
   <v>       0.47826087       0.01562500       0.23809524 </v>
   <v>       0.00000000       0.04687500       0.23809524 </v>
   <v>       0.04347826       0.04687500       0.23809524 </v>
   <v>       0.08695652       0.04687500       0.23809524 </v>
   <v>       0.13043478       0.04687500       0.23809524 </v>
   <v>       0.17391304       0.04687500       0.23809524 </v>
   <v>       0.21739130       0.04687500       0.23809524 </v>
   <v>       0.26086957       0.04687500       0.23809524 </v>
   <v>       0.30434783       0.04687500       0.23809524 </v>
   <v>       0.34782609       0.04687500       0.23809524 </v>
   <v>       0.39130435       0.04687500       0.23809524 </v>
   <v>       0.43478261       0.04687500       0.23809524 </v>
   <v>       0.47826087       0.04687500       0.23809524 </v>
   <v>       0.00000000       0.07812500       0.23809524 </v>
   <v>       0.04347826       0.07812500       0.23809524 </v>
   <v>       0.08695652       0.07812500       0.23809524 </v>
   <v>       0.13043478       0.07812500       0.23809524 </v>
   <v>       0.17391304       0.07812500       0.23809524 </v>
   <v>       0.21739130       0.07812500       0.23809524 </v>
   <v>       0.26086957       0.07812500       0.23809524 </v>
   <v>       0.30434783       0.07812500       0.23809524 </v>
   <v>       0.34782609       0.07812500       0.23809524 </v>
   <v>       0.39130435       0.07812500       0.23809524 </v>
   <v>       0.43478261       0.07812500       0.23809524 </v>
   <v>       0.47826087       0.07812500       0.23809524 </v>
   <v>       0.00000000       0.10937500       0.23809524 </v>
   <v>       0.04347826       0.10937500       0.23809524 </v>
   <v>       0.08695652       0.10937500       0.23809524 </v>
   <v>       0.13043478       0.10937500       0.23809524 </v>
   <v>       0.17391304       0.10937500       0.23809524 </v>
   <v>       0.21739130       0.10937500       0.23809524 </v>
   <v>       0.26086957       0.10937500       0.23809524 </v>
   <v>       0.30434783       0.10937500       0.23809524 </v>
   <v>       0.34782609       0.10937500       0.23809524 </v>
   <v>       0.39130435       0.10937500       0.23809524 </v>
   <v>       0.43478261       0.10937500       0.23809524 </v>
   <v>       0.47826087       0.10937500       0.23809524 </v>
   <v>       0.00000000       0.14062500       0.23809524 </v>
   <v>       0.04347826       0.14062500       0.23809524 </v>
   <v>       0.08695652       0.14062500       0.23809524 </v>
   <v>       0.13043478       0.14062500       0.23809524 </v>
   <v>       0.17391304       0.14062500       0.23809524 </v>
   <v>       0.21739130       0.14062500       0.23809524 </v>
   <v>       0.26086957       0.14062500       0.23809524 </v>
   <v>       0.30434783       0.14062500       0.23809524 </v>
   <v>       0.34782609       0.14062500       0.23809524 </v>
   <v>       0.39130435       0.14062500       0.23809524 </v>
   <v>       0.43478261       0.14062500       0.23809524 </v>
   <v>       0.47826087       0.14062500       0.23809524 </v>
   <v>       0.00000000       0.17187500       0.23809524 </v>
   <v>       0.04347826       0.17187500       0.23809524 </v>
   <v>       0.08695652       0.17187500       0.23809524 </v>
   <v>       0.13043478       0.17187500       0.23809524 </v>
   <v>       0.17391304       0.17187500       0.23809524 </v>
   <v>       0.21739130       0.17187500       0.23809524 </v>
   <v>       0.26086957       0.17187500       0.23809524 </v>
   <v>       0.30434783       0.17187500       0.23809524 </v>
   <v>       0.34782609       0.17187500       0.23809524 </v>
   <v>       0.39130435       0.17187500       0.23809524 </v>
   <v>       0.43478261       0.17187500       0.23809524 </v>
   <v>       0.47826087       0.17187500       0.23809524 </v>
   <v>       0.00000000       0.20312500       0.23809524 </v>
   <v>       0.04347826       0.20312500       0.23809524 </v>
   <v>       0.08695652       0.20312500       0.23809524 </v>
   <v>       0.13043478       0.20312500       0.23809524 </v>
   <v>       0.17391304       0.20312500       0.23809524 </v>
   <v>       0.21739130       0.20312500       0.23809524 </v>
   <v>       0.26086957       0.20312500       0.23809524 </v>
   <v>       0.30434783       0.20312500       0.23809524 </v>
   <v>       0.34782609       0.20312500       0.23809524 </v>
   <v>       0.39130435       0.20312500       0.23809524 </v>
   <v>       0.43478261       0.20312500       0.23809524 </v>
   <v>       0.47826087       0.20312500       0.23809524 </v>
   <v>       0.00000000       0.23437500       0.23809524 </v>
   <v>       0.04347826       0.23437500       0.23809524 </v>
   <v>       0.08695652       0.23437500       0.23809524 </v>
   <v>       0.13043478       0.23437500       0.23809524 </v>
   <v>       0.17391304       0.23437500       0.23809524 </v>
   <v>       0.21739130       0.23437500       0.23809524 </v>
   <v>       0.26086957       0.23437500       0.23809524 </v>
   <v>       0.30434783       0.23437500       0.23809524 </v>
   <v>       0.34782609       0.23437500       0.23809524 </v>
   <v>       0.39130435       0.23437500       0.23809524 </v>
   <v>       0.43478261       0.23437500       0.23809524 </v>
   <v>       0.47826087       0.23437500       0.23809524 </v>
   <v>       0.00000000       0.26562500       0.23809524 </v>
   <v>       0.04347826       0.26562500       0.23809524 </v>
   <v>       0.08695652       0.26562500       0.23809524 </v>
   <v>       0.13043478       0.26562500       0.23809524 </v>
   <v>       0.17391304       0.26562500       0.23809524 </v>
   <v>       0.21739130       0.26562500       0.23809524 </v>
   <v>       0.26086957       0.26562500       0.23809524 </v>
   <v>       0.30434783       0.26562500       0.23809524 </v>
   <v>       0.34782609       0.26562500       0.23809524 </v>
   <v>       0.39130435       0.26562500       0.23809524 </v>
   <v>       0.43478261       0.26562500       0.23809524 </v>
   <v>       0.47826087       0.26562500       0.23809524 </v>
   <v>       0.00000000       0.29687500       0.23809524 </v>
   <v>       0.04347826       0.29687500       0.23809524 </v>
   <v>       0.08695652       0.29687500       0.23809524 </v>
   <v>       0.13043478       0.29687500       0.23809524 </v>
   <v>       0.17391304       0.29687500       0.23809524 </v>
   <v>       0.21739130       0.29687500       0.23809524 </v>
   <v>       0.26086957       0.29687500       0.23809524 </v>
   <v>       0.30434783       0.29687500       0.23809524 </v>
   <v>       0.34782609       0.29687500       0.23809524 </v>
   <v>       0.39130435       0.29687500       0.23809524 </v>
   <v>       0.43478261       0.29687500       0.23809524 </v>
   <v>       0.47826087       0.29687500       0.23809524 </v>
   <v>       0.00000000       0.32812500       0.23809524 </v>
   <v>       0.04347826       0.32812500       0.23809524 </v>
   <v>       0.08695652       0.32812500       0.23809524 </v>
   <v>       0.13043478       0.32812500       0.23809524 </v>
   <v>       0.17391304       0.32812500       0.23809524 </v>
   <v>       0.21739130       0.32812500       0.23809524 </v>
   <v>       0.26086957       0.32812500       0.23809524 </v>
   <v>       0.30434783       0.32812500       0.23809524 </v>
   <v>       0.34782609       0.32812500       0.23809524 </v>
   <v>       0.39130435       0.32812500       0.23809524 </v>
   <v>       0.43478261       0.32812500       0.23809524 </v>
   <v>       0.47826087       0.32812500       0.23809524 </v>
   <v>       0.00000000       0.35937500       0.23809524 </v>
   <v>       0.04347826       0.35937500       0.23809524 </v>
   <v>       0.08695652       0.35937500       0.23809524 </v>
   <v>       0.13043478       0.35937500       0.23809524 </v>
   <v>       0.17391304       0.35937500       0.23809524 </v>
   <v>       0.21739130       0.35937500       0.23809524 </v>
   <v>       0.26086957       0.35937500       0.23809524 </v>
   <v>       0.30434783       0.35937500       0.23809524 </v>
   <v>       0.34782609       0.35937500       0.23809524 </v>
   <v>       0.39130435       0.35937500       0.23809524 </v>
   <v>       0.43478261       0.35937500       0.23809524 </v>
   <v>       0.47826087       0.35937500       0.23809524 </v>
   <v>       0.00000000       0.39062500       0.23809524 </v>
   <v>       0.04347826       0.39062500       0.23809524 </v>
   <v>       0.08695652       0.39062500       0.23809524 </v>
   <v>       0.13043478       0.39062500       0.23809524 </v>
   <v>       0.17391304       0.39062500       0.23809524 </v>
   <v>       0.21739130       0.39062500       0.23809524 </v>
   <v>       0.26086957       0.39062500       0.23809524 </v>
   <v>       0.30434783       0.39062500       0.23809524 </v>
   <v>       0.34782609       0.39062500       0.23809524 </v>
   <v>       0.39130435       0.39062500       0.23809524 </v>
   <v>       0.43478261       0.39062500       0.23809524 </v>
   <v>       0.47826087       0.39062500       0.23809524 </v>
   <v>       0.00000000       0.42187500       0.23809524 </v>
   <v>       0.04347826       0.42187500       0.23809524 </v>
   <v>       0.08695652       0.42187500       0.23809524 </v>
   <v>       0.13043478       0.42187500       0.23809524 </v>
   <v>       0.17391304       0.42187500       0.23809524 </v>
   <v>       0.21739130       0.42187500       0.23809524 </v>
   <v>       0.26086957       0.42187500       0.23809524 </v>
   <v>       0.30434783       0.42187500       0.23809524 </v>
   <v>       0.34782609       0.42187500       0.23809524 </v>
   <v>       0.39130435       0.42187500       0.23809524 </v>
   <v>       0.43478261       0.42187500       0.23809524 </v>
   <v>       0.47826087       0.42187500       0.23809524 </v>
   <v>       0.00000000       0.45312500       0.23809524 </v>
   <v>       0.04347826       0.45312500       0.23809524 </v>
   <v>       0.08695652       0.45312500       0.23809524 </v>
   <v>       0.13043478       0.45312500       0.23809524 </v>
   <v>       0.17391304       0.45312500       0.23809524 </v>
   <v>       0.21739130       0.45312500       0.23809524 </v>
   <v>       0.26086957       0.45312500       0.23809524 </v>
   <v>       0.30434783       0.45312500       0.23809524 </v>
   <v>       0.34782609       0.45312500       0.23809524 </v>
   <v>       0.39130435       0.45312500       0.23809524 </v>
   <v>       0.43478261       0.45312500       0.23809524 </v>
   <v>       0.47826087       0.45312500       0.23809524 </v>
   <v>       0.00000000       0.48437500       0.23809524 </v>
   <v>       0.04347826       0.48437500       0.23809524 </v>
   <v>       0.08695652       0.48437500       0.23809524 </v>
   <v>       0.13043478       0.48437500       0.23809524 </v>
   <v>       0.17391304       0.48437500       0.23809524 </v>
   <v>       0.21739130       0.48437500       0.23809524 </v>
   <v>       0.26086957       0.48437500       0.23809524 </v>
   <v>       0.30434783       0.48437500       0.23809524 </v>
   <v>       0.34782609       0.48437500       0.23809524 </v>
   <v>       0.39130435       0.48437500       0.23809524 </v>
   <v>       0.43478261       0.48437500       0.23809524 </v>
   <v>       0.47826087       0.48437500       0.23809524 </v>
   <v>       0.00000000       0.01562500       0.28571429 </v>
   <v>       0.04347826       0.01562500       0.28571429 </v>
   <v>       0.08695652       0.01562500       0.28571429 </v>
   <v>       0.13043478       0.01562500       0.28571429 </v>
   <v>       0.17391304       0.01562500       0.28571429 </v>
   <v>       0.21739130       0.01562500       0.28571429 </v>
   <v>       0.26086957       0.01562500       0.28571429 </v>
   <v>       0.30434783       0.01562500       0.28571429 </v>
   <v>       0.34782609       0.01562500       0.28571429 </v>
   <v>       0.39130435       0.01562500       0.28571429 </v>
   <v>       0.43478261       0.01562500       0.28571429 </v>
   <v>       0.47826087       0.01562500       0.28571429 </v>
   <v>       0.00000000       0.04687500       0.28571429 </v>
   <v>       0.04347826       0.04687500       0.28571429 </v>
   <v>       0.08695652       0.04687500       0.28571429 </v>
   <v>       0.13043478       0.04687500       0.28571429 </v>
   <v>       0.17391304       0.04687500       0.28571429 </v>
   <v>       0.21739130       0.04687500       0.28571429 </v>
   <v>       0.26086957       0.04687500       0.28571429 </v>
   <v>       0.30434783       0.04687500       0.28571429 </v>
   <v>       0.34782609       0.04687500       0.28571429 </v>
   <v>       0.39130435       0.04687500       0.28571429 </v>
   <v>       0.43478261       0.04687500       0.28571429 </v>
   <v>       0.47826087       0.04687500       0.28571429 </v>
   <v>       0.00000000       0.07812500       0.28571429 </v>
   <v>       0.04347826       0.07812500       0.28571429 </v>
   <v>       0.08695652       0.07812500       0.28571429 </v>
   <v>       0.13043478       0.07812500       0.28571429 </v>
   <v>       0.17391304       0.07812500       0.28571429 </v>
   <v>       0.21739130       0.07812500       0.28571429 </v>
   <v>       0.26086957       0.07812500       0.28571429 </v>
   <v>       0.30434783       0.07812500       0.28571429 </v>
   <v>       0.34782609       0.07812500       0.28571429 </v>
   <v>       0.39130435       0.07812500       0.28571429 </v>
   <v>       0.43478261       0.07812500       0.28571429 </v>
   <v>       0.47826087       0.07812500       0.28571429 </v>
   <v>       0.00000000       0.10937500       0.28571429 </v>
   <v>       0.04347826       0.10937500       0.28571429 </v>
   <v>       0.08695652       0.10937500       0.28571429 </v>
   <v>       0.13043478       0.10937500       0.28571429 </v>
   <v>       0.17391304       0.10937500       0.28571429 </v>
   <v>       0.21739130       0.10937500       0.28571429 </v>
   <v>       0.26086957       0.10937500       0.28571429 </v>
   <v>       0.30434783       0.10937500       0.28571429 </v>
   <v>       0.34782609       0.10937500       0.28571429 </v>
   <v>       0.39130435       0.10937500       0.28571429 </v>
   <v>       0.43478261       0.10937500       0.28571429 </v>
   <v>       0.47826087       0.10937500       0.28571429 </v>
   <v>       0.00000000       0.14062500       0.28571429 </v>
   <v>       0.04347826       0.14062500       0.28571429 </v>
   <v>       0.08695652       0.14062500       0.28571429 </v>
   <v>       0.13043478       0.14062500       0.28571429 </v>
   <v>       0.17391304       0.14062500       0.28571429 </v>
   <v>       0.21739130       0.14062500       0.28571429 </v>
   <v>       0.26086957       0.14062500       0.28571429 </v>
   <v>       0.30434783       0.14062500       0.28571429 </v>
[...]
       <r>   -2.2156    1.0000 </r>
       <r>   -2.1476    1.0000 </r>
       <r>   -2.0963    1.0000 </r>
       <r>   -1.7314    1.0000 </r>
       <r>   -0.3107    1.0000 </r>
       <r>    0.0015    1.0000 </r>
       <r>    0.3911    1.0000 </r>
       <r>    0.4540    1.0000 </r>
       <r>    0.5426    1.0000 </r>
       <r>    0.9603    1.0000 </r>
       <r>    1.6507    1.0000 </r>
       <r>    1.7627    0.9998 </r>
       <r>    5.8076    0.0000 </r>
       <r>    6.0639    0.0000 </r>
       <r>    6.7919    0.0000 </r>
       <r>    7.4122    0.0000 </r>
       <r>    7.5621    0.0000 </r>
       <r>    7.5945    0.0000 </r>
       <r>    9.3758    0.0000 </r>
       <r>    9.6914    0.0000 </r>
       <r>    9.7468    0.0000 </r>
       <r>    9.9418    0.0000 </r>
       <r>   10.4881    0.0000 </r>
       <r>   10.8632    0.0000 </r>
       <r>   11.1759    0.0000 </r>
       <r>   11.4653    0.0000 </r>
       <r>   11.5174    0.0000 </r>
       <r>   11.5946    0.0000 </r>
       <r>   13.0584    0.0000 </r>
       <r>   13.2073    0.0000 </r>
       <r>   13.6857    0.0000 </r>
       <r>   14.1607    0.0000 </r>
       <r>   14.2564    0.0000 </r>
       <r>   14.3526    0.0000 </r>
       <r>   14.5402    0.0000 </r>
       <r>   14.7878    0.0000 </r>
       <r>   14.9752    0.0000 </r>
       <r>   15.0838    0.0000 </r>
      </set>
      <set comment="kpoint 2112">
       <r>  -11.9783    1.0000 </r>
       <r>  -11.9180    1.0000 </r>
       <r>   -8.5240    1.0000 </r>
       <r>   -8.4751    1.0000 </r>
       <r>   -5.9083    1.0000 </r>
       <r>   -5.8633    1.0000 </r>
       <r>   -4.6586    1.0000 </r>
       <r>   -4.5465    1.0000 </r>
       <r>   -4.4025    1.0000 </r>
       <r>   -4.2259    1.0000 </r>
       <r>   -2.2127    1.0000 </r>
       <r>   -2.1897    1.0000 </r>
       <r>   -1.9805    1.0000 </r>
       <r>   -1.8579    1.0000 </r>
       <r>   -0.1066    1.0000 </r>
       <r>    0.0040    1.0000 </r>
       <r>    0.4451    1.0000 </r>
       <r>    0.4670    1.0000 </r>
       <r>    0.5882    1.0000 </r>
       <r>    0.7211    1.0000 </r>
       <r>    1.6720    1.0000 </r>
       <r>    1.7105    1.0000 </r>
       <r>    5.9129    0.0000 </r>
       <r>    5.9939    0.0000 </r>
       <r>    7.0052    0.0000 </r>
       <r>    7.2781    0.0000 </r>
       <r>    7.4598    0.0000 </r>
       <r>    7.5077    0.0000 </r>
       <r>    9.5245    0.0000 </r>
       <r>    9.6396    0.0000 </r>
       <r>    9.9023    0.0000 </r>
       <r>    9.9678    0.0000 </r>
       <r>   10.5005    0.0000 </r>
       <r>   10.6538    0.0000 </r>
       <r>   11.2973    0.0000 </r>
       <r>   11.4358    0.0000 </r>
       <r>   11.4837    0.0000 </r>
       <r>   11.5060    0.0000 </r>
       <r>   13.1374    0.0000 </r>
       <r>   13.1785    0.0000 </r>
       <r>   13.9370    0.0000 </r>
       <r>   14.1590    0.0000 </r>
       <r>   14.2679    0.0000 </r>
       <r>   14.3071    0.0000 </r>
       <r>   14.6979    0.0000 </r>
       <r>   14.7733    0.0000 </r>
       <r>   14.8178    0.0000 </r>
       <r>   14.9330    0.0000 </r>
      </set>
     </set>
    </set>
   </array>
  </eigenvalues>
  <separator name="orbital magnetization" >
   <v name="MAGDIPOLOUT">      0.00000000      0.00000000      0.00000000</v>
  </separator>
  <dos>
   <i name="efermi">      1.88628188 </i>
   <total>
    <array>
     <dimension dim="1">gridpoints</dimension>
     <dimension dim="2">spin</dimension>
     <field>energy</field>
     <field>total</field>
     <field>integrated</field>
     <set>
      <set comment="spin 1">
       <r>   -14.1986     0.0000     0.0000 </r>
       <r>   -14.0912     0.0000     0.0000 </r>
       <r>   -13.9837     0.0000     0.0000 </r>
       <r>   -13.8762     0.0000     0.0000 </r>
       <r>   -13.7687     0.0000     0.0000 </r>
       <r>   -13.6612     0.0000     0.0000 </r>
       <r>   -13.5538     0.0000     0.0000 </r>
       <r>   -13.4463     0.0000     0.0000 </r>
       <r>   -13.3388     0.0000     0.0000 </r>
       <r>   -13.2313     0.0000     0.0000 </r>
       <r>   -13.1238     0.0000     0.0000 </r>
       <r>   -13.0163     0.0000     0.0000 </r>
       <r>   -12.9089     0.0000     0.0000 </r>
       <r>   -12.8014     0.0020     0.0002 </r>
       <r>   -12.6939     0.4131     0.0446 </r>
       <r>   -12.5864     2.2590     0.2874 </r>
       <r>   -12.4789     3.5142     0.6651 </r>
       <r>   -12.3715     4.3422     1.1318 </r>
       <r>   -12.2640     3.5697     1.5155 </r>
       <r>   -12.1565     2.8696     1.8239 </r>
       <r>   -12.0490     2.6332     2.1070 </r>
       <r>   -11.9415     2.5906     2.3854 </r>
       <r>   -11.8340     2.7399     2.6799 </r>
       <r>   -11.7266     3.3206     3.0368 </r>
       <r>   -11.6191     3.6228     3.4262 </r>
       <r>   -11.5116     3.1299     3.7626 </r>
       <r>   -11.4041     1.7341     3.9490 </r>
       <r>   -11.2966     0.4654     3.9990 </r>
       <r>   -11.1891     0.0095     4.0000 </r>
       <r>   -11.0817     0.0000     4.0000 </r>
       <r>   -10.9742     0.0000     4.0000 </r>
       <r>   -10.8667     0.0000     4.0000 </r>
       <r>   -10.7592     0.0000     4.0000 </r>
       <r>   -10.6517     0.0000     4.0000 </r>
       <r>   -10.5443     0.0000     4.0000 </r>
       <r>   -10.4368     0.0000     4.0000 </r>
       <r>   -10.3293     0.0000     4.0000 </r>
       <r>   -10.2218     0.0000     4.0000 </r>
       <r>   -10.1143     0.0000     4.0000 </r>
       <r>   -10.0068     0.0000     4.0000 </r>
       <r>    -9.8994     0.0000     4.0000 </r>
       <r>    -9.7919     0.0000     4.0000 </r>
       <r>    -9.6844     0.0000     4.0000 </r>
       <r>    -9.5769     0.0000     4.0000 </r>
       <r>    -9.4694     0.0000     4.0000 </r>
       <r>    -9.3620     0.0000     4.0000 </r>
       <r>    -9.2545     0.0000     4.0000 </r>
       <r>    -9.1470     0.0000     4.0000 </r>
       <r>    -9.0395     0.0000     4.0000 </r>
       <r>    -8.9320     0.0007     4.0001 </r>
       <r>    -8.8245     0.2933     4.0316 </r>
       <r>    -8.7171     2.1446     4.2621 </r>
       <r>    -8.6096     5.3849     4.8409 </r>
       <r>    -8.5021     7.0100     5.5943 </r>
       <r>    -8.3946     6.2300     6.2639 </r>
       <r>    -8.2871     5.2993     6.8335 </r>
       <r>    -8.1797     4.8716     7.3571 </r>
       <r>    -8.0722     3.7539     7.7606 </r>
       <r>    -7.9647     1.6348     7.9363 </r>
       <r>    -7.8572     0.5503     7.9954 </r>
       <r>    -7.7497     0.0424     8.0000 </r>
       <r>    -7.6422     0.0000     8.0000 </r>
       <r>    -7.5348     0.0000     8.0000 </r>
       <r>    -7.4273     0.0000     8.0000 </r>
       <r>    -7.3198     0.0000     8.0000 </r>
       <r>    -7.2123     0.0000     8.0000 </r>
       <r>    -7.1048     0.0000     8.0000 </r>
       <r>    -6.9974     0.0038     8.0004 </r>
       <r>    -6.8899     0.1068     8.0119 </r>
       <r>    -6.7824     0.2893     8.0430 </r>
       <r>    -6.6749     0.4740     8.0939 </r>
       <r>    -6.5674     0.6895     8.1680 </r>
       <r>    -6.4599     0.9312     8.2681 </r>
       <r>    -6.3525     1.4537     8.4244 </r>
       <r>    -6.2450     2.1128     8.6515 </r>
       <r>    -6.1375     3.0165     8.9757 </r>
       <r>    -6.0300     3.9327     9.3984 </r>
       <r>    -5.9225     4.0110     9.8295 </r>
       <r>    -5.8151     3.9965    10.2590 </r>
       <r>    -5.7076     4.0984    10.6995 </r>
       <r>    -5.6001     4.0617    11.1361 </r>
       <r>    -5.4926     4.0777    11.5744 </r>
       <r>    -5.3851     4.4623    12.0540 </r>
       <r>    -5.2776     4.8218    12.5723 </r>
       <r>    -5.1702     4.3450    13.0393 </r>
       <r>    -5.0627     3.9057    13.4591 </r>
       <r>    -4.9552     3.3503    13.8192 </r>
       <r>    -4.8477     2.4422    14.0817 </r>
       <r>    -4.7402     2.4441    14.3444 </r>
       <r>    -4.6327     3.0133    14.6682 </r>
       <r>    -4.5253     3.6197    15.0573 </r>
       <r>    -4.4178     3.4334    15.4263 </r>
       <r>    -4.3103     3.1568    15.7656 </r>
       <r>    -4.2028     2.8441    16.0713 </r>
       <r>    -4.0953     2.9693    16.3904 </r>
       <r>    -3.9879     2.9168    16.7039 </r>
       <r>    -3.8804     3.0743    17.0344 </r>
       <r>    -3.7729     2.9374    17.3501 </r>
       <r>    -3.6654     2.8939    17.6611 </r>
       <r>    -3.5579     2.9005    17.9729 </r>
       <r>    -3.4504     2.6875    18.2617 </r>
       <r>    -3.3430     2.8974    18.5732 </r>
       <r>    -3.2355     2.6353    18.8564 </r>
       <r>    -3.1280     2.8379    19.1614 </r>
       <r>    -3.0205     2.9137    19.4746 </r>
       <r>    -2.9130     3.0881    19.8065 </r>
       <r>    -2.8056     2.7435    20.1014 </r>
       <r>    -2.6981     2.4851    20.3685 </r>
       <r>    -2.5906     2.5434    20.6419 </r>
       <r>    -2.4831     3.0077    20.9652 </r>
       <r>    -2.3756     3.2429    21.3137 </r>
       <r>    -2.2681     3.6758    21.7088 </r>
       <r>    -2.1607     3.4911    22.0840 </r>
       <r>    -2.0532     3.2617    22.4346 </r>
       <r>    -1.9457     4.2463    22.8910 </r>
       <r>    -1.8382     4.7577    23.4024 </r>
       <r>    -1.7307     5.7468    24.0200 </r>
       <r>    -1.6233     5.7937    24.6427 </r>
       <r>    -1.5158     5.9488    25.2821 </r>
       <r>    -1.4083     6.2226    25.9509 </r>
       <r>    -1.3008     5.6418    26.5573 </r>
       <r>    -1.1933     5.0491    27.1000 </r>
       <r>    -1.0858     5.3546    27.6755 </r>
       <r>    -0.9784     3.7875    28.0826 </r>
       <r>    -0.8709     2.7280    28.3758 </r>
       <r>    -0.7634     2.3631    28.6298 </r>
       <r>    -0.6559     3.4661    29.0024 </r>
       <r>    -0.5484     5.2092    29.5623 </r>
       <r>    -0.4410     5.9895    30.2060 </r>
       <r>    -0.3335     6.3766    30.8914 </r>
       <r>    -0.2260     6.1452    31.5519 </r>
       <r>    -0.1185     6.9318    32.2969 </r>
       <r>    -0.0110     6.8088    33.0288 </r>
       <r>     0.0965     6.2336    33.6988 </r>
       <r>     0.2039     6.9794    34.4489 </r>
       <r>     0.3114     8.5176    35.3644 </r>
       <r>     0.4189     8.4715    36.2749 </r>
       <r>     0.5264     8.3802    37.1757 </r>
       <r>     0.6339     4.2462    37.6320 </r>
       <r>     0.7413     2.9357    37.9476 </r>
       <r>     0.8488     3.1207    38.2830 </r>
       <r>     0.9563     3.3400    38.6420 </r>
       <r>     1.0638     3.3652    39.0037 </r>
       <r>     1.1713     3.9374    39.4269 </r>
       <r>     1.2788     3.5114    39.8043 </r>
       <r>     1.3862     3.7356    40.2058 </r>
       <r>     1.4937     4.0029    40.6360 </r>
       <r>     1.6012     3.8595    41.0509 </r>
       <r>     1.7087     3.8616    41.4659 </r>
       <r>     1.8162     3.0350    41.7921 </r>
       <r>     1.9237     2.9480    42.1090 </r>
       <r>     2.0311     2.7688    42.4066 </r>
       <r>     2.1386     2.4558    42.6705 </r>
       <r>     2.2461     2.3872    42.9271 </r>
       <r>     2.3536     1.9588    43.1377 </r>
       <r>     2.4611     1.2592    43.2730 </r>
       <r>     2.5685     0.9719    43.3775 </r>
       <r>     2.6760     0.7746    43.4607 </r>
       <r>     2.7835     0.5092    43.5154 </r>
       <r>     2.8910     0.6089    43.5809 </r>
       <r>     2.9985     0.5696    43.6421 </r>
       <r>     3.1060     0.4635    43.6919 </r>
       <r>     3.2134     0.4273    43.7378 </r>
       <r>     3.3209     0.4651    43.7878 </r>
       <r>     3.4284     0.3851    43.8292 </r>
       <r>     3.5359     0.3406    43.8658 </r>
       <r>     3.6434     0.3527    43.9038 </r>
       <r>     3.7508     0.3039    43.9364 </r>
       <r>     3.8583     0.2671    43.9651 </r>
       <r>     3.9658     0.2420    43.9911 </r>
       <r>     4.0733     0.0790    43.9996 </r>
       <r>     4.1808     0.0042    44.0001 </r>
       <r>     4.2883     0.0740    44.0080 </r>
       <r>     4.3957     0.2588    44.0358 </r>
       <r>     4.5032     0.3850    44.0772 </r>
       <r>     4.6107     0.5489    44.1362 </r>
       <r>     4.7182     0.7497    44.2168 </r>
       <r>     4.8257     0.8208    44.3050 </r>
       <r>     4.9331     0.8944    44.4012 </r>
       <r>     5.0406     1.0084    44.5095 </r>
       <r>     5.1481     1.1513    44.6333 </r>
       <r>     5.2556     1.3997    44.7837 </r>
       <r>     5.3631     1.7921    44.9764 </r>
       <r>     5.4706     2.1818    45.2109 </r>
       <r>     5.5780     2.6452    45.4952 </r>
       <r>     5.6855     2.9694    45.8143 </r>
       <r>     5.7930     3.3965    46.1794 </r>
       <r>     5.9005     3.7212    46.5793 </r>
       <r>     6.0080     4.2305    47.0340 </r>
       <r>     6.1154     4.5882    47.5272 </r>
       <r>     6.2229     4.4929    48.0101 </r>
       <r>     6.3304     4.1570    48.4569 </r>
       <r>     6.4379     4.2195    48.9104 </r>
       <r>     6.5454     4.3462    49.3776 </r>
       <r>     6.6529     3.8278    49.7890 </r>
       <r>     6.7603     3.5506    50.1706 </r>
       <r>     6.8678     4.0803    50.6092 </r>
       <r>     6.9753     4.4451    51.0869 </r>
       <r>     7.0828     4.9474    51.6187 </r>
       <r>     7.1903     4.9890    52.1549 </r>
       <r>     7.2977     5.0609    52.6989 </r>
       <r>     7.4052     4.5191    53.1846 </r>
       <r>     7.5127     4.4336    53.6611 </r>
       <r>     7.6202     4.0413    54.0955 </r>
       <r>     7.7277     3.3415    54.4546 </r>
       <r>     7.8352     3.0887    54.7866 </r>
       <r>     7.9426     3.2159    55.1323 </r>
       <r>     8.0501     3.3631    55.4937 </r>
       <r>     8.1576     3.6893    55.8903 </r>
       <r>     8.2651     3.8707    56.3063 </r>
       <r>     8.3726     4.1289    56.7501 </r>
       <r>     8.4801     4.1010    57.1909 </r>
       <r>     8.5875     3.9363    57.6139 </r>
       <r>     8.6950     4.4897    58.0965 </r>
       <r>     8.8025     4.9019    58.6234 </r>
       <r>     8.9100     5.0918    59.1706 </r>
       <r>     9.0175     5.1672    59.7260 </r>
       <r>     9.1249     4.9289    60.2558 </r>
       <r>     9.2324     5.1929    60.8139 </r>
       <r>     9.3399     4.9635    61.3474 </r>
       <r>     9.4474     4.6699    61.8493 </r>
       <r>     9.5549     4.6216    62.3461 </r>
       <r>     9.6624     4.7596    62.8577 </r>
       <r>     9.7698     5.1108    63.4070 </r>
       <r>     9.8773     5.2142    63.9674 </r>
       <r>     9.9848     4.7550    64.4785 </r>
       <r>    10.0923     4.0115    64.9096 </r>
       <r>    10.1998     4.1665    65.3575 </r>
       <r>    10.3072     4.4069    65.8311 </r>
       <r>    10.4147     5.2750    66.3981 </r>
       <r>    10.5222     5.6082    67.0009 </r>
       <r>    10.6297     4.7903    67.5157 </r>
       <r>    10.7372     4.3716    67.9856 </r>
       <r>    10.8447     3.6330    68.3761 </r>
       <r>    10.9521     3.5999    68.7630 </r>
       <r>    11.0596     4.9792    69.2982 </r>
       <r>    11.1671     5.6644    69.9070 </r>
       <r>    11.2746     6.2490    70.5787 </r>
       <r>    11.3821     5.5454    71.1747 </r>
       <r>    11.4895     4.8801    71.6992 </r>
       <r>    11.5970     4.6699    72.2011 </r>
       <r>    11.7045     4.6363    72.6995 </r>
       <r>    11.8120     4.8342    73.2191 </r>
       <r>    11.9195     5.3392    73.7929 </r>
       <r>    12.0270     6.2027    74.4596 </r>
       <r>    12.1344     5.8921    75.0929 </r>
       <r>    12.2419     5.4359    75.6772 </r>
       <r>    12.3494     5.2184    76.2380 </r>
       <r>    12.4569     5.7001    76.8507 </r>
       <r>    12.5644     5.9632    77.4916 </r>
       <r>    12.6718     5.8442    78.1198 </r>
       <r>    12.7793     5.8964    78.7535 </r>
       <r>    12.8868     5.8519    79.3825 </r>
       <r>    12.9943     5.9794    80.0252 </r>
       <r>    13.1018     6.0828    80.6790 </r>
       <r>    13.2093     6.2897    81.3550 </r>
       <r>    13.3167     5.8024    81.9787 </r>
       <r>    13.4242     5.5345    82.5735 </r>
       <r>    13.5317     5.4085    83.1548 </r>
       <r>    13.6392     5.3719    83.7322 </r>
       <r>    13.7467     5.5560    84.3294 </r>
       <r>    13.8541     5.6722    84.9391 </r>
       <r>    13.9616     5.5011    85.5303 </r>
       <r>    14.0691     5.5726    86.1293 </r>
       <r>    14.1766     4.8804    86.6538 </r>
       <r>    14.2841     4.9675    87.1878 </r>
       <r>    14.3916     5.0549    87.7311 </r>
       <r>    14.4990     4.6500    88.2309 </r>
       <r>    14.6065     5.4967    88.8217 </r>
       <r>    14.7140     5.0682    89.3664 </r>
       <r>    14.8215     4.3326    89.8321 </r>
       <r>    14.9290     4.4292    90.3081 </r>
       <r>    15.0365     5.9387    90.9465 </r>
       <r>    15.1439     5.9574    91.5868 </r>
       <r>    15.2514     5.7989    92.2100 </r>
       <r>    15.3589     5.8588    92.8398 </r>
       <r>    15.4664     5.9144    93.4754 </r>
       <r>    15.5739     5.9250    94.1123 </r>
       <r>    15.6813     4.9072    94.6397 </r>
       <r>    15.7888     3.5215    95.0182 </r>
       <r>    15.8963     2.6028    95.2980 </r>
       <r>    16.0038     1.9690    95.5096 </r>
       <r>    16.1113     1.3566    95.6554 </r>
       <r>    16.2188     1.1102    95.7747 </r>
       <r>    16.3262     0.9322    95.8749 </r>
       <r>    16.4337     0.7648    95.9571 </r>
       <r>    16.5412     0.3612    95.9960 </r>
       <r>    16.6487     0.0374    96.0000 </r>
       <r>    16.7562     0.0002    96.0000 </r>
       <r>    16.8636     0.0000    96.0000 </r>
       <r>    16.9711     0.0000    96.0000 </r>
       <r>    17.0786     0.0000    96.0000 </r>
       <r>    17.1861     0.0000    96.0000 </r>
       <r>    17.2936     0.0000    96.0000 </r>
       <r>    17.4011     0.0000    96.0000 </r>
       <r>    17.5085     0.0000    96.0000 </r>
       <r>    17.6160     0.0000    96.0000 </r>
       <r>    17.7235     0.0000    96.0000 </r>
       <r>    17.8310     0.0000    96.0000 </r>
       <r>    17.9385     0.0000    96.0000 </r>
       <r>    18.0459     0.0000    96.0000 </r>
      </set>
     </set>
    </array>
   </total>
  </dos>
 </calculation>
 <structure name="finalpos" >
  <crystal>
   <varray name="basis" >
    <v>       5.69700000       0.00000000       0.00000000 </v>
    <v>       0.00000000       4.04790000       0.00000000 </v>
    <v>       0.00000000       0.00000000       6.20420000 </v>
   </varray>
   <i name="volume">    143.07435078 </i>
   <varray name="rec_basis" >
    <v>       0.17553098       0.00000000       0.00000000 </v>
    <v>       0.00000000       0.24704168       0.00000000 </v>
    <v>       0.00000000       0.00000000       0.16118114 </v>
   </varray>
  </crystal>
  <varray name="positions" >
   <v>       0.52123000       0.50000000       0.63796000 </v>
   <v>       0.47877000       0.50000000       0.36204000 </v>
   <v>       0.97877000       0.50000000       0.63796000 </v>
   <v>       0.02123000       0.50000000       0.36204000 </v>
   <v>       0.60090000       0.50000000       0.89991000 </v>
   <v>       0.39910000       0.50000000       0.10009000 </v>
   <v>       0.89910000       0.50000000       0.89991000 </v>
   <v>       0.10090000       0.50000000       0.10009000 </v>
   <v>       0.75000000       0.79171000       0.72973000 </v>
   <v>       0.25000000       0.20829000       0.27027000 </v>
   <v>       0.75000000       0.20829000       0.72973000 </v>
   <v>       0.25000000       0.79171000       0.27027000 </v>
   <v>       0.25000000       0.50000000       0.52367000 </v>
   <v>       0.75000000       0.50000000       0.47633000 </v>
  </varray>
 </structure>
</modeling>
