       N       E                     dE             d eps       ncg     rms          rms(c)
DAV:   1     0.837100219363E+02    0.83710E+02   -0.20404E+04 16800   0.885E+02
DAV:   2    -0.915748570576E+02   -0.17528E+03   -0.16434E+03 23352   0.170E+02
DAV:   3    -0.976097980227E+02   -0.60349E+01   -0.60009E+01 24792   0.280E+01
DAV:   4    -0.976455898996E+02   -0.35792E-01   -0.35790E-01 20136   0.251E+00
DAV:   5    -0.976459886154E+02   -0.39872E-03   -0.39871E-03 24816   0.252E-01    0.123E+01
DAV:   6    -0.922301987022E+02    0.54158E+01   -0.39481E+00 24384   0.659E+00    0.680E+00
DAV:   7    -0.905787540736E+02    0.16514E+01   -0.32214E+00 25176   0.586E+00    0.171E+00
DAV:   8    -0.905911306398E+02   -0.12377E-01   -0.23469E-01 18552   0.168E+00    0.705E-01
DAV:   9    -0.906052959759E+02   -0.14165E-01   -0.16936E-02 23304   0.439E-01    0.198E-01
DAV:  10    -0.906093487234E+02   -0.40527E-02   -0.21001E-03 19176   0.162E-01    0.609E-02
DAV:  11    -0.906104170400E+02   -0.10683E-02   -0.62863E-04 21432   0.872E-02    0.321E-02
DAV:  12    -0.906105327931E+02   -0.11575E-03   -0.93046E-05 20904   0.373E-02    0.429E-03
DAV:  13    -0.906105376799E+02   -0.48868E-05   -0.41388E-06 23304   0.887E-03    0.182E-03
DAV:  14    -0.906105383681E+02   -0.68821E-06   -0.28930E-07 20568   0.233E-03
   1 F= -.90610538E+02 E0= -.90608932E+02  d E =-.321342E-02
