  14  14   0   0
  0.1021318E+02  0.5700971E-09  0.4044058E-09  0.6201871E-09  0.5000000E-15
  1.000000000000000E-004
  CAR 
 SC                                      
     11.71725604    -13.86173593  301      1.91653922      1.00000000
    -13.862  0.0000E+00  0.0000E+00
    -13.776  0.0000E+00  0.0000E+00
    -13.691  0.0000E+00  0.0000E+00
    -13.606  0.0000E+00  0.0000E+00
    -13.521  0.0000E+00  0.0000E+00
    -13.435  0.0000E+00  0.0000E+00
    -13.350  0.0000E+00  0.0000E+00
    -13.265  0.3016E-16  0.2572E-17
    -13.180  0.3477E-12  0.2964E-13
    -13.094  0.9497E-09  0.8100E-10
    -13.009  0.6647E-06  0.5675E-07
    -12.924  0.1240E-03  0.1063E-04
    -12.839  0.6569E-02  0.5707E-03
    -12.753  0.1094E+00  0.9897E-02
    -12.668  0.6672E+00  0.6678E-01
    -12.583  0.1838E+01  0.2235E+00
    -12.498  0.2987E+01  0.4782E+00
    -12.412  0.3769E+01  0.7996E+00
    -12.327  0.4025E+01  0.1143E+01
    -12.242  0.3577E+01  0.1448E+01
    -12.156  0.3011E+01  0.1704E+01
    -12.071  0.2701E+01  0.1935E+01
    -11.986  0.2571E+01  0.2154E+01
    -11.901  0.2555E+01  0.2372E+01
    -11.815  0.2669E+01  0.2599E+01
    -11.730  0.2975E+01  0.2853E+01
    -11.645  0.3344E+01  0.3138E+01
    -11.560  0.3412E+01  0.3429E+01
    -11.474  0.3003E+01  0.3685E+01
    -11.389  0.2131E+01  0.3867E+01
    -11.304  0.1121E+01  0.3962E+01
    -11.219  0.3764E+00  0.3994E+01
    -11.133  0.6133E-01  0.4000E+01
    -11.048  0.3734E-02  0.4000E+01
    -10.963  0.7156E-04  0.4000E+01
    -10.878  0.3893E-06  0.4000E+01
    -10.792  0.5645E-09  0.4000E+01
    -10.707  0.2098E-12  0.4000E+01
    -10.622  0.1524E-16  0.4000E+01
    -10.536  0.0000E+00  0.4000E+01
    -10.451  0.0000E+00  0.4000E+01
    -10.366  0.0000E+00  0.4000E+01
    -10.281  0.0000E+00  0.4000E+01
    -10.195  0.0000E+00  0.4000E+01
    -10.110  0.0000E+00  0.4000E+01
    -10.025  0.0000E+00  0.4000E+01
     -9.940  0.0000E+00  0.4000E+01
     -9.854  0.0000E+00  0.4000E+01
     -9.769  0.0000E+00  0.4000E+01
     -9.684  0.0000E+00  0.4000E+01
     -9.599  0.0000E+00  0.4000E+01
     -9.513  0.0000E+00  0.4000E+01
     -9.428  0.0000E+00  0.4000E+01
     -9.343  0.1178E-13  0.4000E+01
     -9.258  0.5544E-10  0.4000E+01
     -9.172  0.6604E-07  0.4000E+01
     -9.087  0.2057E-04  0.4000E+01
     -9.002  0.1765E-02  0.4000E+01
     -8.916  0.4533E-01  0.4004E+01
     -8.831  0.4023E+00  0.4038E+01
     -8.746  0.1569E+01  0.4172E+01
     -8.661  0.3603E+01  0.4479E+01
     -8.575  0.5640E+01  0.4960E+01
     -8.490  0.6379E+01  0.5504E+01
     -8.405  0.5726E+01  0.5992E+01
     -8.320  0.4898E+01  0.6410E+01
     -8.234  0.4756E+01  0.6816E+01
     -8.149  0.4591E+01  0.7207E+01
     -8.064  0.3995E+01  0.7548E+01
     -7.979  0.2783E+01  0.7785E+01
     -7.893  0.1537E+01  0.7916E+01
     -7.808  0.7106E+00  0.7976E+01
     -7.723  0.2343E+00  0.7996E+01
     -7.638  0.3937E-01  0.8000E+01
     -7.552  0.2531E-02  0.8000E+01
     -7.467  0.5191E-04  0.8000E+01
     -7.382  0.3049E-06  0.8000E+01
     -7.296  0.2673E-07  0.8000E+01
     -7.211  0.6052E-05  0.8000E+01
     -7.126  0.3890E-03  0.8000E+01
     -7.041  0.7620E-02  0.8001E+01
     -6.955  0.5254E-01  0.8005E+01
     -6.870  0.1602E+00  0.8019E+01
     -6.785  0.2961E+00  0.8044E+01
     -6.700  0.4441E+00  0.8082E+01
     -6.614  0.6117E+00  0.8134E+01
     -6.529  0.7815E+00  0.8201E+01
     -6.444  0.1021E+01  0.8288E+01
     -6.359  0.1432E+01  0.8410E+01
     -6.273  0.1984E+01  0.8579E+01
     -6.188  0.2700E+01  0.8809E+01
     -6.103  0.3438E+01  0.9102E+01
     -6.018  0.3878E+01  0.9433E+01
     -5.932  0.4017E+01  0.9776E+01
     -5.847  0.4052E+01  0.1012E+02
     -5.762  0.4125E+01  0.1047E+02
     -5.676  0.4087E+01  0.1082E+02
     -5.591  0.4054E+01  0.1117E+02
     -5.506  0.4196E+01  0.1152E+02
     -5.421  0.4466E+01  0.1191E+02
     -5.335  0.4678E+01  0.1230E+02
     -5.250  0.4576E+01  0.1269E+02
     -5.165  0.4245E+01  0.1306E+02
     -5.080  0.3849E+01  0.1338E+02
     -4.994  0.3356E+01  0.1367E+02
     -4.909  0.2796E+01  0.1391E+02
     -4.824  0.2536E+01  0.1413E+02
     -4.739  0.2769E+01  0.1436E+02
     -4.653  0.3196E+01  0.1463E+02
     -4.568  0.3503E+01  0.1493E+02
     -4.483  0.3465E+01  0.1523E+02
     -4.398  0.3238E+01  0.1550E+02
     -4.312  0.3032E+01  0.1576E+02
     -4.227  0.2915E+01  0.1601E+02
     -4.142  0.2906E+01  0.1626E+02
     -4.056  0.2922E+01  0.1651E+02
     -3.971  0.2956E+01  0.1676E+02
     -3.886  0.2998E+01  0.1702E+02
     -3.801  0.3007E+01  0.1727E+02
     -3.715  0.2964E+01  0.1752E+02
     -3.630  0.2885E+01  0.1777E+02
     -3.545  0.2792E+01  0.1801E+02
     -3.460  0.2709E+01  0.1824E+02
     -3.374  0.2665E+01  0.1847E+02
     -3.289  0.2656E+01  0.1869E+02
     -3.204  0.2687E+01  0.1892E+02
     -3.119  0.2790E+01  0.1916E+02
     -3.033  0.2946E+01  0.1941E+02
     -2.948  0.3002E+01  0.1967E+02
     -2.863  0.2832E+01  0.1991E+02
     -2.778  0.2518E+01  0.2012E+02
     -2.692  0.2330E+01  0.2032E+02
     -2.607  0.2436E+01  0.2053E+02
     -2.522  0.2799E+01  0.2077E+02
     -2.436  0.3143E+01  0.2104E+02
     -2.351  0.3429E+01  0.2133E+02
     -2.266  0.3664E+01  0.2164E+02
     -2.181  0.3590E+01  0.2195E+02
     -2.095  0.3505E+01  0.2225E+02
     -2.010  0.3647E+01  0.2256E+02
     -1.925  0.4101E+01  0.2291E+02
     -1.840  0.4807E+01  0.2332E+02
     -1.754  0.5467E+01  0.2378E+02
     -1.669  0.5872E+01  0.2428E+02
     -1.584  0.6127E+01  0.2481E+02
     -1.499  0.6290E+01  0.2534E+02
     -1.413  0.6084E+01  0.2586E+02
     -1.328  0.5631E+01  0.2634E+02
     -1.243  0.5271E+01  0.2679E+02
     -1.158  0.5175E+01  0.2723E+02
     -1.072  0.4993E+01  0.2766E+02
     -0.987  0.4035E+01  0.2800E+02
     -0.902  0.3077E+01  0.2826E+02
     -0.816  0.2772E+01  0.2850E+02
     -0.731  0.3202E+01  0.2877E+02
     -0.646  0.4180E+01  0.2913E+02
     -0.561  0.4983E+01  0.2955E+02
     -0.475  0.5519E+01  0.3003E+02
     -0.390  0.5975E+01  0.3053E+02
     -0.305  0.6183E+01  0.3106E+02
     -0.220  0.6240E+01  0.3159E+02
     -0.134  0.6485E+01  0.3215E+02
     -0.049  0.6645E+01  0.3271E+02
      0.036  0.6695E+01  0.3328E+02
      0.121  0.7671E+01  0.3394E+02
      0.207  0.8878E+01  0.3470E+02
      0.292  0.8772E+01  0.3544E+02
      0.377  0.8086E+01  0.3613E+02
      0.462  0.6878E+01  0.3672E+02
      0.548  0.5224E+01  0.3716E+02
      0.633  0.4003E+01  0.3751E+02
      0.718  0.3321E+01  0.3779E+02
      0.804  0.3127E+01  0.3806E+02
      0.889  0.3250E+01  0.3833E+02
      0.974  0.3406E+01  0.3862E+02
      1.059  0.3585E+01  0.3893E+02
      1.145  0.3644E+01  0.3924E+02
      1.230  0.3661E+01  0.3955E+02
      1.315  0.3658E+01  0.3986E+02
      1.400  0.3710E+01  0.4018E+02
      1.486  0.3824E+01  0.4051E+02
      1.571  0.3850E+01  0.4083E+02
      1.656  0.3792E+01  0.4116E+02
      1.741  0.3564E+01  0.4146E+02
      1.827  0.3226E+01  0.4174E+02
      1.912  0.2937E+01  0.4199E+02
      1.997  0.2761E+01  0.4222E+02
      2.083  0.2628E+01  0.4245E+02
      2.168  0.2507E+01  0.4266E+02
      2.253  0.2307E+01  0.4286E+02
      2.338  0.2033E+01  0.4303E+02
      2.424  0.1713E+01  0.4318E+02
      2.509  0.1302E+01  0.4329E+02
      2.594  0.9326E+00  0.4337E+02
      2.679  0.7308E+00  0.4343E+02
      2.765  0.6346E+00  0.4348E+02
      2.850  0.5843E+00  0.4353E+02
      2.935  0.5533E+00  0.4358E+02
      3.020  0.5175E+00  0.4362E+02
      3.106  0.4833E+00  0.4367E+02
      3.191  0.4633E+00  0.4371E+02
      3.276  0.4311E+00  0.4374E+02
      3.361  0.4066E+00  0.4378E+02
      3.447  0.3861E+00  0.4381E+02
      3.532  0.3593E+00  0.4384E+02
      3.617  0.3373E+00  0.4387E+02
      3.703  0.3173E+00  0.4390E+02
      3.788  0.2922E+00  0.4392E+02
      3.873  0.2728E+00  0.4394E+02
      3.958  0.2482E+00  0.4397E+02
      4.044  0.2107E+00  0.4398E+02
      4.129  0.1371E+00  0.4400E+02
      4.214  0.6693E-01  0.4400E+02
      4.299  0.9876E-01  0.4401E+02
      4.385  0.2208E+00  0.4403E+02
      4.470  0.3482E+00  0.4406E+02
      4.555  0.4870E+00  0.4410E+02
      4.640  0.6469E+00  0.4415E+02
      4.726  0.7736E+00  0.4422E+02
      4.811  0.8505E+00  0.4429E+02
      4.896  0.9245E+00  0.4437E+02
      4.981  0.1014E+01  0.4446E+02
      5.067  0.1120E+01  0.4455E+02
      5.152  0.1253E+01  0.4466E+02
      5.237  0.1431E+01  0.4478E+02
      5.323  0.1675E+01  0.4493E+02
      5.408  0.1985E+01  0.4509E+02
      5.493  0.2365E+01  0.4530E+02
      5.578  0.2739E+01  0.4553E+02
      5.664  0.2979E+01  0.4578E+02
      5.749  0.3168E+01  0.4605E+02
      5.834  0.3532E+01  0.4636E+02
      5.919  0.4050E+01  0.4670E+02
      6.005  0.4492E+01  0.4708E+02
      6.090  0.4629E+01  0.4748E+02
      6.175  0.4519E+01  0.4786E+02
      6.260  0.4315E+01  0.4823E+02
      6.346  0.4157E+01  0.4859E+02
      6.431  0.4131E+01  0.4894E+02
      6.516  0.4048E+01  0.4928E+02
      6.601  0.3753E+01  0.4960E+02
      6.687  0.3547E+01  0.4991E+02
      6.772  0.3728E+01  0.5022E+02
      6.857  0.4131E+01  0.5058E+02
      6.943  0.4403E+01  0.5095E+02
      7.028  0.4575E+01  0.5134E+02
      7.113  0.4786E+01  0.5175E+02
      7.198  0.4911E+01  0.5217E+02
      7.284  0.4822E+01  0.5258E+02
      7.369  0.4606E+01  0.5297E+02
      7.454  0.4456E+01  0.5335E+02
      7.539  0.4299E+01  0.5372E+02
      7.625  0.3996E+01  0.5406E+02
      7.710  0.3550E+01  0.5436E+02
      7.795  0.3236E+01  0.5464E+02
      7.880  0.3213E+01  0.5491E+02
      7.966  0.3310E+01  0.5519E+02
      8.051  0.3415E+01  0.5549E+02
      8.136  0.3600E+01  0.5579E+02
      8.221  0.3863E+01  0.5612E+02
      8.307  0.4019E+01  0.5646E+02
      8.392  0.4074E+01  0.5681E+02
      8.477  0.4062E+01  0.5716E+02
      8.563  0.3955E+01  0.5750E+02
      8.648  0.3977E+01  0.5783E+02
      8.733  0.4272E+01  0.5820E+02
      8.818  0.4722E+01  0.5860E+02
      8.904  0.5165E+01  0.5904E+02
      8.989  0.5303E+01  0.5949E+02
      9.074  0.5250E+01  0.5994E+02
      9.159  0.5218E+01  0.6039E+02
      9.245  0.5203E+01  0.6083E+02
      9.330  0.4977E+01  0.6125E+02
      9.415  0.4678E+01  0.6165E+02
      9.500  0.4445E+01  0.6203E+02
      9.586  0.4204E+01  0.6239E+02
      9.671  0.3873E+01  0.6272E+02
      9.756  0.3473E+01  0.6302E+02
      9.841  0.3072E+01  0.6328E+02
      9.927  0.2705E+01  0.6351E+02
     10.012  0.2134E+01  0.6369E+02
     10.097  0.1490E+01  0.6382E+02
     10.183  0.1002E+01  0.6390E+02
     10.268  0.6188E+00  0.6396E+02
     10.353  0.3221E+00  0.6398E+02
     10.438  0.1292E+00  0.6399E+02
     10.524  0.4307E-01  0.6400E+02
     10.609  0.1379E-01  0.6400E+02
     10.694  0.3014E-02  0.6400E+02
     10.779  0.2653E-03  0.6400E+02
     10.865  0.7038E-05  0.6400E+02
     10.950  0.4999E-07  0.6400E+02
     11.035  0.9019E-10  0.6400E+02
     11.120  0.4023E-13  0.6400E+02
     11.206  0.4118E-17  0.6400E+02
     11.291  0.0000E+00  0.6400E+02
     11.376  0.0000E+00  0.6400E+02
     11.461  0.0000E+00  0.6400E+02
     11.547  0.0000E+00  0.6400E+02
     11.632  0.0000E+00  0.6400E+02
     11.717  0.0000E+00  0.6400E+02
