Automatically generated mesh
    6528
Reciprocal lattice
    0.01470588235294    0.01041666666666    0.00000000000000             4
    0.04411764705883    0.01041666666666    0.00000000000000             4
    0.07352941176470    0.01041666666666    0.00000000000000             4
    0.10294117647059    0.01041666666666    0.00000000000000             4
    0.13235294117647    0.01041666666666    0.00000000000000             4
    0.16176470588236    0.01041666666666    0.00000000000000             4
    0.19117647058823    0.01041666666666    0.00000000000000             4
    0.22058823529412    0.01041666666666    0.00000000000000             4
    0.25000000000000    0.01041666666666    0.00000000000000             4
    0.27941176470588    0.01041666666666    0.00000000000000             4
    0.30882352941177    0.01041666666666    0.00000000000000             4
    0.33823529411764    0.01041666666666    0.00000000000000             4
    0.36764705882353    0.01041666666666    0.00000000000000             4
    0.39705882352941    0.01041666666666    0.00000000000000             4
    0.42647058823530    0.01041666666666    0.00000000000000             4
    0.45588235294117    0.01041666666666    0.00000000000000             4
    0.48529411764706    0.01041666666666    0.00000000000000             4
    0.01470588235294    0.03125000000000    0.00000000000000             4
    0.04411764705883    0.03125000000000    0.00000000000000             4
    0.07352941176470    0.03125000000000    0.00000000000000             4
    0.10294117647059    0.03125000000000    0.00000000000000             4
    0.13235294117647    0.03125000000000    0.00000000000000             4
    0.16176470588236    0.03125000000000    0.00000000000000             4
    0.19117647058823    0.03125000000000    0.00000000000000             4
    0.22058823529412    0.03125000000000    0.00000000000000             4
    0.25000000000000    0.03125000000000    0.00000000000000             4
    0.27941176470588    0.03125000000000    0.00000000000000             4
    0.30882352941177    0.03125000000000    0.00000000000000             4
    0.33823529411764    0.03125000000000    0.00000000000000             4
    0.36764705882353    0.03125000000000    0.00000000000000             4
    0.39705882352941    0.03125000000000    0.00000000000000             4
    0.42647058823530    0.03125000000000    0.00000000000000             4
    0.45588235294117    0.03125000000000    0.00000000000000             4
    0.48529411764706    0.03125000000000    0.00000000000000             4
    0.01470588235294    0.05208333333334    0.00000000000000             4
    0.04411764705883    0.05208333333334    0.00000000000000             4
    0.07352941176470    0.05208333333334    0.00000000000000             4
    0.10294117647059    0.05208333333334    0.00000000000000             4
    0.13235294117647    0.05208333333334    0.00000000000000             4
    0.16176470588236    0.05208333333334    0.00000000000000             4
    0.19117647058823    0.05208333333334    0.00000000000000             4
    0.22058823529412    0.05208333333334    0.00000000000000             4
    0.25000000000000    0.05208333333334    0.00000000000000             4
    0.27941176470588    0.05208333333334    0.00000000000000             4
    0.30882352941177    0.05208333333334    0.00000000000000             4
    0.33823529411764    0.05208333333334    0.00000000000000             4
    0.36764705882353    0.05208333333334    0.00000000000000             4
    0.39705882352941    0.05208333333334    0.00000000000000             4
    0.42647058823530    0.05208333333334    0.00000000000000             4
    0.45588235294117    0.05208333333334    0.00000000000000             4
    0.48529411764706    0.05208333333334    0.00000000000000             4
    0.01470588235294    0.07291666666666    0.00000000000000             4
    0.04411764705883    0.07291666666666    0.00000000000000             4
    0.07352941176470    0.07291666666666    0.00000000000000             4
    0.10294117647059    0.07291666666666    0.00000000000000             4
    0.13235294117647    0.07291666666666    0.00000000000000             4
    0.16176470588236    0.07291666666666    0.00000000000000             4
    0.19117647058823    0.07291666666666    0.00000000000000             4
    0.22058823529412    0.07291666666666    0.00000000000000             4
    0.25000000000000    0.07291666666666    0.00000000000000             4
    0.27941176470588    0.07291666666666    0.00000000000000             4
    0.30882352941177    0.07291666666666    0.00000000000000             4
    0.33823529411764    0.07291666666666    0.00000000000000             4
    0.36764705882353    0.07291666666666    0.00000000000000             4
    0.39705882352941    0.07291666666666    0.00000000000000             4
    0.42647058823530    0.07291666666666    0.00000000000000             4
    0.45588235294117    0.07291666666666    0.00000000000000             4
    0.48529411764706    0.07291666666666    0.00000000000000             4
    0.01470588235294    0.09375000000000    0.00000000000000             4
    0.04411764705883    0.09375000000000    0.00000000000000             4
    0.07352941176470    0.09375000000000    0.00000000000000             4
    0.10294117647059    0.09375000000000    0.00000000000000             4
    0.13235294117647    0.09375000000000    0.00000000000000             4
    0.16176470588236    0.09375000000000    0.00000000000000             4
    0.19117647058823    0.09375000000000    0.00000000000000             4
    0.22058823529412    0.09375000000000    0.00000000000000             4
    0.25000000000000    0.09375000000000    0.00000000000000             4
    0.27941176470588    0.09375000000000    0.00000000000000             4
    0.30882352941177    0.09375000000000    0.00000000000000             4
    0.33823529411764    0.09375000000000    0.00000000000000             4
    0.36764705882353    0.09375000000000    0.00000000000000             4
    0.39705882352941    0.09375000000000    0.00000000000000             4
    0.42647058823530    0.09375000000000    0.00000000000000             4
    0.45588235294117    0.09375000000000    0.00000000000000             4
    0.48529411764706    0.09375000000000    0.00000000000000             4
    0.01470588235294    0.11458333333334    0.00000000000000             4
    0.04411764705883    0.11458333333334    0.00000000000000             4
    0.07352941176470    0.11458333333334    0.00000000000000             4
    0.10294117647059    0.11458333333334    0.00000000000000             4
    0.13235294117647    0.11458333333334    0.00000000000000             4
    0.16176470588236    0.11458333333334    0.00000000000000             4
    0.19117647058823    0.11458333333334    0.00000000000000             4
    0.22058823529412    0.11458333333334    0.00000000000000             4
    0.25000000000000    0.11458333333334    0.00000000000000             4
    0.27941176470588    0.11458333333334    0.00000000000000             4
    0.30882352941177    0.11458333333334    0.00000000000000             4
    0.33823529411764    0.11458333333334    0.00000000000000             4
    0.36764705882353    0.11458333333334    0.00000000000000             4
    0.39705882352941    0.11458333333334    0.00000000000000             4
    0.42647058823530    0.11458333333334    0.00000000000000             4
    0.45588235294117    0.11458333333334    0.00000000000000             4
    0.48529411764706    0.11458333333334    0.00000000000000             4
    0.01470588235294    0.13541666666666    0.00000000000000             4
    0.04411764705883    0.13541666666666    0.00000000000000             4
    0.07352941176470    0.13541666666666    0.00000000000000             4
    0.10294117647059    0.13541666666666    0.00000000000000             4
    0.13235294117647    0.13541666666666    0.00000000000000             4
    0.16176470588236    0.13541666666666    0.00000000000000             4
    0.19117647058823    0.13541666666666    0.00000000000000             4
    0.22058823529412    0.13541666666666    0.00000000000000             4
    0.25000000000000    0.13541666666666    0.00000000000000             4
    0.27941176470588    0.13541666666666    0.00000000000000             4
    0.30882352941177    0.13541666666666    0.00000000000000             4
    0.33823529411764    0.13541666666666    0.00000000000000             4
    0.36764705882353    0.13541666666666    0.00000000000000             4
    0.39705882352941    0.13541666666666    0.00000000000000             4
    0.42647058823530    0.13541666666666    0.00000000000000             4
    0.45588235294117    0.13541666666666    0.00000000000000             4
    0.48529411764706    0.13541666666666    0.00000000000000             4
    0.01470588235294    0.15625000000000    0.00000000000000             4
    0.04411764705883    0.15625000000000    0.00000000000000             4
    0.07352941176470    0.15625000000000    0.00000000000000             4
    0.10294117647059    0.15625000000000    0.00000000000000             4
    0.13235294117647    0.15625000000000    0.00000000000000             4
    0.16176470588236    0.15625000000000    0.00000000000000             4
    0.19117647058823    0.15625000000000    0.00000000000000             4
    0.22058823529412    0.15625000000000    0.00000000000000             4
    0.25000000000000    0.15625000000000    0.00000000000000             4
    0.27941176470588    0.15625000000000    0.00000000000000             4
    0.30882352941177    0.15625000000000    0.00000000000000             4
    0.33823529411764    0.15625000000000    0.00000000000000             4
    0.36764705882353    0.15625000000000    0.00000000000000             4
    0.39705882352941    0.15625000000000    0.00000000000000             4
    0.42647058823530    0.15625000000000    0.00000000000000             4
    0.45588235294117    0.15625000000000    0.00000000000000             4
    0.48529411764706    0.15625000000000    0.00000000000000             4
    0.01470588235294    0.17708333333334    0.00000000000000             4
    0.04411764705883    0.17708333333334    0.00000000000000             4
    0.07352941176470    0.17708333333334    0.00000000000000             4
    0.10294117647059    0.17708333333334    0.00000000000000             4
    0.13235294117647    0.17708333333334    0.00000000000000             4
    0.16176470588236    0.17708333333334    0.00000000000000             4
    0.19117647058823    0.17708333333334    0.00000000000000             4
    0.22058823529412    0.17708333333334    0.00000000000000             4
    0.25000000000000    0.17708333333334    0.00000000000000             4
    0.27941176470588    0.17708333333334    0.00000000000000             4
    0.30882352941177    0.17708333333334    0.00000000000000             4
    0.33823529411764    0.17708333333334    0.00000000000000             4
    0.36764705882353    0.17708333333334    0.00000000000000             4
    0.39705882352941    0.17708333333334    0.00000000000000             4
    0.42647058823530    0.17708333333334    0.00000000000000             4
    0.45588235294117    0.17708333333334    0.00000000000000             4
    0.48529411764706    0.17708333333334    0.00000000000000             4
    0.01470588235294    0.19791666666666    0.00000000000000             4
    0.04411764705883    0.19791666666666    0.00000000000000             4
    0.07352941176470    0.19791666666666    0.00000000000000             4
    0.10294117647059    0.19791666666666    0.00000000000000             4
    0.13235294117647    0.19791666666666    0.00000000000000             4
    0.16176470588236    0.19791666666666    0.00000000000000             4
    0.19117647058823    0.19791666666666    0.00000000000000             4
    0.22058823529412    0.19791666666666    0.00000000000000             4
    0.25000000000000    0.19791666666666    0.00000000000000             4
    0.27941176470588    0.19791666666666    0.00000000000000             4
    0.30882352941177    0.19791666666666    0.00000000000000             4
    0.33823529411764    0.19791666666666    0.00000000000000             4
    0.36764705882353    0.19791666666666    0.00000000000000             4
    0.39705882352941    0.19791666666666    0.00000000000000             4
    0.42647058823530    0.19791666666666    0.00000000000000             4
    0.45588235294117    0.19791666666666    0.00000000000000             4
    0.48529411764706    0.19791666666666    0.00000000000000             4
    0.01470588235294    0.21875000000000    0.00000000000000             4
    0.04411764705883    0.21875000000000    0.00000000000000             4
    0.07352941176470    0.21875000000000    0.00000000000000             4
    0.10294117647059    0.21875000000000    0.00000000000000             4
    0.13235294117647    0.21875000000000    0.00000000000000             4
    0.16176470588236    0.21875000000000    0.00000000000000             4
    0.19117647058823    0.21875000000000    0.00000000000000             4
    0.22058823529412    0.21875000000000    0.00000000000000             4
    0.25000000000000    0.21875000000000    0.00000000000000             4
    0.27941176470588    0.21875000000000    0.00000000000000             4
    0.30882352941177    0.21875000000000    0.00000000000000             4
    0.33823529411764    0.21875000000000    0.00000000000000             4
    0.36764705882353    0.21875000000000    0.00000000000000             4
    0.39705882352941    0.21875000000000    0.00000000000000             4
    0.42647058823530    0.21875000000000    0.00000000000000             4
    0.45588235294117    0.21875000000000    0.00000000000000             4
    0.48529411764706    0.21875000000000    0.00000000000000             4
    0.01470588235294    0.23958333333334    0.00000000000000             4
    0.04411764705883    0.23958333333334    0.00000000000000             4
    0.07352941176470    0.23958333333334    0.00000000000000             4
    0.10294117647059    0.23958333333334    0.00000000000000             4
    0.13235294117647    0.23958333333334    0.00000000000000             4
    0.16176470588236    0.23958333333334    0.00000000000000             4
    0.19117647058823    0.23958333333334    0.00000000000000             4
    0.22058823529412    0.23958333333334    0.00000000000000             4
    0.25000000000000    0.23958333333334    0.00000000000000             4
    0.27941176470588    0.23958333333334    0.00000000000000             4
    0.30882352941177    0.23958333333334    0.00000000000000             4
    0.33823529411764    0.23958333333334    0.00000000000000             4
    0.36764705882353    0.23958333333334    0.00000000000000             4
    0.39705882352941    0.23958333333334    0.00000000000000             4
    0.42647058823530    0.23958333333334    0.00000000000000             4
    0.45588235294117    0.23958333333334    0.00000000000000             4
    0.48529411764706    0.23958333333334    0.00000000000000             4
    0.01470588235294    0.26041666666666    0.00000000000000             4
    0.04411764705883    0.26041666666666    0.00000000000000             4
    0.07352941176470    0.26041666666666    0.00000000000000             4
    0.10294117647059    0.26041666666666    0.00000000000000             4
    0.13235294117647    0.26041666666666    0.00000000000000             4
    0.16176470588236    0.26041666666666    0.00000000000000             4
    0.19117647058823    0.26041666666666    0.00000000000000             4
    0.22058823529412    0.26041666666666    0.00000000000000             4
    0.25000000000000    0.26041666666666    0.00000000000000             4
    0.27941176470588    0.26041666666666    0.00000000000000             4
    0.30882352941177    0.26041666666666    0.00000000000000             4
    0.33823529411764    0.26041666666666    0.00000000000000             4
    0.36764705882353    0.26041666666666    0.00000000000000             4
    0.39705882352941    0.26041666666666    0.00000000000000             4
    0.42647058823530    0.26041666666666    0.00000000000000             4
    0.45588235294117    0.26041666666666    0.00000000000000             4
    0.48529411764706    0.26041666666666    0.00000000000000             4
    0.01470588235294    0.28125000000000    0.00000000000000             4
    0.04411764705883    0.28125000000000    0.00000000000000             4
    0.07352941176470    0.28125000000000    0.00000000000000             4
    0.10294117647059    0.28125000000000    0.00000000000000             4
    0.13235294117647    0.28125000000000    0.00000000000000             4
    0.16176470588236    0.28125000000000    0.00000000000000             4
    0.19117647058823    0.28125000000000    0.00000000000000             4
    0.22058823529412    0.28125000000000    0.00000000000000             4
    0.25000000000000    0.28125000000000    0.00000000000000             4
    0.27941176470588    0.28125000000000    0.00000000000000             4
    0.30882352941177    0.28125000000000    0.00000000000000             4
    0.33823529411764    0.28125000000000    0.00000000000000             4
    0.36764705882353    0.28125000000000    0.00000000000000             4
    0.39705882352941    0.28125000000000    0.00000000000000             4
    0.42647058823530    0.28125000000000    0.00000000000000             4
    0.45588235294117    0.28125000000000    0.00000000000000             4
    0.48529411764706    0.28125000000000    0.00000000000000             4
    0.01470588235294    0.30208333333334    0.00000000000000             4
    0.04411764705883    0.30208333333334    0.00000000000000             4
    0.07352941176470    0.30208333333334    0.00000000000000             4
    0.10294117647059    0.30208333333334    0.00000000000000             4
    0.13235294117647    0.30208333333334    0.00000000000000             4
    0.16176470588236    0.30208333333334    0.00000000000000             4
    0.19117647058823    0.30208333333334    0.00000000000000             4
    0.22058823529412    0.30208333333334    0.00000000000000             4
    0.25000000000000    0.30208333333334    0.00000000000000             4
    0.27941176470588    0.30208333333334    0.00000000000000             4
    0.30882352941177    0.30208333333334    0.00000000000000             4
    0.33823529411764    0.30208333333334    0.00000000000000             4
    0.36764705882353    0.30208333333334    0.00000000000000             4
    0.39705882352941    0.30208333333334    0.00000000000000             4
    0.42647058823530    0.30208333333334    0.00000000000000             4
    0.45588235294117    0.30208333333334    0.00000000000000             4
    0.48529411764706    0.30208333333334    0.00000000000000             4
    0.01470588235294    0.32291666666666    0.00000000000000             4
    0.04411764705883    0.32291666666666    0.00000000000000             4
    0.07352941176470    0.32291666666666    0.00000000000000             4
    0.10294117647059    0.32291666666666    0.00000000000000             4
    0.13235294117647    0.32291666666666    0.00000000000000             4
    0.16176470588236    0.32291666666666    0.00000000000000             4
    0.19117647058823    0.32291666666666    0.00000000000000             4
    0.22058823529412    0.32291666666666    0.00000000000000             4
    0.25000000000000    0.32291666666666    0.00000000000000             4
    0.27941176470588    0.32291666666666    0.00000000000000             4
    0.30882352941177    0.32291666666666    0.00000000000000             4
    0.33823529411764    0.32291666666666    0.00000000000000             4
    0.36764705882353    0.32291666666666    0.00000000000000             4
    0.39705882352941    0.32291666666666    0.00000000000000             4
    0.42647058823530    0.32291666666666    0.00000000000000             4
    0.45588235294117    0.32291666666666    0.00000000000000             4
    0.48529411764706    0.32291666666666    0.00000000000000             4
    0.01470588235294    0.34375000000000    0.00000000000000             4
    0.04411764705883    0.34375000000000    0.00000000000000             4
    0.07352941176470    0.34375000000000    0.00000000000000             4
    0.10294117647059    0.34375000000000    0.00000000000000             4
    0.13235294117647    0.34375000000000    0.00000000000000             4
    0.16176470588236    0.34375000000000    0.00000000000000             4
    0.19117647058823    0.34375000000000    0.00000000000000             4
    0.22058823529412    0.34375000000000    0.00000000000000             4
    0.25000000000000    0.34375000000000    0.00000000000000             4
    0.27941176470588    0.34375000000000    0.00000000000000             4
    0.30882352941177    0.34375000000000    0.00000000000000             4
    0.33823529411764    0.34375000000000    0.00000000000000             4
    0.36764705882353    0.34375000000000    0.00000000000000             4
    0.39705882352941    0.34375000000000    0.00000000000000             4
    0.42647058823530    0.34375000000000    0.00000000000000             4
    0.45588235294117    0.34375000000000    0.00000000000000             4
    0.48529411764706    0.34375000000000    0.00000000000000             4
    0.01470588235294    0.36458333333334    0.00000000000000             4
    0.04411764705883    0.36458333333334    0.00000000000000             4
    0.07352941176470    0.36458333333334    0.00000000000000             4
    0.10294117647059    0.36458333333334    0.00000000000000             4
    0.13235294117647    0.36458333333334    0.00000000000000             4
    0.16176470588236    0.36458333333334    0.00000000000000             4
    0.19117647058823    0.36458333333334    0.00000000000000             4
    0.22058823529412    0.36458333333334    0.00000000000000             4
    0.25000000000000    0.36458333333334    0.00000000000000             4
    0.27941176470588    0.36458333333334    0.00000000000000             4
    0.30882352941177    0.36458333333334    0.00000000000000             4
    0.33823529411764    0.36458333333334    0.00000000000000             4
    0.36764705882353    0.36458333333334    0.00000000000000             4
    0.39705882352941    0.36458333333334    0.00000000000000             4
    0.42647058823530    0.36458333333334    0.00000000000000             4
    0.45588235294117    0.36458333333334    0.00000000000000             4
    0.48529411764706    0.36458333333334    0.00000000000000             4
    0.01470588235294    0.38541666666666    0.00000000000000             4
    0.04411764705883    0.38541666666666    0.00000000000000             4
    0.07352941176470    0.38541666666666    0.00000000000000             4
    0.10294117647059    0.38541666666666    0.00000000000000             4
    0.13235294117647    0.38541666666666    0.00000000000000             4
    0.16176470588236    0.38541666666666    0.00000000000000             4
    0.19117647058823    0.38541666666666    0.00000000000000             4
    0.22058823529412    0.38541666666666    0.00000000000000             4
    0.25000000000000    0.38541666666666    0.00000000000000             4
    0.27941176470588    0.38541666666666    0.00000000000000             4
    0.30882352941177    0.38541666666666    0.00000000000000             4
    0.33823529411764    0.38541666666666    0.00000000000000             4
    0.36764705882353    0.38541666666666    0.00000000000000             4
    0.39705882352941    0.38541666666666    0.00000000000000             4
    0.42647058823530    0.38541666666666    0.00000000000000             4
    0.45588235294117    0.38541666666666    0.00000000000000             4
    0.48529411764706    0.38541666666666    0.00000000000000             4
    0.01470588235294    0.40625000000000    0.00000000000000             4
    0.04411764705883    0.40625000000000    0.00000000000000             4
    0.07352941176470    0.40625000000000    0.00000000000000             4
    0.10294117647059    0.40625000000000    0.00000000000000             4
    0.13235294117647    0.40625000000000    0.00000000000000             4
    0.16176470588236    0.40625000000000    0.00000000000000             4
    0.19117647058823    0.40625000000000    0.00000000000000             4
    0.22058823529412    0.40625000000000    0.00000000000000             4
    0.25000000000000    0.40625000000000    0.00000000000000             4
    0.27941176470588    0.40625000000000    0.00000000000000             4
    0.30882352941177    0.40625000000000    0.00000000000000             4
    0.33823529411764    0.40625000000000    0.00000000000000             4
    0.36764705882353    0.40625000000000    0.00000000000000             4
    0.39705882352941    0.40625000000000    0.00000000000000             4
    0.42647058823530    0.40625000000000    0.00000000000000             4
    0.45588235294117    0.40625000000000    0.00000000000000             4
    0.48529411764706    0.40625000000000    0.00000000000000             4
    0.01470588235294    0.42708333333334    0.00000000000000             4
    0.04411764705883    0.42708333333334    0.00000000000000             4
    0.07352941176470    0.42708333333334    0.00000000000000             4
    0.10294117647059    0.42708333333334    0.00000000000000             4
    0.13235294117647    0.42708333333334    0.00000000000000             4
    0.16176470588236    0.42708333333334    0.00000000000000             4
    0.19117647058823    0.42708333333334    0.00000000000000             4
    0.22058823529412    0.42708333333334    0.00000000000000             4
    0.25000000000000    0.42708333333334    0.00000000000000             4
    0.27941176470588    0.42708333333334    0.00000000000000             4
    0.30882352941177    0.42708333333334    0.00000000000000             4
    0.33823529411764    0.42708333333334    0.00000000000000             4
    0.36764705882353    0.42708333333334    0.00000000000000             4
    0.39705882352941    0.42708333333334    0.00000000000000             4
    0.42647058823530    0.42708333333334    0.00000000000000             4
    0.45588235294117    0.42708333333334    0.00000000000000             4
    0.48529411764706    0.42708333333334    0.00000000000000             4
    0.01470588235294    0.44791666666666    0.00000000000000             4
    0.04411764705883    0.44791666666666    0.00000000000000             4
    0.07352941176470    0.44791666666666    0.00000000000000             4
    0.10294117647059    0.44791666666666    0.00000000000000             4
    0.13235294117647    0.44791666666666    0.00000000000000             4
    0.16176470588236    0.44791666666666    0.00000000000000             4
    0.19117647058823    0.44791666666666    0.00000000000000             4
    0.22058823529412    0.44791666666666    0.00000000000000             4
    0.25000000000000    0.44791666666666    0.00000000000000             4
    0.27941176470588    0.44791666666666    0.00000000000000             4
    0.30882352941177    0.44791666666666    0.00000000000000             4
    0.33823529411764    0.44791666666666    0.00000000000000             4
    0.36764705882353    0.44791666666666    0.00000000000000             4
    0.39705882352941    0.44791666666666    0.00000000000000             4
    0.42647058823530    0.44791666666666    0.00000000000000             4
    0.45588235294117    0.44791666666666    0.00000000000000             4
    0.48529411764706    0.44791666666666    0.00000000000000             4
    0.01470588235294    0.46875000000000    0.00000000000000             4
    0.04411764705883    0.46875000000000    0.00000000000000             4
    0.07352941176470    0.46875000000000    0.00000000000000             4
    0.10294117647059    0.46875000000000    0.00000000000000             4
    0.13235294117647    0.46875000000000    0.00000000000000             4
    0.16176470588236    0.46875000000000    0.00000000000000             4
    0.19117647058823    0.46875000000000    0.00000000000000             4
    0.22058823529412    0.46875000000000    0.00000000000000             4
    0.25000000000000    0.46875000000000    0.00000000000000             4
    0.27941176470588    0.46875000000000    0.00000000000000             4
    0.30882352941177    0.46875000000000    0.00000000000000             4
    0.33823529411764    0.46875000000000    0.00000000000000             4
    0.36764705882353    0.46875000000000    0.00000000000000             4
    0.39705882352941    0.46875000000000    0.00000000000000             4
    0.42647058823530    0.46875000000000    0.00000000000000             4
    0.45588235294117    0.46875000000000    0.00000000000000             4
    0.48529411764706    0.46875000000000    0.00000000000000             4
    0.01470588235294    0.48958333333334    0.00000000000000             4
    0.04411764705883    0.48958333333334    0.00000000000000             4
    0.07352941176470    0.48958333333334    0.00000000000000             4
    0.10294117647059    0.48958333333334    0.00000000000000             4
    0.13235294117647    0.48958333333334    0.00000000000000             4
    0.16176470588236    0.48958333333334    0.00000000000000             4
    0.19117647058823    0.48958333333334    0.00000000000000             4
    0.22058823529412    0.48958333333334    0.00000000000000             4