 running   24 mpi-ranks, with    1 threads/rank, on    1 nodes
 distrk:  each k-point on   24 cores,    1 groups
 distr:  one band on    1 cores,   24 groups
 vasp.6.4.3 19Mar24 (build May 31 2024 16:31:43) complex                        
  
 POSCAR found type information on POSCAR B 
 POSCAR found :  1 types and       1 ions
 Reading from existing POTCAR
 scaLAPACK will be used
 Reading from existing POTCAR
 LDA part: xc-table for (Slater+PW92), standard interpolation
 POSCAR, INCAR and KPOINTS ok, starting setup
 FFT: planning ... GRIDC
 FFT: planning ... GRID_SOFT
 FFT: planning ... GRID
 WAVECAR not read
 entering main loop
       N       E                     dE             d eps       ncg     rms          rms(c)
DAV:   1     0.839974746793E+01    0.83997E+01   -0.36522E+02  8400   0.445E+01
DAV:   2     0.141449016166E+00   -0.82583E+01   -0.82317E+01 16128   0.600E+00
DAV:   3    -0.539964807012E-01   -0.19545E+00   -0.17275E+00  8736   0.163E+00
DAV:   4    -0.582039054078E-01   -0.42074E-02   -0.39058E-02  9360   0.200E-01
DAV:   5    -0.582520071579E-01   -0.48102E-04   -0.48074E-04 13296   0.247E-02    0.521E-03
DAV:   6    -0.582535738364E-01   -0.15667E-05   -0.30418E-06 11424   0.321E-03    0.287E-03
DAV:   7    -0.582569569413E-01   -0.33831E-05   -0.53339E-07 11208   0.324E-03    0.279E-04
DAV:   8    -0.582569937176E-01   -0.36776E-07   -0.25114E-09 13632   0.143E-04
   1 F= -.58256994E-01 E0= -.31756323E-01  d E =-.530013E-01
