  14  14   0   0
  0.1021960E+02  0.5697000E-09  0.4047900E-09  0.6204200E-09  0.5000000E-15
  1.000000000000000E-004
  CAR 
 Kpoints                                 
     18.00042397    -14.19447029  301      1.89624781      1.00000000
    -14.194  0.0000E+00  0.0000E+00
    -14.087  0.0000E+00  0.0000E+00
    -13.980  0.0000E+00  0.0000E+00
    -13.873  0.0000E+00  0.0000E+00
    -13.765  0.0000E+00  0.0000E+00
    -13.658  0.0000E+00  0.0000E+00
    -13.551  0.0000E+00  0.0000E+00
    -13.443  0.0000E+00  0.0000E+00
    -13.336  0.0000E+00  0.0000E+00
    -13.229  0.0000E+00  0.0000E+00
    -13.121  0.0000E+00  0.0000E+00
    -13.014  0.1312E-16  0.1408E-17
    -12.907  0.1214E-07  0.1302E-08
    -12.799  0.2332E-02  0.2502E-03
    -12.692  0.4306E+00  0.4646E-01
    -12.585  0.2283E+01  0.2915E+00
    -12.477  0.3527E+01  0.6700E+00
    -12.370  0.4345E+01  0.1136E+01
    -12.263  0.3558E+01  0.1518E+01
    -12.155  0.2865E+01  0.1826E+01
    -12.048  0.2631E+01  0.2108E+01
    -11.941  0.2586E+01  0.2385E+01
    -11.834  0.2739E+01  0.2679E+01
    -11.726  0.3321E+01  0.3036E+01
    -11.619  0.3623E+01  0.3425E+01
    -11.512  0.3137E+01  0.3761E+01
    -11.404  0.1742E+01  0.3948E+01
    -11.297  0.4723E+00  0.3999E+01
    -11.190  0.9994E-02  0.4000E+01
    -11.082  0.4512E-06  0.4000E+01
    -10.975  0.5224E-14  0.4000E+01
    -10.868  0.0000E+00  0.4000E+01
    -10.760  0.0000E+00  0.4000E+01
    -10.653  0.0000E+00  0.4000E+01
    -10.546  0.0000E+00  0.4000E+01
    -10.438  0.0000E+00  0.4000E+01
    -10.331  0.0000E+00  0.4000E+01
    -10.224  0.0000E+00  0.4000E+01
    -10.116  0.0000E+00  0.4000E+01
    -10.009  0.0000E+00  0.4000E+01
     -9.902  0.0000E+00  0.4000E+01
     -9.795  0.0000E+00  0.4000E+01
     -9.687  0.0000E+00  0.4000E+01
     -9.580  0.0000E+00  0.4000E+01
     -9.473  0.0000E+00  0.4000E+01
     -9.365  0.0000E+00  0.4000E+01
     -9.258  0.0000E+00  0.4000E+01
     -9.151  0.0000E+00  0.4000E+01
     -9.043  0.6433E-09  0.4000E+01
     -8.936  0.5174E-03  0.4000E+01
     -8.829  0.2681E+00  0.4029E+01
     -8.721  0.2077E+01  0.4252E+01
     -8.614  0.5280E+01  0.4818E+01
     -8.507  0.7010E+01  0.5571E+01
     -8.399  0.6268E+01  0.6243E+01
     -8.292  0.5309E+01  0.6813E+01
     -8.185  0.4885E+01  0.7337E+01
     -8.077  0.3839E+01  0.7749E+01
     -7.970  0.1700E+01  0.7932E+01
     -7.863  0.5845E+00  0.7995E+01
     -7.755  0.5081E-01  0.8000E+01
     -7.648  0.4424E-04  0.8000E+01
     -7.541  0.1614E-10  0.8000E+01
     -7.434  0.0000E+00  0.8000E+01
     -7.326  0.0000E+00  0.8000E+01
     -7.219  0.3201E-15  0.8000E+01
     -7.112  0.6902E-07  0.8000E+01
     -7.004  0.2622E-02  0.8000E+01
     -6.897  0.9698E-01  0.8011E+01
     -6.790  0.2836E+00  0.8041E+01
     -6.682  0.4519E+00  0.8090E+01
     -6.575  0.6961E+00  0.8164E+01
     -6.468  0.8962E+00  0.8261E+01
     -6.360  0.1364E+01  0.8407E+01
     -6.253  0.2112E+01  0.8634E+01
     -6.146  0.2855E+01  0.8940E+01
     -6.038  0.3995E+01  0.9369E+01
     -5.931  0.3949E+01  0.9792E+01
     -5.824  0.3995E+01  0.1022E+02
     -5.716  0.4129E+01  0.1066E+02
     -5.609  0.3974E+01  0.1109E+02
     -5.502  0.4125E+01  0.1153E+02
     -5.395  0.4433E+01  0.1201E+02
     -5.287  0.4772E+01  0.1252E+02
     -5.180  0.4464E+01  0.1300E+02
     -5.073  0.3912E+01  0.1342E+02
     -4.965  0.3432E+01  0.1379E+02
     -4.858  0.2473E+01  0.1405E+02
     -4.751  0.2463E+01  0.1432E+02
     -4.643  0.2940E+01  0.1463E+02
     -4.536  0.3580E+01  0.1502E+02
     -4.429  0.3586E+01  0.1540E+02
     -4.321  0.2938E+01  0.1572E+02
     -4.214  0.3061E+01  0.1605E+02
     -4.107  0.2874E+01  0.1636E+02
     -3.999  0.3011E+01  0.1668E+02
     -3.892  0.2875E+01  0.1699E+02
     -3.785  0.3110E+01  0.1732E+02
     -3.677  0.2980E+01  0.1764E+02
     -3.570  0.2733E+01  0.1793E+02
     -3.463  0.2692E+01  0.1822E+02
     -3.356  0.3058E+01  0.1855E+02
     -3.248  0.2625E+01  0.1883E+02
     -3.141  0.2631E+01  0.1911E+02
     -3.034  0.3084E+01  0.1945E+02
     -2.926  0.3050E+01  0.1977E+02
     -2.819  0.2804E+01  0.2007E+02
     -2.712  0.2442E+01  0.2034E+02
     -2.604  0.2555E+01  0.2061E+02
     -2.497  0.2973E+01  0.2093E+02
     -2.390  0.3151E+01  0.2127E+02
     -2.282  0.3582E+01  0.2165E+02
     -2.175  0.3608E+01  0.2204E+02
     -2.068  0.3197E+01  0.2238E+02
     -1.960  0.3994E+01  0.2281E+02
     -1.853  0.4916E+01  0.2334E+02
     -1.746  0.5453E+01  0.2392E+02
     -1.638  0.5927E+01  0.2456E+02
     -1.531  0.5744E+01  0.2518E+02
     -1.424  0.6517E+01  0.2588E+02
     -1.317  0.5506E+01  0.2647E+02
     -1.209  0.4969E+01  0.2700E+02
     -1.102  0.5683E+01  0.2761E+02
     -0.995  0.3964E+01  0.2803E+02
     -0.887  0.2642E+01  0.2832E+02
     -0.780  0.2611E+01  0.2860E+02
     -0.673  0.3316E+01  0.2895E+02
     -0.565  0.4657E+01  0.2945E+02
     -0.458  0.6036E+01  0.3010E+02
     -0.351  0.6536E+01  0.3080E+02
     -0.243  0.5969E+01  0.3144E+02
     -0.136  0.6637E+01  0.3216E+02
     -0.029  0.7265E+01  0.3294E+02
      0.079  0.6139E+01  0.3359E+02
      0.186  0.6355E+01  0.3428E+02
      0.293  0.8891E+01  0.3523E+02
      0.401  0.8356E+01  0.3613E+02
      0.508  0.8622E+01  0.3705E+02
      0.615  0.4719E+01  0.3756E+02
      0.722  0.3166E+01  0.3790E+02
      0.830  0.3066E+01  0.3823E+02
      0.937  0.3195E+01  0.3857E+02
      1.044  0.3341E+01  0.3893E+02
      1.152  0.3627E+01  0.3932E+02
      1.259  0.4143E+01  0.3976E+02
      1.366  0.3346E+01  0.4012E+02
      1.474  0.3771E+01  0.4053E+02
      1.581  0.4009E+01  0.4096E+02
      1.688  0.4249E+01  0.4141E+02
      1.796  0.3063E+01  0.4174E+02
      1.903  0.2578E+01  0.4202E+02
      2.010  0.2911E+01  0.4233E+02
      2.118  0.2908E+01  0.4264E+02
      2.225  0.2365E+01  0.4290E+02
      2.332  0.1756E+01  0.4309E+02
      2.440  0.1405E+01  0.4324E+02
      2.547  0.1210E+01  0.4337E+02
      2.654  0.8463E+00  0.4346E+02
      2.762  0.5679E+00  0.4352E+02
      2.869  0.3896E+00  0.4356E+02
      2.976  0.5389E+00  0.4362E+02
      3.083  0.6466E+00  0.4369E+02
      3.191  0.5459E+00  0.4375E+02
      3.298  0.3036E+00  0.4378E+02
      3.405  0.3120E+00  0.4381E+02
      3.513  0.4310E+00  0.4386E+02
      3.620  0.4181E+00  0.4390E+02
      3.727  0.2925E+00  0.4393E+02
      3.835  0.1953E+00  0.4395E+02
      3.942  0.3006E+00  0.4399E+02
      4.049  0.1180E+00  0.4400E+02
      4.157  0.1785E-02  0.4400E+02
      4.264  0.4060E-01  0.4400E+02
      4.371  0.2211E+00  0.4403E+02
      4.479  0.3646E+00  0.4407E+02
      4.586  0.4968E+00  0.4412E+02
      4.693  0.7201E+00  0.4420E+02
      4.801  0.8127E+00  0.4429E+02
      4.908  0.8450E+00  0.4438E+02
      5.015  0.1030E+01  0.4449E+02
      5.122  0.1084E+01  0.4460E+02
      5.230  0.1304E+01  0.4474E+02
      5.337  0.1717E+01  0.4493E+02
      5.444  0.2116E+01  0.4515E+02
      5.552  0.2505E+01  0.4542E+02
      5.659  0.2866E+01  0.4573E+02
      5.766  0.3364E+01  0.4609E+02
      5.874  0.3627E+01  0.4648E+02
      5.981  0.4005E+01  0.4691E+02
      6.088  0.4649E+01  0.4741E+02
      6.196  0.4489E+01  0.4789E+02
      6.303  0.4274E+01  0.4835E+02
      6.410  0.4176E+01  0.4880E+02
      6.518  0.4323E+01  0.4926E+02
      6.625  0.3916E+01  0.4968E+02
      6.732  0.3734E+01  0.5008E+02
      6.840  0.3754E+01  0.5049E+02
      6.947  0.4328E+01  0.5095E+02
      7.054  0.4903E+01  0.5148E+02
      7.161  0.5019E+01  0.5201E+02
      7.269  0.5075E+01  0.5256E+02
      7.376  0.4615E+01  0.5305E+02
      7.483  0.4466E+01  0.5353E+02
      7.591  0.4182E+01  0.5398E+02
      7.698  0.3495E+01  0.5436E+02
      7.805  0.3211E+01  0.5470E+02
      7.913  0.3007E+01  0.5503E+02
      8.020  0.3400E+01  0.5539E+02
      8.127  0.3571E+01  0.5577E+02
      8.235  0.3881E+01  0.5619E+02
      8.342  0.4025E+01  0.5662E+02
      8.449  0.4085E+01  0.5706E+02
      8.557  0.4088E+01  0.5750E+02
      8.664  0.4180E+01  0.5795E+02
      8.771  0.4750E+01  0.5846E+02
      8.879  0.5362E+01  0.5903E+02
      8.986  0.4905E+01  0.5956E+02
      9.093  0.4869E+01  0.6008E+02
      9.200  0.5419E+01  0.6066E+02
      9.308  0.4911E+01  0.6119E+02
      9.415  0.4796E+01  0.6170E+02
      9.522  0.4474E+01  0.6219E+02
      9.630  0.4791E+01  0.6270E+02
      9.737  0.5105E+01  0.6325E+02
      9.844  0.5021E+01  0.6379E+02
      9.952  0.5064E+01  0.6433E+02
     10.059  0.4307E+01  0.6479E+02
     10.166  0.3948E+01  0.6522E+02
     10.274  0.4200E+01  0.6567E+02
     10.381  0.5044E+01  0.6621E+02
     10.488  0.5779E+01  0.6683E+02
     10.596  0.5069E+01  0.6737E+02
     10.703  0.4374E+01  0.6784E+02
     10.810  0.3863E+01  0.6826E+02
     10.918  0.3407E+01  0.6862E+02
     11.025  0.4708E+01  0.6913E+02
     11.132  0.5354E+01  0.6970E+02
     11.239  0.6287E+01  0.7038E+02
     11.347  0.5720E+01  0.7099E+02
     11.454  0.4953E+01  0.7152E+02
     11.561  0.4699E+01  0.7203E+02
     11.669  0.4814E+01  0.7254E+02
     11.776  0.4777E+01  0.7305E+02
     11.883  0.4924E+01  0.7358E+02
     11.991  0.5899E+01  0.7422E+02
     12.098  0.6203E+01  0.7488E+02
     12.205  0.5863E+01  0.7551E+02
     12.313  0.4673E+01  0.7601E+02
     12.420  0.5789E+01  0.7663E+02
     12.527  0.6098E+01  0.7729E+02
     12.635  0.5666E+01  0.7790E+02
     12.742  0.5869E+01  0.7853E+02
     12.849  0.5939E+01  0.7916E+02
     12.957  0.5842E+01  0.7979E+02
     13.064  0.6265E+01  0.8046E+02
     13.171  0.5869E+01  0.8109E+02
     13.279  0.6344E+01  0.8177E+02
     13.386  0.5523E+01  0.8237E+02
     13.493  0.5352E+01  0.8294E+02
     13.600  0.5506E+01  0.8353E+02
     13.708  0.5302E+01  0.8410E+02
     13.815  0.5803E+01  0.8472E+02
     13.922  0.5493E+01  0.8531E+02
     14.030  0.5704E+01  0.8592E+02
     14.137  0.4948E+01  0.8646E+02
     14.244  0.5003E+01  0.8699E+02
     14.352  0.5023E+01  0.8753E+02
     14.459  0.4772E+01  0.8804E+02
     14.566  0.5061E+01  0.8859E+02
     14.674  0.5414E+01  0.8917E+02
     14.781  0.4674E+01  0.8967E+02
     14.888  0.4255E+01  0.9013E+02
     14.996  0.5040E+01  0.9067E+02
     15.103  0.6359E+01  0.9135E+02
     15.210  0.5847E+01  0.9198E+02
     15.318  0.5759E+01  0.9259E+02
     15.425  0.5873E+01  0.9323E+02
     15.532  0.5984E+01  0.9387E+02
     15.639  0.5468E+01  0.9445E+02
     15.747  0.4008E+01  0.9488E+02
     15.854  0.2898E+01  0.9520E+02
     15.961  0.2296E+01  0.9544E+02
     16.069  0.1516E+01  0.9560E+02
     16.176  0.1137E+01  0.9573E+02
     16.283  0.1034E+01  0.9584E+02
     16.391  0.8454E+00  0.9593E+02
     16.498  0.5457E+00  0.9599E+02
     16.605  0.1226E+00  0.9600E+02
     16.713  0.1497E-02  0.9600E+02
     16.820  0.1538E-07  0.9600E+02
     16.927  0.2699E-16  0.9600E+02
     17.035  0.0000E+00  0.9600E+02
     17.142  0.0000E+00  0.9600E+02
     17.249  0.0000E+00  0.9600E+02
     17.357  0.0000E+00  0.9600E+02
     17.464  0.0000E+00  0.9600E+02
     17.571  0.0000E+00  0.9600E+02
     17.678  0.0000E+00  0.9600E+02
     17.786  0.0000E+00  0.9600E+02
     17.893  0.0000E+00  0.9600E+02
     18.000  0.0000E+00  0.9600E+02
