  14  14   0   0
  0.1028104E+02  0.5708394E-09  0.4055996E-09  0.6216608E-09  0.5000000E-15
  1.000000000000000E-004
  CAR 
 Convergence                             
     17.87276121    -14.17466978  301      1.84931601      1.00000000
    -14.175  0.0000E+00  0.0000E+00
    -14.068  0.0000E+00  0.0000E+00
    -13.961  0.0000E+00  0.0000E+00
    -13.854  0.0000E+00  0.0000E+00
    -13.747  0.0000E+00  0.0000E+00
    -13.641  0.0000E+00  0.0000E+00
    -13.534  0.0000E+00  0.0000E+00
    -13.427  0.0000E+00  0.0000E+00
    -13.320  0.0000E+00  0.0000E+00
    -13.213  0.0000E+00  0.0000E+00
    -13.106  0.0000E+00  0.0000E+00
    -13.000  0.5609E-16  0.5992E-17
    -12.893  0.3270E-07  0.3493E-08
    -12.786  0.3911E-02  0.4178E-03
    -12.679  0.5108E+00  0.5499E-01
    -12.572  0.2397E+01  0.3111E+00
    -12.465  0.3578E+01  0.6933E+00
    -12.359  0.4382E+01  0.1161E+01
    -12.252  0.3539E+01  0.1540E+01
    -12.145  0.2738E+01  0.1832E+01
    -12.038  0.2757E+01  0.2127E+01
    -11.931  0.2496E+01  0.2393E+01
    -11.825  0.2772E+01  0.2689E+01
    -11.718  0.3404E+01  0.3053E+01
    -11.611  0.3538E+01  0.3431E+01
    -11.504  0.3149E+01  0.3767E+01
    -11.397  0.1713E+01  0.3950E+01
    -11.290  0.4552E+00  0.3999E+01
    -11.184  0.9414E-02  0.4000E+01
    -11.077  0.3231E-06  0.4000E+01
    -10.970  0.2705E-14  0.4000E+01
    -10.863  0.0000E+00  0.4000E+01
    -10.756  0.0000E+00  0.4000E+01
    -10.649  0.0000E+00  0.4000E+01
    -10.543  0.0000E+00  0.4000E+01
    -10.436  0.0000E+00  0.4000E+01
    -10.329  0.0000E+00  0.4000E+01
    -10.222  0.0000E+00  0.4000E+01
    -10.115  0.0000E+00  0.4000E+01
    -10.009  0.0000E+00  0.4000E+01
     -9.902  0.0000E+00  0.4000E+01
     -9.795  0.0000E+00  0.4000E+01
     -9.688  0.0000E+00  0.4000E+01
     -9.581  0.0000E+00  0.4000E+01
     -9.474  0.0000E+00  0.4000E+01
     -9.368  0.0000E+00  0.4000E+01
     -9.261  0.0000E+00  0.4000E+01
     -9.154  0.0000E+00  0.4000E+01
     -9.047  0.1176E-08  0.4000E+01
     -8.940  0.6817E-03  0.4000E+01
     -8.833  0.2847E+00  0.4030E+01
     -8.727  0.2122E+01  0.4257E+01
     -8.620  0.5401E+01  0.4834E+01
     -8.513  0.7028E+01  0.5585E+01
     -8.406  0.6276E+01  0.6255E+01
     -8.299  0.5332E+01  0.6825E+01
     -8.192  0.4853E+01  0.7343E+01
     -8.086  0.3858E+01  0.7755E+01
     -7.979  0.1660E+01  0.7933E+01
     -7.872  0.5766E+00  0.7994E+01
     -7.765  0.5235E-01  0.8000E+01
     -7.658  0.2531E-04  0.8000E+01
     -7.552  0.3162E-11  0.8000E+01
     -7.445  0.0000E+00  0.8000E+01
     -7.338  0.0000E+00  0.8000E+01
     -7.231  0.0000E+00  0.8000E+01
     -7.124  0.3894E-09  0.8000E+01
     -7.017  0.3436E-03  0.8000E+01
     -6.911  0.1083E+00  0.8012E+01
     -6.804  0.2605E+00  0.8039E+01
     -6.697  0.4234E+00  0.8085E+01
     -6.590  0.7665E+00  0.8167E+01
     -6.483  0.8426E+00  0.8257E+01
     -6.376  0.1426E+01  0.8409E+01
     -6.270  0.1921E+01  0.8614E+01
     -6.163  0.3048E+01  0.8940E+01
     -6.056  0.3809E+01  0.9347E+01
     -5.949  0.4128E+01  0.9788E+01
     -5.842  0.4058E+01  0.1022E+02
     -5.736  0.3900E+01  0.1064E+02
     -5.629  0.4078E+01  0.1107E+02
     -5.522  0.4214E+01  0.1152E+02
     -5.415  0.4580E+01  0.1201E+02
     -5.308  0.4638E+01  0.1251E+02
     -5.201  0.4503E+01  0.1299E+02
     -5.095  0.3892E+01  0.1341E+02
     -4.988  0.3219E+01  0.1375E+02
     -4.881  0.2987E+01  0.1407E+02
     -4.774  0.2291E+01  0.1431E+02
     -4.667  0.2899E+01  0.1462E+02
     -4.560  0.3374E+01  0.1498E+02
     -4.454  0.3432E+01  0.1535E+02
     -4.347  0.3380E+01  0.1571E+02
     -4.240  0.2970E+01  0.1603E+02
     -4.133  0.2914E+01  0.1634E+02
     -4.026  0.2922E+01  0.1665E+02
     -3.919  0.2899E+01  0.1696E+02
     -3.813  0.3098E+01  0.1729E+02
     -3.706  0.2911E+01  0.1760E+02
     -3.599  0.2711E+01  0.1789E+02
     -3.492  0.3085E+01  0.1822E+02
     -3.385  0.2674E+01  0.1851E+02
     -3.279  0.2812E+01  0.1881E+02
     -3.172  0.2824E+01  0.1911E+02
     -3.065  0.2693E+01  0.1940E+02
     -2.958  0.3106E+01  0.1973E+02
     -2.851  0.2993E+01  0.2005E+02
     -2.744  0.2457E+01  0.2031E+02
     -2.638  0.2624E+01  0.2059E+02
     -2.531  0.3004E+01  0.2091E+02
     -2.424  0.3018E+01  0.2124E+02
     -2.317  0.3174E+01  0.2157E+02
     -2.210  0.4000E+01  0.2200E+02
     -2.103  0.3653E+01  0.2239E+02
     -1.997  0.3163E+01  0.2273E+02
     -1.890  0.4914E+01  0.2325E+02
     -1.783  0.5513E+01  0.2384E+02
     -1.676  0.5673E+01  0.2445E+02
     -1.569  0.6157E+01  0.2511E+02
     -1.463  0.6174E+01  0.2577E+02
     -1.356  0.5640E+01  0.2637E+02
     -1.249  0.4698E+01  0.2687E+02
     -1.142  0.6466E+01  0.2756E+02
     -1.035  0.4300E+01  0.2802E+02
     -0.928  0.2302E+01  0.2827E+02
     -0.822  0.2711E+01  0.2856E+02
     -0.715  0.2890E+01  0.2887E+02
     -0.608  0.4377E+01  0.2933E+02
     -0.501  0.6777E+01  0.3006E+02
     -0.394  0.5701E+01  0.3067E+02
     -0.287  0.6587E+01  0.3137E+02
     -0.181  0.6407E+01  0.3205E+02
     -0.074  0.6727E+01  0.3277E+02
      0.033  0.6878E+01  0.3351E+02
      0.140  0.6204E+01  0.3417E+02
      0.247  0.8855E+01  0.3512E+02
      0.353  0.8170E+01  0.3599E+02
      0.460  0.8667E+01  0.3691E+02
      0.567  0.5494E+01  0.3750E+02
      0.674  0.3067E+01  0.3783E+02
      0.781  0.3189E+01  0.3817E+02
      0.888  0.3595E+01  0.3855E+02
      0.994  0.3593E+01  0.3894E+02
      1.101  0.2824E+01  0.3924E+02
      1.208  0.3347E+01  0.3960E+02
      1.315  0.4451E+01  0.4007E+02
      1.422  0.3853E+01  0.4048E+02
      1.529  0.3685E+01  0.4088E+02
      1.635  0.4596E+01  0.4137E+02
      1.742  0.3431E+01  0.4174E+02
      1.849  0.2474E+01  0.4200E+02
      1.956  0.2689E+01  0.4229E+02
      2.063  0.2105E+01  0.4251E+02
      2.170  0.2642E+01  0.4279E+02
      2.276  0.2636E+01  0.4308E+02
      2.383  0.2005E+01  0.4329E+02
      2.490  0.9420E+00  0.4339E+02
      2.597  0.3823E+00  0.4343E+02
      2.704  0.5769E+00  0.4349E+02
      2.810  0.4219E+00  0.4354E+02
      2.917  0.3066E+00  0.4357E+02
      3.024  0.7167E+00  0.4365E+02
      3.131  0.1031E+01  0.4376E+02
      3.238  0.5910E+00  0.4382E+02
      3.345  0.1967E-01  0.4382E+02
      3.451  0.1126E+00  0.4383E+02
      3.558  0.3898E+00  0.4388E+02
      3.665  0.3468E+00  0.4391E+02
      3.772  0.3586E+00  0.4395E+02
      3.879  0.4204E+00  0.4400E+02
      3.986  0.3569E-01  0.4400E+02
      4.092  0.7795E-05  0.4400E+02
      4.199  0.1338E-01  0.4400E+02
      4.306  0.1571E+00  0.4402E+02
      4.413  0.3681E+00  0.4406E+02
      4.520  0.4386E+00  0.4410E+02
      4.626  0.6142E+00  0.4417E+02
      4.733  0.8565E+00  0.4426E+02
      4.840  0.8405E+00  0.4435E+02
      4.947  0.8744E+00  0.4444E+02
      5.054  0.1232E+01  0.4458E+02
      5.161  0.1199E+01  0.4470E+02
      5.267  0.1566E+01  0.4487E+02
      5.374  0.2107E+01  0.4510E+02
      5.481  0.2515E+01  0.4537E+02
      5.588  0.2800E+01  0.4566E+02
      5.695  0.3258E+01  0.4601E+02
      5.802  0.3300E+01  0.4636E+02
      5.908  0.4184E+01  0.4681E+02
      6.015  0.4834E+01  0.4733E+02
      6.122  0.4123E+01  0.4777E+02
      6.229  0.4588E+01  0.4826E+02
      6.336  0.4344E+01  0.4872E+02
      6.443  0.3937E+01  0.4914E+02
      6.549  0.4541E+01  0.4963E+02
      6.656  0.3283E+01  0.4998E+02
      6.763  0.3940E+01  0.5040E+02
      6.870  0.4598E+01  0.5089E+02
      6.977  0.4612E+01  0.5138E+02
      7.083  0.4340E+01  0.5185E+02
      7.190  0.5562E+01  0.5244E+02
      7.297  0.5036E+01  0.5298E+02
      7.404  0.4500E+01  0.5346E+02
      7.511  0.4251E+01  0.5391E+02
      7.618  0.3610E+01  0.5430E+02
      7.724  0.3097E+01  0.5463E+02
      7.831  0.3040E+01  0.5496E+02
      7.938  0.2969E+01  0.5527E+02
      8.045  0.4148E+01  0.5572E+02
      8.152  0.3948E+01  0.5614E+02
      8.259  0.3773E+01  0.5654E+02
      8.365  0.4028E+01  0.5697E+02
      8.472  0.4268E+01  0.5743E+02
      8.579  0.4513E+01  0.5791E+02
      8.686  0.4330E+01  0.5837E+02
      8.793  0.5386E+01  0.5895E+02
      8.899  0.4742E+01  0.5945E+02
      9.006  0.5270E+01  0.6002E+02
      9.113  0.5227E+01  0.6058E+02
      9.220  0.5033E+01  0.6111E+02
      9.327  0.4655E+01  0.6161E+02
      9.434  0.4425E+01  0.6208E+02
      9.540  0.5081E+01  0.6263E+02
      9.647  0.5046E+01  0.6316E+02
      9.754  0.5275E+01  0.6373E+02
      9.861  0.4504E+01  0.6421E+02
      9.968  0.3718E+01  0.6461E+02
     10.075  0.5195E+01  0.6516E+02
     10.181  0.4728E+01  0.6567E+02
     10.288  0.4184E+01  0.6611E+02
     10.395  0.5299E+01  0.6668E+02
     10.502  0.5841E+01  0.6730E+02
     10.609  0.4094E+01  0.6774E+02
     10.716  0.3929E+01  0.6816E+02
     10.822  0.3300E+01  0.6851E+02
     10.929  0.4709E+01  0.6902E+02
     11.036  0.5371E+01  0.6959E+02
     11.143  0.6341E+01  0.7027E+02
     11.250  0.6009E+01  0.7091E+02
     11.356  0.5148E+01  0.7146E+02
     11.463  0.4477E+01  0.7194E+02
     11.570  0.4478E+01  0.7242E+02
     11.677  0.5008E+01  0.7295E+02
     11.784  0.4840E+01  0.7347E+02
     11.891  0.5967E+01  0.7410E+02
     11.997  0.6048E+01  0.7475E+02
     12.104  0.6083E+01  0.7540E+02
     12.211  0.5516E+01  0.7599E+02
     12.318  0.5006E+01  0.7652E+02
     12.425  0.5731E+01  0.7714E+02
     12.532  0.5963E+01  0.7777E+02
     12.638  0.5905E+01  0.7840E+02
     12.745  0.5981E+01  0.7904E+02
     12.852  0.5904E+01  0.7967E+02
     12.959  0.5637E+01  0.8028E+02
     13.066  0.6347E+01  0.8095E+02
     13.172  0.6345E+01  0.8163E+02
     13.279  0.5494E+01  0.8222E+02
     13.386  0.6117E+01  0.8287E+02
     13.493  0.5470E+01  0.8346E+02
     13.600  0.4861E+01  0.8398E+02
     13.707  0.6208E+01  0.8464E+02
     13.813  0.5514E+01  0.8523E+02
     13.920  0.5384E+01  0.8580E+02
     14.027  0.5478E+01  0.8639E+02
     14.134  0.4675E+01  0.8689E+02
     14.241  0.4989E+01  0.8742E+02
     14.348  0.4937E+01  0.8795E+02
     14.454  0.4933E+01  0.8848E+02
     14.561  0.5273E+01  0.8904E+02
     14.668  0.5217E+01  0.8960E+02
     14.775  0.4107E+01  0.9003E+02
     14.882  0.4984E+01  0.9057E+02
     14.988  0.6121E+01  0.9122E+02
     15.095  0.5735E+01  0.9183E+02
     15.202  0.5744E+01  0.9245E+02
     15.309  0.5984E+01  0.9309E+02
     15.416  0.5789E+01  0.9371E+02
     15.523  0.6041E+01  0.9435E+02
     15.629  0.4641E+01  0.9485E+02
     15.736  0.2538E+01  0.9512E+02
     15.843  0.2708E+01  0.9541E+02
     15.950  0.1835E+01  0.9560E+02
     16.057  0.1126E+01  0.9572E+02
     16.164  0.8677E+00  0.9582E+02
     16.270  0.7280E+00  0.9589E+02
     16.377  0.8180E+00  0.9598E+02
     16.484  0.1783E+00  0.9600E+02
     16.591  0.1723E-02  0.9600E+02
     16.698  0.2275E-07  0.9600E+02
     16.805  0.5279E-16  0.9600E+02
     16.911  0.0000E+00  0.9600E+02
     17.018  0.0000E+00  0.9600E+02
     17.125  0.0000E+00  0.9600E+02
     17.232  0.0000E+00  0.9600E+02
     17.339  0.0000E+00  0.9600E+02
     17.445  0.0000E+00  0.9600E+02
     17.552  0.0000E+00  0.9600E+02
     17.659  0.0000E+00  0.9600E+02
     17.766  0.0000E+00  0.9600E+02
     17.873  0.0000E+00  0.9600E+02
