<?xml version="1.0" encoding="ISO-8859-1"?>
<modeling>
 <generator>
  <i name="program" type="string">vasp </i>
  <i name="version" type="string">6.4.3  </i>
  <i name="subversion" type="string">19Mar24 (build May 31 2024 16:31:43) complex                          parallel </i>
  <i name="platform" type="string">LinuxIFC </i>
  <i name="date" type="string">2024 11 05 </i>
  <i name="time" type="string">22:25:21 </i>
 </generator>
 <incar>
  <i type="string" name="SYSTEM">Convergence</i>
  <i type="int" name="ISTART">     0</i>
  <i type="string" name="PREC">Accurate</i>
  <i type="string" name="ALGO">Normal</i>
  <i type="int" name="ISPIN">     1</i>
  <i type="int" name="ICHARG">     2</i>
  <i type="int" name="NELM">   100</i>
  <i type="int" name="IBRION">    -1</i>
  <i name="EDIFF">      0.00000100</i>
  <i name="EDIFFG">     -0.00100000</i>
  <i type="int" name="NSW">     0</i>
  <i type="int" name="ISIF">     2</i>
  <i name="ENCUT">    600.00000000</i>
  <i name="POTIM">      0.50000000</i>
  <i type="int" name="ISMEAR">     0</i>
  <i name="SIGMA">      0.05000000</i>
  <i type="logical" name="LWAVE"> F  </i>
  <i type="logical" name="LCHARG"> F  </i>
  <i type="string" name="GGA">PE</i>
 </incar>
 <primitive_cell>
  <structure name="primitive_cell" >
   <crystal>
    <varray name="basis" >
     <v>       5.70839400       0.00000000       0.00000000 </v>
     <v>       0.00000000       4.05599580       0.00000000 </v>
     <v>       0.00000000       0.00000000       6.21660840 </v>
    </varray>
    <i name="volume">    143.93451492 </i>
    <varray name="rec_basis" >
     <v>       0.17518062       0.00000000       0.00000000 </v>
     <v>       0.00000000       0.24654858       0.00000000 </v>
     <v>       0.00000000       0.00000000       0.16085942 </v>
    </varray>
   </crystal>
   <varray name="positions" >
    <v>       0.52123000       0.50000000       0.63796000 </v>
    <v>       0.47877000       0.50000000       0.36204000 </v>
    <v>       0.97877000       0.50000000       0.63796000 </v>
    <v>       0.02123000       0.50000000       0.36204000 </v>
    <v>       0.60090000       0.50000000       0.89991000 </v>
    <v>       0.39910000       0.50000000       0.10009000 </v>
    <v>       0.89910000       0.50000000       0.89991000 </v>
    <v>       0.10090000       0.50000000       0.10009000 </v>
    <v>       0.75000000       0.79171000       0.72973000 </v>
    <v>       0.25000000       0.20829000       0.27027000 </v>
    <v>       0.75000000       0.20829000       0.72973000 </v>
    <v>       0.25000000       0.79171000       0.27027000 </v>
    <v>       0.25000000       0.50000000       0.52367000 </v>
    <v>       0.75000000       0.50000000       0.47633000 </v>
   </varray>
  </structure>
  <varray name="primitive_index" >
   <v type="int" >        1 </v>
   <v type="int" >        2 </v>
   <v type="int" >        3 </v>
   <v type="int" >        4 </v>
   <v type="int" >        5 </v>
   <v type="int" >        6 </v>
   <v type="int" >        7 </v>
   <v type="int" >        8 </v>
   <v type="int" >        9 </v>
   <v type="int" >       10 </v>
   <v type="int" >       11 </v>
   <v type="int" >       12 </v>
   <v type="int" >       13 </v>
   <v type="int" >       14 </v>
  </varray>
 </primitive_cell>
 <kpoints>
  <generation param="Monkhorst-Pack">
   <v type="int" name="divisions">      10       14        9 </v>
   <v name="usershift">      0.00000000       0.00000000       0.00000000 </v>
   <v name="genvec1">      0.10000000       0.00000000       0.00000000 </v>
   <v name="genvec2">      0.00000000       0.07142857       0.00000000 </v>
   <v name="genvec3">      0.00000000       0.00000000       0.11111111 </v>
   <v name="shift">      0.50000000       0.50000000       0.00000000 </v>
  </generation>
  <varray name="kpointlist" >
   <v>       0.05000000       0.03571429       0.00000000 </v>
   <v>       0.15000000       0.03571429       0.00000000 </v>
   <v>       0.25000000       0.03571429       0.00000000 </v>
   <v>       0.35000000       0.03571429       0.00000000 </v>
   <v>       0.45000000       0.03571429       0.00000000 </v>
   <v>       0.05000000       0.10714286       0.00000000 </v>
   <v>       0.15000000       0.10714286       0.00000000 </v>
   <v>       0.25000000       0.10714286       0.00000000 </v>
   <v>       0.35000000       0.10714286       0.00000000 </v>
   <v>       0.45000000       0.10714286       0.00000000 </v>
   <v>       0.05000000       0.17857143       0.00000000 </v>
   <v>       0.15000000       0.17857143       0.00000000 </v>
   <v>       0.25000000       0.17857143       0.00000000 </v>
   <v>       0.35000000       0.17857143       0.00000000 </v>
   <v>       0.45000000       0.17857143       0.00000000 </v>
   <v>       0.05000000       0.25000000       0.00000000 </v>
   <v>       0.15000000       0.25000000       0.00000000 </v>
   <v>       0.25000000       0.25000000       0.00000000 </v>
   <v>       0.35000000       0.25000000       0.00000000 </v>
   <v>       0.45000000       0.25000000       0.00000000 </v>
   <v>       0.05000000       0.32142857       0.00000000 </v>
   <v>       0.15000000       0.32142857       0.00000000 </v>
   <v>       0.25000000       0.32142857       0.00000000 </v>
   <v>       0.35000000       0.32142857       0.00000000 </v>
   <v>       0.45000000       0.32142857       0.00000000 </v>
   <v>       0.05000000       0.39285714       0.00000000 </v>
   <v>       0.15000000       0.39285714       0.00000000 </v>
   <v>       0.25000000       0.39285714       0.00000000 </v>
   <v>       0.35000000       0.39285714       0.00000000 </v>
   <v>       0.45000000       0.39285714       0.00000000 </v>
   <v>       0.05000000       0.46428571       0.00000000 </v>
   <v>       0.15000000       0.46428571       0.00000000 </v>
   <v>       0.25000000       0.46428571       0.00000000 </v>
   <v>       0.35000000       0.46428571       0.00000000 </v>
   <v>       0.45000000       0.46428571       0.00000000 </v>
   <v>       0.05000000       0.03571429       0.11111111 </v>
   <v>       0.15000000       0.03571429       0.11111111 </v>
   <v>       0.25000000       0.03571429       0.11111111 </v>
   <v>       0.35000000       0.03571429       0.11111111 </v>
   <v>       0.45000000       0.03571429       0.11111111 </v>
   <v>       0.05000000       0.10714286       0.11111111 </v>
   <v>       0.15000000       0.10714286       0.11111111 </v>
   <v>       0.25000000       0.10714286       0.11111111 </v>
   <v>       0.35000000       0.10714286       0.11111111 </v>
   <v>       0.45000000       0.10714286       0.11111111 </v>
   <v>       0.05000000       0.17857143       0.11111111 </v>
   <v>       0.15000000       0.17857143       0.11111111 </v>
   <v>       0.25000000       0.17857143       0.11111111 </v>
   <v>       0.35000000       0.17857143       0.11111111 </v>
   <v>       0.45000000       0.17857143       0.11111111 </v>
   <v>       0.05000000       0.25000000       0.11111111 </v>
   <v>       0.15000000       0.25000000       0.11111111 </v>
   <v>       0.25000000       0.25000000       0.11111111 </v>
   <v>       0.35000000       0.25000000       0.11111111 </v>
   <v>       0.45000000       0.25000000       0.11111111 </v>
   <v>       0.05000000       0.32142857       0.11111111 </v>
   <v>       0.15000000       0.32142857       0.11111111 </v>
   <v>       0.25000000       0.32142857       0.11111111 </v>
   <v>       0.35000000       0.32142857       0.11111111 </v>
   <v>       0.45000000       0.32142857       0.11111111 </v>
   <v>       0.05000000       0.39285714       0.11111111 </v>
   <v>       0.15000000       0.39285714       0.11111111 </v>
   <v>       0.25000000       0.39285714       0.11111111 </v>
   <v>       0.35000000       0.39285714       0.11111111 </v>
   <v>       0.45000000       0.39285714       0.11111111 </v>
   <v>       0.05000000       0.46428571       0.11111111 </v>
   <v>       0.15000000       0.46428571       0.11111111 </v>
   <v>       0.25000000       0.46428571       0.11111111 </v>
   <v>       0.35000000       0.46428571       0.11111111 </v>
   <v>       0.45000000       0.46428571       0.11111111 </v>
   <v>       0.05000000       0.03571429       0.22222222 </v>
   <v>       0.15000000       0.03571429       0.22222222 </v>
   <v>       0.25000000       0.03571429       0.22222222 </v>
   <v>       0.35000000       0.03571429       0.22222222 </v>
   <v>       0.45000000       0.03571429       0.22222222 </v>
   <v>       0.05000000       0.10714286       0.22222222 </v>
   <v>       0.15000000       0.10714286       0.22222222 </v>
   <v>       0.25000000       0.10714286       0.22222222 </v>
   <v>       0.35000000       0.10714286       0.22222222 </v>
   <v>       0.45000000       0.10714286       0.22222222 </v>
   <v>       0.05000000       0.17857143       0.22222222 </v>
   <v>       0.15000000       0.17857143       0.22222222 </v>
   <v>       0.25000000       0.17857143       0.22222222 </v>
   <v>       0.35000000       0.17857143       0.22222222 </v>
   <v>       0.45000000       0.17857143       0.22222222 </v>
   <v>       0.05000000       0.25000000       0.22222222 </v>
   <v>       0.15000000       0.25000000       0.22222222 </v>
   <v>       0.25000000       0.25000000       0.22222222 </v>
   <v>       0.35000000       0.25000000       0.22222222 </v>
   <v>       0.45000000       0.25000000       0.22222222 </v>
   <v>       0.05000000       0.32142857       0.22222222 </v>
   <v>       0.15000000       0.32142857       0.22222222 </v>
   <v>       0.25000000       0.32142857       0.22222222 </v>
   <v>       0.35000000       0.32142857       0.22222222 </v>
   <v>       0.45000000       0.32142857       0.22222222 </v>
   <v>       0.05000000       0.39285714       0.22222222 </v>
   <v>       0.15000000       0.39285714       0.22222222 </v>
   <v>       0.25000000       0.39285714       0.22222222 </v>
   <v>       0.35000000       0.39285714       0.22222222 </v>
   <v>       0.45000000       0.39285714       0.22222222 </v>
   <v>       0.05000000       0.46428571       0.22222222 </v>
   <v>       0.15000000       0.46428571       0.22222222 </v>
   <v>       0.25000000       0.46428571       0.22222222 </v>
   <v>       0.35000000       0.46428571       0.22222222 </v>
   <v>       0.45000000       0.46428571       0.22222222 </v>
   <v>       0.05000000       0.03571429       0.33333333 </v>
   <v>       0.15000000       0.03571429       0.33333333 </v>
   <v>       0.25000000       0.03571429       0.33333333 </v>
   <v>       0.35000000       0.03571429       0.33333333 </v>
   <v>       0.45000000       0.03571429       0.33333333 </v>
   <v>       0.05000000       0.10714286       0.33333333 </v>
   <v>       0.15000000       0.10714286       0.33333333 </v>
   <v>       0.25000000       0.10714286       0.33333333 </v>
   <v>       0.35000000       0.10714286       0.33333333 </v>
   <v>       0.45000000       0.10714286       0.33333333 </v>
   <v>       0.05000000       0.17857143       0.33333333 </v>
   <v>       0.15000000       0.17857143       0.33333333 </v>
   <v>       0.25000000       0.17857143       0.33333333 </v>
   <v>       0.35000000       0.17857143       0.33333333 </v>
   <v>       0.45000000       0.17857143       0.33333333 </v>
   <v>       0.05000000       0.25000000       0.33333333 </v>
   <v>       0.15000000       0.25000000       0.33333333 </v>
   <v>       0.25000000       0.25000000       0.33333333 </v>
   <v>       0.35000000       0.25000000       0.33333333 </v>
   <v>       0.45000000       0.25000000       0.33333333 </v>
   <v>       0.05000000       0.32142857       0.33333333 </v>
   <v>       0.15000000       0.32142857       0.33333333 </v>
   <v>       0.25000000       0.32142857       0.33333333 </v>
   <v>       0.35000000       0.32142857       0.33333333 </v>
   <v>       0.45000000       0.32142857       0.33333333 </v>
   <v>       0.05000000       0.39285714       0.33333333 </v>
   <v>       0.15000000       0.39285714       0.33333333 </v>
   <v>       0.25000000       0.39285714       0.33333333 </v>
   <v>       0.35000000       0.39285714       0.33333333 </v>
   <v>       0.45000000       0.39285714       0.33333333 </v>
   <v>       0.05000000       0.46428571       0.33333333 </v>
   <v>       0.15000000       0.46428571       0.33333333 </v>
   <v>       0.25000000       0.46428571       0.33333333 </v>
   <v>       0.35000000       0.46428571       0.33333333 </v>
   <v>       0.45000000       0.46428571       0.33333333 </v>
   <v>       0.05000000       0.03571429       0.44444444 </v>
   <v>       0.15000000       0.03571429       0.44444444 </v>
   <v>       0.25000000       0.03571429       0.44444444 </v>
   <v>       0.35000000       0.03571429       0.44444444 </v>
   <v>       0.45000000       0.03571429       0.44444444 </v>
   <v>       0.05000000       0.10714286       0.44444444 </v>
   <v>       0.15000000       0.10714286       0.44444444 </v>
   <v>       0.25000000       0.10714286       0.44444444 </v>
   <v>       0.35000000       0.10714286       0.44444444 </v>
   <v>       0.45000000       0.10714286       0.44444444 </v>
   <v>       0.05000000       0.17857143       0.44444444 </v>
   <v>       0.15000000       0.17857143       0.44444444 </v>
   <v>       0.25000000       0.17857143       0.44444444 </v>
   <v>       0.35000000       0.17857143       0.44444444 </v>
   <v>       0.45000000       0.17857143       0.44444444 </v>
   <v>       0.05000000       0.25000000       0.44444444 </v>
   <v>       0.15000000       0.25000000       0.44444444 </v>
   <v>       0.25000000       0.25000000       0.44444444 </v>
   <v>       0.35000000       0.25000000       0.44444444 </v>
   <v>       0.45000000       0.25000000       0.44444444 </v>
   <v>       0.05000000       0.32142857       0.44444444 </v>
   <v>       0.15000000       0.32142857       0.44444444 </v>
   <v>       0.25000000       0.32142857       0.44444444 </v>
   <v>       0.35000000       0.32142857       0.44444444 </v>
   <v>       0.45000000       0.32142857       0.44444444 </v>
   <v>       0.05000000       0.39285714       0.44444444 </v>
   <v>       0.15000000       0.39285714       0.44444444 </v>
   <v>       0.25000000       0.39285714       0.44444444 </v>
   <v>       0.35000000       0.39285714       0.44444444 </v>
   <v>       0.45000000       0.39285714       0.44444444 </v>
   <v>       0.05000000       0.46428571       0.44444444 </v>
   <v>       0.15000000       0.46428571       0.44444444 </v>
   <v>       0.25000000       0.46428571       0.44444444 </v>
   <v>       0.35000000       0.46428571       0.44444444 </v>
   <v>       0.45000000       0.46428571       0.44444444 </v>
  </varray>
  <varray name="weights" >
   <v>       0.00317460 </v>
   <v>       0.00317460 </v>
   <v>       0.00317460 </v>
   <v>       0.00317460 </v>
   <v>       0.00317460 </v>
   <v>       0.00317460 </v>
   <v>       0.00317460 </v>
   <v>       0.00317460 </v>
   <v>       0.00317460 </v>
   <v>       0.00317460 </v>
   <v>       0.00317460 </v>
   <v>       0.00317460 </v>
   <v>       0.00317460 </v>
   <v>       0.00317460 </v>
   <v>       0.00317460 </v>
   <v>       0.00317460 </v>
   <v>       0.00317460 </v>
   <v>       0.00317460 </v>
   <v>       0.00317460 </v>
   <v>       0.00317460 </v>
   <v>       0.00317460 </v>
   <v>       0.00317460 </v>
   <v>       0.00317460 </v>
   <v>       0.00317460 </v>
   <v>       0.00317460 </v>
   <v>       0.00317460 </v>
   <v>       0.00317460 </v>
   <v>       0.00317460 </v>
   <v>       0.00317460 </v>
   <v>       0.00317460 </v>
   <v>       0.00317460 </v>
   <v>       0.00317460 </v>
   <v>       0.00317460 </v>
   <v>       0.00317460 </v>
   <v>       0.00317460 </v>
   <v>       0.00634921 </v>
   <v>       0.00634921 </v>
   <v>       0.00634921 </v>
   <v>       0.00634921 </v>
   <v>       0.00634921 </v>
   <v>       0.00634921 </v>
   <v>       0.00634921 </v>
   <v>       0.00634921 </v>
   <v>       0.00634921 </v>
   <v>       0.00634921 </v>
   <v>       0.00634921 </v>
   <v>       0.00634921 </v>
   <v>       0.00634921 </v>
   <v>       0.00634921 </v>
   <v>       0.00634921 </v>
   <v>       0.00634921 </v>
   <v>       0.00634921 </v>
   <v>       0.00634921 </v>
   <v>       0.00634921 </v>
   <v>       0.00634921 </v>
   <v>       0.00634921 </v>
   <v>       0.00634921 </v>
   <v>       0.00634921 </v>
   <v>       0.00634921 </v>
   <v>       0.00634921 </v>
   <v>       0.00634921 </v>
   <v>       0.00634921 </v>
   <v>       0.00634921 </v>
   <v>       0.00634921 </v>
   <v>       0.00634921 </v>
   <v>       0.00634921 </v>
   <v>       0.00634921 </v>
   <v>       0.00634921 </v>
   <v>       0.00634921 </v>
   <v>       0.00634921 </v>
   <v>       0.00634921 </v>
   <v>       0.00634921 </v>
   <v>       0.00634921 </v>
   <v>       0.00634921 </v>
   <v>       0.00634921 </v>
   <v>       0.00634921 </v>
   <v>       0.00634921 </v>
   <v>       0.00634921 </v>
   <v>       0.00634921 </v>
   <v>       0.00634921 </v>
   <v>       0.00634921 </v>
   <v>       0.00634921 </v>
   <v>       0.00634921 </v>
   <v>       0.00634921 </v>
   <v>       0.00634921 </v>
   <v>       0.00634921 </v>
   <v>       0.00634921 </v>
   <v>       0.00634921 </v>
   <v>       0.00634921 </v>
   <v>       0.00634921 </v>
   <v>       0.00634921 </v>
   <v>       0.00634921 </v>
   <v>       0.00634921 </v>
   <v>       0.00634921 </v>
   <v>       0.00634921 </v>
   <v>       0.00634921 </v>
   <v>       0.00634921 </v>
   <v>       0.00634921 </v>
   <v>       0.00634921 </v>
   <v>       0.00634921 </v>
   <v>       0.00634921 </v>
   <v>       0.00634921 </v>
   <v>       0.00634921 </v>
   <v>       0.00634921 </v>
   <v>       0.00634921 </v>
   <v>       0.00634921 </v>
   <v>       0.00634921 </v>
   <v>       0.00634921 </v>
   <v>       0.00634921 </v>
   <v>       0.00634921 </v>
   <v>       0.00634921 </v>
   <v>       0.00634921 </v>
   <v>       0.00634921 </v>
   <v>       0.00634921 </v>
   <v>       0.00634921 </v>
   <v>       0.00634921 </v>
   <v>       0.00634921 </v>
   <v>       0.00634921 </v>
   <v>       0.00634921 </v>
   <v>       0.00634921 </v>
   <v>       0.00634921 </v>
   <v>       0.00634921 </v>
   <v>       0.00634921 </v>
   <v>       0.00634921 </v>
   <v>       0.00634921 </v>
   <v>       0.00634921 </v>
   <v>       0.00634921 </v>
   <v>       0.00634921 </v>
   <v>       0.00634921 </v>
   <v>       0.00634921 </v>
   <v>       0.00634921 </v>
   <v>       0.00634921 </v>
   <v>       0.00634921 </v>
   <v>       0.00634921 </v>
   <v>       0.00634921 </v>
   <v>       0.00634921 </v>
   <v>       0.00634921 </v>
   <v>       0.00634921 </v>
   <v>       0.00634921 </v>
   <v>       0.00634921 </v>
   <v>       0.00634921 </v>
   <v>       0.00634921 </v>
   <v>       0.00634921 </v>
   <v>       0.00634921 </v>
   <v>       0.00634921 </v>
   <v>       0.00634921 </v>
   <v>       0.00634921 </v>
   <v>       0.00634921 </v>
   <v>       0.00634921 </v>
   <v>       0.00634921 </v>
   <v>       0.00634921 </v>
   <v>       0.00634921 </v>
   <v>       0.00634921 </v>
   <v>       0.00634921 </v>
   <v>       0.00634921 </v>
   <v>       0.00634921 </v>
   <v>       0.00634921 </v>
   <v>       0.00634921 </v>
   <v>       0.00634921 </v>
   <v>       0.00634921 </v>
   <v>       0.00634921 </v>
   <v>       0.00634921 </v>
   <v>       0.00634921 </v>
   <v>       0.00634921 </v>
   <v>       0.00634921 </v>
   <v>       0.00634921 </v>
   <v>       0.00634921 </v>
   <v>       0.00634921 </v>
   <v>       0.00634921 </v>
   <v>       0.00634921 </v>
   <v>       0.00634921 </v>
   <v>       0.00634921 </v>
   <v>       0.00634921 </v>
   <v>       0.00634921 </v>
   <v>       0.00634921 </v>
  </varray>
 </kpoints>
 <parameters>
  <separator name="general" >
   <i type="string" name="SYSTEM">Convergence</i>
   <i type="logical" name="LCOMPAT"> F  </i>
  </separator>
  <separator name="electronic" >
   <i type="string" name="PREC">accura</i>
   <i name="ENMAX">    600.00000000</i>
   <i name="ENAUG">    535.51400000</i>
   <i name="EDIFF">      0.00000100</i>
   <i type="int" name="IALGO">    38</i>
   <i type="int" name="IWAVPR">    10</i>
   <i type="int" name="NBANDS">    48</i>
   <i type="int" name="NBANDSLOW">    -1</i>
   <i type="int" name="NBANDSHIGH">    -1</i>
   <i name="NELECT">     42.00000000</i>
   <i type="int" name="TURBO">     0</i>
   <i type="int" name="IRESTART">     0</i>
   <i type="int" name="NREBOOT">     0</i>
   <i type="int" name="NMIN">     0</i>
   <i name="EREF">      0.00000000</i>
   <separator name="electronic smearing" >
    <i type="int" name="ISMEAR">     0</i>
    <i name="SIGMA">      0.05000000</i>
    <i name="KSPACING">      0.50000000</i>
    <i type="logical" name="KGAMMA"> T  </i>
    <i type="logical" name="KBLOWUP"> T  </i>
   </separator>
   <separator name="electronic projectors" >
    <i type="logical" name="LREAL"> F  </i>
    <v name="ROPT">      0.00000000</v>
    <i type="int" name="LMAXPAW">  -100</i>
    <i type="int" name="LMAXMIX">     2</i>
    <i type="logical" name="NLSPLINE"> F  </i>
   </separator>
   <separator name="electronic startup" >
    <i type="int" name="ISTART">     0</i>
    <i type="int" name="ICHARG">     2</i>
    <i type="int" name="INIWAV">     1</i>
   </separator>
   <separator name="electronic spin" >
    <i type="int" name="ISPIN">     1</i>
    <i type="logical" name="LNONCOLLINEAR"> F  </i>
    <v name="MAGMOM">      1.00000000      1.00000000      1.00000000      1.00000000      1.00000000      1.00000000      1.00000000      1.00000000      1.00000000      1.00000000      1.00000000      1.00000000      1.00000000      1.00000000</v>
    <i name="NUPDOWN">     -1.00000000</i>
    <i type="logical" name="LSORBIT"> F  </i>
    <v name="SAXIS">      0.00000000      0.00000000      1.00000000</v>
    <i type="logical" name="LSPIRAL"> F  </i>
    <v name="QSPIRAL">      0.00000000      0.00000000      0.00000000</v>
    <i type="logical" name="LZEROZ"> F  </i>
   </separator>
   <separator name="electronic exchange-correlation" >
    <i type="logical" name="LASPH"> F  </i>
   </separator>
   <separator name="electronic convergence" >
    <i type="int" name="NELM">   100</i>
    <i type="int" name="NELMDL">    -5</i>
    <i type="int" name="NELMIN">     2</i>
    <i name="ENINI">    600.00000000</i>
    <separator name="electronic convergence detail" >
     <i type="logical" name="LDIAG"> T  </i>
     <i type="logical" name="LSUBROT"> F  </i>
     <i name="WEIMIN">      0.00000000</i>
     <i name="EBREAK">      0.00000001</i>
     <i name="DEPER">      0.30000000</i>
     <i type="int" name="NRMM">     4</i>
     <i name="TIME">      0.40000000</i>
    </separator>
   </separator>
   <separator name="electronic mixer" >
    <i name="AMIX">      0.40000000</i>
    <i name="BMIX">      1.00000000</i>
    <i name="AMIN">      0.10000000</i>
    <i name="AMIX_MAG">      1.60000000</i>
    <i name="BMIX_MAG">      1.00000000</i>
    <separator name="electronic mixer details" >
     <i type="int" name="IMIX">     4</i>
     <i type="logical" name="MIXFIRST"> F  </i>
     <i type="int" name="MAXMIX">   -45</i>
     <i name="WC">    100.00000000</i>
     <i type="int" name="INIMIX">     1</i>
     <i type="int" name="MIXPRE">     1</i>
     <i type="int" name="MREMOVE">     5</i>
    </separator>
   </separator>
   <separator name="electronic dipolcorrection" >
    <i type="logical" name="LDIPOL"> F  </i>
    <i type="logical" name="LMONO"> F  </i>
    <i type="int" name="IDIPOL">     0</i>
    <i name="EPSILON">      1.00000000</i>
    <v name="DIPOL">   -100.00000000   -100.00000000   -100.00000000</v>
    <i name="EFIELD">      0.00000000</i>
    <i type="logical" name="LVACPOTAV"> F  </i>
   </separator>
  </separator>
  <separator name="grids" >
   <i type="int" name="NGX">    48</i>
   <i type="int" name="NGY">    32</i>
   <i type="int" name="NGZ">    50</i>
   <i type="int" name="NGXF">    96</i>
   <i type="int" name="NGYF">    64</i>
   <i type="int" name="NGZF">   100</i>
   <i type="logical" name="ADDGRID"> F  </i>
  </separator>
  <separator name="ionic" >
   <i type="int" name="NSW">     0</i>
   <i type="int" name="IBRION">    -1</i>
   <i type="int" name="MDALGO">     0</i>
   <i type="int" name="ISIF">     2</i>
   <i name="PSTRESS">      0.00000000</i>
   <i name="EDIFFG">     -0.00100000</i>
   <i type="int" name="NFREE">     0</i>
   <i name="POTIM">      0.50000000</i>
   <i name="SMASS">     -3.00000000</i>
   <i name="SCALEE">      1.00000000</i>
  </separator>
  <separator name="ionic md" >
   <i name="TEBEG">      0.00010000</i>
   <i name="TEEND">      0.00010000</i>
   <i type="int" name="NBLOCK">     1</i>
   <i type="int" name="KBLOCK">     1</i>
   <i type="int" name="NPACO">   256</i>
   <i name="APACO">     10.00000000</i>
  </separator>
  <separator name="symmetry" >
   <i type="int" name="ISYM">     2</i>
   <i name="SYMPREC">      0.00001000</i>
  </separator>
  <separator name="dos" >
   <i type="int" name="LORBIT">     0</i>
   <v name="RWIGS">     -1.00000000</v>
   <i type="int" name="NEDOS">   301</i>
   <i name="EMIN">     10.00000000</i>
   <i name="EMAX">    -10.00000000</i>
   <i name="EFERMI">      0.00000000</i>
  </separator>
  <separator name="writing" >
   <i type="int" name="NWRITE">     2</i>
   <i type="logical" name="LWAVE"> F  </i>
   <i type="logical" name="LDOWNSAMPLE"> F  </i>
   <i type="logical" name="LCHARG"> F  </i>
   <i type="logical" name="LPARD"> F  </i>
   <i type="logical" name="LVTOT"> F  </i>
   <i type="logical" name="LVHAR"> F  </i>
   <i type="logical" name="LELF"> F  </i>
   <i type="logical" name="LOPTICS"> F  </i>
   <v name="STM">      0.00000000      0.00000000      0.00000000      0.00000000      0.00000000      0.00000000      0.00000000</v>
  </separator>
  <separator name="performance" >
   <i type="int" name="NPAR">    24</i>
   <i type="int" name="NSIM">     4</i>
   <i type="int" name="NBLK">    -1</i>
   <i type="logical" name="LPLANE"> T  </i>
   <i type="logical" name="LSCALAPACK"> T  </i>
   <i type="logical" name="LSCAAWARE"> F  </i>
   <i type="logical" name="LSCALU"> F  </i>
   <i type="logical" name="LASYNC"> F  </i>
   <i type="logical" name="LORBITALREAL"> F  </i>
  </separator>
  <separator name="miscellaneous" >
   <i type="int" name="IDIOT">     3</i>
   <i type="int" name="PHON_NSTRUCT">    -1</i>
   <i type="logical" name="LMUSIC"> F  </i>
   <v name="POMASS">     10.81100000</v>
   <v name="DARWINR">      0.00000000</v>
   <v name="DARWINV">      1.00000000</v>
   <i type="logical" name="LCORR"> T  </i>
  </separator>
  <i type="logical" name="GGA_COMPAT"> T  </i>
  <i type="logical" name="LBERRY"> F  </i>
  <i type="int" name="ICORELEVEL">     0</i>
  <i type="logical" name="LDAU"> F  </i>
  <i type="int" name="I_CONSTRAINED_M">     0</i>
  <separator name="electronic exchange-correlation" >
   <i type="string" name="GGA    ">PE</i>
   <i type="string" name="XC_C">1</i>
   <i type="int" name="VOSKOWN">     0</i>
   <i type="logical" name="LHFCALC"> F  </i>
   <i type="string" name="PRECFOCK"></i>
   <i type="logical" name="LSYMGRAD"> F  </i>
   <i type="logical" name="LHFONE"> F  </i>
   <i type="logical" name="LRHFCALC"> F  </i>
   <i type="logical" name="LTHOMAS"> F  </i>
   <i type="logical" name="LMODELHF"> F  </i>
   <i type="logical" name="LFOCKACE"> F  </i>
   <i name="ENCUT4O">     -1.00000000</i>
   <i type="int" name="EXXOEP">     0</i>
   <i type="int" name="FOURORBIT">     0</i>
   <i name="AEXX">      0.00000000</i>
   <i name="HFALPHA">      0.00000000</i>
   <i name="MCALPHA">      0.00000000</i>
   <i name="ALDAX">      1.00000000</i>
   <i name="AGGAX">      1.00000000</i>
   <i name="AMGGAX">      1.00000000</i>
   <i name="ALDAC">      1.00000000</i>
   <i name="AGGAC">      1.00000000</i>
   <i name="AMGGAC">      1.00000000</i>
   <i type="int" name="NKREDX">     1</i>
   <i type="int" name="NKREDY">     1</i>
   <i type="int" name="NKREDZ">     1</i>
   <i type="logical" name="SHIFTRED"> F  </i>
   <i type="logical" name="ODDONLY"> F  </i>
   <i type="logical" name="EVENONLY"> F  </i>
   <i type="int" name="LMAXFOCK">     0</i>
   <i type="int" name="NMAXFOCKAE">     0</i>
   <i type="logical" name="LFOCKAEDFT"> F  </i>
   <i name="HFSCREEN">      0.00000000</i>
   <i name="HFSCREENC">      0.00000000</i>
   <i type="int" name="NBANDSGWLOW">     0</i>
  </separator>
  <separator name="vdW DFT" >
   <i type="logical" name="LUSE_VDW"> F  </i>
   <i type="int" name="IVDW_NL">    -1</i>
   <i type="logical" name="LSPIN_VDW"> F  </i>
   <i name="ZAB_VDW">     -0.84910000</i>
   <i name="GAMMA_VDW">      1.39626340</i>
   <i name="ALPHA_VDW">      0.00000000</i>
   <i name="PARAM1">      0.12340000</i>
   <i name="PARAM2">      1.00000000</i>
   <i name="BPARAM">      6.30000000</i>
   <i name="CPARAM">      0.00930000</i>
  </separator>
  <separator name="model GW" >
   <i type="int" name="MODEL_GW">     0</i>
   <i name="MODEL_EPS0">      6.16862207</i>
   <i name="MODEL_ALPHA">      1.00000000</i>
  </separator>
  <separator name="linear response parameters" >
   <i type="logical" name="LEPSILON"> F  </i>
   <i type="logical" name="LRPA"> F  </i>
   <i type="logical" name="LNABLA"> F  </i>
   <i type="logical" name="LVEL"> F  </i>
   <i name="CSHIFT">      0.10000000</i>
   <i name="OMEGAMAX">     -1.00000000</i>
   <i name="DEG_THRESHOLD">      0.00200000</i>
   <i name="RTIME">     -0.10000000</i>
   <i name="WPLASMAI">      0.00000000</i>
   <v name="DFIELD">      0.00000000      0.00000000      0.00000000</v>
   <v name="WPLASMA">      0.00000000      0.00000000      0.00000000      0.00000000      0.00000000      0.00000000      0.00000000      0.00000000      0.00000000</v>
  </separator>
  <separator name="orbital magnetization" >
   <i type="logical" name="NUCIND"> F  </i>
   <v name="MAGPOS">      0.00000000      0.00000000      0.00000000</v>
   <i type="logical" name="LNICSALL"> T  </i>
   <i type="logical" name="ORBITALMAG"> F  </i>
   <i type="logical" name="LMAGBLOCH"> F  </i>
   <i type="logical" name="LCHIMAG"> F  </i>
   <i type="logical" name="LGAUGE"> T  </i>
   <i type="int" name="MAGATOM">     0</i>
   <v name="MAGDIPOL">      0.00000000      0.00000000      0.00000000</v>
   <v name="AVECCONST">      0.00000000      0.00000000      0.00000000</v>
  </separator>
  <separator name="response functions" >
   <i type="logical" name="LALL_IN_ONE"> F  </i>
   <i type="int" name="IALL_IN_ONE">    -1</i>
   <i type="int" name="NBANDS_WAVE">    -1</i>
   <i type="logical" name="LFINITE_TEMPERATURE"> F  </i>
   <i type="logical" name="LADDER"> F  </i>
   <i type="logical" name="LRPAFORCE"> F  </i>
   <i type="logical" name="LFXC"> F  </i>
   <i type="logical" name="LHARTREE"> T  </i>
   <i type="int" name="IBSE">     0</i>
   <v type="int" name="KPOINT">    -1     0     0     0</v>
   <i type="logical" name="LTCTC"> F  </i>
   <i type="logical" name="LTCTE"> F  </i>
   <i type="logical" name="LTETE"> F  </i>
   <i type="logical" name="LTRIPLET"> F  </i>
   <i type="logical" name="LFXCEPS"> F  </i>
   <i type="logical" name="LFXHEG"> F  </i>
   <i type="int" name="NATURALO">     2</i>
   <i type="logical" name="LHOLEGF"> F  </i>
   <i type="logical" name="L2ORDER"> F  </i>
   <i type="logical" name="LDMP1"> F  </i>
   <i type="logical" name="LMP2LT"> F  </i>
   <i type="logical" name="LSMP2LT"> F  </i>
   <i type="logical" name="LGWLF"> F  </i>
   <i name="ENCUTGW">     -1.60000002</i>
   <i name="ENCUTGWSOFT">     -1.60000002</i>
   <i name="ENCUTLF">     -1.00000000</i>
   <i type="logical" name="ESF_SPLINES"> F  </i>
   <i name="ESF_CONV">      0.01000000</i>
   <i type="int" name="ESF_NINTER">    15</i>
   <i type="int" name="LMAXMP2">    -1</i>
   <i name="SCISSOR">      0.00000000</i>
   <i type="int" name="NOMEGA">     0</i>
   <i type="int" name="NOMEGAR">     0</i>
   <i type="int" name="NBANDSGW">    -1</i>
   <i type="int" name="NBANDSO">    -1</i>
   <i type="int" name="NBANDSV">    -1</i>
   <i type="int" name="NELMGW">     1</i>
   <i type="int" name="NELMHF">     1</i>
   <i type="int" name="DIM">     3</i>
   <i type="int" name="IESPILON">     4</i>
   <i type="int" name="ANTIRES">     0</i>
   <i name="OMEGAMAX">    -30.00000000</i>
   <i name="OMEGAMIN">    -30.00000000</i>
   <i name="OMEGATL">   -200.00000000</i>
   <i type="int" name="OMEGAGRID">     0</i>
   <i name="CSHIFT">     -0.10000000</i>
   <i type="logical" name="LSELFENERGY"> F  </i>
   <i type="logical" name="LSPECTRAL"> F  </i>
   <i type="logical" name="LSPECTRALGW"> F  </i>
   <i type="logical" name="LSINGLES"> F  </i>
   <i type="logical" name="LFERMIGW"> F  </i>
   <i type="logical" name="ODDONLYGW"> F  </i>
   <i type="logical" name="EVENONLYGW"> F  </i>
   <i type="int" name="NKREDLFX">     1</i>
   <i type="int" name="NKREDLFY">     1</i>
   <i type="int" name="NKREDLFZ">     1</i>
   <i type="int" name="MAXMEM">  2800</i>
   <i type="int" name="TELESCOPE">     0</i>
   <i type="int" name="NTAUPAR">    -1</i>
   <i type="int" name="NOMEGAPAR">    -1</i>
   <i name="DAMP_NEWTON">      0.80000001</i>
   <i name="LAMBDA">      1.00000000</i>
  </separator>
  <separator name="External order field" >
   <i name="OFIELD_KAPPA">      0.00000000</i>
   <v name="OFIELD_K">      0.00000000      0.00000000      0.00000000</v>
   <i name="OFIELD_Q6_NEAR">      0.00000000</i>
   <i name="OFIELD_Q6_FAR">      0.00000000</i>
   <i name="OFIELD_A">      0.00000000</i>
  </separator>
  <separator name="optional k-points parameters" >
   <i type="int" name="KPOINTS_OPT_MODE">     1</i>
   <i type="logical" name="LKPOINTS_OPT"> F  </i>
  </separator>
 </parameters>
 <atominfo>
  <atoms>      14 </atoms>
  <types>       1 </types>
  <array name="atoms" >
   <dimension dim="1">ion</dimension>
   <field type="string">element</field>
   <field type="int">atomtype</field>
   <set>
    <rc><c>B </c><c>   1</c></rc>
    <rc><c>B </c><c>   1</c></rc>
    <rc><c>B </c><c>   1</c></rc>
    <rc><c>B </c><c>   1</c></rc>
    <rc><c>B </c><c>   1</c></rc>
    <rc><c>B </c><c>   1</c></rc>
    <rc><c>B </c><c>   1</c></rc>
    <rc><c>B </c><c>   1</c></rc>
    <rc><c>B </c><c>   1</c></rc>
    <rc><c>B </c><c>   1</c></rc>
    <rc><c>B </c><c>   1</c></rc>
    <rc><c>B </c><c>   1</c></rc>
    <rc><c>B </c><c>   1</c></rc>
    <rc><c>B </c><c>   1</c></rc>
   </set>
  </array>
  <array name="atomtypes" >
   <dimension dim="1">type</dimension>
   <field type="int">atomspertype</field>
   <field type="string">element</field>
   <field>mass</field>
   <field>valence</field>
   <field type="string">pseudopotential</field>
   <set>
    <rc><c>  14</c><c>B </c><c>     10.81100000</c><c>      3.00000000</c><c>  PAW_PBE B 06Sep2000                   </c></rc>
   </set>
  </array>
 </atominfo>
 <structure name="initialpos" >
  <crystal>
   <varray name="basis" >
    <v>       5.70839400       0.00000000       0.00000000 </v>
    <v>       0.00000000       4.05599580       0.00000000 </v>
    <v>       0.00000000       0.00000000       6.21660840 </v>
   </varray>
   <i name="volume">    143.93451492 </i>
   <varray name="rec_basis" >
    <v>       0.17518062       0.00000000       0.00000000 </v>
    <v>       0.00000000       0.24654858       0.00000000 </v>
    <v>       0.00000000       0.00000000       0.16085942 </v>
   </varray>
  </crystal>
  <varray name="positions" >
   <v>       0.52123000       0.50000000       0.63796000 </v>
   <v>       0.47877000       0.50000000       0.36204000 </v>
   <v>       0.97877000       0.50000000       0.63796000 </v>
   <v>       0.02123000       0.50000000       0.36204000 </v>
   <v>       0.60090000       0.50000000       0.89991000 </v>
   <v>       0.39910000       0.50000000       0.10009000 </v>
   <v>       0.89910000       0.50000000       0.89991000 </v>
   <v>       0.10090000       0.50000000       0.10009000 </v>
   <v>       0.75000000       0.79171000       0.72973000 </v>
   <v>       0.25000000       0.20829000       0.27027000 </v>
   <v>       0.75000000       0.20829000       0.72973000 </v>
   <v>       0.25000000       0.79171000       0.27027000 </v>
   <v>       0.25000000       0.50000000       0.52367000 </v>
   <v>       0.75000000       0.50000000       0.47633000 </v>
  </varray>
 </structure>
 <calculation>
  <scstep>
   <time name="dav">    4.74    4.74</time>
   <time name="total">    4.76    4.76</time>
   <energy>
    <i name="alphaZ">     93.68037277 </i>
    <i name="ewald">   -794.17822447 </i>
    <i name="hartreedc">   -271.93258138 </i>
    <i name="XCdc">     97.34965658 </i>
    <i name="pawpsdc">    608.99811708 </i>
    <i name="pawaedc">   -597.02363782 </i>
    <i name="eentropy">     -0.00207803 </i>
    <i name="bandstr">    -54.34900836 </i>
    <i name="atom">    996.37441054 </i>
    <i name="e_fr_energy">     78.91702692 </i>
    <i name="e_wo_entrp">     78.91910495 </i>
    <i name="e_0_energy">     78.91806594 </i>
   </energy>
  </scstep>
  <scstep>
   <time name="dav">    6.09    6.09</time>
   <time name="total">    6.09    6.09</time>
   <energy>
    <i name="e_fr_energy">    -91.70648961 </i>
    <i name="e_wo_entrp">    -91.70338659 </i>
    <i name="e_0_energy">    -91.70493810 </i>
   </energy>
  </scstep>
  <scstep>
   <time name="dav">    6.76    6.76</time>
   <time name="total">    6.76    6.77</time>
   <energy>
    <i name="e_fr_energy">    -97.49625823 </i>
    <i name="e_wo_entrp">    -97.49259175 </i>
    <i name="e_0_energy">    -97.49442499 </i>
   </energy>
  </scstep>
  <scstep>
   <time name="dav">    5.39    5.39</time>
   <time name="total">    5.39    5.39</time>
   <energy>
    <i name="e_fr_energy">    -97.53047203 </i>
    <i name="e_wo_entrp">    -97.52680687 </i>
    <i name="e_0_energy">    -97.52863945 </i>
   </energy>
  </scstep>
  <scstep>
   <time name="dav">    6.67    6.67</time>
   <time name="total">    6.76    6.76</time>
   <energy>
    <i name="e_fr_energy">    -97.53085501 </i>
    <i name="e_wo_entrp">    -97.52718989 </i>
    <i name="e_0_energy">    -97.52902245 </i>
   </energy>
  </scstep>
  <scstep>
   <time name="dav">    6.51    6.51</time>
   <time name="total">    6.61    6.61</time>
   <energy>
    <i name="e_fr_energy">    -92.20320632 </i>
    <i name="e_wo_entrp">    -92.19975004 </i>
    <i name="e_0_energy">    -92.20147818 </i>
   </energy>
  </scstep>
  <scstep>
   <time name="dav">    6.66    6.66</time>
   <time name="total">    6.77    6.77</time>
   <energy>
    <i name="e_fr_energy">    -90.57510215 </i>
    <i name="e_wo_entrp">    -90.57195056 </i>
    <i name="e_0_energy">    -90.57352635 </i>
   </energy>
  </scstep>
  <scstep>
   <time name="dav">    5.18    5.18</time>
   <time name="total">    5.29    5.29</time>
   <energy>
    <i name="e_fr_energy">    -90.58758443 </i>
    <i name="e_wo_entrp">    -90.58440058 </i>
    <i name="e_0_energy">    -90.58599250 </i>
   </energy>
  </scstep>
  <scstep>
   <time name="dav">    6.34    6.34</time>
   <time name="total">    6.44    6.44</time>
   <energy>
    <i name="e_fr_energy">    -90.60177767 </i>
    <i name="e_wo_entrp">    -90.59851143 </i>
    <i name="e_0_energy">    -90.60014455 </i>
   </energy>
  </scstep>
  <scstep>
   <time name="dav">    5.25    5.25</time>
   <time name="total">    5.35    5.35</time>
   <energy>
    <i name="e_fr_energy">    -90.60581833 </i>
    <i name="e_wo_entrp">    -90.60259709 </i>
    <i name="e_0_energy">    -90.60420771 </i>
   </energy>
  </scstep>
  <scstep>
   <time name="dav">    5.75    5.75</time>
   <time name="total">    5.85    5.85</time>
   <energy>
    <i name="e_fr_energy">    -90.60688744 </i>
    <i name="e_wo_entrp">    -90.60367654 </i>
    <i name="e_0_energy">    -90.60528199 </i>
   </energy>
  </scstep>
  <scstep>
   <time name="dav">    5.76    5.76</time>
   <time name="total">    5.86    5.86</time>
   <energy>
    <i name="e_fr_energy">    -90.60700115 </i>
    <i name="e_wo_entrp">    -90.60378423 </i>
    <i name="e_0_energy">    -90.60539269 </i>
   </energy>
  </scstep>
  <scstep>
   <time name="dav">    6.31    6.31</time>
   <time name="total">    6.41    6.41</time>
   <energy>
    <i name="e_fr_energy">    -90.60700602 </i>
    <i name="e_wo_entrp">    -90.60378891 </i>
    <i name="e_0_energy">    -90.60539746 </i>
   </energy>
  </scstep>
  <scstep>
   <time name="dav">    5.65    5.65</time>
   <time name="total">    5.66    5.66</time>
   <energy>
    <i name="alphaZ">     93.68037277 </i>
    <i name="ewald">   -794.17822447 </i>
    <i name="hartreedc">   -349.15409386 </i>
    <i name="XCdc">    101.41875028 </i>
    <i name="pawpsdc">   3697.60033549 </i>
    <i name="pawaedc">  -3686.77045187 </i>
    <i name="eentropy">     -0.00321724 </i>
    <i name="bandstr">   -149.57488833 </i>
    <i name="atom">    996.37441054 </i>
    <i name="e_fr_energy">    -90.60700669 </i>
    <i name="e_wo_entrp">    -90.60378945 </i>
    <i name="e_0_energy">    -90.60539807 </i>
   </energy>
  </scstep>
  <structure>
   <crystal>
    <varray name="basis" >
     <v>       5.70839400       0.00000000       0.00000000 </v>
     <v>       0.00000000       4.05599580       0.00000000 </v>
     <v>       0.00000000       0.00000000       6.21660840 </v>
    </varray>
    <i name="volume">    143.93451492 </i>
    <varray name="rec_basis" >
     <v>       0.17518062       0.00000000       0.00000000 </v>
     <v>       0.00000000       0.24654858       0.00000000 </v>
     <v>       0.00000000       0.00000000       0.16085942 </v>
    </varray>
   </crystal>
   <varray name="positions" >
    <v>       0.52123000       0.50000000       0.63796000 </v>
    <v>       0.47877000       0.50000000       0.36204000 </v>
    <v>       0.97877000       0.50000000       0.63796000 </v>
    <v>       0.02123000       0.50000000       0.36204000 </v>
    <v>       0.60090000       0.50000000       0.89991000 </v>
    <v>       0.39910000       0.50000000       0.10009000 </v>
    <v>       0.89910000       0.50000000       0.89991000 </v>
    <v>       0.10090000       0.50000000       0.10009000 </v>
    <v>       0.75000000       0.79171000       0.72973000 </v>
    <v>       0.25000000       0.20829000       0.27027000 </v>
    <v>       0.75000000       0.20829000       0.72973000 </v>
    <v>       0.25000000       0.79171000       0.27027000 </v>
    <v>       0.25000000       0.50000000       0.52367000 </v>
    <v>       0.75000000       0.50000000       0.47633000 </v>
   </varray>
  </structure>
  <varray name="forces" >
   <v>       0.02847959       0.00000000       0.03870731 </v>
   <v>      -0.02847959       0.00000000      -0.03870731 </v>
   <v>      -0.02847959       0.00000000       0.03870731 </v>
   <v>       0.02847959       0.00000000      -0.03870731 </v>
   <v>      -0.80780395       0.00000000       0.24330201 </v>
   <v>       0.80780395       0.00000000      -0.24330201 </v>
   <v>       0.80780395       0.00000000       0.24330201 </v>
   <v>      -0.80780395       0.00000000      -0.24330201 </v>
   <v>       0.00000000       0.05932480      -0.07163225 </v>
   <v>       0.00000000      -0.05932480       0.07163225 </v>
   <v>       0.00000000      -0.05932480      -0.07163225 </v>
   <v>       0.00000000       0.05932480       0.07163225 </v>
   <v>       0.00000000       0.00000000       0.03579656 </v>
   <v>      -0.00000000       0.00000000      -0.03579656 </v>
  </varray>
  <varray name="stress" >
   <v>       2.32044557       0.00000000       0.00000000 </v>
   <v>       0.00000000      -5.61653978       0.00000000 </v>
   <v>       0.00000000       0.00000000     -17.37985054 </v>
  </varray>
  <energy>
   <i name="e_fr_energy">    -90.60700669 </i>
   <i name="e_wo_entrp">    -90.60378945 </i>
   <i name="e_0_energy">    -90.60539807 </i>
  </energy>
  <time name="totalsc">   88.77   89.35</time>
  <eigenvalues>
   <array>
    <dimension dim="1">band</dimension>
    <dimension dim="2">kpoint</dimension>
    <dimension dim="3">spin</dimension>
    <field>eigene</field>
    <field>occ</field>
    <set>
     <set comment="spin 1">
      <set comment="kpoint 1">
       <r>  -12.7180    1.0000 </r>
       <r>  -11.5767    1.0000 </r>
       <r>   -8.6665    1.0000 </r>
       <r>   -8.4306    1.0000 </r>
       <r>   -6.0804    1.0000 </r>
       <r>   -5.1473    1.0000 </r>
       <r>   -4.6848    1.0000 </r>
       <r>   -4.2855    1.0000 </r>
       <r>   -4.0487    1.0000 </r>
       <r>   -3.5619    1.0000 </r>
       <r>   -2.6199    1.0000 </r>
       <r>   -2.3515    1.0000 </r>
       <r>   -1.8620    1.0000 </r>
       <r>   -1.1217    1.0000 </r>
       <r>   -0.0933    1.0000 </r>
       <r>   -0.0628    1.0000 </r>
       <r>    0.1250    1.0000 </r>
       <r>    0.1445    1.0000 </r>
       <r>    0.5344    1.0000 </r>
       <r>    1.9863    0.0001 </r>
       <r>    2.0485    0.0000 </r>
       <r>    2.1790    0.0000 </r>
       <r>    5.4112    0.0000 </r>
       <r>    5.7015    0.0000 </r>
       <r>    5.7875    0.0000 </r>
       <r>    5.9120    0.0000 </r>
       <r>    6.7610    0.0000 </r>
       <r>    7.4952    0.0000 </r>
       <r>    7.8212    0.0000 </r>
       <r>    8.4663    0.0000 </r>
       <r>    8.7214    0.0000 </r>
       <r>    8.8776    0.0000 </r>
       <r>    8.9601    0.0000 </r>
       <r>   10.0650    0.0000 </r>
       <r>   11.1298    0.0000 </r>
       <r>   11.2570    0.0000 </r>
       <r>   11.5838    0.0000 </r>
       <r>   11.7074    0.0000 </r>
       <r>   11.8749    0.0000 </r>
       <r>   12.3419    0.0000 </r>
       <r>   12.7857    0.0000 </r>
       <r>   13.3674    0.0000 </r>
       <r>   13.3948    0.0000 </r>
       <r>   15.2763    0.0000 </r>
       <r>   15.4735    0.0000 </r>
       <r>   15.9579    0.0000 </r>
       <r>   16.2412    0.0000 </r>
       <r>   16.2606    0.0000 </r>
      </set>
      <set comment="kpoint 2">
       <r>  -12.6743    1.0000 </r>
       <r>  -11.6506    1.0000 </r>
       <r>   -8.6452    1.0000 </r>
       <r>   -8.4191    1.0000 </r>
       <r>   -6.0126    1.0000 </r>
       <r>   -5.4856    1.0000 </r>
       <r>   -4.8056    1.0000 </r>
       <r>   -4.0239    1.0000 </r>
       <r>   -3.8072    1.0000 </r>
       <r>   -3.2264    1.0000 </r>
       <r>   -2.6897    1.0000 </r>
       <r>   -2.3318    1.0000 </r>
       <r>   -1.9393    1.0000 </r>
       <r>   -1.4280    1.0000 </r>
       <r>   -0.0534    1.0000 </r>
       <r>   -0.0482    1.0000 </r>
       <r>    0.0662    1.0000 </r>
       <r>    0.1665    1.0000 </r>
       <r>    0.4392    1.0000 </r>
       <r>    1.9004    0.0743 </r>
       <r>    1.9709    0.0003 </r>
       <r>    2.0585    0.0000 </r>
       <r>    5.5008    0.0000 </r>
       <r>    5.7061    0.0000 </r>
       <r>    5.8197    0.0000 </r>
       <r>    6.2552    0.0000 </r>
       <r>    6.6763    0.0000 </r>
       <r>    7.1352    0.0000 </r>
       <r>    8.0265    0.0000 </r>
       <r>    8.6028    0.0000 </r>
       <r>    8.9712    0.0000 </r>
       <r>    9.0527    0.0000 </r>
       <r>    9.1327    0.0000 </r>
       <r>   10.1699    0.0000 </r>
       <r>   10.8671    0.0000 </r>
       <r>   11.0533    0.0000 </r>
       <r>   11.2019    0.0000 </r>
       <r>   11.6258    0.0000 </r>
       <r>   12.0916    0.0000 </r>
       <r>   12.4289    0.0000 </r>
       <r>   13.0355    0.0000 </r>
       <r>   13.0443    0.0000 </r>
       <r>   13.9221    0.0000 </r>
       <r>   14.7680    0.0000 </r>
       <r>   15.6573    0.0000 </r>
       <r>   15.7421    0.0000 </r>
       <r>   16.1277    0.0000 </r>
       <r>   16.4161    0.0000 </r>
      </set>
      <set comment="kpoint 3">
       <r>  -12.5888    1.0000 </r>
       <r>  -11.7836    1.0000 </r>
       <r>   -8.6015    1.0000 </r>
       <r>   -8.4043    1.0000 </r>
       <r>   -5.9907    1.0000 </r>
       <r>   -5.8109    1.0000 </r>
       <r>   -4.7590    1.0000 </r>
       <r>   -3.8980    1.0000 </r>
       <r>   -3.2971    1.0000 </r>
       <r>   -2.8567    1.0000 </r>
       <r>   -2.7367    1.0000 </r>
       <r>   -2.2922    1.0000 </r>
       <r>   -2.0481    1.0000 </r>
       <r>   -1.9313    1.0000 </r>
       <r>   -0.2530    1.0000 </r>
       <r>   -0.0131    1.0000 </r>
       <r>    0.1139    1.0000 </r>
       <r>    0.1322    1.0000 </r>
       <r>    0.4091    1.0000 </r>
       <r>    1.7526    0.9969 </r>
       <r>    1.8307    0.7004 </r>
       <r>    1.8386    0.6187 </r>
       <r>    5.6222    0.0000 </r>
       <r>    5.6624    0.0000 </r>
       <r>    6.1284    0.0000 </r>
       <r>    6.5514    0.0000 </r>
       <r>    6.7114    0.0000 </r>
       <r>    6.8814    0.0000 </r>
       <r>    8.1746    0.0000 </r>
       <r>    8.7519    0.0000 </r>
       <r>    8.9208    0.0000 </r>
       <r>    9.4974    0.0000 </r>
       <r>    9.5781    0.0000 </r>
       <r>   10.2094    0.0000 </r>
       <r>   10.4097    0.0000 </r>
       <r>   10.5480    0.0000 </r>
       <r>   11.3186    0.0000 </r>
       <r>   11.7700    0.0000 </r>
       <r>   12.3260    0.0000 </r>
       <r>   12.4808    0.0000 </r>
       <r>   12.7245    0.0000 </r>
       <r>   12.8313    0.0000 </r>
       <r>   14.5454    0.0000 </r>
       <r>   14.8225    0.0000 </r>
       <r>   15.1446    0.0000 </r>
       <r>   15.8870    0.0000 </r>
       <r>   15.9091    0.0000 </r>
       <r>   16.1883    0.0000 </r>
      </set>
      <set comment="kpoint 4">
       <r>  -12.4654    1.0000 </r>
       <r>  -11.9529    1.0000 </r>
       <r>   -8.5397    1.0000 </r>
       <r>   -8.4010    1.0000 </r>
       <r>   -6.0701    1.0000 </r>
       <r>   -6.0435    1.0000 </r>
       <r>   -4.4326    1.0000 </r>
       <r>   -3.7303    1.0000 </r>
       <r>   -3.0494    1.0000 </r>
       <r>   -2.9145    1.0000 </r>
       <r>   -2.4650    1.0000 </r>
       <r>   -2.2770    1.0000 </r>
       <r>   -2.1754    1.0000 </r>
       <r>   -2.1472    1.0000 </r>
       <r>   -0.5521    1.0000 </r>
       <r>   -0.2776    1.0000 </r>
       <r>    0.1475    1.0000 </r>
       <r>    0.2223    1.0000 </r>
       <r>    0.5816    1.0000 </r>
       <r>    1.4954    1.0000 </r>
       <r>    1.6314    1.0000 </r>
       <r>    1.6911    1.0000 </r>
       <r>    5.6481    0.0000 </r>
       <r>    5.7069    0.0000 </r>
       <r>    6.4515    0.0000 </r>
       <r>    6.6244    0.0000 </r>
       <r>    6.6498    0.0000 </r>
       <r>    7.3570    0.0000 </r>
       <r>    8.2971    0.0000 </r>
       <r>    8.6254    0.0000 </r>
       <r>    8.7365    0.0000 </r>
       <r>    9.4678    0.0000 </r>
       <r>    9.9788    0.0000 </r>
       <r>   10.0494    0.0000 </r>
       <r>   10.3219    0.0000 </r>
       <r>   11.0613    0.0000 </r>
       <r>   11.3380    0.0000 </r>
       <r>   11.8621    0.0000 </r>
       <r>   12.1269    0.0000 </r>
       <r>   12.1952    0.0000 </r>
       <r>   12.4518    0.0000 </r>
       <r>   13.1853    0.0000 </r>
       <r>   14.6366    0.0000 </r>
       <r>   14.8907    0.0000 </r>
       <r>   15.1626    0.0000 </r>
       <r>   15.2863    0.0000 </r>
       <r>   15.4796    0.0000 </r>
       <r>   16.2827    0.0000 </r>
      </set>
      <set comment="kpoint 5">
       <r>  -12.3109    1.0000 </r>
       <r>  -12.1352    1.0000 </r>
       <r>   -8.4739    1.0000 </r>
       <r>   -8.4233    1.0000 </r>
       <r>   -6.1575    1.0000 </r>
       <r>   -6.1540    1.0000 </r>
       <r>   -3.9187    1.0000 </r>
       <r>   -3.5225    1.0000 </r>
       <r>   -3.3208    1.0000 </r>
       <r>   -3.2864    1.0000 </r>
       <r>   -2.3806    1.0000 </r>
       <r>   -2.2552    1.0000 </r>
       <r>   -1.9901    1.0000 </r>
       <r>   -1.9335    1.0000 </r>
       <r>   -0.7727    1.0000 </r>
       <r>   -0.6364    1.0000 </r>
       <r>    0.2302    1.0000 </r>
       <r>    0.2634    1.0000 </r>
       <r>    0.8414    1.0000 </r>
       <r>    1.1577    1.0000 </r>
       <r>    1.5511    1.0000 </r>
       <r>    1.5780    1.0000 </r>
       <r>    5.6774    0.0000 </r>
       <r>    5.7165    0.0000 </r>
       <r>    6.4314    0.0000 </r>
       <r>    6.4958    0.0000 </r>
       <r>    7.3154    0.0000 </r>
       <r>    8.0143    0.0000 </r>
       <r>    8.0383    0.0000 </r>
       <r>    8.4130    0.0000 </r>
       <r>    8.5495    0.0000 </r>
       <r>    8.7262    0.0000 </r>
       <r>   10.4323    0.0000 </r>
       <r>   10.4451    0.0000 </r>
       <r>   10.6828    0.0000 </r>
       <r>   11.1395    0.0000 </r>
       <r>   11.3233    0.0000 </r>
       <r>   11.5129    0.0000 </r>
       <r>   11.8445    0.0000 </r>
       <r>   12.4039    0.0000 </r>
       <r>   12.6464    0.0000 </r>
       <r>   13.1785    0.0000 </r>
       <r>   14.5155    0.0000 </r>
       <r>   14.6454    0.0000 </r>
       <r>   14.7880    0.0000 </r>
       <r>   14.8481    0.0000 </r>
       <r>   16.0011    0.0000 </r>
       <r>   16.3470    0.0000 </r>
      </set>
      <set comment="kpoint 6">
       <r>  -12.6941    1.0000 </r>
       <r>  -11.5552    1.0000 </r>
       <r>   -8.6479    1.0000 </r>
       <r>   -8.4077    1.0000 </r>
       <r>   -6.0539    1.0000 </r>
       <r>   -5.1137    1.0000 </r>
       <r>   -4.6630    1.0000 </r>
       <r>   -4.5845    1.0000 </r>
       <r>   -4.1920    1.0000 </r>
       <r>   -3.5393    1.0000 </r>
       <r>   -3.3114    1.0000 </r>
       <r>   -1.8206    1.0000 </r>
       <r>   -1.1171    1.0000 </r>
       <r>   -1.0649    1.0000 </r>
       <r>   -0.3259    1.0000 </r>
       <r>   -0.2980    1.0000 </r>
       <r>    0.1385    1.0000 </r>
       <r>    0.2147    1.0000 </r>
       <r>    0.6123    1.0000 </r>
       <r>    1.7200    0.9999 </r>
       <r>    1.7991    0.9224 </r>
       <r>    2.2310    0.0000 </r>
       <r>    5.5320    0.0000 </r>
       <r>    5.6591    0.0000 </r>
       <r>    5.6961    0.0000 </r>
       <r>    5.9532    0.0000 </r>
       <r>    7.0448    0.0000 </r>
       <r>    7.7800    0.0000 </r>
       <r>    8.0134    0.0000 </r>
       <r>    8.1292    0.0000 </r>
       <r>    8.7265    0.0000 </r>
       <r>    9.0127    0.0000 </r>
       <r>    9.0715    0.0000 </r>
       <r>   10.5128    0.0000 </r>
       <r>   11.1900    0.0000 </r>
       <r>   11.3415    0.0000 </r>
       <r>   11.5184    0.0000 </r>
       <r>   11.8096    0.0000 </r>
       <r>   11.9860    0.0000 </r>
       <r>   12.6194    0.0000 </r>
       <r>   12.7874    0.0000 </r>
       <r>   13.1077    0.0000 </r>
       <r>   13.1109    0.0000 </r>
       <r>   15.2329    0.0000 </r>
       <r>   15.2784    0.0000 </r>
       <r>   15.7626    0.0000 </r>
       <r>   15.7646    0.0000 </r>
       <r>   16.1211    0.0000 </r>
      </set>
      <set comment="kpoint 7">
       <r>  -12.6505    1.0000 </r>
       <r>  -11.6289    1.0000 </r>
       <r>   -8.6265    1.0000 </r>
       <r>   -8.3965    1.0000 </r>
       <r>   -5.9843    1.0000 </r>
       <r>   -5.4556    1.0000 </r>
       <r>   -4.7857    1.0000 </r>
       <r>   -4.5039    1.0000 </r>
       <r>   -3.7691    1.0000 </r>
       <r>   -3.3913    1.0000 </r>
       <r>   -3.1888    1.0000 </r>
       <r>   -1.7991    1.0000 </r>
       <r>   -1.4226    1.0000 </r>
       <r>   -1.1819    1.0000 </r>
       <r>   -0.2875    1.0000 </r>
       <r>   -0.2208    1.0000 </r>
       <r>    0.1055    1.0000 </r>
       <r>    0.1880    1.0000 </r>
       <r>    0.5094    1.0000 </r>
       <r>    1.6399    1.0000 </r>
       <r>    1.7229    0.9998 </r>
       <r>    2.1008    0.0000 </r>
       <r>    5.6082    0.0000 </r>
       <r>    5.7586    0.0000 </r>
       <r>    5.8820    0.0000 </r>
       <r>    6.0633    0.0000 </r>
       <r>    6.9620    0.0000 </r>
       <r>    7.4558    0.0000 </r>
       <r>    8.1593    0.0000 </r>
       <r>    8.2955    0.0000 </r>
       <r>    9.0419    0.0000 </r>
       <r>    9.0834    0.0000 </r>
       <r>    9.3416    0.0000 </r>
       <r>   10.4322    0.0000 </r>
       <r>   10.7997    0.0000 </r>
       <r>   11.0066    0.0000 </r>
       <r>   11.3954    0.0000 </r>
       <r>   11.7986    0.0000 </r>
       <r>   12.2048    0.0000 </r>
       <r>   12.6681    0.0000 </r>
       <r>   12.7884    0.0000 </r>
       <r>   13.0682    0.0000 </r>
       <r>   13.6422    0.0000 </r>
       <r>   14.8524    0.0000 </r>
       <r>   15.3020    0.0000 </r>
       <r>   15.6618    0.0000 </r>
       <r>   15.6966    0.0000 </r>
       <r>   16.3010    0.0000 </r>
      </set>
      <set comment="kpoint 8">
       <r>  -12.5652    1.0000 </r>
       <r>  -11.7616    1.0000 </r>
       <r>   -8.5826    1.0000 </r>
       <r>   -8.3825    1.0000 </r>
       <r>   -5.9597    1.0000 </r>
       <r>   -5.7807    1.0000 </r>
       <r>   -4.7425    1.0000 </r>
       <r>   -4.3964    1.0000 </r>
       <r>   -3.5123    1.0000 </r>
       <r>   -3.2448    1.0000 </r>
       <r>   -2.7242    1.0000 </r>
       <r>   -1.9266    1.0000 </r>
       <r>   -1.7552    1.0000 </r>
       <r>   -1.3429    1.0000 </r>
       <r>   -0.2549    1.0000 </r>
       <r>   -0.2419    1.0000 </r>
       <r>    0.0266    1.0000 </r>
       <r>    0.1751    1.0000 </r>
       <r>    0.4334    1.0000 </r>
       <r>    1.5055    1.0000 </r>
       <r>    1.5933    1.0000 </r>
       <r>    1.8538    0.4501 </r>
       <r>    5.8038    0.0000 </r>
       <r>    5.8869    0.0000 </r>
       <r>    5.9656    0.0000 </r>
       <r>    6.5095    0.0000 </r>
       <r>    6.8424    0.0000 </r>
       <r>    7.2291    0.0000 </r>
       <r>    8.3661    0.0000 </r>
       <r>    8.4265    0.0000 </r>
       <r>    9.0183    0.0000 </r>
       <r>    9.5360    0.0000 </r>
       <r>    9.8023    0.0000 </r>
       <r>   10.0548    0.0000 </r>
       <r>   10.2792    0.0000 </r>
       <r>   10.7433    0.0000 </r>
       <r>   11.4576    0.0000 </r>
       <r>   12.0339    0.0000 </r>
       <r>   12.2268    0.0000 </r>
       <r>   12.4871    0.0000 </r>
       <r>   12.8709    0.0000 </r>
       <r>   12.9523    0.0000 </r>
       <r>   14.2176    0.0000 </r>
       <r>   14.9871    0.0000 </r>
       <r>   15.0717    0.0000 </r>
       <r>   15.5503    0.0000 </r>
       <r>   15.6185    0.0000 </r>
       <r>   16.3216    0.0000 </r>
      </set>
      <set comment="kpoint 9">
       <r>  -12.4421    1.0000 </r>
       <r>  -11.9306    1.0000 </r>
       <r>   -8.5205    1.0000 </r>
       <r>   -8.3800    1.0000 </r>
       <r>   -6.0379    1.0000 </r>
       <r>   -6.0125    1.0000 </r>
       <r>   -4.4182    1.0000 </r>
       <r>   -4.2504    1.0000 </r>
       <r>   -3.6823    1.0000 </r>
       <r>   -2.8671    1.0000 </r>
       <r>   -2.3841    1.0000 </r>
       <r>   -2.2424    1.0000 </r>
       <r>   -1.6915    1.0000 </r>
       <r>   -1.5045    1.0000 </r>
       <r>   -0.5144    1.0000 </r>
       <r>   -0.3379    1.0000 </r>
       <r>    0.0575    1.0000 </r>
       <r>    0.0888    1.0000 </r>
       <r>    0.5921    1.0000 </r>
       <r>    1.3662    1.0000 </r>
       <r>    1.4486    1.0000 </r>
       <r>    1.5314    1.0000 </r>
       <r>    5.8211    0.0000 </r>
       <r>    5.9598    0.0000 </r>
       <r>    6.4698    0.0000 </r>
       <r>    6.7543    0.0000 </r>
       <r>    6.8280    0.0000 </r>
       <r>    7.3181    0.0000 </r>
       <r>    8.3577    0.0000 </r>
       <r>    8.5329    0.0000 </r>
       <r>    8.8652    0.0000 </r>
       <r>    9.3049    0.0000 </r>
       <r>    9.9984    0.0000 </r>
       <r>   10.0215    0.0000 </r>
       <r>   10.3705    0.0000 </r>
       <r>   11.1373    0.0000 </r>
       <r>   11.2920    0.0000 </r>
       <r>   11.7637    0.0000 </r>
       <r>   12.2025    0.0000 </r>
       <r>   12.4753    0.0000 </r>
       <r>   12.6503    0.0000 </r>
       <r>   13.3856    0.0000 </r>
       <r>   14.6777    0.0000 </r>
       <r>   14.6875    0.0000 </r>
       <r>   15.0598    0.0000 </r>
       <r>   15.2192    0.0000 </r>
       <r>   15.5545    0.0000 </r>
       <r>   16.2970    0.0000 </r>
      </set>
      <set comment="kpoint 10">
       <r>  -12.2879    1.0000 </r>
       <r>  -12.1126    1.0000 </r>
       <r>   -8.4543    1.0000 </r>
       <r>   -8.4031    1.0000 </r>
       <r>   -6.1256    1.0000 </r>
       <r>   -6.1217    1.0000 </r>
       <r>   -4.0728    1.0000 </r>
       <r>   -3.9111    1.0000 </r>
       <r>   -3.8708    1.0000 </r>
       <r>   -3.3081    1.0000 </r>
       <r>   -2.1286    1.0000 </r>
       <r>   -1.9371    1.0000 </r>
       <r>   -1.6235    1.0000 </r>
       <r>   -1.6175    1.0000 </r>
       <r>   -0.7350    1.0000 </r>
       <r>   -0.6322    1.0000 </r>
       <r>    0.0919    1.0000 </r>
       <r>    0.1229    1.0000 </r>
       <r>    0.8508    1.0000 </r>
       <r>    1.1642    1.0000 </r>
       <r>    1.3131    1.0000 </r>
       <r>    1.3369    1.0000 </r>
       <r>    5.8734    0.0000 </r>
       <r>    5.9408    0.0000 </r>
       <r>    6.7447    0.0000 </r>
       <r>    6.7955    0.0000 </r>
       <r>    7.1341    0.0000 </r>
       <r>    7.8422    0.0000 </r>
       <r>    7.8844    0.0000 </r>
       <r>    8.5626    0.0000 </r>
       <r>    8.6241    0.0000 </r>
       <r>    8.7354    0.0000 </r>
       <r>   10.2458    0.0000 </r>
       <r>   10.4954    0.0000 </r>
       <r>   10.7343    0.0000 </r>
       <r>   10.8314    0.0000 </r>
       <r>   11.4707    0.0000 </r>
       <r>   11.5714    0.0000 </r>
       <r>   11.9219    0.0000 </r>
       <r>   12.5703    0.0000 </r>
       <r>   12.9522    0.0000 </r>
       <r>   13.4076    0.0000 </r>
       <r>   14.4631    0.0000 </r>
       <r>   14.6486    0.0000 </r>
       <r>   14.7483    0.0000 </r>
       <r>   14.9662    0.0000 </r>
       <r>   16.0272    0.0000 </r>
       <r>   16.3221    0.0000 </r>
      </set>
      <set comment="kpoint 11">
       <r>  -12.6500    1.0000 </r>
       <r>  -11.5154    1.0000 </r>
       <r>   -8.6139    1.0000 </r>
       <r>   -8.3653    1.0000 </r>
       <r>   -6.0049    1.0000 </r>
       <r>   -5.1408    1.0000 </r>
       <r>   -5.0238    1.0000 </r>
       <r>   -4.6216    1.0000 </r>
       <r>   -4.1753    1.0000 </r>
       <r>   -3.9321    1.0000 </r>
       <r>   -3.4864    1.0000 </r>
       <r>   -1.2300    1.0000 </r>
       <r>   -1.1080    1.0000 </r>
       <r>   -0.6674    1.0000 </r>
       <r>   -0.5644    1.0000 </r>
       <r>   -0.2086    1.0000 </r>
       <r>    0.1595    1.0000 </r>
       <r>    0.2668    1.0000 </r>
       <r>    0.6901    1.0000 </r>
       <r>    1.3396    1.0000 </r>
       <r>    1.4022    1.0000 </r>
       <r>    2.2686    0.0000 </r>
       <r>    5.2460    0.0000 </r>
       <r>    5.4093    0.0000 </r>
       <r>    6.0705    0.0000 </r>
       <r>    6.1394    0.0000 </r>
       <r>    7.4759    0.0000 </r>
       <r>    7.5649    0.0000 </r>
       <r>    8.2596    0.0000 </r>
       <r>    8.6553    0.0000 </r>
       <r>    8.8134    0.0000 </r>
       <r>    9.1526    0.0000 </r>
       <r>    9.2947    0.0000 </r>
       <r>   10.8105    0.0000 </r>
       <r>   11.2448    0.0000 </r>
       <r>   11.4955    0.0000 </r>
       <r>   11.6380    0.0000 </r>
       <r>   12.0088    0.0000 </r>
       <r>   12.2017    0.0000 </r>
       <r>   12.6698    0.0000 </r>
       <r>   12.6819    0.0000 </r>
       <r>   12.9174    0.0000 </r>
       <r>   13.1543    0.0000 </r>
       <r>   14.5714    0.0000 </r>
       <r>   15.0646    0.0000 </r>
       <r>   15.2396    0.0000 </r>
       <r>   15.3463    0.0000 </r>
       <r>   15.8592    0.0000 </r>
      </set>
      <set comment="kpoint 12">
       <r>  -12.6065    1.0000 </r>
       <r>  -11.5889    1.0000 </r>
       <r>   -8.5921    1.0000 </r>
       <r>   -8.3549    1.0000 </r>
       <r>   -5.9319    1.0000 </r>
       <r>   -5.4071    1.0000 </r>
       <r>   -5.0446    1.0000 </r>
       <r>   -4.7484    1.0000 </r>
       <r>   -3.9975    1.0000 </r>
       <r>   -3.7276    1.0000 </r>
       <r>   -3.1495    1.0000 </r>
       <r>   -1.4143    1.0000 </r>
       <r>   -1.2042    1.0000 </r>
       <r>   -0.7757    1.0000 </r>
       <r>   -0.5266    1.0000 </r>
       <r>   -0.1267    1.0000 </r>
       <r>    0.1380    1.0000 </r>
       <r>    0.2131    1.0000 </r>
       <r>    0.5775    1.0000 </r>
       <r>    1.2609    1.0000 </r>
       <r>    1.3328    1.0000 </r>
       <r>    2.1335    0.0000 </r>
       <r>    5.3265    0.0000 </r>
       <r>    5.7527    0.0000 </r>
       <r>    6.0855    0.0000 </r>
       <r>    6.1860    0.0000 </r>
       <r>    7.3956    0.0000 </r>
       <r>    7.7214    0.0000 </r>
       <r>    7.9920    0.0000 </r>
       <r>    8.7481    0.0000 </r>
       <r>    9.1671    0.0000 </r>
       <r>    9.2144    0.0000 </r>
       <r>    9.5777    0.0000 </r>
       <r>   10.4463    0.0000 </r>
       <r>   10.7059    0.0000 </r>
       <r>   11.2007    0.0000 </r>
       <r>   11.6557    0.0000 </r>
       <r>   12.1229    0.0000 </r>
       <r>   12.3548    0.0000 </r>
       <r>   12.4298    0.0000 </r>
       <r>   13.0787    0.0000 </r>
       <r>   13.2002    0.0000 </r>
       <r>   13.3518    0.0000 </r>
       <r>   14.5846    0.0000 </r>
       <r>   14.7289    0.0000 </r>
       <r>   15.1724    0.0000 </r>
       <r>   15.4105    0.0000 </r>
       <r>   15.8934    0.0000 </r>
      </set>
      <set comment="kpoint 13">
       <r>  -12.5216    1.0000 </r>
       <r>  -11.7212    1.0000 </r>
       <r>   -8.5478    1.0000 </r>
       <r>   -8.3421    1.0000 </r>
       <r>   -5.9019    1.0000 </r>
       <r>   -5.7261    1.0000 </r>
       <r>   -4.9532    1.0000 </r>
       <r>   -4.7117    1.0000 </r>
       <r>   -4.1199    1.0000 </r>
       <r>   -3.1955    1.0000 </r>
       <r>   -2.6805    1.0000 </r>
       <r>   -1.9104    1.0000 </r>
       <r>   -1.1639    1.0000 </r>
       <r>   -0.9152    1.0000 </r>
       <r>   -0.4743    1.0000 </r>
       <r>   -0.1218    1.0000 </r>
       <r>   -0.0146    1.0000 </r>
       <r>    0.2241    1.0000 </r>
       <r>    0.4630    1.0000 </r>
       <r>    1.1300    1.0000 </r>
       <r>    1.2149    1.0000 </r>
       <r>    1.8781    0.2074 </r>
       <r>    5.6465    0.0000 </r>
       <r>    6.0406    0.0000 </r>
       <r>    6.2260    0.0000 </r>
       <r>    6.3167    0.0000 </r>
       <r>    7.2943    0.0000 </r>
       <r>    7.8042    0.0000 </r>
       <r>    7.9556    0.0000 </r>
       <r>    8.8771    0.0000 </r>
       <r>    9.1661    0.0000 </r>
       <r>    9.6444    0.0000 </r>
       <r>    9.7840    0.0000 </r>
       <r>   10.0602    0.0000 </r>
       <r>   10.1824    0.0000 </r>
       <r>   10.9829    0.0000 </r>
       <r>   11.5173    0.0000 </r>
       <r>   12.0302    0.0000 </r>
       <r>   12.4319    0.0000 </r>
       <r>   12.7313    0.0000 </r>
       <r>   12.9585    0.0000 </r>
       <r>   13.3699    0.0000 </r>
       <r>   13.8734    0.0000 </r>
       <r>   14.4967    0.0000 </r>
       <r>   14.7777    0.0000 </r>
       <r>   15.1979    0.0000 </r>
       <r>   15.4267    0.0000 </r>
       <r>   16.1042    0.0000 </r>
      </set>
      <set comment="kpoint 14">
       <r>  -12.3990    1.0000 </r>
       <r>  -11.8895    1.0000 </r>
       <r>   -8.4853    1.0000 </r>
       <r>   -8.3413    1.0000 </r>
       <r>   -5.9778    1.0000 </r>
       <r>   -5.9552    1.0000 </r>
       <r>   -4.8183    1.0000 </r>
       <r>   -4.3917    1.0000 </r>
       <r>   -4.2829    1.0000 </r>
       <r>   -2.8293    1.0000 </r>
       <r>   -2.3438    1.0000 </r>
       <r>   -2.2014    1.0000 </r>
       <r>   -1.1078    1.0000 </r>
       <r>   -1.0525    1.0000 </r>
       <r>   -0.4820    1.0000 </r>
       <r>   -0.4061    1.0000 </r>
       <r>    0.0288    1.0000 </r>
       <r>    0.0305    1.0000 </r>
       <r>    0.6096    1.0000 </r>
       <r>    1.0009    1.0000 </r>
       <r>    1.0827    1.0000 </r>
       <r>    1.5446    1.0000 </r>
       <r>    6.0528    0.0000 </r>
       <r>    6.1787    0.0000 </r>
       <r>    6.3474    0.0000 </r>
       <r>    6.7497    0.0000 </r>
       <r>    7.2402    0.0000 </r>
       <r>    7.7265    0.0000 </r>
       <r>    8.0134    0.0000 </r>
       <r>    8.9765    0.0000 </r>
       <r>    9.0381    0.0000 </r>
       <r>    9.1060    0.0000 </r>
       <r>    9.8121    0.0000 </r>
       <r>   10.1103    0.0000 </r>
       <r>   10.6313    0.0000 </r>
       <r>   11.0038    0.0000 </r>
       <r>   11.2359    0.0000 </r>
       <r>   11.8758    0.0000 </r>
       <r>   12.2644    0.0000 </r>
       <r>   12.9116    0.0000 </r>
       <r>   12.9626    0.0000 </r>
       <r>   13.7105    0.0000 </r>
       <r>   14.2863    0.0000 </r>
       <r>   14.3061    0.0000 </r>
       <r>   14.9378    0.0000 </r>
       <r>   15.0329    0.0000 </r>
       <r>   15.5164    0.0000 </r>
       <r>   16.2834    0.0000 </r>
      </set>
      <set comment="kpoint 15">
       <r>  -12.2454    1.0000 </r>
       <r>  -12.0707    1.0000 </r>
       <r>   -8.4184    1.0000 </r>
       <r>   -8.3660    1.0000 </r>
       <r>   -6.0665    1.0000 </r>
       <r>   -6.0616    1.0000 </r>
       <r>   -4.6518    1.0000 </r>
       <r>   -4.4676    1.0000 </r>
       <r>   -3.8806    1.0000 </r>
       <r>   -3.2858    1.0000 </r>
       <r>   -2.0615    1.0000 </r>
       <r>   -1.8972    1.0000 </r>
       <r>   -1.1261    1.0000 </r>
       <r>   -1.0670    1.0000 </r>
       <r>   -0.6599    1.0000 </r>
       <r>   -0.6558    1.0000 </r>
       <r>   -0.0201    1.0000 </r>
       <r>    0.0234    1.0000 </r>
       <r>    0.8664    1.0000 </r>
       <r>    0.9384    1.0000 </r>
       <r>    0.9786    1.0000 </r>
       <r>    1.1925    1.0000 </r>
       <r>    6.1449    0.0000 </r>
       <r>    6.2644    0.0000 </r>
       <r>    6.8280    0.0000 </r>
       <r>    7.1623    0.0000 </r>
       <r>    7.2195    0.0000 </r>
       <r>    7.5693    0.0000 </r>
       <r>    7.8726    0.0000 </r>
       <r>    8.3802    0.0000 </r>
       <r>    9.0317    0.0000 </r>
       <r>    9.0631    0.0000 </r>
       <r>    9.9371    0.0000 </r>
       <r>   10.4100    0.0000 </r>
       <r>   10.6322    0.0000 </r>
       <r>   10.9087    0.0000 </r>
       <r>   11.6503    0.0000 </r>
       <r>   11.6614    0.0000 </r>
       <r>   12.0403    0.0000 </r>
       <r>   12.8230    0.0000 </r>
       <r>   13.3386    0.0000 </r>
       <r>   13.6828    0.0000 </r>
       <r>   14.1388    0.0000 </r>
       <r>   14.2928    0.0000 </r>
       <r>   14.9078    0.0000 </r>
       <r>   15.0461    0.0000 </r>
       <r>   15.8947    0.0000 </r>
       <r>   16.1967    0.0000 </r>
      </set>
      <set comment="kpoint 16">
       <r>  -12.5928    1.0000 </r>
       <r>  -11.4641    1.0000 </r>
       <r>   -8.5704    1.0000 </r>
       <r>   -8.3105    1.0000 </r>
       <r>   -5.9413    1.0000 </r>
       <r>   -5.6206    1.0000 </r>
       <r>   -4.9543    1.0000 </r>
       <r>   -4.5659    1.0000 </r>
       <r>   -4.4510    1.0000 </r>
       <r>   -4.1362    1.0000 </r>
       <r>   -3.4249    1.0000 </r>
       <r>   -1.2381    1.0000 </r>
       <r>   -1.0937    1.0000 </r>
       <r>   -1.0192    1.0000 </r>
       <r>   -0.2239    1.0000 </r>
       <r>    0.1875    1.0000 </r>
       <r>    0.3096    1.0000 </r>
       <r>    0.5608    1.0000 </r>
       <r>    0.7534    1.0000 </r>
       <r>    0.9562    1.0000 </r>
       <r>    0.9701    1.0000 </r>
       <r>    2.3024    0.0000 </r>
       <r>    4.9056    0.0000 </r>
       <r>    5.1179    0.0000 </r>
       <r>    6.2984    0.0000 </r>
       <r>    6.5282    0.0000 </r>
       <r>    7.2089    0.0000 </r>
       <r>    7.9010    0.0000 </r>
       <r>    8.6248    0.0000 </r>
       <r>    8.9965    0.0000 </r>
       <r>    9.3783    0.0000 </r>
       <r>    9.5131    0.0000 </r>
       <r>    9.5757    0.0000 </r>
       <r>   10.6718    0.0000 </r>
       <r>   11.1919    0.0000 </r>
       <r>   11.8935    0.0000 </r>
       <r>   11.9511    0.0000 </r>
       <r>   12.2142    0.0000 </r>
       <r>   12.3494    0.0000 </r>
       <r>   12.3771    0.0000 </r>
       <r>   12.4883    0.0000 </r>
       <r>   12.9021    0.0000 </r>
       <r>   13.6913    0.0000 </r>
       <r>   13.8020    0.0000 </r>
       <r>   14.3220    0.0000 </r>
       <r>   15.0176    0.0000 </r>
       <r>   15.3203    0.0000 </r>
       <r>   15.7492    0.0000 </r>
      </set>
      <set comment="kpoint 17">
       <r>  -12.5496    1.0000 </r>
       <r>  -11.5372    1.0000 </r>
       <r>   -8.5482    1.0000 </r>
       <r>   -8.3011    1.0000 </r>
       <r>   -5.8637    1.0000 </r>
       <r>   -5.5859    1.0000 </r>
       <r>   -5.2895    1.0000 </r>
       <r>   -4.6989    1.0000 </r>
       <r>   -4.5158    1.0000 </r>
       <r>   -3.6743    1.0000 </r>
       <r>   -3.0883    1.0000 </r>
       <r>   -1.4077    1.0000 </r>
       <r>   -1.1818    1.0000 </r>
       <r>   -1.0343    1.0000 </r>
       <r>   -0.2249    1.0000 </r>
       <r>    0.1702    1.0000 </r>
       <r>    0.2444    1.0000 </r>
       <r>    0.5408    1.0000 </r>
       <r>    0.6320    1.0000 </r>
       <r>    0.8906    1.0000 </r>
       <r>    0.9284    1.0000 </r>
       <r>    2.1654    0.0000 </r>
       <r>    5.0016    0.0000 </r>
       <r>    5.4473    0.0000 </r>
       <r>    6.2443    0.0000 </r>
       <r>    6.6615    0.0000 </r>
       <r>    7.3439    0.0000 </r>
       <r>    7.8592    0.0000 </r>
       <r>    8.5665    0.0000 </r>
       <r>    9.1049    0.0000 </r>
       <r>    9.3477    0.0000 </r>
       <r>    9.7215    0.0000 </r>
       <r>    9.8151    0.0000 </r>
       <r>   10.2654    0.0000 </r>
       <r>   10.6339    0.0000 </r>
       <r>   11.6289    0.0000 </r>
       <r>   11.8159    0.0000 </r>
       <r>   12.1725    0.0000 </r>
       <r>   12.3982    0.0000 </r>
       <r>   12.5705    0.0000 </r>
       <r>   12.8783    0.0000 </r>
       <r>   13.3058    0.0000 </r>
       <r>   13.6959    0.0000 </r>
       <r>   13.8381    0.0000 </r>
       <r>   14.1642    0.0000 </r>
       <r>   14.9743    0.0000 </r>
       <r>   15.3495    0.0000 </r>
       <r>   15.6328    0.0000 </r>
      </set>
      <set comment="kpoint 18">
       <r>  -12.4651    1.0000 </r>
       <r>  -11.6689    1.0000 </r>
       <r>   -8.5033    1.0000 </r>
       <r>   -8.2901    1.0000 </r>
       <r>   -5.8263    1.0000 </r>
       <r>   -5.6731    1.0000 </r>
       <r>   -5.4345    1.0000 </r>
       <r>   -4.6723    1.0000 </r>
       <r>   -4.6368    1.0000 </r>
       <r>   -3.1369    1.0000 </r>
       <r>   -2.6205    1.0000 </r>
       <r>   -1.8915    1.0000 </r>
       <r>   -1.1215    1.0000 </r>
       <r>   -1.0538    1.0000 </r>
       <r>   -0.2427    1.0000 </r>
       <r>   -0.0832    1.0000 </r>
       <r>    0.2819    1.0000 </r>
       <r>    0.4749    1.0000 </r>
       <r>    0.4901    1.0000 </r>
       <r>    0.8010    1.0000 </r>
       <r>    0.8610    1.0000 </r>
       <r>    1.9064    0.0532 </r>
       <r>    5.3260    0.0000 </r>
       <r>    5.9190    0.0000 </r>
       <r>    6.2168    0.0000 </r>
       <r>    6.7756    0.0000 </r>
       <r>    7.5102    0.0000 </r>
       <r>    7.8824    0.0000 </r>
       <r>    8.4972    0.0000 </r>
       <r>    9.2901    0.0000 </r>
       <r>    9.3215    0.0000 </r>
       <r>    9.5260    0.0000 </r>
       <r>    9.9715    0.0000 </r>
       <r>   10.0313    0.0000 </r>
       <r>   10.4821    0.0000 </r>
       <r>   11.3093    0.0000 </r>
       <r>   11.3249    0.0000 </r>
       <r>   12.1671    0.0000 </r>
       <r>   12.6542    0.0000 </r>
       <r>   12.8823    0.0000 </r>
       <r>   13.0987    0.0000 </r>
       <r>   13.4334    0.0000 </r>
       <r>   13.6685    0.0000 </r>
       <r>   13.9293    0.0000 </r>
       <r>   14.2996    0.0000 </r>
       <r>   15.0660    0.0000 </r>
       <r>   15.2718    0.0000 </r>
       <r>   15.8975    0.0000 </r>
      </set>
      <set comment="kpoint 19">
       <r>  -12.3432    1.0000 </r>
       <r>  -11.8364    1.0000 </r>
       <r>   -8.4401    1.0000 </r>
       <r>   -8.2916    1.0000 </r>
       <r>   -5.8989    1.0000 </r>
       <r>   -5.8829    1.0000 </r>
       <r>   -5.3210    1.0000 </r>
       <r>   -4.7996    1.0000 </r>
       <r>   -4.3564    1.0000 </r>
       <r>   -2.7851    1.0000 </r>
       <r>   -2.3017    1.0000 </r>
       <r>   -2.1459    1.0000 </r>
       <r>   -1.0635    1.0000 </r>
       <r>   -1.0380    1.0000 </r>
       <r>   -0.4059    1.0000 </r>
       <r>   -0.3584    1.0000 </r>
       <r>    0.1205    1.0000 </r>
       <r>    0.3468    1.0000 </r>
       <r>    0.6294    1.0000 </r>
       <r>    0.7437    1.0000 </r>
       <r>    0.7940    1.0000 </r>
       <r>    1.5690    1.0000 </r>
       <r>    5.8508    0.0000 </r>
       <r>    6.2500    0.0000 </r>
       <r>    6.4934    0.0000 </r>
       <r>    6.7268    0.0000 </r>
       <r>    7.5113    0.0000 </r>
       <r>    7.9450    0.0000 </r>
       <r>    8.4535    0.0000 </r>
       <r>    8.8528    0.0000 </r>
       <r>    9.2046    0.0000 </r>
       <r>    9.5096    0.0000 </r>
       <r>    9.8235    0.0000 </r>
       <r>   10.2696    0.0000 </r>
       <r>   10.7223    0.0000 </r>
       <r>   11.0212    0.0000 </r>
       <r>   11.3539    0.0000 </r>
       <r>   12.0914    0.0000 </r>
       <r>   12.3297    0.0000 </r>
       <r>   13.0781    0.0000 </r>
       <r>   13.2031    0.0000 </r>
       <r>   13.5623    0.0000 </r>
       <r>   13.8078    0.0000 </r>
       <r>   14.0631    0.0000 </r>
       <r>   14.6690    0.0000 </r>
       <r>   14.9016    0.0000 </r>
       <r>   15.3372    0.0000 </r>
       <r>   16.2260    0.0000 </r>
      </set>
      <set comment="kpoint 20">
       <r>  -12.1904    1.0000 </r>
       <r>  -12.0167    1.0000 </r>
       <r>   -8.3723    1.0000 </r>
       <r>   -8.3184    1.0000 </r>
       <r>   -5.9897    1.0000 </r>
       <r>   -5.9829    1.0000 </r>
       <r>   -5.1608    1.0000 </r>
       <r>   -4.9807    1.0000 </r>
       <r>   -3.8488    1.0000 </r>
       <r>   -3.2559    1.0000 </r>
       <r>   -2.0050    1.0000 </r>
       <r>   -1.8511    1.0000 </r>
       <r>   -1.0035    1.0000 </r>
       <r>   -0.9436    1.0000 </r>
       <r>   -0.7016    1.0000 </r>
       <r>   -0.6588    1.0000 </r>
       <r>    0.0989    1.0000 </r>
       <r>    0.2001    1.0000 </r>
       <r>    0.7280    1.0000 </r>
       <r>    0.7445    1.0000 </r>
       <r>    0.8918    1.0000 </r>
       <r>    1.2138    1.0000 </r>
       <r>    6.3832    0.0000 </r>
       <r>    6.5076    0.0000 </r>
       <r>    6.5628    0.0000 </r>
       <r>    7.0807    0.0000 </r>
       <r>    7.1536    0.0000 </r>
       <r>    7.6355    0.0000 </r>
       <r>    8.4433    0.0000 </r>
       <r>    8.5070    0.0000 </r>
       <r>    9.3987    0.0000 </r>
       <r>    9.5662    0.0000 </r>
       <r>    9.7655    0.0000 </r>
       <r>   10.0682    0.0000 </r>
       <r>   10.7839    0.0000 </r>
       <r>   11.1634    0.0000 </r>
       <r>   11.7808    0.0000 </r>
       <r>   11.8619    0.0000 </r>
       <r>   12.1599    0.0000 </r>
       <r>   13.0535    0.0000 </r>
       <r>   13.3501    0.0000 </r>
       <r>   13.5302    0.0000 </r>
       <r>   13.7562    0.0000 </r>
       <r>   13.8587    0.0000 </r>
       <r>   15.0128    0.0000 </r>
       <r>   15.0295    0.0000 </r>
       <r>   15.5730    0.0000 </r>
       <r>   15.8737    0.0000 </r>
      </set>
      <set comment="kpoint 21">
       <r>  -12.5330    1.0000 </r>
[...]
       <r>   -2.3476    1.0000 </r>
       <r>   -2.1566    1.0000 </r>
       <r>   -1.9951    1.0000 </r>
       <r>   -1.5215    1.0000 </r>
       <r>   -0.7621    1.0000 </r>
       <r>   -0.2322    1.0000 </r>
       <r>    0.1428    1.0000 </r>
       <r>    0.3613    1.0000 </r>
       <r>    0.4772    1.0000 </r>
       <r>    1.5542    1.0000 </r>
       <r>    1.5801    1.0000 </r>
       <r>    1.8348    0.6597 </r>
       <r>    5.4692    0.0000 </r>
       <r>    6.0983    0.0000 </r>
       <r>    6.6180    0.0000 </r>
       <r>    7.1504    0.0000 </r>
       <r>    7.7099    0.0000 </r>
       <r>    8.1700    0.0000 </r>
       <r>    8.9290    0.0000 </r>
       <r>    9.0811    0.0000 </r>
       <r>    9.6540    0.0000 </r>
       <r>    9.8869    0.0000 </r>
       <r>   10.5125    0.0000 </r>
       <r>   10.9705    0.0000 </r>
       <r>   11.1165    0.0000 </r>
       <r>   11.3819    0.0000 </r>
       <r>   11.4877    0.0000 </r>
       <r>   11.8770    0.0000 </r>
       <r>   12.7552    0.0000 </r>
       <r>   13.0377    0.0000 </r>
       <r>   13.2837    0.0000 </r>
       <r>   13.6580    0.0000 </r>
       <r>   13.7691    0.0000 </r>
       <r>   14.0669    0.0000 </r>
       <r>   14.3782    0.0000 </r>
       <r>   14.8848    0.0000 </r>
       <r>   14.9992    0.0000 </r>
       <r>   15.2984    0.0000 </r>
      </set>
      <set comment="kpoint 175">
       <r>  -12.0156    1.0000 </r>
       <r>  -11.8764    1.0000 </r>
       <r>   -8.5570    1.0000 </r>
       <r>   -8.4447    1.0000 </r>
       <r>   -5.9392    1.0000 </r>
       <r>   -5.8343    1.0000 </r>
       <r>   -4.9116    1.0000 </r>
       <r>   -4.5905    1.0000 </r>
       <r>   -4.4313    1.0000 </r>
       <r>   -3.9958    1.0000 </r>
       <r>   -2.2091    1.0000 </r>
       <r>   -2.1481    1.0000 </r>
       <r>   -2.0898    1.0000 </r>
       <r>   -1.8055    1.0000 </r>
       <r>   -0.2475    1.0000 </r>
       <r>   -0.0371    1.0000 </r>
       <r>    0.3641    1.0000 </r>
       <r>    0.4518    1.0000 </r>
       <r>    0.5152    1.0000 </r>
       <r>    0.8429    1.0000 </r>
       <r>    1.5940    1.0000 </r>
       <r>    1.6935    1.0000 </r>
       <r>    5.8125    0.0000 </r>
       <r>    5.9963    0.0000 </r>
       <r>    6.8212    0.0000 </r>
       <r>    7.3364    0.0000 </r>
       <r>    7.4212    0.0000 </r>
       <r>    7.5051    0.0000 </r>
       <r>    9.3338    0.0000 </r>
       <r>    9.5133    0.0000 </r>
       <r>    9.7204    0.0000 </r>
       <r>    9.8978    0.0000 </r>
       <r>   10.3857    0.0000 </r>
       <r>   10.7302    0.0000 </r>
       <r>   11.1763    0.0000 </r>
       <r>   11.4241    0.0000 </r>
       <r>   11.4320    0.0000 </r>
       <r>   11.5377    0.0000 </r>
       <r>   12.9963    0.0000 </r>
       <r>   13.0999    0.0000 </r>
       <r>   13.6111    0.0000 </r>
       <r>   13.9602    0.0000 </r>
       <r>   14.0910    0.0000 </r>
       <r>   14.1873    0.0000 </r>
       <r>   14.4989    0.0000 </r>
       <r>   14.6533    0.0000 </r>
       <r>   14.8046    0.0000 </r>
       <r>   14.9421    0.0000 </r>
      </set>
     </set>
    </set>
   </array>
  </eigenvalues>
  <separator name="orbital magnetization" >
   <v name="MAGDIPOLOUT">      0.00000000      0.00000000      0.00000000</v>
  </separator>
  <dos>
   <i name="efermi">      1.84931601 </i>
   <total>
    <array>
     <dimension dim="1">gridpoints</dimension>
     <dimension dim="2">spin</dimension>
     <field>energy</field>
     <field>total</field>
     <field>integrated</field>
     <set>
      <set comment="spin 1">
       <r>   -14.1747     0.0000     0.0000 </r>
       <r>   -14.0678     0.0000     0.0000 </r>
       <r>   -13.9610     0.0000     0.0000 </r>
       <r>   -13.8542     0.0000     0.0000 </r>
       <r>   -13.7474     0.0000     0.0000 </r>
       <r>   -13.6405     0.0000     0.0000 </r>
       <r>   -13.5337     0.0000     0.0000 </r>
       <r>   -13.4269     0.0000     0.0000 </r>
       <r>   -13.3201     0.0000     0.0000 </r>
       <r>   -13.2132     0.0000     0.0000 </r>
       <r>   -13.1064     0.0000     0.0000 </r>
       <r>   -12.9996     0.0000     0.0000 </r>
       <r>   -12.8928     0.0000     0.0000 </r>
       <r>   -12.7859     0.0039     0.0004 </r>
       <r>   -12.6791     0.5108     0.0550 </r>
       <r>   -12.5723     2.3971     0.3111 </r>
       <r>   -12.4655     3.5782     0.6933 </r>
       <r>   -12.3586     4.3821     1.1614 </r>
       <r>   -12.2518     3.5392     1.5395 </r>
       <r>   -12.1450     2.7384     1.8320 </r>
       <r>   -12.0382     2.7574     2.1266 </r>
       <r>   -11.9313     2.4960     2.3932 </r>
       <r>   -11.8245     2.7725     2.6894 </r>
       <r>   -11.7177     3.4040     3.0530 </r>
       <r>   -11.6109     3.5381     3.4310 </r>
       <r>   -11.5041     3.1495     3.7674 </r>
       <r>   -11.3972     1.7127     3.9504 </r>
       <r>   -11.2904     0.4552     3.9990 </r>
       <r>   -11.1836     0.0094     4.0000 </r>
       <r>   -11.0768     0.0000     4.0000 </r>
       <r>   -10.9699     0.0000     4.0000 </r>
       <r>   -10.8631     0.0000     4.0000 </r>
       <r>   -10.7563     0.0000     4.0000 </r>
       <r>   -10.6495     0.0000     4.0000 </r>
       <r>   -10.5426     0.0000     4.0000 </r>
       <r>   -10.4358     0.0000     4.0000 </r>
       <r>   -10.3290     0.0000     4.0000 </r>
       <r>   -10.2222     0.0000     4.0000 </r>
       <r>   -10.1153     0.0000     4.0000 </r>
       <r>   -10.0085     0.0000     4.0000 </r>
       <r>    -9.9017     0.0000     4.0000 </r>
       <r>    -9.7949     0.0000     4.0000 </r>
       <r>    -9.6880     0.0000     4.0000 </r>
       <r>    -9.5812     0.0000     4.0000 </r>
       <r>    -9.4744     0.0000     4.0000 </r>
       <r>    -9.3676     0.0000     4.0000 </r>
       <r>    -9.2607     0.0000     4.0000 </r>
       <r>    -9.1539     0.0000     4.0000 </r>
       <r>    -9.0471     0.0000     4.0000 </r>
       <r>    -8.9403     0.0007     4.0001 </r>
       <r>    -8.8334     0.2847     4.0305 </r>
       <r>    -8.7266     2.1221     4.2572 </r>
       <r>    -8.6198     5.4006     4.8341 </r>
       <r>    -8.5130     7.0283     5.5849 </r>
       <r>    -8.4061     6.2756     6.2553 </r>
       <r>    -8.2993     5.3319     6.8249 </r>
       <r>    -8.1925     4.8533     7.3433 </r>
       <r>    -8.0857     3.8580     7.7555 </r>
       <r>    -7.9788     1.6602     7.9328 </r>
       <r>    -7.8720     0.5766     7.9944 </r>
       <r>    -7.7652     0.0523     8.0000 </r>
       <r>    -7.6584     0.0000     8.0000 </r>
       <r>    -7.5515     0.0000     8.0000 </r>
       <r>    -7.4447     0.0000     8.0000 </r>
       <r>    -7.3379     0.0000     8.0000 </r>
       <r>    -7.2311     0.0000     8.0000 </r>
       <r>    -7.1242     0.0000     8.0000 </r>
       <r>    -7.0174     0.0003     8.0000 </r>
       <r>    -6.9106     0.1083     8.0116 </r>
       <r>    -6.8038     0.2605     8.0394 </r>
       <r>    -6.6969     0.4234     8.0847 </r>
       <r>    -6.5901     0.7665     8.1666 </r>
       <r>    -6.4833     0.8426     8.2566 </r>
       <r>    -6.3765     1.4259     8.4089 </r>
       <r>    -6.2696     1.9213     8.6141 </r>
       <r>    -6.1628     3.0482     8.9398 </r>
       <r>    -6.0560     3.8091     9.3467 </r>
       <r>    -5.9492     4.1277     9.7876 </r>
       <r>    -5.8423     4.0577    10.2211 </r>
       <r>    -5.7355     3.8997    10.6377 </r>
       <r>    -5.6287     4.0784    11.0733 </r>
       <r>    -5.5219     4.2142    11.5235 </r>
       <r>    -5.4150     4.5800    12.0128 </r>
       <r>    -5.3082     4.6384    12.5083 </r>
       <r>    -5.2014     4.5029    12.9893 </r>
       <r>    -5.0946     3.8924    13.4051 </r>
       <r>    -4.9877     3.2194    13.7490 </r>
       <r>    -4.8809     2.9871    14.0681 </r>
       <r>    -4.7741     2.2915    14.3129 </r>
       <r>    -4.6673     2.8993    14.6226 </r>
       <r>    -4.5604     3.3736    14.9830 </r>
       <r>    -4.4536     3.4323    15.3497 </r>
       <r>    -4.3468     3.3804    15.7108 </r>
       <r>    -4.2400     2.9699    16.0280 </r>
       <r>    -4.1331     2.9140    16.3393 </r>
       <r>    -4.0263     2.9222    16.6515 </r>
       <r>    -3.9195     2.8985    16.9611 </r>
       <r>    -3.8127     3.0977    17.2920 </r>
       <r>    -3.7058     2.9111    17.6030 </r>
       <r>    -3.5990     2.7112    17.8926 </r>
       <r>    -3.4922     3.0846    18.2221 </r>
       <r>    -3.3854     2.6742    18.5078 </r>
       <r>    -3.2785     2.8116    18.8082 </r>
       <r>    -3.1717     2.8236    19.1098 </r>
       <r>    -3.0649     2.6929    19.3975 </r>
       <r>    -2.9581     3.1059    19.7292 </r>
       <r>    -2.8512     2.9926    20.0489 </r>
       <r>    -2.7444     2.4572    20.3114 </r>
       <r>    -2.6376     2.6235    20.5917 </r>
       <r>    -2.5308     3.0040    20.9126 </r>
       <r>    -2.4239     3.0185    21.2350 </r>
       <r>    -2.3171     3.1737    21.5741 </r>
       <r>    -2.2103     4.0003    22.0014 </r>
       <r>    -2.1035     3.6531    22.3916 </r>
       <r>    -1.9966     3.1633    22.7295 </r>
       <r>    -1.8898     4.9144    23.2545 </r>
       <r>    -1.7830     5.5129    23.8434 </r>
       <r>    -1.6762     5.6728    24.4494 </r>
       <r>    -1.5693     6.1571    25.1072 </r>
       <r>    -1.4625     6.1738    25.7667 </r>
       <r>    -1.3557     5.6404    26.3692 </r>
       <r>    -1.2489     4.6984    26.8711 </r>
       <r>    -1.1420     6.4664    27.5619 </r>
       <r>    -1.0352     4.2999    28.0213 </r>
       <r>    -0.9284     2.3023    28.2672 </r>
       <r>    -0.8216     2.7112    28.5568 </r>
       <r>    -0.7147     2.8898    28.8655 </r>
       <r>    -0.6079     4.3765    29.3330 </r>
       <r>    -0.5011     6.7769    30.0570 </r>
       <r>    -0.3943     5.7009    30.6660 </r>
       <r>    -0.2874     6.5874    31.3697 </r>
       <r>    -0.1806     6.4069    32.0541 </r>
       <r>    -0.0738     6.7265    32.7727 </r>
       <r>     0.0330     6.8777    33.5074 </r>
       <r>     0.1398     6.2039    34.1701 </r>
       <r>     0.2467     8.8549    35.1160 </r>
       <r>     0.3535     8.1700    35.9888 </r>
       <r>     0.4603     8.6670    36.9146 </r>
       <r>     0.5671     5.4938    37.5015 </r>
       <r>     0.6740     3.0673    37.8292 </r>
       <r>     0.7808     3.1888    38.1698 </r>
       <r>     0.8876     3.5946    38.5538 </r>
       <r>     0.9944     3.5927    38.9376 </r>
       <r>     1.1013     2.8235    39.2392 </r>
       <r>     1.2081     3.3471    39.5968 </r>
       <r>     1.3149     4.4514    40.0723 </r>
       <r>     1.4217     3.8532    40.4839 </r>
       <r>     1.5286     3.6849    40.8776 </r>
       <r>     1.6354     4.5957    41.3685 </r>
       <r>     1.7422     3.4314    41.7350 </r>
       <r>     1.8490     2.4737    41.9993 </r>
       <r>     1.9559     2.6889    42.2866 </r>
       <r>     2.0627     2.1048    42.5114 </r>
       <r>     2.1695     2.6420    42.7936 </r>
       <r>     2.2763     2.6356    43.0752 </r>
       <r>     2.3832     2.0052    43.2894 </r>
       <r>     2.4900     0.9420    43.3900 </r>
       <r>     2.5968     0.3823    43.4309 </r>
       <r>     2.7036     0.5769    43.4925 </r>
       <r>     2.8105     0.4219    43.5376 </r>
       <r>     2.9173     0.3066    43.5703 </r>
       <r>     3.0241     0.7167    43.6469 </r>
       <r>     3.1309     1.0312    43.7570 </r>
       <r>     3.2378     0.5910    43.8202 </r>
       <r>     3.3446     0.0197    43.8223 </r>
       <r>     3.4514     0.1126    43.8343 </r>
       <r>     3.5582     0.3898    43.8759 </r>
       <r>     3.6651     0.3468    43.9130 </r>
       <r>     3.7719     0.3586    43.9513 </r>
       <r>     3.8787     0.4204    43.9962 </r>
       <r>     3.9855     0.0357    44.0000 </r>
       <r>     4.0924     0.0000    44.0000 </r>
       <r>     4.1992     0.0134    44.0014 </r>
       <r>     4.3060     0.1571    44.0182 </r>
       <r>     4.4128     0.3681    44.0575 </r>
       <r>     4.5197     0.4386    44.1044 </r>
       <r>     4.6265     0.6142    44.1700 </r>
       <r>     4.7333     0.8565    44.2615 </r>
       <r>     4.8401     0.8405    44.3513 </r>
       <r>     4.9470     0.8744    44.4447 </r>
       <r>     5.0538     1.2317    44.5763 </r>
       <r>     5.1606     1.1989    44.7043 </r>
       <r>     5.2674     1.5660    44.8716 </r>
       <r>     5.3743     2.1072    45.0967 </r>
       <r>     5.4811     2.5146    45.3653 </r>
       <r>     5.5879     2.7998    45.6644 </r>
       <r>     5.6947     3.2579    46.0125 </r>
       <r>     5.8016     3.2998    46.3650 </r>
       <r>     5.9084     4.1843    46.8119 </r>
       <r>     6.0152     4.8337    47.3283 </r>
       <r>     6.1220     4.1227    47.7687 </r>
       <r>     6.2289     4.5876    48.2588 </r>
       <r>     6.3357     4.3435    48.7228 </r>
       <r>     6.4425     3.9371    49.1434 </r>
       <r>     6.5493     4.5407    49.6284 </r>
       <r>     6.6562     3.2828    49.9791 </r>
       <r>     6.7630     3.9405    50.4000 </r>
       <r>     6.8698     4.5981    50.8912 </r>
       <r>     6.9766     4.6118    51.3839 </r>
       <r>     7.0835     4.3401    51.8475 </r>
       <r>     7.1903     5.5619    52.4417 </r>
       <r>     7.2971     5.0365    52.9797 </r>
       <r>     7.4039     4.5001    53.4604 </r>
       <r>     7.5108     4.2514    53.9146 </r>
       <r>     7.6176     3.6104    54.3002 </r>
       <r>     7.7244     3.0974    54.6311 </r>
       <r>     7.8312     3.0401    54.9559 </r>
       <r>     7.9381     2.9693    55.2731 </r>
       <r>     8.0449     4.1478    55.7162 </r>
       <r>     8.1517     3.9478    56.1379 </r>
       <r>     8.2585     3.7726    56.5409 </r>
       <r>     8.3654     4.0278    56.9712 </r>
       <r>     8.4722     4.2681    57.4271 </r>
       <r>     8.5790     4.5131    57.9092 </r>
       <r>     8.6858     4.3300    58.3718 </r>
       <r>     8.7927     5.3865    58.9472 </r>
       <r>     8.8995     4.7418    59.4537 </r>
       <r>     9.0063     5.2696    60.0167 </r>
       <r>     9.1131     5.2274    60.5751 </r>
       <r>     9.2200     5.0329    61.1127 </r>
       <r>     9.3268     4.6551    61.6100 </r>
       <r>     9.4336     4.4252    62.0827 </r>
       <r>     9.5404     5.0812    62.6255 </r>
       <r>     9.6473     5.0462    63.1646 </r>
       <r>     9.7541     5.2750    63.7281 </r>
       <r>     9.8609     4.5041    64.2092 </r>
       <r>     9.9677     3.7177    64.6064 </r>
       <r>    10.0746     5.1954    65.1614 </r>
       <r>    10.1814     4.7278    65.6664 </r>
       <r>    10.2882     4.1839    66.1133 </r>
       <r>    10.3950     5.2992    66.6794 </r>
       <r>    10.5019     5.8408    67.3034 </r>
       <r>    10.6087     4.0942    67.7407 </r>
       <r>    10.7155     3.9293    68.1605 </r>
       <r>    10.8223     3.3001    68.5130 </r>
       <r>    10.9292     4.7091    69.0161 </r>
       <r>    11.0360     5.3709    69.5898 </r>
       <r>    11.1428     6.3409    70.2672 </r>
       <r>    11.2496     6.0093    70.9091 </r>
       <r>    11.3565     5.1475    71.4590 </r>
       <r>    11.4633     4.4769    71.9373 </r>
       <r>    11.5701     4.4780    72.4156 </r>
       <r>    11.6769     5.0075    72.9505 </r>
       <r>    11.7837     4.8399    73.4676 </r>
       <r>    11.8906     5.9668    74.1050 </r>
       <r>    11.9974     6.0477    74.7510 </r>
       <r>    12.1042     6.0834    75.4009 </r>
       <r>    12.2110     5.5163    75.9901 </r>
       <r>    12.3179     5.0056    76.5249 </r>
       <r>    12.4247     5.7313    77.1371 </r>
       <r>    12.5315     5.9632    77.7741 </r>
       <r>    12.6383     5.9050    78.4049 </r>
       <r>    12.7452     5.9809    79.0438 </r>
       <r>    12.8520     5.9039    79.6745 </r>
       <r>    12.9588     5.6372    80.2767 </r>
       <r>    13.0656     6.3467    80.9547 </r>
       <r>    13.1725     6.3447    81.6325 </r>
       <r>    13.2793     5.4940    82.2194 </r>
       <r>    13.3861     6.1167    82.8728 </r>
       <r>    13.4929     5.4704    83.4572 </r>
       <r>    13.5998     4.8607    83.9764 </r>
       <r>    13.7066     6.2079    84.6396 </r>
       <r>    13.8134     5.5145    85.2286 </r>
       <r>    13.9202     5.3838    85.8038 </r>
       <r>    14.0271     5.4779    86.3889 </r>
       <r>    14.1339     4.6751    86.8883 </r>
       <r>    14.2407     4.9887    87.4213 </r>
       <r>    14.3475     4.9369    87.9487 </r>
       <r>    14.4544     4.9330    88.4756 </r>
       <r>    14.5612     5.2731    89.0389 </r>
       <r>    14.6680     5.2171    89.5962 </r>
       <r>    14.7748     4.1068    90.0349 </r>
       <r>    14.8817     4.9840    90.5674 </r>
       <r>    14.9885     6.1206    91.2212 </r>
       <r>    15.0953     5.7347    91.8338 </r>
       <r>    15.2021     5.7443    92.4474 </r>
       <r>    15.3090     5.9843    93.0867 </r>
       <r>    15.4158     5.7887    93.7051 </r>
       <r>    15.5226     6.0410    94.3504 </r>
       <r>    15.6294     4.6412    94.8462 </r>
       <r>    15.7363     2.5377    95.1173 </r>
       <r>    15.8431     2.7077    95.4065 </r>
       <r>    15.9499     1.8355    95.6026 </r>
       <r>    16.0567     1.1262    95.7229 </r>
       <r>    16.1636     0.8677    95.8156 </r>
       <r>    16.2704     0.7280    95.8934 </r>
       <r>    16.3772     0.8180    95.9808 </r>
       <r>    16.4840     0.1783    95.9998 </r>
       <r>    16.5909     0.0017    96.0000 </r>
       <r>    16.6977     0.0000    96.0000 </r>
       <r>    16.8045     0.0000    96.0000 </r>
       <r>    16.9113     0.0000    96.0000 </r>
       <r>    17.0182     0.0000    96.0000 </r>
       <r>    17.1250     0.0000    96.0000 </r>
       <r>    17.2318     0.0000    96.0000 </r>
       <r>    17.3386     0.0000    96.0000 </r>
       <r>    17.4455     0.0000    96.0000 </r>
       <r>    17.5523     0.0000    96.0000 </r>
       <r>    17.6591     0.0000    96.0000 </r>
       <r>    17.7659     0.0000    96.0000 </r>
       <r>    17.8728     0.0000    96.0000 </r>
      </set>
     </set>
    </array>
   </total>
  </dos>
 </calculation>
 <structure name="finalpos" >
  <crystal>
   <varray name="basis" >
    <v>       5.70839400       0.00000000       0.00000000 </v>
    <v>       0.00000000       4.05599580       0.00000000 </v>
    <v>       0.00000000       0.00000000       6.21660840 </v>
   </varray>
   <i name="volume">    143.93451492 </i>
   <varray name="rec_basis" >
    <v>       0.17518062       0.00000000       0.00000000 </v>
    <v>       0.00000000       0.24654858       0.00000000 </v>
    <v>       0.00000000       0.00000000       0.16085942 </v>
   </varray>
  </crystal>
  <varray name="positions" >
   <v>       0.52123000       0.50000000       0.63796000 </v>
   <v>       0.47877000       0.50000000       0.36204000 </v>
   <v>       0.97877000       0.50000000       0.63796000 </v>
   <v>       0.02123000       0.50000000       0.36204000 </v>
   <v>       0.60090000       0.50000000       0.89991000 </v>
   <v>       0.39910000       0.50000000       0.10009000 </v>
   <v>       0.89910000       0.50000000       0.89991000 </v>
   <v>       0.10090000       0.50000000       0.10009000 </v>
   <v>       0.75000000       0.79171000       0.72973000 </v>
   <v>       0.25000000       0.20829000       0.27027000 </v>
   <v>       0.75000000       0.20829000       0.72973000 </v>
   <v>       0.25000000       0.79171000       0.27027000 </v>
   <v>       0.25000000       0.50000000       0.52367000 </v>
   <v>       0.75000000       0.50000000       0.47633000 </v>
  </varray>
 </structure>
</modeling>
