       N       E                     dE             d eps       ncg     rms          rms(c)
DAV:   1     0.101755467705E+03    0.10176E+03   -0.22154E+04120960   0.995E+02
