 running   24 mpi-ranks, with    1 threads/rank, on    1 nodes
 distrk:  each k-point on   24 cores,    1 groups
 distr:  one band on    1 cores,   24 groups
 vasp.6.4.3 19Mar24 (build May 31 2024 16:31:43) complex                        
  
 POSCAR found type information on POSCAR B 
 POSCAR found :  1 types and       1 ions
 Reading from existing POTCAR
 scaLAPACK will be used
 Reading from existing POTCAR
 LDA part: xc-table for (Slater+PW92), standard interpolation
 POSCAR, INCAR and KPOINTS ok, starting setup
 FFT: planning ... GRIDC
 FFT: planning ... GRID_SOFT
 FFT: planning ... GRID
 WAVECAR not read
 entering main loop
       N       E                     dE             d eps       ncg     rms          rms(c)
DAV:   1     0.810927891624E+01    0.81093E+01   -0.35014E+02  8400   0.402E+01
DAV:   2     0.112914764319E+00   -0.79964E+01   -0.79715E+01 16416   0.580E+00
DAV:   3    -0.546956358694E-01   -0.16761E+00   -0.14624E+00  8592   0.149E+00
DAV:   4    -0.582120601759E-01   -0.35164E-02   -0.32968E-02  9480   0.181E-01
DAV:   5    -0.582521626743E-01   -0.40102E-04   -0.40079E-04 12960   0.218E-02    0.849E-03
DAV:   6    -0.582530579411E-01   -0.89527E-06   -0.30330E-06 11664   0.301E-03
   1 F= -.58253058E-01 E0= -.31752387E-01  d E =-.530013E-01
