 vasp.6.4.3 19Mar24 (build May 31 2024 16:31:43) complex                        
  
 executed on             LinuxIFC date 2024.11.03  02:05:16
 running   24 mpi-ranks, with    1 threads/rank, on    1 nodes
 distrk:  each k-point on   24 cores,    1 groups
 distr:  one band on NCORE=   1 cores,   24 groups


--------------------------------------------------------------------------------------------------------


 INCAR:
   SYSTEM = Convergence
   ISTART = 0
   ICHARG = 2
   PREC = Accurate
   ENCUT = 640
   LCHARG = .FALSE.
   LWAVE = .FALSE.
   ALGO = Normal
   NELM = 100
   EDIFF = 1E-6
   EDIFFG = -1E-3
   SIGMA = 0.05
   ISMEAR = 0
   ISPIN = 1
   NSW = 0
   IBRION = -1
   POTIM = .5
   ISIF = 2
   GGA = PE

 POTCAR:    PAW_PBE B 06Sep2000                   
 POTCAR:    PAW_PBE B 06Sep2000                   
   SHA256 =  a32ced30f5ae56fd4d10b4325ff17eb3e4e38ee0f4288bc219fb012fddfa6e97 B/POTCAR              
   COPYR  = (c) Copyright 06Sep2000 Georg Kresse                                                    
   COPYR  = This file is part of the software VASP. Any use, copying, and all other rights are regul
   COPYR  = If you do not have a valid VASP license, you may not use, copy or distribute this file. 
   VRHFIN =B: s2p1                                                                                  
   LEXCH  = PE                                                                                      
   EATOM  =    71.1703 eV,    5.2309 Ry                                                             
                                                                                                    
   TITEL  = PAW_PBE B 06Sep2000                                                                     
   LULTRA =        F    use ultrasoft PP ?                                                          
   IUNSCR =        1    unscreen: 0-lin 1-nonlin 2-no                                               
   RPACOR =    1.200    partial core radius                                                         
   POMASS =   10.811; ZVAL   =    3.000    mass and valenz                                          
   RCORE  =    1.700    outmost cutoff radius                                                       
   RWIGS  =    1.710; RWIGS  =    0.905    wigner-seitz radius (au A)                               
   ENMAX  =  318.614; ENMIN  =  238.960 eV                                                          
   ICORE  =        2    local potential                                                             
   LCOR   =        T    correct aug charges                                                         
   LPAW   =        T    paw PP                                                                      
   EAUG   =  535.514                                                                                
   DEXC   =    0.000                                                                                
   RMAX   =    1.732    core radius for proj-oper                                                   
   RAUG   =    1.300    factor for augmentation sphere                                              
   RDEP   =    1.757    radius for radial grids                                                     
   RDEPT  =    1.436    core radius for aug-charge                                                  
                                                                                                    
   Atomic configuration                                                                             
    4 entries                                                                                       
     n  l   j            E        occ.                                                              
     1  0  0.50      -180.5896   2.0000                                                             
     2  0  0.50        -9.4431   2.0000                                                             
     2  1  0.50        -3.6068   1.0000                                                             
     3  2  1.50        -4.0817   0.0000                                                             
   Description                                                                                      
     l       E           TYP  RCUT    TYP  RCUT                                                     
     0     -9.4430752     23  1.500                                                                 
     0      0.8675899     23  1.500                                                                 
     1     -3.6067955     23  1.700                                                                 
     1      6.1086146     23  1.700                                                                 
     2     -4.0817478      7  1.700                                                                 
  local pseudopotential read in
  partial core-charges read in
  partial kinetic energy density read in
  atomic valenz-charges read in
  non local Contribution for L=           0  read in
    real space projection operators read in
  non local Contribution for L=           0  read in
    real space projection operators read in
  non local Contribution for L=           1  read in
    real space projection operators read in
  non local Contribution for L=           1  read in
    real space projection operators read in
    PAW grid and wavefunctions read in
 
   number of l-projection  operators is LMAX  =           4
   number of lm-projection operators is LMMAX =           8
 
  PAW_PBE B 06Sep2000                   :
 energy of atom  1       EATOM=  -71.1703
 kinetic energy error for atom=    0.0006 (will be added to EATOM!!)
 
 
 POSCAR: B1
  positions in direct lattice
  No initial velocities read in


 exchange-correlation table for PE
   RHO(1)=    0.500       N(1)  =     2000
   RHO(2)=  100.500       N(2)  =     4000
 


--------------------------------------------------------------------------------------------------------


 ion  position               nearest neighbor table
   1  0.521  0.545  0.638-
 
  LATTYP: Found a simple orthorhombic cell.
 ALAT       =    12.5000000000
 B/A-ratio  =     1.2000000000
 C/A-ratio  =     1.4400000000
  
  Lattice vectors:
  
 A1 = (   0.0000000000, -12.5000000000,   0.0000000000)
 A2 = (  15.0000000000,   0.0000000000,   0.0000000000)
 A3 = (   0.0000000000,   0.0000000000,  18.0000000000)


Analysis of symmetry for initial positions (statically):
=====================================================================
 Subroutine PRICEL returns:
 Original cell was already a primitive cell.
 

 Routine SETGRP: Setting up the symmetry group for a 
 simple orthorhombic supercell.


 Subroutine GETGRP returns: Found  8 space group operations
 (whereof  1 operations were pure point group operations)
 out of a pool of  8 trial point group operations.


The static configuration has the point symmetry C_1 .
 The point group associated with its full space group is D_2h.


Analysis of symmetry for dynamics (positions and initial velocities):
=====================================================================
 Subroutine PRICEL returns:
 Original cell was already a primitive cell.
 

 Routine SETGRP: Setting up the symmetry group for a 
 simple orthorhombic supercell.


 Subroutine GETGRP returns: Found  8 space group operations
 (whereof  1 operations were pure point group operations)
 out of a pool of  8 trial point group operations.


The dynamic configuration has the point symmetry C_1 .
 The point group associated with its full space group is D_2h.


 Subroutine INISYM returns: Found  8 space group operations
 (whereof  1 operations are pure point group operations),
 and found     1 'primitive' translations


----------------------------------------------------------------------------------------

                                     Primitive cell                                     

  volume of cell :    3375.0000

  direct lattice vectors                    reciprocal lattice vectors
    15.000000000  0.000000000  0.000000000     0.066666667  0.000000000  0.000000000
     0.000000000 12.500000000  0.000000000     0.000000000  0.080000000  0.000000000
     0.000000000  0.000000000 18.000000000     0.000000000  0.000000000  0.055555556

  length of vectors
    15.000000000 12.500000000 18.000000000     0.066666667  0.080000000  0.055555556

  position of ions in fractional coordinates (direct lattice)
     0.521230000  0.545000000  0.637960000

  ion indices of the primitive-cell ions
   primitive index   ion index
                 1           1

----------------------------------------------------------------------------------------

 
 
 KPOINTS: k-points                                

Automatic generation of k-mesh.
 Grid dimensions read from file:
 generate k-points for:   10   14    9

 Generating k-lattice:

  Cartesian coordinates                     Fractional coordinates (reciprocal lattice)
     0.006666667  0.000000000  0.000000000     0.100000000  0.000000000  0.000000000
     0.000000000  0.005714286  0.000000000     0.000000000  0.071428571  0.000000000
     0.000000000  0.000000000  0.006172840     0.000000000  0.000000000  0.111111111

  Length of vectors
     0.006666667  0.005714286  0.006172840

  Shift w.r.t. Gamma in fractional coordinates (k-lattice)
     0.500000000  0.500000000  0.000000000

 
 Subroutine IBZKPT returns following result:
 ===========================================
 
 Found    175 irreducible k-points:
 
 Following reciprocal coordinates:
            Coordinates               Weight
  0.050000  0.035714  0.000000      4.000000
  0.150000  0.035714  0.000000      4.000000
  0.250000  0.035714  0.000000      4.000000
  0.350000  0.035714  0.000000      4.000000
  0.450000  0.035714  0.000000      4.000000
  0.050000  0.107143  0.000000      4.000000
  0.150000  0.107143  0.000000      4.000000
  0.250000  0.107143  0.000000      4.000000
  0.350000  0.107143  0.000000      4.000000
  0.450000  0.107143  0.000000      4.000000
  0.050000  0.178571  0.000000      4.000000
  0.150000  0.178571  0.000000      4.000000
  0.250000  0.178571  0.000000      4.000000
  0.350000  0.178571  0.000000      4.000000
  0.450000  0.178571  0.000000      4.000000
  0.050000  0.250000  0.000000      4.000000
  0.150000  0.250000  0.000000      4.000000
  0.250000  0.250000  0.000000      4.000000
  0.350000  0.250000  0.000000      4.000000
  0.450000  0.250000  0.000000      4.000000
  0.050000  0.321429  0.000000      4.000000
  0.150000  0.321429  0.000000      4.000000
  0.250000  0.321429  0.000000      4.000000
  0.350000  0.321429  0.000000      4.000000
  0.450000  0.321429  0.000000      4.000000
  0.050000  0.392857  0.000000      4.000000
  0.150000  0.392857  0.000000      4.000000
  0.250000  0.392857  0.000000      4.000000
  0.350000  0.392857  0.000000      4.000000
  0.450000  0.392857  0.000000      4.000000
  0.050000  0.464286  0.000000      4.000000
  0.150000  0.464286  0.000000      4.000000
  0.250000  0.464286  0.000000      4.000000
  0.350000  0.464286  0.000000      4.000000
  0.450000  0.464286  0.000000      4.000000
  0.050000  0.035714  0.111111      8.000000
  0.150000  0.035714  0.111111      8.000000
  0.250000  0.035714  0.111111      8.000000
  0.350000  0.035714  0.111111      8.000000
  0.450000  0.035714  0.111111      8.000000
  0.050000  0.107143  0.111111      8.000000
  0.150000  0.107143  0.111111      8.000000
  0.250000  0.107143  0.111111      8.000000
  0.350000  0.107143  0.111111      8.000000
  0.450000  0.107143  0.111111      8.000000
  0.050000  0.178571  0.111111      8.000000
  0.150000  0.178571  0.111111      8.000000
  0.250000  0.178571  0.111111      8.000000
  0.350000  0.178571  0.111111      8.000000
  0.450000  0.178571  0.111111      8.000000
  0.050000  0.250000  0.111111      8.000000
  0.150000  0.250000  0.111111      8.000000
  0.250000  0.250000  0.111111      8.000000
  0.350000  0.250000  0.111111      8.000000
  0.450000  0.250000  0.111111      8.000000
  0.050000  0.321429  0.111111      8.000000
  0.150000  0.321429  0.111111      8.000000
  0.250000  0.321429  0.111111      8.000000
  0.350000  0.321429  0.111111      8.000000
  0.450000  0.321429  0.111111      8.000000
  0.050000  0.392857  0.111111      8.000000
  0.150000  0.392857  0.111111      8.000000
  0.250000  0.392857  0.111111      8.000000
  0.350000  0.392857  0.111111      8.000000
  0.450000  0.392857  0.111111      8.000000
  0.050000  0.464286  0.111111      8.000000
  0.150000  0.464286  0.111111      8.000000
  0.250000  0.464286  0.111111      8.000000
  0.350000  0.464286  0.111111      8.000000
  0.450000  0.464286  0.111111      8.000000
  0.050000  0.035714  0.222222      8.000000
  0.150000  0.035714  0.222222      8.000000
  0.250000  0.035714  0.222222      8.000000
  0.350000  0.035714  0.222222      8.000000
  0.450000  0.035714  0.222222      8.000000
  0.050000  0.107143  0.222222      8.000000
  0.150000  0.107143  0.222222      8.000000
  0.250000  0.107143  0.222222      8.000000
  0.350000  0.107143  0.222222      8.000000
  0.450000  0.107143  0.222222      8.000000
  0.050000  0.178571  0.222222      8.000000
  0.150000  0.178571  0.222222      8.000000
  0.250000  0.178571  0.222222      8.000000
  0.350000  0.178571  0.222222      8.000000
  0.450000  0.178571  0.222222      8.000000
  0.050000  0.250000  0.222222      8.000000
  0.150000  0.250000  0.222222      8.000000
  0.250000  0.250000  0.222222      8.000000
  0.350000  0.250000  0.222222      8.000000
  0.450000  0.250000  0.222222      8.000000
  0.050000  0.321429  0.222222      8.000000
  0.150000  0.321429  0.222222      8.000000
  0.250000  0.321429  0.222222      8.000000
  0.350000  0.321429  0.222222      8.000000
  0.450000  0.321429  0.222222      8.000000
  0.050000  0.392857  0.222222      8.000000
  0.150000  0.392857  0.222222      8.000000
  0.250000  0.392857  0.222222      8.000000
  0.350000  0.392857  0.222222      8.000000
  0.450000  0.392857  0.222222      8.000000
  0.050000  0.464286  0.222222      8.000000
  0.150000  0.464286  0.222222      8.000000
  0.250000  0.464286  0.222222      8.000000
  0.350000  0.464286  0.222222      8.000000
  0.450000  0.464286  0.222222      8.000000
  0.050000  0.035714  0.333333      8.000000
  0.150000  0.035714  0.333333      8.000000
  0.250000  0.035714  0.333333      8.000000
  0.350000  0.035714  0.333333      8.000000
  0.450000  0.035714  0.333333      8.000000
  0.050000  0.107143  0.333333      8.000000
  0.150000  0.107143  0.333333      8.000000
  0.250000  0.107143  0.333333      8.000000
  0.350000  0.107143  0.333333      8.000000
  0.450000  0.107143  0.333333      8.000000
  0.050000  0.178571  0.333333      8.000000
  0.150000  0.178571  0.333333      8.000000
  0.250000  0.178571  0.333333      8.000000
  0.350000  0.178571  0.333333      8.000000
  0.450000  0.178571  0.333333      8.000000
  0.050000  0.250000  0.333333      8.000000
  0.150000  0.250000  0.333333      8.000000
  0.250000  0.250000  0.333333      8.000000
  0.350000  0.250000  0.333333      8.000000
  0.450000  0.250000  0.333333      8.000000
  0.050000  0.321429  0.333333      8.000000
  0.150000  0.321429  0.333333      8.000000
  0.250000  0.321429  0.333333      8.000000
  0.350000  0.321429  0.333333      8.000000
  0.450000  0.321429  0.333333      8.000000
  0.050000  0.392857  0.333333      8.000000
  0.150000  0.392857  0.333333      8.000000
  0.250000  0.392857  0.333333      8.000000
  0.350000  0.392857  0.333333      8.000000
  0.450000  0.392857  0.333333      8.000000
  0.050000  0.464286  0.333333      8.000000
  0.150000  0.464286  0.333333      8.000000
  0.250000  0.464286  0.333333      8.000000
  0.350000  0.464286  0.333333      8.000000
  0.450000  0.464286  0.333333      8.000000
  0.050000  0.035714  0.444444      8.000000
  0.150000  0.035714  0.444444      8.000000
  0.250000  0.035714  0.444444      8.000000
  0.350000  0.035714  0.444444      8.000000
  0.450000  0.035714  0.444444      8.000000
  0.050000  0.107143  0.444444      8.000000
  0.150000  0.107143  0.444444      8.000000
  0.250000  0.107143  0.444444      8.000000
  0.350000  0.107143  0.444444      8.000000
  0.450000  0.107143  0.444444      8.000000
  0.050000  0.178571  0.444444      8.000000
  0.150000  0.178571  0.444444      8.000000
  0.250000  0.178571  0.444444      8.000000
  0.350000  0.178571  0.444444      8.000000
  0.450000  0.178571  0.444444      8.000000
  0.050000  0.250000  0.444444      8.000000
  0.150000  0.250000  0.444444      8.000000
  0.250000  0.250000  0.444444      8.000000
  0.350000  0.250000  0.444444      8.000000
  0.450000  0.250000  0.444444      8.000000
  0.050000  0.321429  0.444444      8.000000
  0.150000  0.321429  0.444444      8.000000
  0.250000  0.321429  0.444444      8.000000
  0.350000  0.321429  0.444444      8.000000
  0.450000  0.321429  0.444444      8.000000
  0.050000  0.392857  0.444444      8.000000
  0.150000  0.392857  0.444444      8.000000
  0.250000  0.392857  0.444444      8.000000
  0.350000  0.392857  0.444444      8.000000
  0.450000  0.392857  0.444444      8.000000
  0.050000  0.464286  0.444444      8.000000
  0.150000  0.464286  0.444444      8.000000
  0.250000  0.464286  0.444444      8.000000
  0.350000  0.464286  0.444444      8.000000
  0.450000  0.464286  0.444444      8.000000
 
 Following cartesian coordinates:
            Coordinates               Weight
  0.003333  0.002857  0.000000      4.000000
  0.010000  0.002857  0.000000      4.000000
  0.016667  0.002857  0.000000      4.000000
  0.023333  0.002857  0.000000      4.000000
  0.030000  0.002857  0.000000      4.000000
  0.003333  0.008571  0.000000      4.000000
  0.010000  0.008571  0.000000      4.000000
  0.016667  0.008571  0.000000      4.000000
  0.023333  0.008571  0.000000      4.000000
  0.030000  0.008571  0.000000      4.000000
  0.003333  0.014286  0.000000      4.000000
  0.010000  0.014286  0.000000      4.000000
  0.016667  0.014286  0.000000      4.000000
  0.023333  0.014286  0.000000      4.000000
  0.030000  0.014286  0.000000      4.000000
  0.003333  0.020000  0.000000      4.000000
  0.010000  0.020000  0.000000      4.000000
  0.016667  0.020000  0.000000      4.000000
  0.023333  0.020000  0.000000      4.000000
  0.030000  0.020000  0.000000      4.000000
  0.003333  0.025714  0.000000      4.000000
  0.010000  0.025714  0.000000      4.000000
  0.016667  0.025714  0.000000      4.000000
  0.023333  0.025714  0.000000      4.000000
  0.030000  0.025714  0.000000      4.000000
  0.003333  0.031429  0.000000      4.000000
  0.010000  0.031429  0.000000      4.000000
  0.016667  0.031429  0.000000      4.000000
  0.023333  0.031429  0.000000      4.000000
  0.030000  0.031429  0.000000      4.000000
  0.003333  0.037143  0.000000      4.000000
  0.010000  0.037143  0.000000      4.000000
  0.016667  0.037143  0.000000      4.000000
  0.023333  0.037143  0.000000      4.000000
  0.030000  0.037143  0.000000      4.000000
  0.003333  0.002857  0.006173      8.000000
  0.010000  0.002857  0.006173      8.000000
  0.016667  0.002857  0.006173      8.000000
  0.023333  0.002857  0.006173      8.000000
  0.030000  0.002857  0.006173      8.000000
  0.003333  0.008571  0.006173      8.000000
  0.010000  0.008571  0.006173      8.000000
  0.016667  0.008571  0.006173      8.000000
  0.023333  0.008571  0.006173      8.000000
  0.030000  0.008571  0.006173      8.000000
  0.003333  0.014286  0.006173      8.000000
  0.010000  0.014286  0.006173      8.000000
  0.016667  0.014286  0.006173      8.000000
  0.023333  0.014286  0.006173      8.000000
  0.030000  0.014286  0.006173      8.000000
  0.003333  0.020000  0.006173      8.000000
  0.010000  0.020000  0.006173      8.000000
  0.016667  0.020000  0.006173      8.000000
  0.023333  0.020000  0.006173      8.000000
  0.030000  0.020000  0.006173      8.000000
  0.003333  0.025714  0.006173      8.000000
  0.010000  0.025714  0.006173      8.000000
  0.016667  0.025714  0.006173      8.000000
  0.023333  0.025714  0.006173      8.000000
  0.030000  0.025714  0.006173      8.000000
  0.003333  0.031429  0.006173      8.000000
  0.010000  0.031429  0.006173      8.000000
  0.016667  0.031429  0.006173      8.000000
  0.023333  0.031429  0.006173      8.000000
  0.030000  0.031429  0.006173      8.000000
  0.003333  0.037143  0.006173      8.000000
  0.010000  0.037143  0.006173      8.000000
  0.016667  0.037143  0.006173      8.000000
  0.023333  0.037143  0.006173      8.000000
  0.030000  0.037143  0.006173      8.000000
  0.003333  0.002857  0.012346      8.000000
  0.010000  0.002857  0.012346      8.000000
  0.016667  0.002857  0.012346      8.000000
  0.023333  0.002857  0.012346      8.000000
  0.030000  0.002857  0.012346      8.000000
  0.003333  0.008571  0.012346      8.000000
  0.010000  0.008571  0.012346      8.000000
  0.016667  0.008571  0.012346      8.000000
  0.023333  0.008571  0.012346      8.000000
  0.030000  0.008571  0.012346      8.000000
  0.003333  0.014286  0.012346      8.000000
  0.010000  0.014286  0.012346      8.000000
  0.016667  0.014286  0.012346      8.000000
  0.023333  0.014286  0.012346      8.000000
  0.030000  0.014286  0.012346      8.000000
  0.003333  0.020000  0.012346      8.000000
  0.010000  0.020000  0.012346      8.000000
  0.016667  0.020000  0.012346      8.000000
  0.023333  0.020000  0.012346      8.000000
  0.030000  0.020000  0.012346      8.000000
  0.003333  0.025714  0.012346      8.000000
  0.010000  0.025714  0.012346      8.000000
  0.016667  0.025714  0.012346      8.000000
  0.023333  0.025714  0.012346      8.000000
  0.030000  0.025714  0.012346      8.000000
  0.003333  0.031429  0.012346      8.000000
  0.010000  0.031429  0.012346      8.000000
  0.016667  0.031429  0.012346      8.000000
  0.023333  0.031429  0.012346      8.000000
  0.030000  0.031429  0.012346      8.000000
  0.003333  0.037143  0.012346      8.000000
  0.010000  0.037143  0.012346      8.000000
  0.016667  0.037143  0.012346      8.000000
  0.023333  0.037143  0.012346      8.000000
  0.030000  0.037143  0.012346      8.000000
  0.003333  0.002857  0.018519      8.000000
  0.010000  0.002857  0.018519      8.000000
  0.016667  0.002857  0.018519      8.000000
  0.023333  0.002857  0.018519      8.000000
  0.030000  0.002857  0.018519      8.000000
  0.003333  0.008571  0.018519      8.000000
  0.010000  0.008571  0.018519      8.000000
  0.016667  0.008571  0.018519      8.000000
  0.023333  0.008571  0.018519      8.000000
  0.030000  0.008571  0.018519      8.000000
  0.003333  0.014286  0.018519      8.000000
  0.010000  0.014286  0.018519      8.000000
  0.016667  0.014286  0.018519      8.000000
  0.023333  0.014286  0.018519      8.000000
  0.030000  0.014286  0.018519      8.000000
  0.003333  0.020000  0.018519      8.000000
  0.010000  0.020000  0.018519      8.000000
  0.016667  0.020000  0.018519      8.000000
  0.023333  0.020000  0.018519      8.000000
  0.030000  0.020000  0.018519      8.000000
  0.003333  0.025714  0.018519      8.000000
  0.010000  0.025714  0.018519      8.000000
  0.016667  0.025714  0.018519      8.000000
  0.023333  0.025714  0.018519      8.000000
  0.030000  0.025714  0.018519      8.000000
  0.003333  0.031429  0.018519      8.000000
  0.010000  0.031429  0.018519      8.000000
  0.016667  0.031429  0.018519      8.000000
  0.023333  0.031429  0.018519      8.000000
  0.030000  0.031429  0.018519      8.000000
  0.003333  0.037143  0.018519      8.000000
  0.010000  0.037143  0.018519      8.000000
  0.016667  0.037143  0.018519      8.000000
  0.023333  0.037143  0.018519      8.000000
  0.030000  0.037143  0.018519      8.000000
  0.003333  0.002857  0.024691      8.000000
  0.010000  0.002857  0.024691      8.000000
  0.016667  0.002857  0.024691      8.000000
  0.023333  0.002857  0.024691      8.000000
  0.030000  0.002857  0.024691      8.000000
  0.003333  0.008571  0.024691      8.000000
  0.010000  0.008571  0.024691      8.000000
  0.016667  0.008571  0.024691      8.000000
  0.023333  0.008571  0.024691      8.000000
  0.030000  0.008571  0.024691      8.000000
  0.003333  0.014286  0.024691      8.000000
  0.010000  0.014286  0.024691      8.000000
  0.016667  0.014286  0.024691      8.000000
  0.023333  0.014286  0.024691      8.000000
  0.030000  0.014286  0.024691      8.000000
  0.003333  0.020000  0.024691      8.000000
  0.010000  0.020000  0.024691      8.000000
  0.016667  0.020000  0.024691      8.000000
  0.023333  0.020000  0.024691      8.000000
  0.030000  0.020000  0.024691      8.000000
  0.003333  0.025714  0.024691      8.000000
  0.010000  0.025714  0.024691      8.000000
  0.016667  0.025714  0.024691      8.000000
  0.023333  0.025714  0.024691      8.000000
  0.030000  0.025714  0.024691      8.000000
  0.003333  0.031429  0.024691      8.000000
  0.010000  0.031429  0.024691      8.000000
  0.016667  0.031429  0.024691      8.000000
  0.023333  0.031429  0.024691      8.000000
  0.030000  0.031429  0.024691      8.000000
  0.003333  0.037143  0.024691      8.000000
  0.010000  0.037143  0.024691      8.000000
  0.016667  0.037143  0.024691      8.000000
  0.023333  0.037143  0.024691      8.000000
  0.030000  0.037143  0.024691      8.000000
 


--------------------------------------------------------------------------------------------------------




 Dimension of arrays:
   k-points           NKPTS =    175   k-points in BZ     NKDIM =    175   number of bands    NBANDS=     24
   number of dos      NEDOS =    301   number of ions     NIONS =      1
   non local maximal  LDIM  =      4   non local SUM 2l+1 LMDIM =      8
   total plane-waves  NPLWV = ******
   max r-space proj   IRMAX =      1   max aug-charges    IRDMAX=   9630
   dimension x,y,z NGX =   126 NGY =  108 NGZ =  150
   dimension x,y,z NGXF=   252 NGYF=  216 NGZF=  300
   support grid    NGXF=   252 NGYF=  216 NGZF=  300
   ions per type =               1
   NGX,Y,Z   is equivalent  to a cutoff of  13.96, 14.36, 13.85 a.u.
   NGXF,Y,Z  is equivalent  to a cutoff of  27.93, 28.73, 27.71 a.u.

 SYSTEM =  Convergence                             
 POSCAR =  B1                                      

 Startparameter for this run:
   NWRITE =      2    write-flag & timer
   PREC   = accura    normal or accurate (medium, high low for compatibility)
   ISTART =      0    job   : 0-new  1-cont  2-samecut
   ICHARG =      2    charge: 1-file 2-atom 10-const
   ISPIN  =      1    spin polarized calculation?
   LNONCOLLINEAR =      F non collinear calculations
   LSORBIT =      F    spin-orbit coupling
   INIWAV =      1    electr: 0-lowe 1-rand  2-diag
   LASPH  =      F    aspherical Exc in radial PAW
 Electronic Relaxation 1
   ENCUT  =  640.0 eV  47.04 Ry    6.86 a.u.  30.94 25.78 37.13*2*pi/ulx,y,z
   ENINI  =  640.0     initial cutoff
   ENAUG  =  535.5 eV  augmentation charge cutoff
   NELM   =    100;   NELMIN=  2; NELMDL= -5     # of ELM steps 
   EDIFF  = 0.1E-05   stopping-criterion for ELM
   LREAL  =      F    real-space projection
   NLSPLINE    = F    spline interpolate recip. space projectors
   LCOMPAT=      F    compatible to vasp.4.4
   GGA_COMPAT  = T    GGA compatible to vasp.4.4-vasp.4.6
   LMAXPAW     = -100 max onsite density
   LMAXMIX     =    2 max onsite mixed and CHGCAR
   VOSKOWN=      0    Vosko Wilk Nusair interpolation
   ROPT   =    0.00000
 Ionic relaxation
   EDIFFG = -.1E-02   stopping-criterion for IOM
   NSW    =      0    number of steps for IOM
   NBLOCK =      1;   KBLOCK =      1    inner block; outer block 
   IBRION =     -1    ionic relax: 0-MD 1-quasi-New 2-CG
   NFREE  =      0    steps in history (QN), initial steepest desc. (CG)
   ISIF   =      2    stress and relaxation
   IWAVPR =     10    prediction:  0-non 1-charg 2-wave 3-comb
   ISYM   =      2    0-nonsym 1-usesym 2-fastsym
   LCORR  =      T    Harris-Foulkes like correction to forces

   POTIM  = 0.5000    time-step for ionic-motion
   TEIN   =    0.0    initial temperature
   TEBEG  =    0.0;   TEEND  =   0.0 temperature during run
   SMASS  =  -3.00    Nose mass-parameter (am)
   estimated Nose-frequenzy (Omega)   =  0.10E-29 period in steps = 0.13E+47 mass=  -0.514E-26a.u.
   SCALEE = 1.0000    scale energy and forces
   NPACO  =    256;   APACO  = 10.0  distance and # of slots for P.C.
   PSTRESS=    0.0 pullay stress

  Mass of Ions in am
   POMASS =  10.81
  Ionic Valenz
   ZVAL   =   3.00
  Atomic Wigner-Seitz radii
   RWIGS  =  -1.00
  virtual crystal weights 
   VCA    =   1.00
   NELECT =       3.0000    total number of electrons
   NUPDOWN=      -1.0000    fix difference up-down

 DOS related values:
   EMIN   =  10.00;   EMAX   =-10.00  energy-range for DOS
   EFERMI =   0.00;   METHOD = LEGACY      
   ISMEAR =     0;   SIGMA  =   0.05  broadening in eV -4-tet -1-fermi 0-gaus

 Electronic relaxation 2 (details)
   IALGO  =     38    algorithm
   LDIAG  =      T    sub-space diagonalisation (order eigenvalues)
   LSUBROT=      F    optimize rotation matrix (better conditioning)
   TURBO    =      0    0=normal 1=particle mesh
   IRESTART =      0    0=no restart 2=restart with 2 vectors
   NREBOOT  =      0    no. of reboots
   NMIN     =      0    reboot dimension
   EREF     =   0.00    reference energy to select bands
   IMIX   =      4    mixing-type and parameters
     AMIX     =   0.40;   BMIX     =  1.00
     AMIX_MAG =   1.60;   BMIX_MAG =  1.00
     AMIN     =   0.10
     WC   =   100.;   INIMIX=   1;  MIXPRE=   1;  MAXMIX= -45

 Intra band minimization:
   WEIMIN = 0.0000     energy-eigenvalue tresh-hold
   EBREAK =  0.10E-07  absolut break condition
   DEPER  =   0.30     relativ break condition  

   TIME   =   0.40     timestep for ELM

  volume/ion in A,a.u.               =    3375.00     22775.62
  Fermi-wavevector in a.u.,A,eV,Ry     =   0.157407  0.297456  0.337111  0.024777
  Thomas-Fermi vector in A             =   0.845991
 
 Write flags
   LWAVE        =      F    write WAVECAR
   LDOWNSAMPLE  =      F    k-point downsampling of WAVECAR
   LCHARG       =      F    write CHGCAR
   LVTOT        =      F    write LOCPOT, total local potential
   LVHAR        =      F    write LOCPOT, Hartree potential only
   WRT_POTENTIAL= false  ! write potential to hdf5 file
   LELF         =      F    write electronic localiz. function (ELF)
   LORBIT       =      0    0 simple, 1 ext, 2 COOP (PROOUT), +10 PAW based schemes


 Dipole corrections
   LMONO      =      F    monopole corrections only (constant potential shift)
   LDIPOL     =      F    correct potential (dipole corrections)
   IDIPOL     =      0    1-x, 2-y, 3-z, 4-all directions 
   EPSILON    =  1.0000000 bulk dielectric constant
   LVACPOTAV  =      F  vacuum potentials using an averaging scheme for the charge density
   VACPOTFLAT =  0.1000000 required flatness to determine vacuum potential
 Exchange correlation treatment:
   GGA     = PE    functional components
   XC_C    = 1    coefficients multiplying the functional components
   LIBXC   =     F    Libxc                    
   VOSKOWN =     0    Vosko Wilk Nusair interpolation
   LHFCALC =     F    Hartree Fock is set to
   LHFONE  =     F    Hartree Fock one center treatment
   AEXX    =    0.0000 exact exchange contribution

 Parameters of functionals:
   PE:
     No parameter
 
 Van der Waals corrections
   IVDW    =     0    specifies the selected vdW correction

 Linear response parameters
   LEPSILON=     F    determine dielectric tensor
   LRPA    =     F    only Hartree local field effects (RPA)
   LNABLA  =     F    use nabla operator in PAW spheres
   LVEL    =     F    velocity operator in full k-point grid
   CSHIFT  =0.1000    complex shift for real part using Kramers Kronig
   OMEGAMAX=  -1.0    maximum frequency
   DEG_THRESHOLD= 0.2000000E-02 threshold for treating states as degnerate
   RTIME   =   -0.100 relaxation time in fs
  (WPLASMAI=    0.000 imaginary part of plasma frequency in eV, 0.658/RTIME)
   DFIELD  = 0.0000000 0.0000000 0.0000000 field for delta impulse in time
 
  Optional k-point grid parameters
   LKPOINTS_OPT  =     F    use optional k-point grid
   KPOINTS_OPT_MODE=     1    mode for optional k-point grid
 
 Orbital magnetization related:
   ORBITALMAG=     F  switch on orbital magnetization
   LCHIMAG   =     F  perturbation theory with respect to B field
   DQ        =  0.001000  dq finite difference perturbation B field
   LLRAUG    =     F  two centre corrections for induced B field
   LBONE     =     F  B-component reconstruction in AE one-centre
   LVGVCALC  =     T  calculate vGv susceptibility
   LVGVAPPL  =     F  apply vGv susceptibility instead of pGv for G=0

 Random number generation:
   RANDOM_GENERATOR = DEFAULT
   PCG_SEED         = not used


--------------------------------------------------------------------------------------------------------


 Static calculation
 charge density and potential will be updated during run
 non-spin polarized calculation
 Variant of blocked Davidson
 Davidson routine will perform the subspace rotation
 perform sub-space diagonalisation
    after iterative eigenvector-optimisation
 modified Broyden-mixing scheme, WC =      100.0
 initial mixing is a Kerker type mixing with AMIX =  0.4000 and BMIX =      1.0000
 Hartree-type preconditioning will be used
 using additional bands           22
 reciprocal scheme for non local part
 use partial core corrections
 calculate Harris-corrections to forces 
   (improved forces if not selfconsistent)
 use gradient corrections 
 use of overlap-Matrix (Vanderbilt PP)
 Gauss-broadening in eV      SIGMA  =   0.05


--------------------------------------------------------------------------------------------------------


  energy-cutoff  :      640.00
  volume of cell :     3375.00
      direct lattice vectors                 reciprocal lattice vectors
    15.000000000  0.000000000  0.000000000     0.066666667  0.000000000  0.000000000
     0.000000000 12.500000000  0.000000000     0.000000000  0.080000000  0.000000000
     0.000000000  0.000000000 18.000000000     0.000000000  0.000000000  0.055555556

  length of vectors
    15.000000000 12.500000000 18.000000000     0.066666667  0.080000000  0.055555556


 
 k-points in units of 2pi/SCALE and weight: k-points                                
   0.00333333  0.00285714  0.00000000       0.003
   0.01000000  0.00285714  0.00000000       0.003
   0.01666667  0.00285714  0.00000000       0.003
   0.02333333  0.00285714  0.00000000       0.003
   0.03000000  0.00285714  0.00000000       0.003
   0.00333333  0.00857143  0.00000000       0.003
   0.01000000  0.00857143  0.00000000       0.003
   0.01666667  0.00857143  0.00000000       0.003
   0.02333333  0.00857143  0.00000000       0.003
   0.03000000  0.00857143  0.00000000       0.003
   0.00333333  0.01428571  0.00000000       0.003
   0.01000000  0.01428571  0.00000000       0.003
   0.01666667  0.01428571  0.00000000       0.003
   0.02333333  0.01428571  0.00000000       0.003
   0.03000000  0.01428571  0.00000000       0.003
   0.00333333  0.02000000  0.00000000       0.003
   0.01000000  0.02000000  0.00000000       0.003
   0.01666667  0.02000000  0.00000000       0.003
   0.02333333  0.02000000  0.00000000       0.003
   0.03000000  0.02000000  0.00000000       0.003
   0.00333333  0.02571429  0.00000000       0.003
   0.01000000  0.02571429  0.00000000       0.003
   0.01666667  0.02571429  0.00000000       0.003
   0.02333333  0.02571429  0.00000000       0.003
   0.03000000  0.02571429  0.00000000       0.003
   0.00333333  0.03142857  0.00000000       0.003
   0.01000000  0.03142857  0.00000000       0.003
   0.01666667  0.03142857  0.00000000       0.003
   0.02333333  0.03142857  0.00000000       0.003
   0.03000000  0.03142857  0.00000000       0.003
   0.00333333  0.03714286  0.00000000       0.003
   0.01000000  0.03714286  0.00000000       0.003
   0.01666667  0.03714286  0.00000000       0.003
   0.02333333  0.03714286  0.00000000       0.003
   0.03000000  0.03714286  0.00000000       0.003
   0.00333333  0.00285714  0.00617284       0.006
   0.01000000  0.00285714  0.00617284       0.006
   0.01666667  0.00285714  0.00617284       0.006
   0.02333333  0.00285714  0.00617284       0.006
   0.03000000  0.00285714  0.00617284       0.006
   0.00333333  0.00857143  0.00617284       0.006
   0.01000000  0.00857143  0.00617284       0.006
   0.01666667  0.00857143  0.00617284       0.006
   0.02333333  0.00857143  0.00617284       0.006
   0.03000000  0.00857143  0.00617284       0.006
   0.00333333  0.01428571  0.00617284       0.006
   0.01000000  0.01428571  0.00617284       0.006
   0.01666667  0.01428571  0.00617284       0.006
   0.02333333  0.01428571  0.00617284       0.006
   0.03000000  0.01428571  0.00617284       0.006
   0.00333333  0.02000000  0.00617284       0.006
   0.01000000  0.02000000  0.00617284       0.006
   0.01666667  0.02000000  0.00617284       0.006
   0.02333333  0.02000000  0.00617284       0.006
   0.03000000  0.02000000  0.00617284       0.006
   0.00333333  0.02571429  0.00617284       0.006
   0.01000000  0.02571429  0.00617284       0.006
   0.01666667  0.02571429  0.00617284       0.006
   0.02333333  0.02571429  0.00617284       0.006
   0.03000000  0.02571429  0.00617284       0.006
   0.00333333  0.03142857  0.00617284       0.006
   0.01000000  0.03142857  0.00617284       0.006
   0.01666667  0.03142857  0.00617284       0.006
   0.02333333  0.03142857  0.00617284       0.006
   0.03000000  0.03142857  0.00617284       0.006
   0.00333333  0.03714286  0.00617284       0.006
   0.01000000  0.03714286  0.00617284       0.006
   0.01666667  0.03714286  0.00617284       0.006
   0.02333333  0.03714286  0.00617284       0.006
   0.03000000  0.03714286  0.00617284       0.006
   0.00333333  0.00285714  0.01234568       0.006
   0.01000000  0.00285714  0.01234568       0.006
   0.01666667  0.00285714  0.01234568       0.006
   0.02333333  0.00285714  0.01234568       0.006
   0.03000000  0.00285714  0.01234568       0.006
   0.00333333  0.00857143  0.01234568       0.006
   0.01000000  0.00857143  0.01234568       0.006
   0.01666667  0.00857143  0.01234568       0.006
   0.02333333  0.00857143  0.01234568       0.006
   0.03000000  0.00857143  0.01234568       0.006
   0.00333333  0.01428571  0.01234568       0.006
   0.01000000  0.01428571  0.01234568       0.006
   0.01666667  0.01428571  0.01234568       0.006
   0.02333333  0.01428571  0.01234568       0.006
   0.03000000  0.01428571  0.01234568       0.006
   0.00333333  0.02000000  0.01234568       0.006
   0.01000000  0.02000000  0.01234568       0.006
   0.01666667  0.02000000  0.01234568       0.006
   0.02333333  0.02000000  0.01234568       0.006
   0.03000000  0.02000000  0.01234568       0.006
   0.00333333  0.02571429  0.01234568       0.006
   0.01000000  0.02571429  0.01234568       0.006
   0.01666667  0.02571429  0.01234568       0.006
   0.02333333  0.02571429  0.01234568       0.006
   0.03000000  0.02571429  0.01234568       0.006
   0.00333333  0.03142857  0.01234568       0.006
   0.01000000  0.03142857  0.01234568       0.006
   0.01666667  0.03142857  0.01234568       0.006
   0.02333333  0.03142857  0.01234568       0.006
   0.03000000  0.03142857  0.01234568       0.006
   0.00333333  0.03714286  0.01234568       0.006
   0.01000000  0.03714286  0.01234568       0.006
   0.01666667  0.03714286  0.01234568       0.006
   0.02333333  0.03714286  0.01234568       0.006
   0.03000000  0.03714286  0.01234568       0.006
   0.00333333  0.00285714  0.01851852       0.006
   0.01000000  0.00285714  0.01851852       0.006
   0.01666667  0.00285714  0.01851852       0.006
   0.02333333  0.00285714  0.01851852       0.006
   0.03000000  0.00285714  0.01851852       0.006
   0.00333333  0.00857143  0.01851852       0.006
   0.01000000  0.00857143  0.01851852       0.006
   0.01666667  0.00857143  0.01851852       0.006
   0.02333333  0.00857143  0.01851852       0.006
   0.03000000  0.00857143  0.01851852       0.006
   0.00333333  0.01428571  0.01851852       0.006
   0.01000000  0.01428571  0.01851852       0.006
   0.01666667  0.01428571  0.01851852       0.006
   0.02333333  0.01428571  0.01851852       0.006
   0.03000000  0.01428571  0.01851852       0.006
   0.00333333  0.02000000  0.01851852       0.006
   0.01000000  0.02000000  0.01851852       0.006
   0.01666667  0.02000000  0.01851852       0.006
   0.02333333  0.02000000  0.01851852       0.006
   0.03000000  0.02000000  0.01851852       0.006
   0.00333333  0.02571429  0.01851852       0.006
   0.01000000  0.02571429  0.01851852       0.006
   0.01666667  0.02571429  0.01851852       0.006
   0.02333333  0.02571429  0.01851852       0.006
   0.03000000  0.02571429  0.01851852       0.006
   0.00333333  0.03142857  0.01851852       0.006
   0.01000000  0.03142857  0.01851852       0.006
   0.01666667  0.03142857  0.01851852       0.006
   0.02333333  0.03142857  0.01851852       0.006
   0.03000000  0.03142857  0.01851852       0.006
   0.00333333  0.03714286  0.01851852       0.006
   0.01000000  0.03714286  0.01851852       0.006
   0.01666667  0.03714286  0.01851852       0.006
   0.02333333  0.03714286  0.01851852       0.006
   0.03000000  0.03714286  0.01851852       0.006
   0.00333333  0.00285714  0.02469136       0.006
   0.01000000  0.00285714  0.02469136       0.006
   0.01666667  0.00285714  0.02469136       0.006
   0.02333333  0.00285714  0.02469136       0.006
   0.03000000  0.00285714  0.02469136       0.006
   0.00333333  0.00857143  0.02469136       0.006
   0.01000000  0.00857143  0.02469136       0.006
   0.01666667  0.00857143  0.02469136       0.006
   0.02333333  0.00857143  0.02469136       0.006
   0.03000000  0.00857143  0.02469136       0.006
   0.00333333  0.01428571  0.02469136       0.006
   0.01000000  0.01428571  0.02469136       0.006
   0.01666667  0.01428571  0.02469136       0.006
   0.02333333  0.01428571  0.02469136       0.006
   0.03000000  0.01428571  0.02469136       0.006
   0.00333333  0.02000000  0.02469136       0.006
   0.01000000  0.02000000  0.02469136       0.006
   0.01666667  0.02000000  0.02469136       0.006
   0.02333333  0.02000000  0.02469136       0.006
   0.03000000  0.02000000  0.02469136       0.006
   0.00333333  0.02571429  0.02469136       0.006
   0.01000000  0.02571429  0.02469136       0.006
   0.01666667  0.02571429  0.02469136       0.006
   0.02333333  0.02571429  0.02469136       0.006
   0.03000000  0.02571429  0.02469136       0.006
   0.00333333  0.03142857  0.02469136       0.006
   0.01000000  0.03142857  0.02469136       0.006
   0.01666667  0.03142857  0.02469136       0.006
   0.02333333  0.03142857  0.02469136       0.006
   0.03000000  0.03142857  0.02469136       0.006
   0.00333333  0.03714286  0.02469136       0.006
   0.01000000  0.03714286  0.02469136       0.006
   0.01666667  0.03714286  0.02469136       0.006
   0.02333333  0.03714286  0.02469136       0.006
   0.03000000  0.03714286  0.02469136       0.006
 
 k-points in reciprocal lattice and weights: k-points                                
   0.05000000  0.03571429  0.00000000       0.003
   0.15000000  0.03571429  0.00000000       0.003
   0.25000000  0.03571429  0.00000000       0.003
   0.35000000  0.03571429  0.00000000       0.003
   0.45000000  0.03571429  0.00000000       0.003
   0.05000000  0.10714286  0.00000000       0.003
   0.15000000  0.10714286  0.00000000       0.003
   0.25000000  0.10714286  0.00000000       0.003
   0.35000000  0.10714286  0.00000000       0.003
   0.45000000  0.10714286  0.00000000       0.003
   0.05000000  0.17857143  0.00000000       0.003
   0.15000000  0.17857143  0.00000000       0.003
   0.25000000  0.17857143  0.00000000       0.003
   0.35000000  0.17857143  0.00000000       0.003
   0.45000000  0.17857143  0.00000000       0.003
   0.05000000  0.25000000  0.00000000       0.003
   0.15000000  0.25000000  0.00000000       0.003
   0.25000000  0.25000000  0.00000000       0.003
   0.35000000  0.25000000  0.00000000       0.003
   0.45000000  0.25000000  0.00000000       0.003
   0.05000000  0.32142857  0.00000000       0.003
   0.15000000  0.32142857  0.00000000       0.003
   0.25000000  0.32142857  0.00000000       0.003
   0.35000000  0.32142857  0.00000000       0.003
   0.45000000  0.32142857  0.00000000       0.003
   0.05000000  0.39285714  0.00000000       0.003
   0.15000000  0.39285714  0.00000000       0.003
   0.25000000  0.39285714  0.00000000       0.003
   0.35000000  0.39285714  0.00000000       0.003
   0.45000000  0.39285714  0.00000000       0.003
   0.05000000  0.46428571  0.00000000       0.003
   0.15000000  0.46428571  0.00000000       0.003
   0.25000000  0.46428571  0.00000000       0.003
   0.35000000  0.46428571  0.00000000       0.003
   0.45000000  0.46428571  0.00000000       0.003
   0.05000000  0.03571429  0.11111111       0.006
   0.15000000  0.03571429  0.11111111       0.006
   0.25000000  0.03571429  0.11111111       0.006
   0.35000000  0.03571429  0.11111111       0.006
   0.45000000  0.03571429  0.11111111       0.006
   0.05000000  0.10714286  0.11111111       0.006
   0.15000000  0.10714286  0.11111111       0.006
   0.25000000  0.10714286  0.11111111       0.006
   0.35000000  0.10714286  0.11111111       0.006
   0.45000000  0.10714286  0.11111111       0.006
   0.05000000  0.17857143  0.11111111       0.006
   0.15000000  0.17857143  0.11111111       0.006
   0.25000000  0.17857143  0.11111111       0.006
   0.35000000  0.17857143  0.11111111       0.006
   0.45000000  0.17857143  0.11111111       0.006
   0.05000000  0.25000000  0.11111111       0.006
   0.15000000  0.25000000  0.11111111       0.006
   0.25000000  0.25000000  0.11111111       0.006
   0.35000000  0.25000000  0.11111111       0.006
   0.45000000  0.25000000  0.11111111       0.006
   0.05000000  0.32142857  0.11111111       0.006
   0.15000000  0.32142857  0.11111111       0.006
   0.25000000  0.32142857  0.11111111       0.006
   0.35000000  0.32142857  0.11111111       0.006
   0.45000000  0.32142857  0.11111111       0.006
   0.05000000  0.39285714  0.11111111       0.006
   0.15000000  0.39285714  0.11111111       0.006
   0.25000000  0.39285714  0.11111111       0.006
   0.35000000  0.39285714  0.11111111       0.006
   0.45000000  0.39285714  0.11111111       0.006
   0.05000000  0.46428571  0.11111111       0.006
   0.15000000  0.46428571  0.11111111       0.006
   0.25000000  0.46428571  0.11111111       0.006
   0.35000000  0.46428571  0.11111111       0.006
   0.45000000  0.46428571  0.11111111       0.006
   0.05000000  0.03571429  0.22222222       0.006
   0.15000000  0.03571429  0.22222222       0.006
   0.25000000  0.03571429  0.22222222       0.006
   0.35000000  0.03571429  0.22222222       0.006
   0.45000000  0.03571429  0.22222222       0.006
   0.05000000  0.10714286  0.22222222       0.006
   0.15000000  0.10714286  0.22222222       0.006
   0.25000000  0.10714286  0.22222222       0.006
   0.35000000  0.10714286  0.22222222       0.006
   0.45000000  0.10714286  0.22222222       0.006
   0.05000000  0.17857143  0.22222222       0.006
   0.15000000  0.17857143  0.22222222       0.006
   0.25000000  0.17857143  0.22222222       0.006
   0.35000000  0.17857143  0.22222222       0.006
   0.45000000  0.17857143  0.22222222       0.006
   0.05000000  0.25000000  0.22222222       0.006
   0.15000000  0.25000000  0.22222222       0.006
   0.25000000  0.25000000  0.22222222       0.006
   0.35000000  0.25000000  0.22222222       0.006
   0.45000000  0.25000000  0.22222222       0.006
   0.05000000  0.32142857  0.22222222       0.006
   0.15000000  0.32142857  0.22222222       0.006
   0.25000000  0.32142857  0.22222222       0.006
   0.35000000  0.32142857  0.22222222       0.006
   0.45000000  0.32142857  0.22222222       0.006
   0.05000000  0.39285714  0.22222222       0.006
   0.15000000  0.39285714  0.22222222       0.006
   0.25000000  0.39285714  0.22222222       0.006
   0.35000000  0.39285714  0.22222222       0.006
   0.45000000  0.39285714  0.22222222       0.006
   0.05000000  0.46428571  0.22222222       0.006
   0.15000000  0.46428571  0.22222222       0.006
   0.25000000  0.46428571  0.22222222       0.006
   0.35000000  0.46428571  0.22222222       0.006
   0.45000000  0.46428571  0.22222222       0.006
   0.05000000  0.03571429  0.33333333       0.006
   0.15000000  0.03571429  0.33333333       0.006
   0.25000000  0.03571429  0.33333333       0.006
   0.35000000  0.03571429  0.33333333       0.006
   0.45000000  0.03571429  0.33333333       0.006
   0.05000000  0.10714286  0.33333333       0.006
   0.15000000  0.10714286  0.33333333       0.006
   0.25000000  0.10714286  0.33333333       0.006
   0.35000000  0.10714286  0.33333333       0.006
   0.45000000  0.10714286  0.33333333       0.006
   0.05000000  0.17857143  0.33333333       0.006
   0.15000000  0.17857143  0.33333333       0.006
   0.25000000  0.17857143  0.33333333       0.006
   0.35000000  0.17857143  0.33333333       0.006
   0.45000000  0.17857143  0.33333333       0.006
   0.05000000  0.25000000  0.33333333       0.006
   0.15000000  0.25000000  0.33333333       0.006
   0.25000000  0.25000000  0.33333333       0.006
   0.35000000  0.25000000  0.33333333       0.006
   0.45000000  0.25000000  0.33333333       0.006
   0.05000000  0.32142857  0.33333333       0.006
   0.15000000  0.32142857  0.33333333       0.006
   0.25000000  0.32142857  0.33333333       0.006
   0.35000000  0.32142857  0.33333333       0.006
   0.45000000  0.32142857  0.33333333       0.006
   0.05000000  0.39285714  0.33333333       0.006
   0.15000000  0.39285714  0.33333333       0.006
   0.25000000  0.39285714  0.33333333       0.006
   0.35000000  0.39285714  0.33333333       0.006
   0.45000000  0.39285714  0.33333333       0.006
   0.05000000  0.46428571  0.33333333       0.006
   0.15000000  0.46428571  0.33333333       0.006
   0.25000000  0.46428571  0.33333333       0.006
   0.35000000  0.46428571  0.33333333       0.006
   0.45000000  0.46428571  0.33333333       0.006
   0.05000000  0.03571429  0.44444444       0.006
   0.15000000  0.03571429  0.44444444       0.006
   0.25000000  0.03571429  0.44444444       0.006
   0.35000000  0.03571429  0.44444444       0.006
   0.45000000  0.03571429  0.44444444       0.006
   0.05000000  0.10714286  0.44444444       0.006
   0.15000000  0.10714286  0.44444444       0.006
   0.25000000  0.10714286  0.44444444       0.006
   0.35000000  0.10714286  0.44444444       0.006
   0.45000000  0.10714286  0.44444444       0.006
   0.05000000  0.17857143  0.44444444       0.006
   0.15000000  0.17857143  0.44444444       0.006
   0.25000000  0.17857143  0.44444444       0.006
   0.35000000  0.17857143  0.44444444       0.006
   0.45000000  0.17857143  0.44444444       0.006
   0.05000000  0.25000000  0.44444444       0.006
   0.15000000  0.25000000  0.44444444       0.006
   0.25000000  0.25000000  0.44444444       0.006
   0.35000000  0.25000000  0.44444444       0.006
   0.45000000  0.25000000  0.44444444       0.006
   0.05000000  0.32142857  0.44444444       0.006
   0.15000000  0.32142857  0.44444444       0.006
   0.25000000  0.32142857  0.44444444       0.006
   0.35000000  0.32142857  0.44444444       0.006
   0.45000000  0.32142857  0.44444444       0.006
   0.05000000  0.39285714  0.44444444       0.006
   0.15000000  0.39285714  0.44444444       0.006
   0.25000000  0.39285714  0.44444444       0.006
   0.35000000  0.39285714  0.44444444       0.006
   0.45000000  0.39285714  0.44444444       0.006
   0.05000000  0.46428571  0.44444444       0.006
   0.15000000  0.46428571  0.44444444       0.006
   0.25000000  0.46428571  0.44444444       0.006
   0.35000000  0.46428571  0.44444444       0.006
   0.45000000  0.46428571  0.44444444       0.006
 
 position of ions in fractional coordinates (direct lattice) 
   0.52123000  0.54500000  0.63796000
 
 position of ions in cartesian coordinates  (Angst):
   7.81845000  6.81250000 11.48328000
 


--------------------------------------------------------------------------------------------------------


 k-point     1 :   0.0500 0.0357 0.0000  plane waves:  124115
 k-point     2 :   0.1500 0.0357 0.0000  plane waves:  124092
 k-point     3 :   0.2500 0.0357 0.0000  plane waves:  124081
 k-point     4 :   0.3500 0.0357 0.0000  plane waves:  124101
 k-point     5 :   0.4500 0.0357 0.0000  plane waves:  124077
 k-point     6 :   0.0500 0.1071 0.0000  plane waves:  124074
 k-point     7 :   0.1500 0.1071 0.0000  plane waves:  124099
 k-point     8 :   0.2500 0.1071 0.0000  plane waves:  124063
 k-point     9 :   0.3500 0.1071 0.0000  plane waves:  124061
 k-point    10 :   0.4500 0.1071 0.0000  plane waves:  124078
 k-point    11 :   0.0500 0.1786 0.0000  plane waves:  124019
 k-point    12 :   0.1500 0.1786 0.0000  plane waves:  124059
 k-point    13 :   0.2500 0.1786 0.0000  plane waves:  124087
 k-point    14 :   0.3500 0.1786 0.0000  plane waves:  124016
 k-point    15 :   0.4500 0.1786 0.0000  plane waves:  124058
 k-point    16 :   0.0500 0.2500 0.0000  plane waves:  124032
 k-point    17 :   0.1500 0.2500 0.0000  plane waves:  124058
 k-point    18 :   0.2500 0.2500 0.0000  plane waves:  124083
 k-point    19 :   0.3500 0.2500 0.0000  plane waves:  124057
 k-point    20 :   0.4500 0.2500 0.0000  plane waves:  124036
 k-point    21 :   0.0500 0.3214 0.0000  plane waves:  124061
 k-point    22 :   0.1500 0.3214 0.0000  plane waves:  124066
 k-point    23 :   0.2500 0.3214 0.0000  plane waves:  124060
 k-point    24 :   0.3500 0.3214 0.0000  plane waves:  124061
 k-point    25 :   0.4500 0.3214 0.0000  plane waves:  124061
 k-point    26 :   0.0500 0.3929 0.0000  plane waves:  124064
 k-point    27 :   0.1500 0.3929 0.0000  plane waves:  124099
 k-point    28 :   0.2500 0.3929 0.0000  plane waves:  124087
 k-point    29 :   0.3500 0.3929 0.0000  plane waves:  124078
 k-point    30 :   0.4500 0.3929 0.0000  plane waves:  124096
 k-point    31 :   0.0500 0.4643 0.0000  plane waves:  124082
 k-point    32 :   0.1500 0.4643 0.0000  plane waves:  124106
 k-point    33 :   0.2500 0.4643 0.0000  plane waves:  124050
 k-point    34 :   0.3500 0.4643 0.0000  plane waves:  124126
 k-point    35 :   0.4500 0.4643 0.0000  plane waves:  124102
 k-point    36 :   0.0500 0.0357 0.1111  plane waves:  124058
 k-point    37 :   0.1500 0.0357 0.1111  plane waves:  124061
 k-point    38 :   0.2500 0.0357 0.1111  plane waves:  124071
 k-point    39 :   0.3500 0.0357 0.1111  plane waves:  124082
 k-point    40 :   0.4500 0.0357 0.1111  plane waves:  124056
 k-point    41 :   0.0500 0.1071 0.1111  plane waves:  124047
 k-point    42 :   0.1500 0.1071 0.1111  plane waves:  124052
 k-point    43 :   0.2500 0.1071 0.1111  plane waves:  124076
 k-point    44 :   0.3500 0.1071 0.1111  plane waves:  124060
 k-point    45 :   0.4500 0.1071 0.1111  plane waves:  124077
 k-point    46 :   0.0500 0.1786 0.1111  plane waves:  124051
 k-point    47 :   0.1500 0.1786 0.1111  plane waves:  124057
 k-point    48 :   0.2500 0.1786 0.1111  plane waves:  124050
 k-point    49 :   0.3500 0.1786 0.1111  plane waves:  124048
 k-point    50 :   0.4500 0.1786 0.1111  plane waves:  124056
 k-point    51 :   0.0500 0.2500 0.1111  plane waves:  124015
 k-point    52 :   0.1500 0.2500 0.1111  plane waves:  124063
 k-point    53 :   0.2500 0.2500 0.1111  plane waves:  124065
 k-point    54 :   0.3500 0.2500 0.1111  plane waves:  124069
 k-point    55 :   0.4500 0.2500 0.1111  plane waves:  124069
 k-point    56 :   0.0500 0.3214 0.1111  plane waves:  124031
 k-point    57 :   0.1500 0.3214 0.1111  plane waves:  124078
 k-point    58 :   0.2500 0.3214 0.1111  plane waves:  124067
 k-point    59 :   0.3500 0.3214 0.1111  plane waves:  124081
 k-point    60 :   0.4500 0.3214 0.1111  plane waves:  124059
 k-point    61 :   0.0500 0.3929 0.1111  plane waves:  124060
 k-point    62 :   0.1500 0.3929 0.1111  plane waves:  124104
 k-point    63 :   0.2500 0.3929 0.1111  plane waves:  124084
 k-point    64 :   0.3500 0.3929 0.1111  plane waves:  124067
 k-point    65 :   0.4500 0.3929 0.1111  plane waves:  124070
 k-point    66 :   0.0500 0.4643 0.1111  plane waves:  124072
 k-point    67 :   0.1500 0.4643 0.1111  plane waves:  124068
 k-point    68 :   0.2500 0.4643 0.1111  plane waves:  124100
 k-point    69 :   0.3500 0.4643 0.1111  plane waves:  124107
 k-point    70 :   0.4500 0.4643 0.1111  plane waves:  124133
 k-point    71 :   0.0500 0.0357 0.2222  plane waves:  124036
 k-point    72 :   0.1500 0.0357 0.2222  plane waves:  124062
 k-point    73 :   0.2500 0.0357 0.2222  plane waves:  124062
 k-point    74 :   0.3500 0.0357 0.2222  plane waves:  124104
 k-point    75 :   0.4500 0.0357 0.2222  plane waves:  124109
 k-point    76 :   0.0500 0.1071 0.2222  plane waves:  124013
 k-point    77 :   0.1500 0.1071 0.2222  plane waves:  124038
 k-point    78 :   0.2500 0.1071 0.2222  plane waves:  124083
 k-point    79 :   0.3500 0.1071 0.2222  plane waves:  124100
 k-point    80 :   0.4500 0.1071 0.2222  plane waves:  124113
 k-point    81 :   0.0500 0.1786 0.2222  plane waves:  124041
 k-point    82 :   0.1500 0.1786 0.2222  plane waves:  124064
 k-point    83 :   0.2500 0.1786 0.2222  plane waves:  124078
 k-point    84 :   0.3500 0.1786 0.2222  plane waves:  124080
 k-point    85 :   0.4500 0.1786 0.2222  plane waves:  124065
 k-point    86 :   0.0500 0.2500 0.2222  plane waves:  124061
 k-point    87 :   0.1500 0.2500 0.2222  plane waves:  124075
 k-point    88 :   0.2500 0.2500 0.2222  plane waves:  124071
 k-point    89 :   0.3500 0.2500 0.2222  plane waves:  124084
 k-point    90 :   0.4500 0.2500 0.2222  plane waves:  124092
 k-point    91 :   0.0500 0.3214 0.2222  plane waves:  124069
 k-point    92 :   0.1500 0.3214 0.2222  plane waves:  124073
 k-point    93 :   0.2500 0.3214 0.2222  plane waves:  124091
 k-point    94 :   0.3500 0.3214 0.2222  plane waves:  124096
 k-point    95 :   0.4500 0.3214 0.2222  plane waves:  124093
 k-point    96 :   0.0500 0.3929 0.2222  plane waves:  124066
 k-point    97 :   0.1500 0.3929 0.2222  plane waves:  124076
 k-point    98 :   0.2500 0.3929 0.2222  plane waves:  124105
 k-point    99 :   0.3500 0.3929 0.2222  plane waves:  124104
 k-point   100 :   0.4500 0.3929 0.2222  plane waves:  124099
 k-point   101 :   0.0500 0.4643 0.2222  plane waves:  124068
 k-point   102 :   0.1500 0.4643 0.2222  plane waves:  124088
 k-point   103 :   0.2500 0.4643 0.2222  plane waves:  124092
 k-point   104 :   0.3500 0.4643 0.2222  plane waves:  124110
 k-point   105 :   0.4500 0.4643 0.2222  plane waves:  124110
 k-point   106 :   0.0500 0.0357 0.3333  plane waves:  124062
 k-point   107 :   0.1500 0.0357 0.3333  plane waves:  124080
 k-point   108 :   0.2500 0.0357 0.3333  plane waves:  124100
 k-point   109 :   0.3500 0.0357 0.3333  plane waves:  124080
 k-point   110 :   0.4500 0.0357 0.3333  plane waves:  124107
 k-point   111 :   0.0500 0.1071 0.3333  plane waves:  124075
 k-point   112 :   0.1500 0.1071 0.3333  plane waves:  124053
 k-point   113 :   0.2500 0.1071 0.3333  plane waves:  124080
 k-point   114 :   0.3500 0.1071 0.3333  plane waves:  124098
 k-point   115 :   0.4500 0.1071 0.3333  plane waves:  124090
 k-point   116 :   0.0500 0.1786 0.3333  plane waves:  124059
 k-point   117 :   0.1500 0.1786 0.3333  plane waves:  124062
 k-point   118 :   0.2500 0.1786 0.3333  plane waves:  124083
 k-point   119 :   0.3500 0.1786 0.3333  plane waves:  124100
 k-point   120 :   0.4500 0.1786 0.3333  plane waves:  124083
 k-point   121 :   0.0500 0.2500 0.3333  plane waves:  124068
 k-point   122 :   0.1500 0.2500 0.3333  plane waves:  124085
 k-point   123 :   0.2500 0.2500 0.3333  plane waves:  124101
 k-point   124 :   0.3500 0.2500 0.3333  plane waves:  124101
 k-point   125 :   0.4500 0.2500 0.3333  plane waves:  124098
 k-point   126 :   0.0500 0.3214 0.3333  plane waves:  124050
 k-point   127 :   0.1500 0.3214 0.3333  plane waves:  124055
 k-point   128 :   0.2500 0.3214 0.3333  plane waves:  124099
 k-point   129 :   0.3500 0.3214 0.3333  plane waves:  124114
 k-point   130 :   0.4500 0.3214 0.3333  plane waves:  124119
 k-point   131 :   0.0500 0.3929 0.3333  plane waves:  124073
 k-point   132 :   0.1500 0.3929 0.3333  plane waves:  124079
 k-point   133 :   0.2500 0.3929 0.3333  plane waves:  124085
 k-point   134 :   0.3500 0.3929 0.3333  plane waves:  124088
 k-point   135 :   0.4500 0.3929 0.3333  plane waves:  124133
 k-point   136 :   0.0500 0.4643 0.3333  plane waves:  124060
 k-point   137 :   0.1500 0.4643 0.3333  plane waves:  124066
 k-point   138 :   0.2500 0.4643 0.3333  plane waves:  124054
 k-point   139 :   0.3500 0.4643 0.3333  plane waves:  124104
 k-point   140 :   0.4500 0.4643 0.3333  plane waves:  124145
 k-point   141 :   0.0500 0.0357 0.4444  plane waves:  124066
 k-point   142 :   0.1500 0.0357 0.4444  plane waves:  124088
 k-point   143 :   0.2500 0.0357 0.4444  plane waves:  124102
 k-point   144 :   0.3500 0.0357 0.4444  plane waves:  124100
 k-point   145 :   0.4500 0.0357 0.4444  plane waves:  124081
 k-point   146 :   0.0500 0.1071 0.4444  plane waves:  124054
 k-point   147 :   0.1500 0.1071 0.4444  plane waves:  124072
 k-point   148 :   0.2500 0.1071 0.4444  plane waves:  124119
 k-point   149 :   0.3500 0.1071 0.4444  plane waves:  124102
 k-point   150 :   0.4500 0.1071 0.4444  plane waves:  124109
 k-point   151 :   0.0500 0.1786 0.4444  plane waves:  124068
 k-point   152 :   0.1500 0.1786 0.4444  plane waves:  124049
 k-point   153 :   0.2500 0.1786 0.4444  plane waves:  124104
 k-point   154 :   0.3500 0.1786 0.4444  plane waves:  124114
 k-point   155 :   0.4500 0.1786 0.4444  plane waves:  124105
 k-point   156 :   0.0500 0.2500 0.4444  plane waves:  124081
 k-point   157 :   0.1500 0.2500 0.4444  plane waves:  124072
 k-point   158 :   0.2500 0.2500 0.4444  plane waves:  124080
 k-point   159 :   0.3500 0.2500 0.4444  plane waves:  124107
 k-point   160 :   0.4500 0.2500 0.4444  plane waves:  124090
 k-point   161 :   0.0500 0.3214 0.4444  plane waves:  124089
 k-point   162 :   0.1500 0.3214 0.4444  plane waves:  124097
 k-point   163 :   0.2500 0.3214 0.4444  plane waves:  124084
 k-point   164 :   0.3500 0.3214 0.4444  plane waves:  124100
 k-point   165 :   0.4500 0.3214 0.4444  plane waves:  124113
 k-point   166 :   0.0500 0.3929 0.4444  plane waves:  124050
 k-point   167 :   0.1500 0.3929 0.4444  plane waves:  124073
 k-point   168 :   0.2500 0.3929 0.4444  plane waves:  124071
 k-point   169 :   0.3500 0.3929 0.4444  plane waves:  124103
 k-point   170 :   0.4500 0.3929 0.4444  plane waves:  124132
 k-point   171 :   0.0500 0.4643 0.4444  plane waves:  124066
 k-point   172 :   0.1500 0.4643 0.4444  plane waves:  124042
 k-point   173 :   0.2500 0.4643 0.4444  plane waves:  124070
 k-point   174 :   0.3500 0.4643 0.4444  plane waves:  124090
 k-point   175 :   0.4500 0.4643 0.4444  plane waves:  124146

 maximum and minimum number of plane-waves per node :    124146   124013

 maximum number of plane-waves:    124146
 maximum index in each direction: 
   IXMAX=   30   IYMAX=   25   IZMAX=   37
   IXMIN=  -31   IYMIN=  -26   IZMIN=  -37


 serial   3D FFT for wavefunctions
 parallel 3D FFT for charge:
    minimum data exchange during FFTs selected (reduces bandwidth)


 total amount of memory used by VASP MPI-rank0  1918560. kBytes
=======================================================================

   base      :      30000. kBytes
   nonl-proj :    1392488. kBytes
   fftplans  :      32145. kBytes
   grid      :     116232. kBytes
   one-center:          3. kBytes
   wavefun   :     347692. kBytes
 
     INWAV:  cpu time      0.0000: real time      0.0000
 Broyden mixing: mesh for mixing (old mesh)
   NGX = 61   NGY = 51   NGZ = 75
  (NGX  =252   NGY  =216   NGZ  =300)
  gives a total of 233325 points

 initial charge density was supplied:
 charge density of overlapping atoms calculated
 number of electron       3.0000000 magnetization 
 keeping initial charge density in first step


--------------------------------------------------------------------------------------------------------


 Maximum index for augmentation-charges          138 (set IRDMAX)


--------------------------------------------------------------------------------------------------------


 First call to EWALD:  gamma=   0.118
 Maximum number of real-space cells 3x 3x 2
 Maximum number of reciprocal cells 3x 2x 3

    FEWALD:  cpu time      0.0023: real time      0.0023


--------------------------------------- Ionic step        1  -------------------------------------------




--------------------------------------- Iteration      1(   1)  ---------------------------------------


    POTLOK:  cpu time      0.5979: real time      0.6009
    SETDIJ:  cpu time      0.0020: real time      0.0020
     EDDAV:  cpu time     76.1817: real time     76.5156
       DOS:  cpu time      0.0097: real time      0.0099
    --------------------------------------------
      LOOP:  cpu time     76.7913: real time     77.1285

 eigenvalue-minimisations  :  8400
 total energy-change (2. order) : 0.8172225E+01  (-0.3574740E+02)
 number of electron       3.0000000 magnetization 
 augmentation part        3.0000000 magnetization 

 Free energy of the ion-electron system (eV)
  ---------------------------------------------------
  alpha Z        PSCENC =         0.02038373
  Ewald energy   TEWEN  =       -11.82901664
  -Hartree energ DENC   =       -42.58396533
  -exchange      EXHF   =         0.00000000
  -V(xc)+E(xc)   XCENC  =         4.75549672
  PAW double counting   =        43.49986551      -42.64454556
  entropy T*S    EENTRO =        -0.00973360
  eigenvalues    EBANDS =       -14.20600743
  atomic energy  EATOM  =        71.16974734
  Solvation  Ediel_sol  =         0.00000000
  ---------------------------------------------------
  free energy    TOTEN  =         8.17222474 eV

  energy without entropy =        8.18195834  energy(sigma->0) =        8.17709154


--------------------------------------------------------------------------------------------------------




--------------------------------------- Iteration      1(   2)  ---------------------------------------


     EDDAV:  cpu time    122.9453: real time    123.1904
       DOS:  cpu time      0.0016: real time      0.0016
    --------------------------------------------
      LOOP:  cpu time    122.9469: real time    123.1920

 eigenvalue-minimisations  : 16416
 total energy-change (2. order) :-0.8050858E+01  (-0.8016099E+01)
 number of electron       3.0000000 magnetization 
 augmentation part        3.0000000 magnetization 

 Free energy of the ion-electron system (eV)
  ---------------------------------------------------
  alpha Z        PSCENC =         0.02038373
  Ewald energy   TEWEN  =       -11.82901664
  -Hartree energ DENC   =       -42.58396533
  -exchange      EXHF   =         0.00000000
  -V(xc)+E(xc)   XCENC  =         4.75549672
  PAW double counting   =        43.49986551      -42.64454556
  entropy T*S    EENTRO =        -0.02880853
  eigenvalues    EBANDS =       -22.23779018
  atomic energy  EATOM  =        71.16974734
  Solvation  Ediel_sol  =         0.00000000
  ---------------------------------------------------
  free energy    TOTEN  =         0.12136706 eV

  energy without entropy =        0.15017559  energy(sigma->0) =        0.13577132


--------------------------------------------------------------------------------------------------------




--------------------------------------- Iteration      1(   3)  ---------------------------------------


     EDDAV:  cpu time     77.7934: real time     78.0496
       DOS:  cpu time      0.0028: real time      2.6607
    --------------------------------------------
      LOOP:  cpu time     77.7961: real time     80.7103

 eigenvalue-minimisations  :  8592
 total energy-change (2. order) :-0.1759107E+00  (-0.1539133E+00)
 number of electron       3.0000000 magnetization 
 augmentation part        3.0000000 magnetization 

 Free energy of the ion-electron system (eV)
  ---------------------------------------------------
  alpha Z        PSCENC =         0.02038373
  Ewald energy   TEWEN  =       -11.82901664
  -Hartree energ DENC   =       -42.58396533
  -exchange      EXHF   =         0.00000000
  -V(xc)+E(xc)   XCENC  =         4.75549672
  PAW double counting   =        43.49986551      -42.64454556
  entropy T*S    EENTRO =        -0.05279255
  eigenvalues    EBANDS =       -22.38971687
  atomic energy  EATOM  =        71.16974734
  Solvation  Ediel_sol  =         0.00000000
  ---------------------------------------------------
  free energy    TOTEN  =        -0.05454365 eV

  energy without entropy =       -0.00175110  energy(sigma->0) =       -0.02814737


--------------------------------------------------------------------------------------------------------




--------------------------------------- Iteration      1(   4)  ---------------------------------------


     EDDAV:  cpu time     81.5289: real time     82.1883
       DOS:  cpu time      0.0018: real time      0.0045
    --------------------------------------------
      LOOP:  cpu time     81.5307: real time     82.1928

 eigenvalue-minimisations  :  9312
 total energy-change (2. order) :-0.3663001E-02  (-0.3459594E-02)
 number of electron       3.0000000 magnetization 
 augmentation part        3.0000000 magnetization 

 Free energy of the ion-electron system (eV)
  ---------------------------------------------------
  alpha Z        PSCENC =         0.02038373
  Ewald energy   TEWEN  =       -11.82901664
  -Hartree energ DENC   =       -42.58396533
  -exchange      EXHF   =         0.00000000
  -V(xc)+E(xc)   XCENC  =         4.75549672
  PAW double counting   =        43.49986551      -42.64454556
  entropy T*S    EENTRO =        -0.05300131
  eigenvalues    EBANDS =       -22.39317111
  atomic energy  EATOM  =        71.16974734
  Solvation  Ediel_sol  =         0.00000000
  ---------------------------------------------------
  free energy    TOTEN  =        -0.05820665 eV

  energy without entropy =       -0.00520534  energy(sigma->0) =       -0.03170600


--------------------------------------------------------------------------------------------------------




--------------------------------------- Iteration      1(   5)  ---------------------------------------


     EDDAV:  cpu time    103.4779: real time    103.7243
       DOS:  cpu time      0.0019: real time      0.0048
    CHARGE:  cpu time      5.5929: real time      5.6019
    MIXING:  cpu time      0.0396: real time      0.0396
    --------------------------------------------
      LOOP:  cpu time    109.1124: real time    109.3707

 eigenvalue-minimisations  : 13056
 total energy-change (2. order) :-0.4170841E-04  (-0.4168808E-04)
 number of electron       3.0000000 magnetization 
 augmentation part       -0.0946127 magnetization 

 Broyden mixing:
  rms(total) = 0.70310E-03    rms(broyden)= 0.65550E-03
  rms(prec ) = 0.65918E-03
  weight for this iteration     100.00

 Free energy of the ion-electron system (eV)
  ---------------------------------------------------
  alpha Z        PSCENC =         0.02038373
  Ewald energy   TEWEN  =       -11.82901664
  -Hartree energ DENC   =       -42.58396533
  -exchange      EXHF   =         0.00000000
  -V(xc)+E(xc)   XCENC  =         4.75549672
  PAW double counting   =        43.49986551      -42.64454556
  entropy T*S    EENTRO =        -0.05300134
  eigenvalues    EBANDS =       -22.39321278
  atomic energy  EATOM  =        71.16974734
  Solvation  Ediel_sol  =         0.00000000
  ---------------------------------------------------
  free energy    TOTEN  =        -0.05824836 eV

  energy without entropy =       -0.00524702  energy(sigma->0) =       -0.03174769


--------------------------------------------------------------------------------------------------------




--------------------------------------- Iteration      1(   6)  ---------------------------------------


    POTLOK:  cpu time      0.5616: real time      0.5630
    SETDIJ:  cpu time      0.0035: real time      0.0035
     EDDAV:  cpu time     95.9708: real time     96.2204
       DOS:  cpu time      0.0034: real time      0.0040
    CHARGE:  cpu time      5.4783: real time      5.4788
    MIXING:  cpu time      0.0290: real time      0.0290
    --------------------------------------------
      LOOP:  cpu time    102.0466: real time    102.2988

 eigenvalue-minimisations  : 11472
 total energy-change (2. order) :-0.2233647E-05  (-0.3280877E-06)
 number of electron       3.0000000 magnetization 
 augmentation part       -0.0946125 magnetization 

 Broyden mixing:
  rms(total) = 0.39235E-03    rms(broyden)= 0.38895E-03
  rms(prec ) = 0.39159E-03
  weight for this iteration     100.00

 eigenvalues of (default mixing * dielectric matrix)
  average eigenvalue GAMMA=   2.4463
  2.4463

 Free energy of the ion-electron system (eV)
  ---------------------------------------------------
  alpha Z        PSCENC =         0.02038373
  Ewald energy   TEWEN  =       -11.82901664
  -Hartree energ DENC   =       -42.58421250
  -exchange      EXHF   =         0.00000000
  -V(xc)+E(xc)   XCENC  =         4.75549759
  PAW double counting   =        43.55329000      -42.69799677
  entropy T*S    EENTRO =        -0.05300134
  eigenvalues    EBANDS =       -22.39294200
  atomic energy  EATOM  =        71.16974734
  Solvation  Ediel_sol  =         0.00000000
  ---------------------------------------------------
  free energy    TOTEN  =        -0.05825059 eV

  energy without entropy =       -0.00524925  energy(sigma->0) =       -0.03174992


--------------------------------------------------------------------------------------------------------




--------------------------------------- Iteration      1(   7)  ---------------------------------------


    POTLOK:  cpu time      0.5315: real time      0.5319
    SETDIJ:  cpu time      0.0370: real time      0.0371
     EDDAV:  cpu time     90.8233: real time     91.0889
       DOS:  cpu time      0.0018: real time      0.0018
    CHARGE:  cpu time      5.4731: real time      5.4763
    MIXING:  cpu time      0.0341: real time      0.0341
    --------------------------------------------
      LOOP:  cpu time     96.9008: real time     97.1701

 eigenvalue-minimisations  : 10512
 total energy-change (2. order) :-0.3630417E-05  (-0.6373119E-07)
 number of electron       3.0000000 magnetization 
 augmentation part       -0.0946120 magnetization 

 Broyden mixing:
  rms(total) = 0.27679E-04    rms(broyden)= 0.25570E-04
  rms(prec ) = 0.27695E-04
  weight for this iteration     100.00

 eigenvalues of (default mixing * dielectric matrix)
  average eigenvalue GAMMA=   1.5903
  0.6827  2.4979

 Free energy of the ion-electron system (eV)
  ---------------------------------------------------
  alpha Z        PSCENC =         0.02038373
  Ewald energy   TEWEN  =       -11.82901664
  -Hartree energ DENC   =       -42.58494270
  -exchange      EXHF   =         0.00000000
  -V(xc)+E(xc)   XCENC  =         4.75551909
  PAW double counting   =        43.63016864      -42.77491895
  entropy T*S    EENTRO =        -0.05300134
  eigenvalues    EBANDS =       -22.39219339
  atomic energy  EATOM  =        71.16974734
  Solvation  Ediel_sol  =         0.00000000
  ---------------------------------------------------
  free energy    TOTEN  =        -0.05825422 eV

  energy without entropy =       -0.00525288  energy(sigma->0) =       -0.03175355


--------------------------------------------------------------------------------------------------------




--------------------------------------- Iteration      1(   8)  ---------------------------------------


    POTLOK:  cpu time      0.5565: real time      0.5572
    SETDIJ:  cpu time      0.0012: real time      0.0012
     EDDAV:  cpu time    114.3490: real time    114.5996
       DOS:  cpu time      0.0057: real time      0.0058
    --------------------------------------------
      LOOP:  cpu time    114.9124: real time    115.1637

 eigenvalue-minimisations  : 14544
 total energy-change (2. order) :-0.4970178E-07  (-0.3318863E-09)
 number of electron       3.0000000 magnetization 
 augmentation part       -0.0946120 magnetization 

 Free energy of the ion-electron system (eV)
  ---------------------------------------------------
  alpha Z        PSCENC =         0.02038373
  Ewald energy   TEWEN  =       -11.82901664
  -Hartree energ DENC   =       -42.58488670
  -exchange      EXHF   =         0.00000000
  -V(xc)+E(xc)   XCENC  =         4.75551272
  PAW double counting   =        43.63206907      -42.77681747
  entropy T*S    EENTRO =        -0.05300134
  eigenvalues    EBANDS =       -22.39224499
  atomic energy  EATOM  =        71.16974734
  Solvation  Ediel_sol  =         0.00000000
  ---------------------------------------------------
  free energy    TOTEN  =        -0.05825427 eV

  energy without entropy =       -0.00525293  energy(sigma->0) =       -0.03175360


--------------------------------------------------------------------------------------------------------




 average (electrostatic) potential at core
  the test charge radii are     0.7672
  (the norm of the test charge is              1.0000)
       1 -39.4290
 
 
 
 E-fermi :  -3.6071     XC(G=0):  -0.2667     alpha+bet : -0.0329

 val. band max:       -9.4096731375   @ k =   0.0500   0.4643   0.0000
 cond. band min:      -3.5730115098   @ k =   0.0500   0.4643   0.1111
 fundamental gap:      5.8366616277
 Fermi energy:        -3.6071010441

 k-point     1 :       0.0500    0.0357    0.0000
  band No.  band energies     occupation 
      1      -9.4097      2.00000
      2      -3.5729      0.33346
      3      -3.5729      0.33334
      4      -3.5728      0.33176
      5      -0.2624      0.00000
      6       0.2975      0.00000
      7       0.3089      0.00000
      8       0.4388      0.00000
      9       0.5734      0.00000
     10       0.6859      0.00000
     11       0.8282      0.00000
     12       0.9101      0.00000
     13       0.9464      0.00000
     14       1.0357      0.00000
     15       1.0819      0.00000
     16       1.1730      0.00000
     17       1.2110      0.00000
     18       1.2890      0.00000
     19       1.3337      0.00000
     20       1.3555      0.00000
     21       1.4282      0.00000
     22       1.4977      0.00000
     23       1.5760      0.00000
     24       1.7090      0.00000

 k-point     2 :       0.1500    0.0357    0.0000
  band No.  band energies     occupation 
      1      -9.4097      2.00000
      2      -3.5729      0.33345
      3      -3.5729      0.33338
      4      -3.5728      0.33175
      5      -0.2525      0.00000
      6       0.2707      0.00000
      7       0.3201      0.00000
      8       0.3747      0.00000
      9       0.6891      0.00000
     10       0.7076      0.00000
     11       0.8004      0.00000
     12       0.8321      0.00000
     13       0.8412      0.00000
     14       1.1516      0.00000
     15       1.1653      0.00000
     16       1.1969      0.00000
     17       1.2223      0.00000
     18       1.2585      0.00000
     19       1.3330      0.00000
     20       1.3503      0.00000
     21       1.3899      0.00000
     22       1.5764      0.00000
     23       1.6387      0.00000
     24       1.6874      0.00000

 k-point     3 :       0.2500    0.0357    0.0000
  band No.  band energies     occupation 
      1      -9.4097      2.00000
      2      -3.5729      0.33346
      3      -3.5729      0.33344
[...]
      7       0.2980      0.00000
      8       0.5028      0.00000
      9       0.5543      0.00000
     10       0.7014      0.00000
     11       0.7536      0.00000
     12       0.8621      0.00000
     13       0.9188      0.00000
     14       0.9395      0.00000
     15       1.0444      0.00000
     16       1.0857      0.00000
     17       1.1008      0.00000
     18       1.2094      0.00000
     19       1.2918      0.00000
     20       1.4118      0.00000
     21       1.4742      0.00000
     22       1.5075      0.00000
     23       1.6386      0.00000
     24       1.6690      0.00000

 k-point   162 :       0.1500    0.3214    0.4444
  band No.  band energies     occupation 
      1      -9.4097      2.00000
      2      -3.5729      0.33406
      3      -3.5729      0.33329
      4      -3.5729      0.33321
      5      -0.1406      0.00000
      6       0.1719      0.00000
      7       0.3076      0.00000
      8       0.4524      0.00000
      9       0.5143      0.00000
     10       0.6417      0.00000
     11       0.7992      0.00000
     12       0.8509      0.00000
     13       0.9085      0.00000
     14       0.9821      0.00000
     15       1.0224      0.00000
     16       1.0989      0.00000
     17       1.1926      0.00000
     18       1.2626      0.00000
     19       1.3581      0.00000
     20       1.4075      0.00000
     21       1.4396      0.00000
     22       1.4920      0.00000
     23       1.5671      0.00000
     24       1.7095      0.00000

 k-point   163 :       0.2500    0.3214    0.4444
  band No.  band energies     occupation 
      1      -9.4097      2.00000
      2      -3.5729      0.33405
      3      -3.5729      0.33328
      4      -3.5729      0.33328
      5      -0.1242      0.00000
      6       0.1966      0.00000
      7       0.3200      0.00000
      8       0.3681      0.00000
      9       0.5209      0.00000
     10       0.5589      0.00000
     11       0.7187      0.00000
     12       0.8799      0.00000
     13       0.9338      0.00000
     14       0.9902      0.00000
     15       1.0765      0.00000
     16       1.2105      0.00000
     17       1.2743      0.00000
     18       1.2972      0.00000
     19       1.3448      0.00000
     20       1.4263      0.00000
     21       1.4506      0.00000
     22       1.5242      0.00000
     23       1.5703      0.00000
     24       1.6531      0.00000

 k-point   164 :       0.3500    0.3214    0.4444
  band No.  band energies     occupation 
      1      -9.4097      2.00000
      2      -3.5729      0.33404
      3      -3.5729      0.33335
      4      -3.5729      0.33328
      5      -0.1047      0.00000
      6       0.2317      0.00000
      7       0.2825      0.00000
      8       0.3613      0.00000
      9       0.4475      0.00000
     10       0.5809      0.00000
     11       0.6442      0.00000
     12       0.7941      0.00000
     13       0.9663      0.00000
     14       1.1120      0.00000
     15       1.1363      0.00000
     16       1.2181      0.00000
     17       1.3082      0.00000
     18       1.3512      0.00000
     19       1.3997      0.00000
     20       1.4398      0.00000
     21       1.5008      0.00000
     22       1.5274      0.00000
     23       1.6014      0.00000
     24       1.7036      0.00000

 k-point   165 :       0.4500    0.3214    0.4444
  band No.  band energies     occupation 
      1      -9.4097      2.00000
      2      -3.5729      0.33404
      3      -3.5729      0.33340
      4      -3.5729      0.33328
      5      -0.0904      0.00000
      6       0.2422      0.00000
      7       0.2736      0.00000
      8       0.3801      0.00000
      9       0.3838      0.00000
     10       0.5963      0.00000
     11       0.6216      0.00000
     12       0.7284      0.00000
     13       0.9963      0.00000
     14       1.1419      0.00000
     15       1.1469      0.00000
     16       1.2783      0.00000
     17       1.3333      0.00000
     18       1.3539      0.00000
     19       1.4729      0.00000
     20       1.4860      0.00000
     21       1.5007      0.00000
     22       1.5652      0.00000
     23       1.6261      0.00000
     24       1.6400      0.00000

 k-point   166 :       0.0500    0.3929    0.4444
  band No.  band energies     occupation 
      1      -9.4097      2.00000
      2      -3.5730      0.33462
      3      -3.5729      0.33324
      4      -3.5729      0.33312
      5      -0.1174      0.00000
      6       0.2037      0.00000
      7       0.2295      0.00000
      8       0.4199      0.00000
      9       0.5906      0.00000
     10       0.7435      0.00000
     11       0.7974      0.00000
     12       0.8489      0.00000
     13       0.9036      0.00000
     14       0.9737      0.00000
     15       0.9851      0.00000
     16       1.0233      0.00000
     17       1.1127      0.00000
     18       1.1314      0.00000
     19       1.2107      0.00000
     20       1.3409      0.00000
     21       1.5350      0.00000
     22       1.6101      0.00000
     23       1.6910      0.00000
     24       1.7163      0.00000

 k-point   167 :       0.1500    0.3929    0.4444
  band No.  band energies     occupation 
      1      -9.4097      2.00000
      2      -3.5730      0.33462
      3      -3.5729      0.33324
      4      -3.5729      0.33316
      5      -0.1085      0.00000
      6       0.2160      0.00000
      7       0.2403      0.00000
      8       0.4323      0.00000
      9       0.4901      0.00000
     10       0.6852      0.00000
     11       0.7364      0.00000
     12       0.8787      0.00000
     13       0.8991      0.00000
     14       0.9505      0.00000
     15       1.0629      0.00000
     16       1.1142      0.00000
     17       1.1460      0.00000
     18       1.1883      0.00000
     19       1.2939      0.00000
     20       1.3666      0.00000
     21       1.4375      0.00000
     22       1.5778      0.00000
     23       1.6400      0.00000
     24       1.6885      0.00000

 k-point   168 :       0.2500    0.3929    0.4444
  band No.  band energies     occupation 
      1      -9.4097      2.00000
      2      -3.5730      0.33462
      3      -3.5729      0.33324
      4      -3.5729      0.33323
      5      -0.0925      0.00000
      6       0.2400      0.00000
      7       0.2608      0.00000
      8       0.3996      0.00000
      9       0.4565      0.00000
     10       0.5858      0.00000
     11       0.6426      0.00000
     12       0.7974      0.00000
     13       0.9742      0.00000
     14       1.0268      0.00000
     15       1.1172      0.00000
     16       1.1972      0.00000
     17       1.2537      0.00000
     18       1.2778      0.00000
     19       1.3377      0.00000
     20       1.3675      0.00000
     21       1.4694      0.00000
     22       1.5077      0.00000
     23       1.5646      0.00000
     24       1.6655      0.00000

 k-point   169 :       0.3500    0.3929    0.4444
  band No.  band energies     occupation 
      1      -9.4097      2.00000
      2      -3.5730      0.33461
      3      -3.5729      0.33331
      4      -3.5729      0.33323
      5      -0.0737      0.00000
      6       0.2725      0.00000
      7       0.2882      0.00000
      8       0.3316      0.00000
      9       0.4794      0.00000
     10       0.5128      0.00000
     11       0.5662      0.00000
     12       0.7094      0.00000
     13       1.0069      0.00000
     14       1.1500      0.00000
     15       1.1737      0.00000
     16       1.2356      0.00000
     17       1.2605      0.00000
     18       1.3764      0.00000
     19       1.3931      0.00000
     20       1.4386      0.00000
     21       1.4505      0.00000
     22       1.4980      0.00000
     23       1.6203      0.00000
     24       1.6510      0.00000

 k-point   170 :       0.4500    0.3929    0.4444
  band No.  band energies     occupation 
      1      -9.4097      2.00000
      2      -3.5730      0.33461
      3      -3.5729      0.33336
      4      -3.5729      0.33323
      5      -0.0600      0.00000
      6       0.2830      0.00000
      7       0.3106      0.00000
      8       0.3197      0.00000
      9       0.4305      0.00000
     10       0.5170      0.00000
     11       0.5410      0.00000
     12       0.6421      0.00000
     13       1.0361      0.00000
     14       1.1803      0.00000
     15       1.1896      0.00000
     16       1.2628      0.00000
     17       1.3205      0.00000
     18       1.3833      0.00000
     19       1.4116      0.00000
     20       1.4411      0.00000
     21       1.5370      0.00000
     22       1.5574      0.00000
     23       1.6222      0.00000
     24       1.6483      0.00000

 k-point   171 :       0.0500    0.4643    0.4444
  band No.  band energies     occupation 
      1      -9.4097      2.00000
      2      -3.5730      0.33494
      3      -3.5729      0.33322
      4      -3.5729      0.33310
      5      -0.0942      0.00000
      6       0.1849      0.00000
      7       0.2546      0.00000
      8       0.3527      0.00000
      9       0.6204      0.00000
     10       0.7815      0.00000
     11       0.8015      0.00000
     12       0.8425      0.00000
     13       0.9234      0.00000
     14       0.9430      0.00000
     15       0.9504      0.00000
     16       1.0345      0.00000
     17       1.0721      0.00000
     18       1.1379      0.00000
     19       1.1608      0.00000
     20       1.2825      0.00000
     21       1.5674      0.00000
     22       1.6836      0.00000
     23       1.7171      0.00000
     24       1.7638      0.00000

 k-point   172 :       0.1500    0.4643    0.4444
  band No.  band energies     occupation 
      1      -9.4097      2.00000
      2      -3.5730      0.33493
      3      -3.5729      0.33321
      4      -3.5729      0.33314
      5      -0.0855      0.00000
      6       0.1959      0.00000
      7       0.2668      0.00000
      8       0.3656      0.00000
      9       0.5232      0.00000
     10       0.6849      0.00000
     11       0.7333      0.00000
     12       0.8327      0.00000
     13       0.9145      0.00000
     14       0.9870      0.00000
     15       1.0549      0.00000
     16       1.1092      0.00000
     17       1.1320      0.00000
     18       1.1917      0.00000
     19       1.2334      0.00000
     20       1.3058      0.00000
     21       1.4737      0.00000
     22       1.6031      0.00000
     23       1.6295      0.00000
     24       1.7494      0.00000

 k-point   173 :       0.2500    0.4643    0.4444
  band No.  band energies     occupation 
      1      -9.4097      2.00000
      2      -3.5730      0.33493
      3      -3.5729      0.33321
      4      -3.5729      0.33321
      5      -0.0700      0.00000
      6       0.2171      0.00000
      7       0.2906      0.00000
      8       0.3912      0.00000
      9       0.4336      0.00000
     10       0.5884      0.00000
     11       0.6347      0.00000
     12       0.7294      0.00000
     13       1.0137      0.00000
     14       1.0583      0.00000
     15       1.1371      0.00000
     16       1.1579      0.00000
     17       1.2220      0.00000
     18       1.2992      0.00000
     19       1.3097      0.00000
     20       1.3865      0.00000
     21       1.4185      0.00000
     22       1.5052      0.00000
     23       1.5435      0.00000
     24       1.6552      0.00000

 k-point   174 :       0.3500    0.4643    0.4444
  band No.  band energies     occupation 
      1      -9.4097      2.00000
      2      -3.5730      0.33493
      3      -3.5729      0.33328
      4      -3.5729      0.33321
      5      -0.0518      0.00000
      6       0.2452      0.00000
      7       0.3240      0.00000
      8       0.3651      0.00000
      9       0.4283      0.00000
     10       0.5101      0.00000
     11       0.5504      0.00000
     12       0.6395      0.00000
     13       1.0449      0.00000
     14       1.1739      0.00000
     15       1.1818      0.00000
     16       1.2173      0.00000
     17       1.2987      0.00000
     18       1.3186      0.00000
     19       1.3958      0.00000
     20       1.4233      0.00000
     21       1.4524      0.00000
     22       1.5056      0.00000
     23       1.5696      0.00000
     24       1.5860      0.00000

 k-point   175 :       0.4500    0.4643    0.4444
  band No.  band energies     occupation 
      1      -9.4097      2.00000
      2      -3.5730      0.33493
      3      -3.5729      0.33334
      4      -3.5729      0.33321
      5      -0.0387      0.00000
      6       0.2705      0.00000
      7       0.3244      0.00000
      8       0.3603      0.00000
      9       0.4551      0.00000
     10       0.4760      0.00000
     11       0.4916      0.00000
     12       0.5690      0.00000
     13       1.0725      0.00000
     14       1.2078      0.00000
     15       1.2151      0.00000
     16       1.2316      0.00000
     17       1.3423      0.00000
     18       1.3630      0.00000
     19       1.3750      0.00000
     20       1.4410      0.00000
     21       1.4962      0.00000
     22       1.5770      0.00000
     23       1.6051      0.00000
     24       1.6679      0.00000


--------------------------------------------------------------------------------------------------------


 soft charge-density along one line, spin component           1
         0         1         2         3         4         5         6         7         8         9
 total charge-density along one line
 
 pseudopotential strength for first ion, spin component:           1
  6.996  10.697  -0.000   0.000   0.000  -0.000   0.000   0.000
 10.697  16.352  -0.000   0.000   0.000  -0.000   0.000   0.000
 -0.000  -0.000  -2.483  -0.000  -0.000  -4.297  -0.000  -0.000
  0.000   0.000  -0.000  -2.483   0.000  -0.000  -4.297   0.000
  0.000   0.000  -0.000   0.000  -2.483  -0.000   0.000  -4.297
 -0.000  -0.000  -4.297  -0.000  -0.000  -7.240  -0.000  -0.000
  0.000   0.000  -0.000  -4.297   0.000  -0.000  -7.240   0.000
  0.000   0.000  -0.000   0.000  -4.297  -0.000   0.000  -7.240
 total augmentation occupancy for first ion, spin component:           1
  2.012  -0.004   0.000   0.000   0.000   0.000   0.000   0.000
 -0.004   0.000   0.000   0.000   0.000   0.000   0.000   0.000
  0.000   0.000   0.333   0.000   0.000   0.000   0.000   0.000
  0.000   0.000   0.000   0.333   0.000   0.000   0.000   0.000
  0.000   0.000   0.000   0.000   0.333   0.000   0.000   0.000
  0.000   0.000   0.000   0.000   0.000   0.000   0.000   0.000
  0.000   0.000   0.000   0.000   0.000   0.000   0.000   0.000
  0.000   0.000   0.000   0.000   0.000   0.000   0.000   0.000


------------------------ aborting loop because EDIFF is reached ----------------------------------------


    CHARGE:  cpu time      5.3508: real time      5.3519
    FORLOC:  cpu time      0.0233: real time      0.0233
    FORNL :  cpu time      1.7325: real time      1.7326
    STRESS:  cpu time     60.8924: real time     60.8963
    FORCOR:  cpu time      0.4766: real time      0.4767
    FORHAR:  cpu time      0.1221: real time      0.1221
    MIXING:  cpu time      0.0335: real time      0.0335
    OFIELD:  cpu time      0.0000: real time      0.0000

  FORCE on cell =-STRESS in cart. coord.  units (eV):
  Direction    XX          YY          ZZ          XY          YZ          ZX
  --------------------------------------------------------------------------------------
  Alpha Z     0.02038     0.02038     0.02038
  Ewald      -3.85600    -1.56275    -6.41027     0.00000    -0.00000    -0.00000
  Hartree    14.28962    16.49899    11.79606     0.00000    -0.00000     0.00000
  E(xc)      -7.33285    -7.33285    -7.33285     0.00000     0.00000     0.00000
  Local     -32.28733   -36.79000   -27.23945    -0.00000     0.00000    -0.00000
  n-local     6.84801     6.84800     6.84803    -0.00000    -0.00001     0.00001
  augment     0.68506     0.68508     0.68508    -0.00001    -0.00000    -0.00000
  Kinetic    21.63159    21.63164    21.63152     0.00000     0.00002    -0.00002
  Fock        0.00000     0.00000     0.00000     0.00000     0.00000     0.00000
  -------------------------------------------------------------------------------------
  Total      -0.00151    -0.00151    -0.00149     0.00000     0.00000     0.00000
  in kB      -0.00072    -0.00071    -0.00071     0.00000     0.00000     0.00000
  external pressure =       -0.00 kB  Pullay stress =        0.00 kB


 VOLUME and BASIS-vectors are now :
 -----------------------------------------------------------------------------
  energy-cutoff  :      640.00
  volume of cell :     3375.00
      direct lattice vectors                 reciprocal lattice vectors
    15.000000000  0.000000000  0.000000000     0.066666667  0.000000000  0.000000000
     0.000000000 12.500000000  0.000000000     0.000000000  0.080000000  0.000000000
     0.000000000  0.000000000 18.000000000     0.000000000  0.000000000  0.055555556

  length of vectors
    15.000000000 12.500000000 18.000000000     0.066666667  0.080000000  0.055555556


 FORCES acting on ions
    electron-ion (+dipol)            ewald-force                    non-local-force                 convergence-correction
 -----------------------------------------------------------------------------------------------
   -.195E-05 0.994E-06 -.843E-06   0.332E-17 -.449E-17 -.121E-17   -.212E-21 -.106E-21 0.529E-21   0.261E-07 -.670E-08 0.757E-08
 -----------------------------------------------------------------------------------------------
   -.195E-05 0.994E-06 -.843E-06   0.332E-17 -.449E-17 -.121E-17   -.212E-21 -.106E-21 0.529E-21   0.261E-07 -.670E-08 0.757E-08
 
 
 POSITION                                       TOTAL-FORCE (eV/Angst)
 -----------------------------------------------------------------------------------
      7.81845      6.81250     11.48328         0.000000     -0.000000     -0.000000
 -----------------------------------------------------------------------------------
    total drift:                               -0.000002      0.000001     -0.000001


--------------------------------------------------------------------------------------------------------



  FREE ENERGIE OF THE ION-ELECTRON SYSTEM (eV)
  ---------------------------------------------------
  free  energy   TOTEN  =        -0.05825427 eV

  energy  without entropy=       -0.00525293  energy(sigma->0) =       -0.03175360
 


--------------------------------------------------------------------------------------------------------


    POTLOK:  cpu time      0.5320: real time      0.5320


--------------------------------------------------------------------------------------------------------


     LOOP+:  cpu time    851.2293: real time    857.9753
    4ORBIT:  cpu time      0.0000: real time      0.0000

 total amount of memory used by VASP MPI-rank0  1918560. kBytes
=======================================================================

   base      :      30000. kBytes
   nonl-proj :    1392488. kBytes
   fftplans  :      32145. kBytes
   grid      :     116232. kBytes
   one-center:          3. kBytes
   wavefun   :     347692. kBytes
 
  
  
 General timing and accounting informations for this job:
 ========================================================
  
                  Total CPU time used (sec):      886.630
                            User time (sec):      858.306
                          System time (sec):       28.324
                         Elapsed time (sec):      906.762
  
                   Maximum memory used (kb):     3060456.
                   Average memory used (kb):          N/A
  
                          Minor page faults:     11668205
                          Major page faults:         1887
                 Voluntary context switches:        18704
