 running   24 mpi-ranks, with    1 threads/rank, on    1 nodes
 distrk:  each k-point on   24 cores,    1 groups
 distr:  one band on    1 cores,   24 groups
 vasp.6.4.3 19Mar24 (build May 31 2024 16:31:43) complex                        
  
 POSCAR found type information on POSCAR B 
 POSCAR found :  1 types and       1 ions
 Reading from existing POTCAR
 scaLAPACK will be used
 Reading from existing POTCAR
 LDA part: xc-table for (Slater+PW92), standard interpolation
 POSCAR, INCAR and KPOINTS ok, starting setup
 FFT: planning ... GRIDC
 FFT: planning ... GRID_SOFT
 FFT: planning ... GRID
 WAVECAR not read
 entering main loop
       N       E                     dE             d eps       ncg     rms          rms(c)
DAV:   1     0.809932310102E+01    0.80993E+01   -0.35095E+02  8400   0.401E+01
DAV:   2     0.109614659614E+00   -0.79897E+01   -0.79398E+01 16512   0.580E+00
DAV:   3    -0.547964258720E-01   -0.16441E+00   -0.14243E+00  8544   0.149E+00
DAV:   4    -0.582164666360E-01   -0.34200E-02   -0.32639E-02 10080   0.181E-01
DAV:   5    -0.582522124640E-01   -0.35746E-04   -0.35728E-04 12888   0.202E-02    0.848E-03
DAV:   6    -0.582531259636E-01   -0.91350E-06   -0.25637E-06 11568   0.291E-03
   1 F= -.58253126E-01 E0= -.31752455E-01  d E =-.530013E-01
