   14   14    1    1
  0.1021318E+02  0.5700971E-09  0.4044058E-09  0.6201871E-09  0.5000000E-15
  1.000000000000000E-004
  CAR 
 PDoS                                    
     42    768     48
 
  0.3125000E-01  0.0000000E+00  0.0000000E+00  0.3623188E-03
      1        -12.697774   1.000000
      2        -11.522247   1.000000
      3         -8.658868   1.000000
      4         -8.366624   1.000000
      5         -6.049972   1.000000
      6         -5.123672   1.000000
      7         -4.691688   1.000000
      8         -4.341323   1.000000
      9         -3.931727   1.000000
     10         -3.507231   1.000000
     11         -2.403717   1.000000
     12         -2.222765   1.000000
     13         -2.111847   1.000000
     14         -1.082691   1.000000
     15         -0.015956   1.000000
     16          0.007450   1.000000
     17          0.043458   1.000000
     18          0.092250   1.000000
     19          0.667986   1.000000
     20          2.115447   0.003397
     21          2.148322   0.000758
     22          2.236220   0.000005
     23          5.509728   0.000000
     24          5.728421   0.000000
     25          5.732370   0.000000
     26          5.991921   0.000000
     27          6.720216   0.000000
     28          7.597305   0.000000
     29          7.810584   0.000000
     30          8.629306   0.000000
     31          8.863292   0.000000
     32          8.873109   0.000000
     33          9.053035   0.000000
     34         10.030671   0.000000
     35         11.195624   0.000000
     36         11.385012   0.000000
     37         11.513384   0.000000
     38         11.741586   0.000000
     39         11.970118   0.000000
     40         12.299374   0.000000
     41         12.941183   0.000000
     42         13.384017   0.000000
     43         13.507484   0.000000
     44         15.492434   0.000000
     45         15.536487   0.000000
     46         15.989579   0.000000
     47         16.316633   0.000000
     48         16.438570   0.000000
 
  0.9375000E-01  0.0000000E+00  0.0000000E+00  0.3623188E-03
      1        -12.680387   1.000000
      2        -11.552933   1.000000
      3         -8.648659   1.000000
      4         -8.361643   1.000000
      5         -6.016923   1.000000
      6         -5.305328   1.000000
      7         -4.760637   1.000000
      8         -4.118360   1.000000
      9         -3.907447   1.000000
     10         -3.358745   1.000000
     11         -2.396478   1.000000
     12         -2.227677   1.000000
     13         -2.169994   1.000000
     14         -1.208928   1.000000
     15         -0.042220   1.000000
     16          0.017210   1.000000
     17          0.060988   1.000000
     18          0.111727   1.000000
     19          0.626791   1.000000
     20          2.083075   0.012256
     21          2.107965   0.004648
     22          2.187694   0.000096
     23          5.543444   0.000000
     24          5.712648   0.000000
     25          5.760179   0.000000
     26          6.133879   0.000000
     27          6.686877   0.000000
     28          7.365156   0.000000
     29          7.976164   0.000000
     30          8.686202   0.000000
     31          8.965225   0.000000
     32          9.007448   0.000000
     33          9.063665   0.000000
     34         10.065850   0.000000
     35         11.219275   0.000000
     36         11.225362   0.000000
     37         11.475115   0.000000
     38         11.495643   0.000000
     39         12.060612   0.000000
     40         12.334609   0.000000
     41         13.070231   0.000000
     42         13.355325   0.000000
     43         13.662574   0.000000
     44         15.129196   0.000000
     45         15.630345   0.000000
     46         16.122829   0.000000
     47         16.202476   0.000000
     48         16.370508   0.000000
 
  0.1562500E+00  0.0000000E+00  0.0000000E+00  0.3623188E-03
      1        -12.645892   1.000000
      2        -11.611668   1.000000
      3         -8.628030   1.000000
      4         -8.353075   1.000000
      5         -5.972413   1.000000
      6         -5.528580   1.000000
      7         -4.827708   1.000000
      8         -3.859210   1.000000
      9         -3.814145   1.000000
     10         -3.116065   1.000000
     11         -2.381685   1.000000
     12         -2.277697   1.000000
     13         -2.237391   1.000000
     14         -1.441483   1.000000
     15         -0.138613   1.000000
     16          0.076665   1.000000
     17          0.095029   1.000000
     18          0.142060   1.000000
     19          0.548911   1.000000
     20          2.022173   0.082612
     21          2.032853   0.061932
     22          2.090789   0.009184
     23          5.600764   0.000000
     24          5.680874   0.000000
     25          5.865915   0.000000
     26          6.367022   0.000000
     27          6.627857   0.000000
     28          7.144477   0.000000
     29          8.099031   0.000000
     30          8.787256   0.000000
     31          9.047829   0.000000
     32          9.175014   0.000000
     33          9.230711   0.000000
     34         10.152419   0.000000
     35         10.916445   0.000000
     36         11.097530   0.000000
     37         11.285759   0.000000
     38         11.522417   0.000000
     39         12.217149   0.000000
     40         12.414048   0.000000
     41         13.089731   0.000000
     42         13.195010   0.000000
     43         14.070244   0.000000
     44         14.811887   0.000000
     45         15.763003   0.000000
     46         15.787109   0.000000
     47         16.283565   0.000000
     48         16.481360   0.000000
 
  0.2187500E+00  0.0000000E+00  0.0000000E+00  0.3623188E-03
      1        -12.594845   1.000000
      2        -11.693744   1.000000
      3         -8.597099   1.000000
      4         -8.343677   1.000000
      5         -5.954065   1.000000
      6         -5.738541   1.000000
      7         -4.818245   1.000000
      8         -3.787553   1.000000
      9         -3.488332   1.000000
     10         -2.825858   1.000000
     11         -2.421819   1.000000
     12         -2.358685   1.000000
     13         -2.251484   1.000000
     14         -1.749184   1.000000
     15         -0.275820   1.000000
     16          0.143393   1.000000
     17          0.144117   1.000000
     18          0.151899   1.000000
     19          0.471674   1.000000
     20          1.933683   0.445801
     21          1.939845   0.411606
     22          1.948058   0.367089
     23          5.649347   0.000000
     24          5.665510   0.000000
     25          6.059219   0.000000
     26          6.556538   0.000000
     27          6.662280   0.000000
     28          6.953773   0.000000
     29          8.195790   0.000000
     30          8.898487   0.000000
     31          9.001577   0.000000
     32          9.448982   0.000000
     33          9.494624   0.000000
     34         10.324121   0.000000
     35         10.515645   0.000000
     36         10.719775   0.000000
     37         11.369900   0.000000
     38         11.636293   0.000000
     39         12.334984   0.000000
     40         12.615185   0.000000
     41         12.753326   0.000000
     42         13.118233   0.000000
     43         14.521430   0.000000
     44         14.717947   0.000000
     45         15.386114   0.000000
     46         15.976023   0.000000
     47         16.122372   0.000000
     48         16.400654   0.000000
 
  0.2812500E+00  0.0000000E+00  0.0000000E+00  0.3623188E-03
      1        -12.528131   1.000000
      2        -11.793285   1.000000
      3         -8.557013   1.000000
      4         -8.337346   1.000000
      5         -5.985646   1.000000
      6         -5.916284   1.000000
      7         -4.693018   1.000000
      8         -3.693363   1.000000
      9         -3.174597   1.000000
     10         -2.588941   1.000000
     11         -2.519873   1.000000
     12         -2.331768   1.000000
     13         -2.267659   1.000000
     14         -2.088103   1.000000
     15         -0.444144   1.000000
     16          0.032545   1.000000
     17          0.202304   1.000000
     18          0.231515   1.000000
     19          0.485344   1.000000
     20          1.766650   0.986990
     21          1.824836   0.919700
     22          1.845704   0.866055
     23          5.629961   0.000000
     24          5.720228   0.000000
     25          6.336046   0.000000
     26          6.489614   0.000000
     27          6.797852   0.000000
     28          7.003704   0.000000
     29          8.276145   0.000000
     30          8.908155   0.000000
     31          8.940129   0.000000
     32          9.765560   0.000000
     33          9.776685   0.000000
     34         10.058517   0.000000
     35         10.441221   0.000000
     36         10.611211   0.000000
     37         11.447836   0.000000
     38         11.837864   0.000000
     39         12.376502   0.000000
     40         12.394007   0.000000
     41         12.801591   0.000000
     42         12.925856   0.000000
     43         14.833408   0.000000
     44         14.980780   0.000000
     45         15.016698   0.000000
     46         15.812695   0.000000
     47         15.878823   0.000000
     48         16.175811   0.000000
 
  0.3437500E+00  0.0000000E+00  0.0000000E+00  0.3623188E-03
      1        -12.446994   1.000000
      2        -11.904059   1.000000
      3         -8.510374   1.000000
      4         -8.338555   1.000000
      5         -6.051816   1.000000
      6         -6.051586   1.000000
      7         -4.462698   1.000000
      8         -3.577942   1.000000
      9         -2.947556   1.000000
     10         -2.767532   1.000000
     11         -2.459434   1.000000
     12         -2.316137   1.000000
     13         -2.217852   1.000000
     14         -2.195474   1.000000
     15         -0.625241   1.000000
     16         -0.179001   1.000000
     17          0.265667   1.000000
     18          0.303820   1.000000
     19          0.588084   1.000000
     20          1.558622   1.000000
     21          1.722976   0.997769
     22          1.751377   0.992695
     23          5.629658   0.000000
     24          5.750069   0.000000
     25          6.444174   0.000000
     26          6.673998   0.000000
     27          6.685233   0.000000
     28          7.380520   0.000000
     29          8.345515   0.000000
     30          8.790819   0.000000
     31          8.792169   0.000000
     32          9.583952   0.000000
     33         10.072035   0.000000
     34         10.082060   0.000000
     35         10.378751   0.000000
     36         11.015950   0.000000
     37         11.470576   0.000000
     38         11.980041   0.000000
     39         12.105817   0.000000
     40         12.382697   0.000000
     41         12.446415   0.000000
     42         13.233253   0.000000
     43         14.696639   0.000000
     44         14.956119   0.000000
     45         15.292666   0.000000
     46         15.428745   0.000000
     47         15.445962   0.000000
     48         16.361826   0.000000
 
  0.4062500E+00  0.0000000E+00  0.0000000E+00  0.3623188E-03
      1        -12.353102   1.000000
      2        -12.020197   1.000000
      3         -8.461322   1.000000
      4         -8.351194   1.000000
      5         -6.139211   1.000000
      6         -6.120372   1.000000
      7         -4.158229   1.000000
      8         -3.442990   1.000000
      9         -3.072315   1.000000
     10         -2.948444   1.000000
     11         -2.510920   1.000000
     12         -2.335914   1.000000
     13         -2.105236   1.000000
     14         -1.960778   1.000000
     15         -0.776533   1.000000
     16         -0.428565   1.000000
     17          0.324343   1.000000
     18          0.356572   1.000000
     19          0.737349   1.000000
     20          1.338708   1.000000
     21          1.645821   0.999958
     22          1.670610   0.999831
     23          5.649099   0.000000
     24          5.748219   0.000000
     25          6.432087   0.000000
     26          6.577337   0.000000
     27          7.092268   0.000000
     28          7.784915   0.000000
     29          8.411278   0.000000
     30          8.445848   0.000000
     31          8.673091   0.000000
     32          9.113566   0.000000
     33         10.366637   0.000000
     34         10.367083   0.000000
     35         10.541788   0.000000
     36         11.423594   0.000000
     37         11.498601   0.000000
     38         11.580003   0.000000
     39         11.948132   0.000000
     40         12.432615   0.000000
     41         12.463067   0.000000
     42         13.365452   0.000000
     43         14.528638   0.000000
     44         14.830483   0.000000
     45         14.946895   0.000000
     46         15.088685   0.000000
     47         15.847874   0.000000
     48         16.486201   0.000000
 
  0.4687500E+00  0.0000000E+00  0.0000000E+00  0.3623188E-03
      1        -12.248682   1.000000
      2        -12.136534   1.000000
      3         -8.415118   1.000000
      4         -8.377103   1.000000
      5         -6.176629   1.000000
      6         -6.167319   1.000000
      7         -3.806369   1.000000
      8         -3.430437   1.000000
      9         -3.290889   1.000000
     10         -3.124688   1.000000
     11         -2.431405   1.000000
     12         -2.374870   1.000000
     13         -1.944387   1.000000
     14         -1.859424   1.000000
     15         -0.808066   1.000000
     16         -0.665388   1.000000
     17          0.366102   1.000000
     18          0.378778   1.000000
     19          0.917762   1.000000
     20          1.121168   1.000000
     21          1.608652   0.999996
     22          1.618567   0.999992
     23          5.682937   0.000000
     24          5.720863   0.000000
     25          6.454127   0.000000
     26          6.504084   0.000000
     27          7.539548   0.000000
     28          8.003609   0.000000
     29          8.211142   0.000000
     30          8.482994   0.000000
     31          8.569084   0.000000
     32          8.655016   0.000000
     33         10.573813   0.000000
     34         10.586603   0.000000
     35         10.834866   0.000000
     36         11.191817   0.000000
     37         11.397775   0.000000
     38         11.576516   0.000000
     39         11.986814   0.000000
     40         12.332315   0.000000
     41         12.787761   0.000000
     42         13.154731   0.000000
     43         14.604599   0.000000
     44         14.677817   0.000000
     45         14.759047   0.000000
     46         14.845074   0.000000
     47         16.210921   0.000000
     48         16.452471   0.000000
 
  0.3125000E-01  0.4347826E-01  0.0000000E+00  0.7246377E-03
      1        -12.693146   1.000000
      2        -11.518073   1.000000
      3         -8.655245   1.000000
      4         -8.362146   1.000000
      5         -6.044913   1.000000
      6         -5.116869   1.000000
      7         -4.687540   1.000000
      8         -4.351801   1.000000
      9         -4.038734   1.000000
     10         -3.502276   1.000000
     11         -2.625141   1.000000
     12         -2.269221   1.000000
     13         -1.689053   1.000000
     14         -1.081787   1.000000
     15         -0.102993   1.000000
     16         -0.014315   1.000000
     17          0.060298   1.000000
     18          0.097701   1.000000
     19          0.691340   1.000000
     20          2.064310   0.023649
     21          2.073792   0.017099
     22          2.266435   0.000001
     23          5.558408   0.000000
     24          5.671795   0.000000
     25          5.790157   0.000000
     26          5.945936   0.000000
     27          6.777848   0.000000
     28          7.656861   0.000000
     29          7.867930   0.000000
     30          8.472808   0.000000
     31          8.873247   0.000000
     32          8.943299   0.000000
     33          9.064192   0.000000
     34         10.145589   0.000000
     35         11.243339   0.000000
     36         11.368715   0.000000
     37         11.531641   0.000000
     38         11.730727   0.000000
     39         11.988210   0.000000
     40         12.353284   0.000000
     41         12.939706   0.000000
     42         13.328615   0.000000
     43         13.443776   0.000000
     44         15.491346   0.000000
     45         15.497949   0.000000
     46         15.983632   0.000000
     47         16.298580   0.000000
     48         16.400596   0.000000
 
  0.9375000E-01  0.4347826E-01  0.0000000E+00  0.7246377E-03
      1        -12.675772   1.000000
      2        -11.548746   1.000000
      3         -8.645021   1.000000
      4         -8.357192   1.000000
      5         -6.011743   1.000000
      6         -5.299254   1.000000
      7         -4.756620   1.000000
      8         -4.150707   1.000000
      9         -3.992559   1.000000
     10         -3.354003   1.000000
     11         -2.651751   1.000000
     12         -2.261418   1.000000
     13         -1.727610   1.000000
     14         -1.208001   1.000000
     15         -0.099693   1.000000
     16          0.001774   1.000000
     17          0.042493   1.000000
     18          0.118563   1.000000
     19          0.650034   1.000000
     20          2.032000   0.063419
     21          2.034868   0.058528
     22          2.216081   0.000018
     23          5.593086   0.000000
     24          5.691497   0.000000
     25          5.780162   0.000000
     26          6.089145   0.000000
     27          6.744648   0.000000
     28          7.427456   0.000000
     29          8.031079   0.000000
     30          8.531937   0.000000
     31          9.009432   0.000000
     32          9.044984   0.000000
     33          9.079189   0.000000
     34         10.164985   0.000000
     35         11.202142   0.000000
     36         11.271658   0.000000
     37         11.459980   0.000000
     38         11.522001   0.000000
     39         12.078948   0.000000
     40         12.387906   0.000000
     41         13.071377   0.000000
     42         13.292510   0.000000
     43         13.605454   0.000000
     44         15.143929   0.000000
     45         15.586556   0.000000
     46         16.110909   0.000000
     47         16.127309   0.000000
     48         16.379519   0.000000
 
  0.1562500E+00  0.4347826E-01  0.0000000E+00  0.7246377E-03
      1        -12.641289   1.000000
      2        -11.607464   1.000000
      3         -8.624373   1.000000
      4         -8.348684   1.000000
      5         -5.966956   1.000000
      6         -5.522760   1.000000
      7         -4.823985   1.000000
      8         -4.010231   1.000000
      9         -3.781496   1.000000
     10         -3.112247   1.000000
     11         -2.705205   1.000000
     12         -2.245623   1.000000
     13         -1.794109   1.000000
     14         -1.440374   1.000000
     15         -0.153888   1.000000
     16          0.030400   1.000000
     17          0.062675   1.000000
     18          0.154349   1.000000
     19          0.571799   1.000000
     20          1.961593   0.297717
     21          1.971254   0.252192
     22          2.116730   0.003215
     23          5.651896   0.000000
     24          5.703077   0.000000
     25          5.841768   0.000000
     26          6.320238   0.000000
     27          6.685929   0.000000
     28          7.212244   0.000000
     29          8.151287   0.000000
     30          8.636174   0.000000
     31          9.083947   0.000000
     32          9.234824   0.000000
     33          9.244896   0.000000
     34         10.219881   0.000000
     35         10.898254   0.000000
     36         11.081425   0.000000
     37         11.329201   0.000000
     38         11.562071   0.000000
     39         12.237239   0.000000
     40         12.464643   0.000000
     41         13.028763   0.000000
     42         13.199051   0.000000
     43         14.000734   0.000000
     44         14.843845   0.000000
     45         15.707683   0.000000
     46         15.799479   0.000000
     47         16.160666   0.000000
     48         16.503638   0.000000
 
  0.2187500E+00  0.4347826E-01  0.0000000E+00  0.7246377E-03
      1        -12.590260   1.000000
      2        -11.689509   1.000000
      3         -8.593417   1.000000
      4         -8.339367   1.000000
      5         -5.948257   1.000000
      6         -5.732754   1.000000
      7         -4.814927   1.000000
      8         -3.930689   1.000000
      9         -3.464807   1.000000
     10         -2.843243   1.000000
     11         -2.765969   1.000000
     12         -2.221635   1.000000
     13         -1.873753   1.000000
     14         -1.747804   1.000000
     15         -0.277434   1.000000
     16          0.056384   1.000000
     17          0.127000   1.000000
     18          0.182983   1.000000
     19          0.490085   1.000000
     20          1.862094   0.809524
     21          1.889169   0.689081
     22          1.973562   0.241887
     23          5.680675   0.000000
     24          5.717886   0.000000
     25          6.026084   0.000000
     26          6.605024   0.000000
     27          6.615161   0.000000
     28          7.035323   0.000000
     29          8.245888   0.000000
     30          8.749734   0.000000
     31          9.055473   0.000000
     32          9.500125   0.000000
     33          9.518028   0.000000
     34         10.332720   0.000000
     35         10.508610   0.000000
     36         10.712478   0.000000
     37         11.408244   0.000000
     38         11.689963   0.000000
     39         12.365841   0.000000
     40         12.642868   0.000000
     41         12.706865   0.000000
     42         13.124109   0.000000
     43         14.404431   0.000000
     44         14.801451   0.000000
     45         15.406174   0.000000
     46         15.897624   0.000000
     47         16.050494   0.000000
     48         16.426232   0.000000
 
  0.2812500E+00  0.4347826E-01  0.0000000E+00  0.7246377E-03
      1        -12.523574   1.000000
      2        -11.789011   1.000000
      3         -8.553300   1.000000
      4         -8.333142   1.000000
      5         -5.979590   1.000000
      6         -5.910436   1.000000
      7         -4.690022   1.000000
      8         -3.839382   1.000000
      9         -3.148858   1.000000
     10         -2.904437   1.000000
     11         -2.503983   1.000000
     12         -2.200015   1.000000
     13         -2.080902   1.000000
     14         -1.954644   1.000000
     15         -0.440685   1.000000
     16          0.001330   1.000000
     17          0.195998   1.000000
     18          0.203599   1.000000
     19          0.493074   1.000000
     20          1.738562   0.995644
     21          1.795279   0.965700
     22          1.806032   0.952439
     23          5.664532   0.000000
     24          5.772777   0.000000
     25          6.300516   0.000000
     26          6.549184   0.000000
     27          6.807836   0.000000
     28          7.020908   0.000000
     29          8.324327   0.000000
     30          8.798676   0.000000
     31          8.982220   0.000000
     32          9.783101   0.000000
     33          9.818622   0.000000
     34         10.031566   0.000000
     35         10.385862   0.000000
     36         10.661170   0.000000
     37         11.476305   0.000000
     38         11.902353   0.000000
     39         12.321652   0.000000
     40         12.431045   0.000000
     41         12.808320   0.000000
     42         12.963079   0.000000
     43         14.722281   0.000000
     44         15.050900   0.000000
     45         15.063679   0.000000
     46         15.786208   0.000000
     47         15.788695   0.000000
     48         16.229363   0.000000
 
  0.3437500E+00  0.4347826E-01  0.0000000E+00  0.7246377E-03
      1        -12.442466   1.000000
      2        -11.899747   1.000000
      3         -8.506635   1.000000
      4         -8.334465   1.000000
      5         -6.045882   1.000000
      6         -6.045425   1.000000
      7         -4.459924   1.000000
      8         -3.731096   1.000000
      9         -3.033103   1.000000
     10         -2.920704   1.000000
     11         -2.416173   1.000000
     12         -2.203517   1.000000
     13         -2.116473   1.000000
     14         -2.031145   1.000000
     15         -0.619327   1.000000
     16         -0.187790   1.000000
     17          0.241770   1.000000
     18          0.274728   1.000000
     19          0.591293   1.000000
     20          1.556567   1.000000
     21          1.677485   0.999756
     22          1.701192   0.999188
     23          5.666704   0.000000
     24          5.801196   0.000000
     25          6.505190   0.000000
     26          6.648209   0.000000
     27          6.726178   0.000000
     28          7.358258   0.000000
     29          8.391535   0.000000
     30          8.704553   0.000000
     31          8.841307   0.000000
     32          9.547300   0.000000
     33         10.079491   0.000000
     34         10.108744   0.000000
     35         10.352217   0.000000
     36         11.033483   0.000000
     37         11.477858   0.000000
     38         11.941516   0.000000
     39         12.177319   0.000000
     40         12.389846   0.000000
     41         12.486537   0.000000
     42         13.271197   0.000000
     43         14.738736   0.000000
     44         14.913194   0.000000
     45         15.256978   0.000000
     46         15.368707   0.000000
     47         15.533374   0.000000
     48         16.364205   0.000000
 
  0.4062500E+00  0.4347826E-01  0.0000000E+00  0.7246377E-03
      1        -12.348616   1.000000
      2        -12.015839   1.000000
      3         -8.457546   1.000000
      4         -8.347206   1.000000
      5         -6.133174   1.000000
      6         -6.114188   1.000000
      7         -4.155637   1.000000
      8         -3.607182   1.000000
      9         -3.175974   1.000000
     10         -3.064967   1.000000
     11         -2.412470   1.000000
     12         -2.104496   1.000000
     13         -2.029153   1.000000
     14         -1.954208   1.000000
     15         -0.769728   1.000000
     16         -0.430232   1.000000
     17          0.295468   1.000000
     18          0.326739   1.000000
     19          0.739378   1.000000
     20          1.340115   1.000000
     21          1.596361   0.999998
     22          1.620563   0.999991
     23          5.688660   0.000000
     24          5.796651   0.000000
     25          6.494539   0.000000
     26          6.636263   0.000000
     27          7.055436   0.000000
     28          7.756255   0.000000
     29          8.397218   0.000000
     30          8.454727   0.000000
     31          8.704492   0.000000
     32          9.080904   0.000000
     33         10.337736   0.000000
     34         10.376410   0.000000
     35         10.548529   0.000000
     36         11.364443   0.000000
     37         11.510404   0.000000
     38         11.603024   0.000000
     39         11.961261   0.000000
     40         12.502286   0.000000
     41         12.503108   0.000000
     42         13.409517   0.000000
     43         14.568910   0.000000
     44         14.809868   0.000000
     45         14.929936   0.000000
     46         15.094058   0.000000
     47         15.867568   0.000000
     48         16.480053   0.000000
 
  0.4687500E+00  0.4347826E-01  0.0000000E+00  0.7246377E-03
      1        -12.244236   1.000000
      2        -12.132129   1.000000
      3         -8.411299   1.000000
      4         -8.373214   1.000000
      5         -6.170514   1.000000
      6         -6.161166   1.000000
      7         -3.804081   1.000000
      8         -3.475894   1.000000
      9         -3.420835   1.000000
     10         -3.323608   1.000000
     11         -2.277792   1.000000
     12         -2.180906   1.000000
     13         -1.906139   1.000000
     14         -1.842522   1.000000
     15         -0.802909   1.000000
     16         -0.663421   1.000000
     17          0.335821   1.000000
     18          0.348463   1.000000
     19          0.919546   1.000000
     20          1.122962   1.000000
     21          1.558567   1.000000
     22          1.568518   1.000000
     23          5.725258   0.000000
     24          5.766176   0.000000
     25          6.517125   0.000000
     26          6.566116   0.000000
     27          7.501775   0.000000
     28          7.963415   0.000000
     29          8.178899   0.000000
     30          8.523949   0.000000
     31          8.586956   0.000000
     32          8.640124   0.000000
     33         10.559952   0.000000
     34         10.596913   0.000000
     35         10.806590   0.000000
     36         11.097696   0.000000
     37         11.455072   0.000000
     38         11.596654   0.000000
     39         12.005868   0.000000
     40         12.364163   0.000000
     41         12.852914   0.000000
     42         13.208705   0.000000
     43         14.610653   0.000000
     44         14.694353   0.000000
     45         14.744314   0.000000
     46         14.875472   0.000000
     47         16.212306   0.000000
     48         16.445936   0.000000
 
  0.3125000E-01  0.8695652E-01  0.0000000E+00  0.7246377E-03
      1        -12.679516   1.000000
      2        -11.505774   1.000000
      3         -8.644587   1.000000
      4         -8.348961   1.000000
      5         -6.030031   1.000000
      6         -5.096869   1.000000
      7         -4.675260   1.000000
      8         -4.447570   1.000000