 vasp.6.4.3 19Mar24 (build May 31 2024 16:31:43) complex                        
  
 executed on             LinuxIFC date 2025.01.22  20:15:13
 running   24 mpi-ranks, with    1 threads/rank, on    1 nodes
 distrk:  each k-point on   24 cores,    1 groups
 distr:  one band on NCORE=   1 cores,   24 groups


--------------------------------------------------------------------------------------------------------


 INCAR:
   SYSTEM = PDoS
   ISTART = 1
   ICHARG = 11
   PREC = Accurate
   LORBIT = 11
   NEDOS = 4000
   ENCUT = 600
   LCHARG = .FALSE.
   LWAVE = .FALSE.
   ALGO = Normal
   EDIFF = 1E-6
   EDIFFG = -1E-3
   SIGMA = 0.1
   ISMEAR = 0
   SYMPREC = 1E-6
   NSW = 0
   IBRION = -1
   POTIM = .5

 POTCAR:    PAW_PBE B 06Sep2000                   
 POTCAR:    PAW_PBE B 06Sep2000                   
   SHA256 =  a32ced30f5ae56fd4d10b4325ff17eb3e4e38ee0f4288bc219fb012fddfa6e97 B/POTCAR              
   COPYR  = (c) Copyright 06Sep2000 Georg Kresse                                                    
   COPYR  = This file is part of the software VASP. Any use, copying, and all other rights are regul
   COPYR  = If you do not have a valid VASP license, you may not use, copy or distribute this file. 
   VRHFIN =B: s2p1                                                                                  
   LEXCH  = PE                                                                                      
   EATOM  =    71.1703 eV,    5.2309 Ry                                                             
                                                                                                    
   TITEL  = PAW_PBE B 06Sep2000                                                                     
   LULTRA =        F    use ultrasoft PP ?                                                          
   IUNSCR =        1    unscreen: 0-lin 1-nonlin 2-no                                               
   RPACOR =    1.200    partial core radius                                                         
   POMASS =   10.811; ZVAL   =    3.000    mass and valenz                                          
   RCORE  =    1.700    outmost cutoff radius                                                       
   RWIGS  =    1.710; RWIGS  =    0.905    wigner-seitz radius (au A)                               
   ENMAX  =  318.614; ENMIN  =  238.960 eV                                                          
   ICORE  =        2    local potential                                                             
   LCOR   =        T    correct aug charges                                                         
   LPAW   =        T    paw PP                                                                      
   EAUG   =  535.514                                                                                
   DEXC   =    0.000                                                                                
   RMAX   =    1.732    core radius for proj-oper                                                   
   RAUG   =    1.300    factor for augmentation sphere                                              
   RDEP   =    1.757    radius for radial grids                                                     
   RDEPT  =    1.436    core radius for aug-charge                                                  
                                                                                                    
   Atomic configuration                                                                             
    4 entries                                                                                       
     n  l   j            E        occ.                                                              
     1  0  0.50      -180.5896   2.0000                                                             
     2  0  0.50        -9.4431   2.0000                                                             
     2  1  0.50        -3.6068   1.0000                                                             
     3  2  1.50        -4.0817   0.0000                                                             
   Description                                                                                      
     l       E           TYP  RCUT    TYP  RCUT                                                     
     0     -9.4430752     23  1.500                                                                 
     0      0.8675899     23  1.500                                                                 
     1     -3.6067955     23  1.700                                                                 
     1      6.1086146     23  1.700                                                                 
     2     -4.0817478      7  1.700                                                                 
  local pseudopotential read in
  partial core-charges read in
  partial kinetic energy density read in
  atomic valenz-charges read in
  non local Contribution for L=           0  read in
    real space projection operators read in
  non local Contribution for L=           0  read in
    real space projection operators read in
  non local Contribution for L=           1  read in
    real space projection operators read in
  non local Contribution for L=           1  read in
    real space projection operators read in
    PAW grid and wavefunctions read in
 
   number of l-projection  operators is LMAX  =           4
   number of lm-projection operators is LMMAX =           8
 
  PAW_PBE B 06Sep2000                   :
 energy of atom  1       EATOM=  -71.1703
 kinetic energy error for atom=    0.0007 (will be added to EATOM!!)
 
 
 POSCAR: o-B14
  positions in direct lattice
  No initial velocities read in


 exchange-correlation table for PE
   RHO(1)=    0.500       N(1)  =     2000
   RHO(2)=  100.500       N(2)  =     4000
 


--------------------------------------------------------------------------------------------------------


 ion  position               nearest neighbor table
   1  0.521  0.500  0.638-  14 1.65   5 1.68  13 1.70   2 1.73   9 1.85  11 1.85
   2  0.479  0.500  0.362-  13 1.65   6 1.68  14 1.70   1 1.73  10 1.85  12 1.85
   3  0.979  0.500  0.638-  14 1.65   7 1.68  13 1.70   4 1.73   9 1.85  11 1.85
   4  0.021  0.500  0.362-  13 1.65   8 1.68  14 1.70   3 1.73  10 1.85  12 1.85
   5  0.597  0.500  0.900-   6 1.67   1 1.68   7 1.74   9 1.81  11 1.81
   6  0.403  0.500  0.100-   5 1.67   2 1.68   8 1.74  10 1.81  12 1.81
   7  0.903  0.500  0.900-   8 1.67   3 1.68   5 1.74   9 1.81  11 1.81
   8  0.097  0.500  0.100-   7 1.67   4 1.68   6 1.74  10 1.81  12 1.81
   9  0.750  0.792  0.730-  11 1.69   7 1.81   5 1.81   3 1.85   1 1.85  14 1.97
  10  0.250  0.208  0.270-  12 1.69   8 1.81   6 1.81   4 1.85   2 1.85  13 1.97
  11  0.750  0.208  0.730-   9 1.69   7 1.81   5 1.81   3 1.85   1 1.85  14 1.97
  12  0.250  0.792  0.270-  10 1.69   8 1.81   6 1.81   4 1.85   2 1.85  13 1.97
  13  0.250  0.500  0.524-   2 1.65   4 1.65   3 1.70   1 1.70  10 1.97  12 1.97
  14  0.750  0.500  0.476-   1 1.65   3 1.65   2 1.70   4 1.70   9 1.97  11 1.97
 
  LATTYP: Found a simple orthorhombic cell.
 ALAT       =     4.0440580961
 B/A-ratio  =     1.4097153303
 C/A-ratio  =     1.5335761871
  
  Lattice vectors:
  
 A1 = (   0.0000000000,  -4.0440580961,   0.0000000000)
 A2 = (   5.7009706948,   0.0000000000,   0.0000000000)
 A3 = (   0.0000000000,   0.0000000000,   6.2018711955)


Analysis of symmetry for initial positions (statically):
=====================================================================
 Subroutine PRICEL returns:
 Original cell was already a primitive cell.
 

 Routine SETGRP: Setting up the symmetry group for a 
 simple orthorhombic supercell.


 Subroutine GETGRP returns: Found  8 space group operations
 (whereof  4 operations were pure point group operations)
 out of a pool of  8 trial point group operations.


The static configuration has the point symmetry C_2h.
 The point group associated with its full space group is D_2h.


Analysis of symmetry for dynamics (positions and initial velocities):
=====================================================================
 Subroutine PRICEL returns:
 Original cell was already a primitive cell.
 

 Routine SETGRP: Setting up the symmetry group for a 
 simple orthorhombic supercell.


 Subroutine GETGRP returns: Found  8 space group operations
 (whereof  4 operations were pure point group operations)
 out of a pool of  8 trial point group operations.


The dynamic configuration has the point symmetry C_2h.
 The point group associated with its full space group is D_2h.


 Subroutine INISYM returns: Found  8 space group operations
 (whereof  4 operations are pure point group operations),
 and found     1 'primitive' translations


----------------------------------------------------------------------------------------

                                     Primitive cell                                     

  volume of cell :     142.9845

  direct lattice vectors                    reciprocal lattice vectors
     5.700970695  0.000000000  0.000000000     0.175408725  0.000000000  0.000000000
     0.000000000  4.044058096  0.000000000     0.000000000  0.247276368  0.000000000
     0.000000000  0.000000000  6.201871195     0.000000000  0.000000000  0.161241659

  length of vectors
     5.700970695  4.044058096  6.201871195     0.175408725  0.247276368  0.161241659

  position of ions in fractional coordinates (direct lattice)
     0.521289885  0.500000000  0.637957702
     0.478710115  0.500000000  0.362042298
     0.978710115  0.500000000  0.637957702
     0.021289885  0.500000000  0.362042298
     0.597449662  0.500000000  0.899868316
     0.402550338  0.500000000  0.100131684
     0.902550338  0.500000000  0.899868316
     0.097449662  0.500000000  0.100131684
     0.750000000  0.791564932  0.729579396
     0.250000000  0.208435068  0.270420604
     0.750000000  0.208435068  0.729579396
     0.250000000  0.791564932  0.270420604
     0.250000000  0.500000000  0.523993035
     0.750000000  0.500000000  0.476006965

  ion indices of the primitive-cell ions
   primitive index   ion index
                 1           1
                 2           2
                 3           3
                 4           4
                 5           5
                 6           6
                 7           7
                 8           8
                 9           9
                10          10
                11          11
                12          12
                13          13
                14          14

----------------------------------------------------------------------------------------

 
 
 KPOINTS: k-points                                

Automatic generation of k-mesh.
 Grid dimensions read from file:
 generate k-points for:   16   23   15

 Generating k-lattice:

  Cartesian coordinates                     Fractional coordinates (reciprocal lattice)
     0.010963045  0.000000000  0.000000000     0.062500000  0.000000000  0.000000000
     0.000000000  0.010751146  0.000000000     0.000000000  0.043478261  0.000000000
     0.000000000  0.000000000  0.010749444     0.000000000  0.000000000  0.066666667

  Length of vectors
     0.010963045  0.010751146  0.010749444

  Shift w.r.t. Gamma in fractional coordinates (k-lattice)
     0.500000000  0.000000000  0.000000000

 
 Subroutine IBZKPT returns following result:
 ===========================================
 
 Found    768 irreducible k-points:
 
 Following reciprocal coordinates:
            Coordinates               Weight
  0.031250  0.000000  0.000000      2.000000
  0.093750  0.000000  0.000000      2.000000
  0.156250  0.000000  0.000000      2.000000
  0.218750  0.000000  0.000000      2.000000
  0.281250  0.000000  0.000000      2.000000
  0.343750  0.000000  0.000000      2.000000
  0.406250  0.000000  0.000000      2.000000
  0.468750  0.000000  0.000000      2.000000
  0.031250  0.043478  0.000000      4.000000
  0.093750  0.043478  0.000000      4.000000
  0.156250  0.043478  0.000000      4.000000
  0.218750  0.043478  0.000000      4.000000
  0.281250  0.043478  0.000000      4.000000
  0.343750  0.043478  0.000000      4.000000
  0.406250  0.043478  0.000000      4.000000
  0.468750  0.043478  0.000000      4.000000
  0.031250  0.086957  0.000000      4.000000
  0.093750  0.086957  0.000000      4.000000
  0.156250  0.086957  0.000000      4.000000
  0.218750  0.086957  0.000000      4.000000
  0.281250  0.086957  0.000000      4.000000
  0.343750  0.086957  0.000000      4.000000
  0.406250  0.086957  0.000000      4.000000
  0.468750  0.086957  0.000000      4.000000
  0.031250  0.130435  0.000000      4.000000
  0.093750  0.130435  0.000000      4.000000
  0.156250  0.130435  0.000000      4.000000
  0.218750  0.130435  0.000000      4.000000
  0.281250  0.130435  0.000000      4.000000
  0.343750  0.130435  0.000000      4.000000
  0.406250  0.130435  0.000000      4.000000
  0.468750  0.130435  0.000000      4.000000
  0.031250  0.173913  0.000000      4.000000
  0.093750  0.173913  0.000000      4.000000
  0.156250  0.173913  0.000000      4.000000
  0.218750  0.173913  0.000000      4.000000
  0.281250  0.173913  0.000000      4.000000
  0.343750  0.173913  0.000000      4.000000
  0.406250  0.173913  0.000000      4.000000
  0.468750  0.173913  0.000000      4.000000
  0.031250  0.217391  0.000000      4.000000
  0.093750  0.217391  0.000000      4.000000
  0.156250  0.217391  0.000000      4.000000
  0.218750  0.217391  0.000000      4.000000
  0.281250  0.217391  0.000000      4.000000
  0.343750  0.217391  0.000000      4.000000
  0.406250  0.217391  0.000000      4.000000
  0.468750  0.217391  0.000000      4.000000
  0.031250  0.260870  0.000000      4.000000
  0.093750  0.260870  0.000000      4.000000
  0.156250  0.260870  0.000000      4.000000
  0.218750  0.260870  0.000000      4.000000
  0.281250  0.260870  0.000000      4.000000
  0.343750  0.260870  0.000000      4.000000
  0.406250  0.260870  0.000000      4.000000
  0.468750  0.260870  0.000000      4.000000
  0.031250  0.304348  0.000000      4.000000
  0.093750  0.304348  0.000000      4.000000
  0.156250  0.304348  0.000000      4.000000
  0.218750  0.304348  0.000000      4.000000
  0.281250  0.304348  0.000000      4.000000
  0.343750  0.304348  0.000000      4.000000
  0.406250  0.304348  0.000000      4.000000
  0.468750  0.304348  0.000000      4.000000
  0.031250  0.347826  0.000000      4.000000
  0.093750  0.347826  0.000000      4.000000
  0.156250  0.347826  0.000000      4.000000
  0.218750  0.347826  0.000000      4.000000
  0.281250  0.347826  0.000000      4.000000
  0.343750  0.347826  0.000000      4.000000
  0.406250  0.347826  0.000000      4.000000
  0.468750  0.347826  0.000000      4.000000
  0.031250  0.391304  0.000000      4.000000
  0.093750  0.391304  0.000000      4.000000
  0.156250  0.391304  0.000000      4.000000
  0.218750  0.391304  0.000000      4.000000
  0.281250  0.391304  0.000000      4.000000
  0.343750  0.391304  0.000000      4.000000
  0.406250  0.391304  0.000000      4.000000
  0.468750  0.391304  0.000000      4.000000
  0.031250  0.434783  0.000000      4.000000
  0.093750  0.434783  0.000000      4.000000
  0.156250  0.434783  0.000000      4.000000
  0.218750  0.434783  0.000000      4.000000
  0.281250  0.434783  0.000000      4.000000
  0.343750  0.434783  0.000000      4.000000
  0.406250  0.434783  0.000000      4.000000
  0.468750  0.434783  0.000000      4.000000
  0.031250  0.478261  0.000000      4.000000
  0.093750  0.478261  0.000000      4.000000
  0.156250  0.478261  0.000000      4.000000
  0.218750  0.478261  0.000000      4.000000
  0.281250  0.478261  0.000000      4.000000
  0.343750  0.478261  0.000000      4.000000
  0.406250  0.478261  0.000000      4.000000
  0.468750  0.478261  0.000000      4.000000
  0.031250  0.000000  0.066667      4.000000
  0.093750  0.000000  0.066667      4.000000
  0.156250  0.000000  0.066667      4.000000
  0.218750  0.000000  0.066667      4.000000
  0.281250  0.000000  0.066667      4.000000
  0.343750  0.000000  0.066667      4.000000
  0.406250  0.000000  0.066667      4.000000
  0.468750  0.000000  0.066667      4.000000
  0.031250  0.043478  0.066667      8.000000
  0.093750  0.043478  0.066667      8.000000
  0.156250  0.043478  0.066667      8.000000
  0.218750  0.043478  0.066667      8.000000
  0.281250  0.043478  0.066667      8.000000
  0.343750  0.043478  0.066667      8.000000
  0.406250  0.043478  0.066667      8.000000
  0.468750  0.043478  0.066667      8.000000
  0.031250  0.086957  0.066667      8.000000
  0.093750  0.086957  0.066667      8.000000
  0.156250  0.086957  0.066667      8.000000
  0.218750  0.086957  0.066667      8.000000
  0.281250  0.086957  0.066667      8.000000
  0.343750  0.086957  0.066667      8.000000
  0.406250  0.086957  0.066667      8.000000
  0.468750  0.086957  0.066667      8.000000
  0.031250  0.130435  0.066667      8.000000
  0.093750  0.130435  0.066667      8.000000
  0.156250  0.130435  0.066667      8.000000
  0.218750  0.130435  0.066667      8.000000
  0.281250  0.130435  0.066667      8.000000
  0.343750  0.130435  0.066667      8.000000
  0.406250  0.130435  0.066667      8.000000
  0.468750  0.130435  0.066667      8.000000
  0.031250  0.173913  0.066667      8.000000
  0.093750  0.173913  0.066667      8.000000
  0.156250  0.173913  0.066667      8.000000
  0.218750  0.173913  0.066667      8.000000
  0.281250  0.173913  0.066667      8.000000
  0.343750  0.173913  0.066667      8.000000
  0.406250  0.173913  0.066667      8.000000
  0.468750  0.173913  0.066667      8.000000
  0.031250  0.217391  0.066667      8.000000
  0.093750  0.217391  0.066667      8.000000
  0.156250  0.217391  0.066667      8.000000
  0.218750  0.217391  0.066667      8.000000
  0.281250  0.217391  0.066667      8.000000
  0.343750  0.217391  0.066667      8.000000
  0.406250  0.217391  0.066667      8.000000
  0.468750  0.217391  0.066667      8.000000
  0.031250  0.260870  0.066667      8.000000
  0.093750  0.260870  0.066667      8.000000
  0.156250  0.260870  0.066667      8.000000
  0.218750  0.260870  0.066667      8.000000
  0.281250  0.260870  0.066667      8.000000
  0.343750  0.260870  0.066667      8.000000
  0.406250  0.260870  0.066667      8.000000
  0.468750  0.260870  0.066667      8.000000
  0.031250  0.304348  0.066667      8.000000
  0.093750  0.304348  0.066667      8.000000
  0.156250  0.304348  0.066667      8.000000
  0.218750  0.304348  0.066667      8.000000
  0.281250  0.304348  0.066667      8.000000
  0.343750  0.304348  0.066667      8.000000
  0.406250  0.304348  0.066667      8.000000
  0.468750  0.304348  0.066667      8.000000
  0.031250  0.347826  0.066667      8.000000
  0.093750  0.347826  0.066667      8.000000
  0.156250  0.347826  0.066667      8.000000
  0.218750  0.347826  0.066667      8.000000
  0.281250  0.347826  0.066667      8.000000
  0.343750  0.347826  0.066667      8.000000
  0.406250  0.347826  0.066667      8.000000
  0.468750  0.347826  0.066667      8.000000
  0.031250  0.391304  0.066667      8.000000
  0.093750  0.391304  0.066667      8.000000
  0.156250  0.391304  0.066667      8.000000
  0.218750  0.391304  0.066667      8.000000
  0.281250  0.391304  0.066667      8.000000
  0.343750  0.391304  0.066667      8.000000
  0.406250  0.391304  0.066667      8.000000
  0.468750  0.391304  0.066667      8.000000
  0.031250  0.434783  0.066667      8.000000
  0.093750  0.434783  0.066667      8.000000
  0.156250  0.434783  0.066667      8.000000
  0.218750  0.434783  0.066667      8.000000
  0.281250  0.434783  0.066667      8.000000
  0.343750  0.434783  0.066667      8.000000
  0.406250  0.434783  0.066667      8.000000
  0.468750  0.434783  0.066667      8.000000
  0.031250  0.478261  0.066667      8.000000
  0.093750  0.478261  0.066667      8.000000
  0.156250  0.478261  0.066667      8.000000
  0.218750  0.478261  0.066667      8.000000
  0.281250  0.478261  0.066667      8.000000
  0.343750  0.478261  0.066667      8.000000
  0.406250  0.478261  0.066667      8.000000
  0.468750  0.478261  0.066667      8.000000
  0.031250  0.000000  0.133333      4.000000
  0.093750  0.000000  0.133333      4.000000
  0.156250  0.000000  0.133333      4.000000
  0.218750  0.000000  0.133333      4.000000
  0.281250  0.000000  0.133333      4.000000
  0.343750  0.000000  0.133333      4.000000
  0.406250  0.000000  0.133333      4.000000
  0.468750  0.000000  0.133333      4.000000
  0.031250  0.043478  0.133333      8.000000
  0.093750  0.043478  0.133333      8.000000
  0.156250  0.043478  0.133333      8.000000
  0.218750  0.043478  0.133333      8.000000
  0.281250  0.043478  0.133333      8.000000
  0.343750  0.043478  0.133333      8.000000
  0.406250  0.043478  0.133333      8.000000
  0.468750  0.043478  0.133333      8.000000
  0.031250  0.086957  0.133333      8.000000
  0.093750  0.086957  0.133333      8.000000
  0.156250  0.086957  0.133333      8.000000
  0.218750  0.086957  0.133333      8.000000
  0.281250  0.086957  0.133333      8.000000
  0.343750  0.086957  0.133333      8.000000
  0.406250  0.086957  0.133333      8.000000
  0.468750  0.086957  0.133333      8.000000
  0.031250  0.130435  0.133333      8.000000
  0.093750  0.130435  0.133333      8.000000
  0.156250  0.130435  0.133333      8.000000
  0.218750  0.130435  0.133333      8.000000
  0.281250  0.130435  0.133333      8.000000
  0.343750  0.130435  0.133333      8.000000
  0.406250  0.130435  0.133333      8.000000
  0.468750  0.130435  0.133333      8.000000
  0.031250  0.173913  0.133333      8.000000
  0.093750  0.173913  0.133333      8.000000
  0.156250  0.173913  0.133333      8.000000
  0.218750  0.173913  0.133333      8.000000
  0.281250  0.173913  0.133333      8.000000
  0.343750  0.173913  0.133333      8.000000
  0.406250  0.173913  0.133333      8.000000
  0.468750  0.173913  0.133333      8.000000
  0.031250  0.217391  0.133333      8.000000
  0.093750  0.217391  0.133333      8.000000
  0.156250  0.217391  0.133333      8.000000
  0.218750  0.217391  0.133333      8.000000
  0.281250  0.217391  0.133333      8.000000
  0.343750  0.217391  0.133333      8.000000
  0.406250  0.217391  0.133333      8.000000
  0.468750  0.217391  0.133333      8.000000
  0.031250  0.260870  0.133333      8.000000
  0.093750  0.260870  0.133333      8.000000
  0.156250  0.260870  0.133333      8.000000
  0.218750  0.260870  0.133333      8.000000
  0.281250  0.260870  0.133333      8.000000
  0.343750  0.260870  0.133333      8.000000
  0.406250  0.260870  0.133333      8.000000
  0.468750  0.260870  0.133333      8.000000
  0.031250  0.304348  0.133333      8.000000
  0.093750  0.304348  0.133333      8.000000
  0.156250  0.304348  0.133333      8.000000
  0.218750  0.304348  0.133333      8.000000
  0.281250  0.304348  0.133333      8.000000
  0.343750  0.304348  0.133333      8.000000
  0.406250  0.304348  0.133333      8.000000
  0.468750  0.304348  0.133333      8.000000
  0.031250  0.347826  0.133333      8.000000
  0.093750  0.347826  0.133333      8.000000
  0.156250  0.347826  0.133333      8.000000
  0.218750  0.347826  0.133333      8.000000
  0.281250  0.347826  0.133333      8.000000
  0.343750  0.347826  0.133333      8.000000
  0.406250  0.347826  0.133333      8.000000
  0.468750  0.347826  0.133333      8.000000
  0.031250  0.391304  0.133333      8.000000
  0.093750  0.391304  0.133333      8.000000
  0.156250  0.391304  0.133333      8.000000
  0.218750  0.391304  0.133333      8.000000
  0.281250  0.391304  0.133333      8.000000
  0.343750  0.391304  0.133333      8.000000
  0.406250  0.391304  0.133333      8.000000
  0.468750  0.391304  0.133333      8.000000
  0.031250  0.434783  0.133333      8.000000
  0.093750  0.434783  0.133333      8.000000
  0.156250  0.434783  0.133333      8.000000
  0.218750  0.434783  0.133333      8.000000
  0.281250  0.434783  0.133333      8.000000
  0.343750  0.434783  0.133333      8.000000
  0.406250  0.434783  0.133333      8.000000
  0.468750  0.434783  0.133333      8.000000
  0.031250  0.478261  0.133333      8.000000
  0.093750  0.478261  0.133333      8.000000
  0.156250  0.478261  0.133333      8.000000
  0.218750  0.478261  0.133333      8.000000
  0.281250  0.478261  0.133333      8.000000
  0.343750  0.478261  0.133333      8.000000
  0.406250  0.478261  0.133333      8.000000
  0.468750  0.478261  0.133333      8.000000
  0.031250  0.000000  0.200000      4.000000
  0.093750  0.000000  0.200000      4.000000
  0.156250  0.000000  0.200000      4.000000
  0.218750  0.000000  0.200000      4.000000
  0.281250  0.000000  0.200000      4.000000
  0.343750  0.000000  0.200000      4.000000
  0.406250  0.000000  0.200000      4.000000
  0.468750  0.000000  0.200000      4.000000
  0.031250  0.043478  0.200000      8.000000
  0.093750  0.043478  0.200000      8.000000
  0.156250  0.043478  0.200000      8.000000
  0.218750  0.043478  0.200000      8.000000
  0.281250  0.043478  0.200000      8.000000
  0.343750  0.043478  0.200000      8.000000
  0.406250  0.043478  0.200000      8.000000
  0.468750  0.043478  0.200000      8.000000
  0.031250  0.086957  0.200000      8.000000
  0.093750  0.086957  0.200000      8.000000
  0.156250  0.086957  0.200000      8.000000
  0.218750  0.086957  0.200000      8.000000
  0.281250  0.086957  0.200000      8.000000
  0.343750  0.086957  0.200000      8.000000
  0.406250  0.086957  0.200000      8.000000
  0.468750  0.086957  0.200000      8.000000
  0.031250  0.130435  0.200000      8.000000
  0.093750  0.130435  0.200000      8.000000
  0.156250  0.130435  0.200000      8.000000
  0.218750  0.130435  0.200000      8.000000
  0.281250  0.130435  0.200000      8.000000
  0.343750  0.130435  0.200000      8.000000
  0.406250  0.130435  0.200000      8.000000
  0.468750  0.130435  0.200000      8.000000
  0.031250  0.173913  0.200000      8.000000
  0.093750  0.173913  0.200000      8.000000
  0.156250  0.173913  0.200000      8.000000
  0.218750  0.173913  0.200000      8.000000
  0.281250  0.173913  0.200000      8.000000
  0.343750  0.173913  0.200000      8.000000
  0.406250  0.173913  0.200000      8.000000
  0.468750  0.173913  0.200000      8.000000
  0.031250  0.217391  0.200000      8.000000
  0.093750  0.217391  0.200000      8.000000
  0.156250  0.217391  0.200000      8.000000
  0.218750  0.217391  0.200000      8.000000
  0.281250  0.217391  0.200000      8.000000
  0.343750  0.217391  0.200000      8.000000
  0.406250  0.217391  0.200000      8.000000
  0.468750  0.217391  0.200000      8.000000
  0.031250  0.260870  0.200000      8.000000
  0.093750  0.260870  0.200000      8.000000
  0.156250  0.260870  0.200000      8.000000
  0.218750  0.260870  0.200000      8.000000
  0.281250  0.260870  0.200000      8.000000
  0.343750  0.260870  0.200000      8.000000
  0.406250  0.260870  0.200000      8.000000
  0.468750  0.260870  0.200000      8.000000
  0.031250  0.304348  0.200000      8.000000
  0.093750  0.304348  0.200000      8.000000
  0.156250  0.304348  0.200000      8.000000
  0.218750  0.304348  0.200000      8.000000
  0.281250  0.304348  0.200000      8.000000
  0.343750  0.304348  0.200000      8.000000
  0.406250  0.304348  0.200000      8.000000
  0.468750  0.304348  0.200000      8.000000
  0.031250  0.347826  0.200000      8.000000
  0.093750  0.347826  0.200000      8.000000
  0.156250  0.347826  0.200000      8.000000
  0.218750  0.347826  0.200000      8.000000
  0.281250  0.347826  0.200000      8.000000
  0.343750  0.347826  0.200000      8.000000
  0.406250  0.347826  0.200000      8.000000
  0.468750  0.347826  0.200000      8.000000
  0.031250  0.391304  0.200000      8.000000
  0.093750  0.391304  0.200000      8.000000
  0.156250  0.391304  0.200000      8.000000
  0.218750  0.391304  0.200000      8.000000
  0.281250  0.391304  0.200000      8.000000
  0.343750  0.391304  0.200000      8.000000
  0.406250  0.391304  0.200000      8.000000
  0.468750  0.391304  0.200000      8.000000
  0.031250  0.434783  0.200000      8.000000
  0.093750  0.434783  0.200000      8.000000
  0.156250  0.434783  0.200000      8.000000
  0.218750  0.434783  0.200000      8.000000
  0.281250  0.434783  0.200000      8.000000
  0.343750  0.434783  0.200000      8.000000
  0.406250  0.434783  0.200000      8.000000
  0.468750  0.434783  0.200000      8.000000
  0.031250  0.478261  0.200000      8.000000
  0.093750  0.478261  0.200000      8.000000
  0.156250  0.478261  0.200000      8.000000
  0.218750  0.478261  0.200000      8.000000
  0.281250  0.478261  0.200000      8.000000
  0.343750  0.478261  0.200000      8.000000
  0.406250  0.478261  0.200000      8.000000
  0.468750  0.478261  0.200000      8.000000
  0.031250  0.000000  0.266667      4.000000
  0.093750  0.000000  0.266667      4.000000
  0.156250  0.000000  0.266667      4.000000
  0.218750  0.000000  0.266667      4.000000
  0.281250  0.000000  0.266667      4.000000
  0.343750  0.000000  0.266667      4.000000
  0.406250  0.000000  0.266667      4.000000
  0.468750  0.000000  0.266667      4.000000
  0.031250  0.043478  0.266667      8.000000
  0.093750  0.043478  0.266667      8.000000
  0.156250  0.043478  0.266667      8.000000
  0.218750  0.043478  0.266667      8.000000
  0.281250  0.043478  0.266667      8.000000
  0.343750  0.043478  0.266667      8.000000
  0.406250  0.043478  0.266667      8.000000
  0.468750  0.043478  0.266667      8.000000
  0.031250  0.086957  0.266667      8.000000
  0.093750  0.086957  0.266667      8.000000
  0.156250  0.086957  0.266667      8.000000
  0.218750  0.086957  0.266667      8.000000
  0.281250  0.086957  0.266667      8.000000
  0.343750  0.086957  0.266667      8.000000
  0.406250  0.086957  0.266667      8.000000
  0.468750  0.086957  0.266667      8.000000
  0.031250  0.130435  0.266667      8.000000
  0.093750  0.130435  0.266667      8.000000
  0.156250  0.130435  0.266667      8.000000
  0.218750  0.130435  0.266667      8.000000
  0.281250  0.130435  0.266667      8.000000
  0.343750  0.130435  0.266667      8.000000
  0.406250  0.130435  0.266667      8.000000
  0.468750  0.130435  0.266667      8.000000
  0.031250  0.173913  0.266667      8.000000
  0.093750  0.173913  0.266667      8.000000
  0.156250  0.173913  0.266667      8.000000
  0.218750  0.173913  0.266667      8.000000
  0.281250  0.173913  0.266667      8.000000
  0.343750  0.173913  0.266667      8.000000
  0.406250  0.173913  0.266667      8.000000
  0.468750  0.173913  0.266667      8.000000
  0.031250  0.217391  0.266667      8.000000
  0.093750  0.217391  0.266667      8.000000
  0.156250  0.217391  0.266667      8.000000
  0.218750  0.217391  0.266667      8.000000
  0.281250  0.217391  0.266667      8.000000
  0.343750  0.217391  0.266667      8.000000
  0.406250  0.217391  0.266667      8.000000
  0.468750  0.217391  0.266667      8.000000
  0.031250  0.260870  0.266667      8.000000
  0.093750  0.260870  0.266667      8.000000
  0.156250  0.260870  0.266667      8.000000
  0.218750  0.260870  0.266667      8.000000
  0.281250  0.260870  0.266667      8.000000
  0.343750  0.260870  0.266667      8.000000
  0.406250  0.260870  0.266667      8.000000
  0.468750  0.260870  0.266667      8.000000
  0.031250  0.304348  0.266667      8.000000
  0.093750  0.304348  0.266667      8.000000
  0.156250  0.304348  0.266667      8.000000
  0.218750  0.304348  0.266667      8.000000
  0.281250  0.304348  0.266667      8.000000
  0.343750  0.304348  0.266667      8.000000
  0.406250  0.304348  0.266667      8.000000
  0.468750  0.304348  0.266667      8.000000
  0.031250  0.347826  0.266667      8.000000
  0.093750  0.347826  0.266667      8.000000
  0.156250  0.347826  0.266667      8.000000
  0.218750  0.347826  0.266667      8.000000
  0.281250  0.347826  0.266667      8.000000
  0.343750  0.347826  0.266667      8.000000
  0.406250  0.347826  0.266667      8.000000
  0.468750  0.347826  0.266667      8.000000
  0.031250  0.391304  0.266667      8.000000
  0.093750  0.391304  0.266667      8.000000
  0.156250  0.391304  0.266667      8.000000
  0.218750  0.391304  0.266667      8.000000
  0.281250  0.391304  0.266667      8.000000
  0.343750  0.391304  0.266667      8.000000
  0.406250  0.391304  0.266667      8.000000
  0.468750  0.391304  0.266667      8.000000
  0.031250  0.434783  0.266667      8.000000
  0.093750  0.434783  0.266667      8.000000
  0.156250  0.434783  0.266667      8.000000
  0.218750  0.434783  0.266667      8.000000
  0.281250  0.434783  0.266667      8.000000
  0.343750  0.434783  0.266667      8.000000
  0.406250  0.434783  0.266667      8.000000
  0.468750  0.434783  0.266667      8.000000
  0.031250  0.478261  0.266667      8.000000
  0.093750  0.478261  0.266667      8.000000
  0.156250  0.478261  0.266667      8.000000
  0.218750  0.478261  0.266667      8.000000
  0.281250  0.478261  0.266667      8.000000
  0.343750  0.478261  0.266667      8.000000
  0.406250  0.478261  0.266667      8.000000
  0.468750  0.478261  0.266667      8.000000
  0.031250  0.000000  0.333333      4.000000
  0.093750  0.000000  0.333333      4.000000
  0.156250  0.000000  0.333333      4.000000
  0.218750  0.000000  0.333333      4.000000
  0.281250  0.000000  0.333333      4.000000
  0.343750  0.000000  0.333333      4.000000
  0.406250  0.000000  0.333333      4.000000
  0.468750  0.000000  0.333333      4.000000
  0.031250  0.043478  0.333333      8.000000
  0.093750  0.043478  0.333333      8.000000
  0.156250  0.043478  0.333333      8.000000
  0.218750  0.043478  0.333333      8.000000
  0.281250  0.043478  0.333333      8.000000
  0.343750  0.043478  0.333333      8.000000
  0.406250  0.043478  0.333333      8.000000
  0.468750  0.043478  0.333333      8.000000
  0.031250  0.086957  0.333333      8.000000
  0.093750  0.086957  0.333333      8.000000
  0.156250  0.086957  0.333333      8.000000
  0.218750  0.086957  0.333333      8.000000
  0.281250  0.086957  0.333333      8.000000
  0.343750  0.086957  0.333333      8.000000
  0.406250  0.086957  0.333333      8.000000
  0.468750  0.086957  0.333333      8.000000
  0.031250  0.130435  0.333333      8.000000
  0.093750  0.130435  0.333333      8.000000
  0.156250  0.130435  0.333333      8.000000
  0.218750  0.130435  0.333333      8.000000
  0.281250  0.130435  0.333333      8.000000
  0.343750  0.130435  0.333333      8.000000
  0.406250  0.130435  0.333333      8.000000
  0.468750  0.130435  0.333333      8.000000
  0.031250  0.173913  0.333333      8.000000
  0.093750  0.173913  0.333333      8.000000
  0.156250  0.173913  0.333333      8.000000
  0.218750  0.173913  0.333333      8.000000
  0.281250  0.173913  0.333333      8.000000
  0.343750  0.173913  0.333333      8.000000
  0.406250  0.173913  0.333333      8.000000
  0.468750  0.173913  0.333333      8.000000
  0.031250  0.217391  0.333333      8.000000
  0.093750  0.217391  0.333333      8.000000
  0.156250  0.217391  0.333333      8.000000
  0.218750  0.217391  0.333333      8.000000
  0.281250  0.217391  0.333333      8.000000
  0.343750  0.217391  0.333333      8.000000
  0.406250  0.217391  0.333333      8.000000
  0.468750  0.217391  0.333333      8.000000
  0.031250  0.260870  0.333333      8.000000
  0.093750  0.260870  0.333333      8.000000
  0.156250  0.260870  0.333333      8.000000
  0.218750  0.260870  0.333333      8.000000
  0.281250  0.260870  0.333333      8.000000
  0.343750  0.260870  0.333333      8.000000
  0.406250  0.260870  0.333333      8.000000
  0.468750  0.260870  0.333333      8.000000
  0.031250  0.304348  0.333333      8.000000
  0.093750  0.304348  0.333333      8.000000
  0.156250  0.304348  0.333333      8.000000
  0.218750  0.304348  0.333333      8.000000
  0.281250  0.304348  0.333333      8.000000
  0.343750  0.304348  0.333333      8.000000
  0.406250  0.304348  0.333333      8.000000
  0.468750  0.304348  0.333333      8.000000
  0.031250  0.347826  0.333333      8.000000
  0.093750  0.347826  0.333333      8.000000
  0.156250  0.347826  0.333333      8.000000
  0.218750  0.347826  0.333333      8.000000
  0.281250  0.347826  0.333333      8.000000
  0.343750  0.347826  0.333333      8.000000
  0.406250  0.347826  0.333333      8.000000
  0.468750  0.347826  0.333333      8.000000
  0.031250  0.391304  0.333333      8.000000
  0.093750  0.391304  0.333333      8.000000
  0.156250  0.391304  0.333333      8.000000
  0.218750  0.391304  0.333333      8.000000
  0.281250  0.391304  0.333333      8.000000
  0.343750  0.391304  0.333333      8.000000
  0.406250  0.391304  0.333333      8.000000
  0.468750  0.391304  0.333333      8.000000
  0.031250  0.434783  0.333333      8.000000
  0.093750  0.434783  0.333333      8.000000
  0.156250  0.434783  0.333333      8.000000
  0.218750  0.434783  0.333333      8.000000
  0.281250  0.434783  0.333333      8.000000
  0.343750  0.434783  0.333333      8.000000
  0.406250  0.434783  0.333333      8.000000
  0.468750  0.434783  0.333333      8.000000
  0.031250  0.478261  0.333333      8.000000
  0.093750  0.478261  0.333333      8.000000
  0.156250  0.478261  0.333333      8.000000
  0.218750  0.478261  0.333333      8.000000
  0.281250  0.478261  0.333333      8.000000
  0.343750  0.478261  0.333333      8.000000
  0.406250  0.478261  0.333333      8.000000
  0.468750  0.478261  0.333333      8.000000
  0.031250  0.000000  0.400000      4.000000
  0.093750  0.000000  0.400000      4.000000
  0.156250  0.000000  0.400000      4.000000
  0.218750  0.000000  0.400000      4.000000
  0.281250  0.000000  0.400000      4.000000
  0.343750  0.000000  0.400000      4.000000
  0.406250  0.000000  0.400000      4.000000
  0.468750  0.000000  0.400000      4.000000
  0.031250  0.043478  0.400000      8.000000
  0.093750  0.043478  0.400000      8.000000
  0.156250  0.043478  0.400000      8.000000
  0.218750  0.043478  0.400000      8.000000
  0.281250  0.043478  0.400000      8.000000
  0.343750  0.043478  0.400000      8.000000
  0.406250  0.043478  0.400000      8.000000
  0.468750  0.043478  0.400000      8.000000
  0.031250  0.086957  0.400000      8.000000
  0.093750  0.086957  0.400000      8.000000
  0.156250  0.086957  0.400000      8.000000
  0.218750  0.086957  0.400000      8.000000
  0.281250  0.086957  0.400000      8.000000
  0.343750  0.086957  0.400000      8.000000
  0.406250  0.086957  0.400000      8.000000
  0.468750  0.086957  0.400000      8.000000
  0.031250  0.130435  0.400000      8.000000
  0.093750  0.130435  0.400000      8.000000
  0.156250  0.130435  0.400000      8.000000
  0.218750  0.130435  0.400000      8.000000
  0.281250  0.130435  0.400000      8.000000
  0.343750  0.130435  0.400000      8.000000
  0.406250  0.130435  0.400000      8.000000
  0.468750  0.130435  0.400000      8.000000
  0.031250  0.173913  0.400000      8.000000
  0.093750  0.173913  0.400000      8.000000
  0.156250  0.173913  0.400000      8.000000
  0.218750  0.173913  0.400000      8.000000
  0.281250  0.173913  0.400000      8.000000
  0.343750  0.173913  0.400000      8.000000
  0.406250  0.173913  0.400000      8.000000
  0.468750  0.173913  0.400000      8.000000
  0.031250  0.217391  0.400000      8.000000
  0.093750  0.217391  0.400000      8.000000
  0.156250  0.217391  0.400000      8.000000
  0.218750  0.217391  0.400000      8.000000
  0.281250  0.217391  0.400000      8.000000
  0.343750  0.217391  0.400000      8.000000
  0.406250  0.217391  0.400000      8.000000
  0.468750  0.217391  0.400000      8.000000
  0.031250  0.260870  0.400000      8.000000
  0.093750  0.260870  0.400000      8.000000
  0.156250  0.260870  0.400000      8.000000
  0.218750  0.260870  0.400000      8.000000
  0.281250  0.260870  0.400000      8.000000
  0.343750  0.260870  0.400000      8.000000
  0.406250  0.260870  0.400000      8.000000
  0.468750  0.260870  0.400000      8.000000
  0.031250  0.304348  0.400000      8.000000
  0.093750  0.304348  0.400000      8.000000
  0.156250  0.304348  0.400000      8.000000
  0.218750  0.304348  0.400000      8.000000
  0.281250  0.304348  0.400000      8.000000
  0.343750  0.304348  0.400000      8.000000
  0.406250  0.304348  0.400000      8.000000
  0.468750  0.304348  0.400000      8.000000
  0.031250  0.347826  0.400000      8.000000
  0.093750  0.347826  0.400000      8.000000
  0.156250  0.347826  0.400000      8.000000
  0.218750  0.347826  0.400000      8.000000
  0.281250  0.347826  0.400000      8.000000
  0.343750  0.347826  0.400000      8.000000
  0.406250  0.347826  0.400000      8.000000
  0.468750  0.347826  0.400000      8.000000
  0.031250  0.391304  0.400000      8.000000
  0.093750  0.391304  0.400000      8.000000
  0.156250  0.391304  0.400000      8.000000
  0.218750  0.391304  0.400000      8.000000
  0.281250  0.391304  0.400000      8.000000
  0.343750  0.391304  0.400000      8.000000
  0.406250  0.391304  0.400000      8.000000
  0.468750  0.391304  0.400000      8.000000
  0.031250  0.434783  0.400000      8.000000
  0.093750  0.434783  0.400000      8.000000
  0.156250  0.434783  0.400000      8.000000
  0.218750  0.434783  0.400000      8.000000
  0.281250  0.434783  0.400000      8.000000
  0.343750  0.434783  0.400000      8.000000
  0.406250  0.434783  0.400000      8.000000
  0.468750  0.434783  0.400000      8.000000
  0.031250  0.478261  0.400000      8.000000
  0.093750  0.478261  0.400000      8.000000
  0.156250  0.478261  0.400000      8.000000
  0.218750  0.478261  0.400000      8.000000
  0.281250  0.478261  0.400000      8.000000
  0.343750  0.478261  0.400000      8.000000
  0.406250  0.478261  0.400000      8.000000
  0.468750  0.478261  0.400000      8.000000
  0.031250  0.000000  0.466667      4.000000
  0.093750  0.000000  0.466667      4.000000
  0.156250  0.000000  0.466667      4.000000
  0.218750  0.000000  0.466667      4.000000
  0.281250  0.000000  0.466667      4.000000
  0.343750  0.000000  0.466667      4.000000
  0.406250  0.000000  0.466667      4.000000
  0.468750  0.000000  0.466667      4.000000
  0.031250  0.043478  0.466667      8.000000
  0.093750  0.043478  0.466667      8.000000
  0.156250  0.043478  0.466667      8.000000
  0.218750  0.043478  0.466667      8.000000
  0.281250  0.043478  0.466667      8.000000
  0.343750  0.043478  0.466667      8.000000
  0.406250  0.043478  0.466667      8.000000
  0.468750  0.043478  0.466667      8.000000
  0.031250  0.086957  0.466667      8.000000
  0.093750  0.086957  0.466667      8.000000
  0.156250  0.086957  0.466667      8.000000
  0.218750  0.086957  0.466667      8.000000
  0.281250  0.086957  0.466667      8.000000
  0.343750  0.086957  0.466667      8.000000
  0.406250  0.086957  0.466667      8.000000
  0.468750  0.086957  0.466667      8.000000
  0.031250  0.130435  0.466667      8.000000
  0.093750  0.130435  0.466667      8.000000
  0.156250  0.130435  0.466667      8.000000
  0.218750  0.130435  0.466667      8.000000
  0.281250  0.130435  0.466667      8.000000
  0.343750  0.130435  0.466667      8.000000
  0.406250  0.130435  0.466667      8.000000
  0.468750  0.130435  0.466667      8.000000
  0.031250  0.173913  0.466667      8.000000
  0.093750  0.173913  0.466667      8.000000
  0.156250  0.173913  0.466667      8.000000
  0.218750  0.173913  0.466667      8.000000
  0.281250  0.173913  0.466667      8.000000
  0.343750  0.173913  0.466667      8.000000
  0.406250  0.173913  0.466667      8.000000
  0.468750  0.173913  0.466667      8.000000
  0.031250  0.217391  0.466667      8.000000
  0.093750  0.217391  0.466667      8.000000
  0.156250  0.217391  0.466667      8.000000
  0.218750  0.217391  0.466667      8.000000
  0.281250  0.217391  0.466667      8.000000
  0.343750  0.217391  0.466667      8.000000
  0.406250  0.217391  0.466667      8.000000
  0.468750  0.217391  0.466667      8.000000
  0.031250  0.260870  0.466667      8.000000
  0.093750  0.260870  0.466667      8.000000
  0.156250  0.260870  0.466667      8.000000
  0.218750  0.260870  0.466667      8.000000
  0.281250  0.260870  0.466667      8.000000
  0.343750  0.260870  0.466667      8.000000
  0.406250  0.260870  0.466667      8.000000
  0.468750  0.260870  0.466667      8.000000
  0.031250  0.304348  0.466667      8.000000
  0.093750  0.304348  0.466667      8.000000
  0.156250  0.304348  0.466667      8.000000
  0.218750  0.304348  0.466667      8.000000
  0.281250  0.304348  0.466667      8.000000
  0.343750  0.304348  0.466667      8.000000
  0.406250  0.304348  0.466667      8.000000
  0.468750  0.304348  0.466667      8.000000
  0.031250  0.347826  0.466667      8.000000
  0.093750  0.347826  0.466667      8.000000
  0.156250  0.347826  0.466667      8.000000
  0.218750  0.347826  0.466667      8.000000
  0.281250  0.347826  0.466667      8.000000
  0.343750  0.347826  0.466667      8.000000
  0.406250  0.347826  0.466667      8.000000
  0.468750  0.347826  0.466667      8.000000
  0.031250  0.391304  0.466667      8.000000
  0.093750  0.391304  0.466667      8.000000
  0.156250  0.391304  0.466667      8.000000
  0.218750  0.391304  0.466667      8.000000
  0.281250  0.391304  0.466667      8.000000
  0.343750  0.391304  0.466667      8.000000
  0.406250  0.391304  0.466667      8.000000
  0.468750  0.391304  0.466667      8.000000
  0.031250  0.434783  0.466667      8.000000
  0.093750  0.434783  0.466667      8.000000
  0.156250  0.434783  0.466667      8.000000
  0.218750  0.434783  0.466667      8.000000
  0.281250  0.434783  0.466667      8.000000
  0.343750  0.434783  0.466667      8.000000
  0.406250  0.434783  0.466667      8.000000
  0.468750  0.434783  0.466667      8.000000
  0.031250  0.478261  0.466667      8.000000
  0.093750  0.478261  0.466667      8.000000
  0.156250  0.478261  0.466667      8.000000
  0.218750  0.478261  0.466667      8.000000
  0.281250  0.478261  0.466667      8.000000
  0.343750  0.478261  0.466667      8.000000
  0.406250  0.478261  0.466667      8.000000
  0.468750  0.478261  0.466667      8.000000
 
 Following cartesian coordinates:
            Coordinates               Weight
  0.005482  0.000000  0.000000      2.000000
  0.016445  0.000000  0.000000      2.000000
  0.027408  0.000000  0.000000      2.000000
  0.038371  0.000000  0.000000      2.000000
  0.049334  0.000000  0.000000      2.000000
  0.060297  0.000000  0.000000      2.000000
  0.071260  0.000000  0.000000      2.000000
  0.082223  0.000000  0.000000      2.000000
  0.005482  0.010751  0.000000      4.000000
  0.016445  0.010751  0.000000      4.000000
  0.027408  0.010751  0.000000      4.000000
  0.038371  0.010751  0.000000      4.000000
  0.049334  0.010751  0.000000      4.000000
  0.060297  0.010751  0.000000      4.000000
  0.071260  0.010751  0.000000      4.000000
  0.082223  0.010751  0.000000      4.000000
  0.005482  0.021502  0.000000      4.000000
  0.016445  0.021502  0.000000      4.000000
  0.027408  0.021502  0.000000      4.000000
  0.038371  0.021502  0.000000      4.000000
  0.049334  0.021502  0.000000      4.000000
  0.060297  0.021502  0.000000      4.000000
  0.071260  0.021502  0.000000      4.000000
  0.082223  0.021502  0.000000      4.000000
  0.005482  0.032253  0.000000      4.000000
  0.016445  0.032253  0.000000      4.000000
  0.027408  0.032253  0.000000      4.000000
  0.038371  0.032253  0.000000      4.000000
  0.049334  0.032253  0.000000      4.000000
  0.060297  0.032253  0.000000      4.000000
  0.071260  0.032253  0.000000      4.000000
  0.082223  0.032253  0.000000      4.000000
  0.005482  0.043005  0.000000      4.000000
  0.016445  0.043005  0.000000      4.000000
  0.027408  0.043005  0.000000      4.000000
  0.038371  0.043005  0.000000      4.000000
  0.049334  0.043005  0.000000      4.000000
  0.060297  0.043005  0.000000      4.000000
  0.071260  0.043005  0.000000      4.000000
  0.082223  0.043005  0.000000      4.000000
  0.005482  0.053756  0.000000      4.000000
  0.016445  0.053756  0.000000      4.000000
  0.027408  0.053756  0.000000      4.000000
  0.038371  0.053756  0.000000      4.000000
  0.049334  0.053756  0.000000      4.000000
  0.060297  0.053756  0.000000      4.000000
  0.071260  0.053756  0.000000      4.000000
  0.082223  0.053756  0.000000      4.000000
  0.005482  0.064507  0.000000      4.000000
  0.016445  0.064507  0.000000      4.000000
  0.027408  0.064507  0.000000      4.000000
  0.038371  0.064507  0.000000      4.000000
  0.049334  0.064507  0.000000      4.000000
  0.060297  0.064507  0.000000      4.000000
  0.071260  0.064507  0.000000      4.000000
  0.082223  0.064507  0.000000      4.000000
  0.005482  0.075258  0.000000      4.000000
  0.016445  0.075258  0.000000      4.000000
  0.027408  0.075258  0.000000      4.000000
  0.038371  0.075258  0.000000      4.000000
  0.049334  0.075258  0.000000      4.000000
  0.060297  0.075258  0.000000      4.000000
  0.071260  0.075258  0.000000      4.000000
  0.082223  0.075258  0.000000      4.000000
  0.005482  0.086009  0.000000      4.000000
  0.016445  0.086009  0.000000      4.000000
  0.027408  0.086009  0.000000      4.000000
  0.038371  0.086009  0.000000      4.000000
  0.049334  0.086009  0.000000      4.000000
  0.060297  0.086009  0.000000      4.000000
  0.071260  0.086009  0.000000      4.000000
  0.082223  0.086009  0.000000      4.000000
  0.005482  0.096760  0.000000      4.000000
  0.016445  0.096760  0.000000      4.000000
  0.027408  0.096760  0.000000      4.000000
  0.038371  0.096760  0.000000      4.000000
  0.049334  0.096760  0.000000      4.000000
  0.060297  0.096760  0.000000      4.000000
  0.071260  0.096760  0.000000      4.000000
  0.082223  0.096760  0.000000      4.000000
  0.005482  0.107511  0.000000      4.000000
  0.016445  0.107511  0.000000      4.000000
  0.027408  0.107511  0.000000      4.000000
  0.038371  0.107511  0.000000      4.000000
  0.049334  0.107511  0.000000      4.000000
  0.060297  0.107511  0.000000      4.000000
  0.071260  0.107511  0.000000      4.000000
  0.082223  0.107511  0.000000      4.000000
  0.005482  0.118263  0.000000      4.000000
  0.016445  0.118263  0.000000      4.000000
  0.027408  0.118263  0.000000      4.000000
  0.038371  0.118263  0.000000      4.000000
  0.049334  0.118263  0.000000      4.000000
  0.060297  0.118263  0.000000      4.000000
  0.071260  0.118263  0.000000      4.000000
  0.082223  0.118263  0.000000      4.000000
  0.005482  0.000000  0.010749      4.000000
  0.016445  0.000000  0.010749      4.000000
  0.027408  0.000000  0.010749      4.000000
  0.038371  0.000000  0.010749      4.000000
  0.049334  0.000000  0.010749      4.000000
  0.060297  0.000000  0.010749      4.000000
  0.071260  0.000000  0.010749      4.000000
  0.082223  0.000000  0.010749      4.000000
  0.005482  0.010751  0.010749      8.000000
  0.016445  0.010751  0.010749      8.000000
  0.027408  0.010751  0.010749      8.000000
  0.038371  0.010751  0.010749      8.000000
  0.049334  0.010751  0.010749      8.000000
  0.060297  0.010751  0.010749      8.000000
  0.071260  0.010751  0.010749      8.000000
  0.082223  0.010751  0.010749      8.000000
  0.005482  0.021502  0.010749      8.000000
  0.016445  0.021502  0.010749      8.000000
  0.027408  0.021502  0.010749      8.000000
  0.038371  0.021502  0.010749      8.000000
  0.049334  0.021502  0.010749      8.000000
  0.060297  0.021502  0.010749      8.000000
  0.071260  0.021502  0.010749      8.000000
  0.082223  0.021502  0.010749      8.000000
  0.005482  0.032253  0.010749      8.000000
  0.016445  0.032253  0.010749      8.000000
  0.027408  0.032253  0.010749      8.000000
  0.038371  0.032253  0.010749      8.000000
  0.049334  0.032253  0.010749      8.000000
  0.060297  0.032253  0.010749      8.000000
  0.071260  0.032253  0.010749      8.000000
  0.082223  0.032253  0.010749      8.000000
  0.005482  0.043005  0.010749      8.000000
  0.016445  0.043005  0.010749      8.000000
  0.027408  0.043005  0.010749      8.000000
  0.038371  0.043005  0.010749      8.000000
  0.049334  0.043005  0.010749      8.000000
  0.060297  0.043005  0.010749      8.000000
  0.071260  0.043005  0.010749      8.000000
  0.082223  0.043005  0.010749      8.000000
  0.005482  0.053756  0.010749      8.000000
  0.016445  0.053756  0.010749      8.000000
  0.027408  0.053756  0.010749      8.000000
  0.038371  0.053756  0.010749      8.000000
  0.049334  0.053756  0.010749      8.000000
  0.060297  0.053756  0.010749      8.000000
  0.071260  0.053756  0.010749      8.000000
  0.082223  0.053756  0.010749      8.000000
  0.005482  0.064507  0.010749      8.000000
  0.016445  0.064507  0.010749      8.000000
  0.027408  0.064507  0.010749      8.000000
  0.038371  0.064507  0.010749      8.000000
  0.049334  0.064507  0.010749      8.000000
  0.060297  0.064507  0.010749      8.000000
  0.071260  0.064507  0.010749      8.000000
  0.082223  0.064507  0.010749      8.000000
  0.005482  0.075258  0.010749      8.000000
  0.016445  0.075258  0.010749      8.000000
  0.027408  0.075258  0.010749      8.000000
  0.038371  0.075258  0.010749      8.000000
  0.049334  0.075258  0.010749      8.000000
  0.060297  0.075258  0.010749      8.000000
  0.071260  0.075258  0.010749      8.000000
  0.082223  0.075258  0.010749      8.000000
  0.005482  0.086009  0.010749      8.000000
  0.016445  0.086009  0.010749      8.000000
  0.027408  0.086009  0.010749      8.000000
  0.038371  0.086009  0.010749      8.000000
  0.049334  0.086009  0.010749      8.000000
  0.060297  0.086009  0.010749      8.000000
  0.071260  0.086009  0.010749      8.000000
  0.082223  0.086009  0.010749      8.000000
  0.005482  0.096760  0.010749      8.000000
  0.016445  0.096760  0.010749      8.000000
  0.027408  0.096760  0.010749      8.000000
  0.038371  0.096760  0.010749      8.000000
  0.049334  0.096760  0.010749      8.000000
  0.060297  0.096760  0.010749      8.000000
  0.071260  0.096760  0.010749      8.000000
  0.082223  0.096760  0.010749      8.000000
  0.005482  0.107511  0.010749      8.000000
  0.016445  0.107511  0.010749      8.000000
  0.027408  0.107511  0.010749      8.000000
  0.038371  0.107511  0.010749      8.000000
  0.049334  0.107511  0.010749      8.000000
  0.060297  0.107511  0.010749      8.000000
  0.071260  0.107511  0.010749      8.000000
  0.082223  0.107511  0.010749      8.000000
  0.005482  0.118263  0.010749      8.000000
  0.016445  0.118263  0.010749      8.000000
  0.027408  0.118263  0.010749      8.000000
  0.038371  0.118263  0.010749      8.000000
  0.049334  0.118263  0.010749      8.000000
  0.060297  0.118263  0.010749      8.000000
  0.071260  0.118263  0.010749      8.000000
  0.082223  0.118263  0.010749      8.000000
  0.005482  0.000000  0.021499      4.000000
  0.016445  0.000000  0.021499      4.000000
  0.027408  0.000000  0.021499      4.000000
  0.038371  0.000000  0.021499      4.000000
  0.049334  0.000000  0.021499      4.000000
  0.060297  0.000000  0.021499      4.000000
  0.071260  0.000000  0.021499      4.000000
  0.082223  0.000000  0.021499      4.000000
  0.005482  0.010751  0.021499      8.000000
  0.016445  0.010751  0.021499      8.000000
  0.027408  0.010751  0.021499      8.000000
  0.038371  0.010751  0.021499      8.000000
  0.049334  0.010751  0.021499      8.000000
  0.060297  0.010751  0.021499      8.000000
  0.071260  0.010751  0.021499      8.000000
  0.082223  0.010751  0.021499      8.000000
  0.005482  0.021502  0.021499      8.000000
  0.016445  0.021502  0.021499      8.000000
  0.027408  0.021502  0.021499      8.000000
  0.038371  0.021502  0.021499      8.000000
  0.049334  0.021502  0.021499      8.000000
  0.060297  0.021502  0.021499      8.000000
  0.071260  0.021502  0.021499      8.000000
  0.082223  0.021502  0.021499      8.000000
  0.005482  0.032253  0.021499      8.000000
  0.016445  0.032253  0.021499      8.000000
  0.027408  0.032253  0.021499      8.000000
  0.038371  0.032253  0.021499      8.000000
  0.049334  0.032253  0.021499      8.000000
  0.060297  0.032253  0.021499      8.000000
  0.071260  0.032253  0.021499      8.000000
  0.082223  0.032253  0.021499      8.000000
  0.005482  0.043005  0.021499      8.000000
  0.016445  0.043005  0.021499      8.000000
  0.027408  0.043005  0.021499      8.000000
  0.038371  0.043005  0.021499      8.000000
  0.049334  0.043005  0.021499      8.000000
  0.060297  0.043005  0.021499      8.000000
  0.071260  0.043005  0.021499      8.000000
  0.082223  0.043005  0.021499      8.000000
  0.005482  0.053756  0.021499      8.000000
  0.016445  0.053756  0.021499      8.000000
  0.027408  0.053756  0.021499      8.000000
  0.038371  0.053756  0.021499      8.000000
  0.049334  0.053756  0.021499      8.000000
  0.060297  0.053756  0.021499      8.000000
  0.071260  0.053756  0.021499      8.000000
  0.082223  0.053756  0.021499      8.000000
  0.005482  0.064507  0.021499      8.000000
  0.016445  0.064507  0.021499      8.000000
  0.027408  0.064507  0.021499      8.000000
  0.038371  0.064507  0.021499      8.000000
  0.049334  0.064507  0.021499      8.000000
  0.060297  0.064507  0.021499      8.000000
  0.071260  0.064507  0.021499      8.000000
  0.082223  0.064507  0.021499      8.000000
  0.005482  0.075258  0.021499      8.000000
  0.016445  0.075258  0.021499      8.000000
  0.027408  0.075258  0.021499      8.000000
  0.038371  0.075258  0.021499      8.000000
  0.049334  0.075258  0.021499      8.000000
  0.060297  0.075258  0.021499      8.000000
  0.071260  0.075258  0.021499      8.000000
  0.082223  0.075258  0.021499      8.000000
  0.005482  0.086009  0.021499      8.000000
  0.016445  0.086009  0.021499      8.000000
  0.027408  0.086009  0.021499      8.000000
  0.038371  0.086009  0.021499      8.000000
  0.049334  0.086009  0.021499      8.000000
  0.060297  0.086009  0.021499      8.000000
  0.071260  0.086009  0.021499      8.000000
  0.082223  0.086009  0.021499      8.000000
  0.005482  0.096760  0.021499      8.000000
  0.016445  0.096760  0.021499      8.000000
  0.027408  0.096760  0.021499      8.000000
  0.038371  0.096760  0.021499      8.000000
  0.049334  0.096760  0.021499      8.000000
  0.060297  0.096760  0.021499      8.000000
  0.071260  0.096760  0.021499      8.000000
  0.082223  0.096760  0.021499      8.000000
  0.005482  0.107511  0.021499      8.000000
  0.016445  0.107511  0.021499      8.000000
  0.027408  0.107511  0.021499      8.000000
  0.038371  0.107511  0.021499      8.000000
  0.049334  0.107511  0.021499      8.000000
  0.060297  0.107511  0.021499      8.000000
  0.071260  0.107511  0.021499      8.000000
  0.082223  0.107511  0.021499      8.000000
  0.005482  0.118263  0.021499      8.000000
  0.016445  0.118263  0.021499      8.000000
  0.027408  0.118263  0.021499      8.000000
  0.038371  0.118263  0.021499      8.000000
  0.049334  0.118263  0.021499      8.000000
  0.060297  0.118263  0.021499      8.000000
  0.071260  0.118263  0.021499      8.000000
  0.082223  0.118263  0.021499      8.000000
  0.005482  0.000000  0.032248      4.000000
  0.016445  0.000000  0.032248      4.000000
  0.027408  0.000000  0.032248      4.000000
  0.038371  0.000000  0.032248      4.000000
  0.049334  0.000000  0.032248      4.000000
  0.060297  0.000000  0.032248      4.000000
  0.071260  0.000000  0.032248      4.000000
  0.082223  0.000000  0.032248      4.000000
  0.005482  0.010751  0.032248      8.000000
  0.016445  0.010751  0.032248      8.000000
  0.027408  0.010751  0.032248      8.000000
  0.038371  0.010751  0.032248      8.000000
  0.049334  0.010751  0.032248      8.000000
  0.060297  0.010751  0.032248      8.000000
  0.071260  0.010751  0.032248      8.000000
  0.082223  0.010751  0.032248      8.000000
  0.005482  0.021502  0.032248      8.000000
  0.016445  0.021502  0.032248      8.000000
  0.027408  0.021502  0.032248      8.000000
  0.038371  0.021502  0.032248      8.000000
  0.049334  0.021502  0.032248      8.000000
  0.060297  0.021502  0.032248      8.000000
  0.071260  0.021502  0.032248      8.000000
  0.082223  0.021502  0.032248      8.000000
  0.005482  0.032253  0.032248      8.000000
  0.016445  0.032253  0.032248      8.000000
  0.027408  0.032253  0.032248      8.000000
  0.038371  0.032253  0.032248      8.000000
  0.049334  0.032253  0.032248      8.000000
  0.060297  0.032253  0.032248      8.000000
  0.071260  0.032253  0.032248      8.000000
  0.082223  0.032253  0.032248      8.000000
  0.005482  0.043005  0.032248      8.000000
  0.016445  0.043005  0.032248      8.000000
  0.027408  0.043005  0.032248      8.000000
  0.038371  0.043005  0.032248      8.000000
  0.049334  0.043005  0.032248      8.000000
  0.060297  0.043005  0.032248      8.000000
  0.071260  0.043005  0.032248      8.000000
  0.082223  0.043005  0.032248      8.000000
  0.005482  0.053756  0.032248      8.000000
  0.016445  0.053756  0.032248      8.000000
  0.027408  0.053756  0.032248      8.000000
  0.038371  0.053756  0.032248      8.000000
  0.049334  0.053756  0.032248      8.000000
  0.060297  0.053756  0.032248      8.000000
  0.071260  0.053756  0.032248      8.000000
  0.082223  0.053756  0.032248      8.000000
  0.005482  0.064507  0.032248      8.000000
  0.016445  0.064507  0.032248      8.000000
  0.027408  0.064507  0.032248      8.000000
  0.038371  0.064507  0.032248      8.000000
  0.049334  0.064507  0.032248      8.000000
  0.060297  0.064507  0.032248      8.000000
  0.071260  0.064507  0.032248      8.000000
  0.082223  0.064507  0.032248      8.000000
  0.005482  0.075258  0.032248      8.000000
  0.016445  0.075258  0.032248      8.000000
  0.027408  0.075258  0.032248      8.000000
  0.038371  0.075258  0.032248      8.000000
  0.049334  0.075258  0.032248      8.000000
  0.060297  0.075258  0.032248      8.000000
  0.071260  0.075258  0.032248      8.000000
  0.082223  0.075258  0.032248      8.000000
  0.005482  0.086009  0.032248      8.000000
  0.016445  0.086009  0.032248      8.000000
  0.027408  0.086009  0.032248      8.000000
  0.038371  0.086009  0.032248      8.000000
  0.049334  0.086009  0.032248      8.000000
  0.060297  0.086009  0.032248      8.000000
  0.071260  0.086009  0.032248      8.000000
  0.082223  0.086009  0.032248      8.000000
  0.005482  0.096760  0.032248      8.000000
  0.016445  0.096760  0.032248      8.000000
  0.027408  0.096760  0.032248      8.000000
  0.038371  0.096760  0.032248      8.000000
  0.049334  0.096760  0.032248      8.000000
  0.060297  0.096760  0.032248      8.000000
  0.071260  0.096760  0.032248      8.000000
  0.082223  0.096760  0.032248      8.000000
  0.005482  0.107511  0.032248      8.000000
  0.016445  0.107511  0.032248      8.000000
  0.027408  0.107511  0.032248      8.000000
  0.038371  0.107511  0.032248      8.000000
  0.049334  0.107511  0.032248      8.000000
  0.060297  0.107511  0.032248      8.000000
  0.071260  0.107511  0.032248      8.000000
  0.082223  0.107511  0.032248      8.000000
  0.005482  0.118263  0.032248      8.000000
  0.016445  0.118263  0.032248      8.000000
  0.027408  0.118263  0.032248      8.000000
  0.038371  0.118263  0.032248      8.000000
  0.049334  0.118263  0.032248      8.000000
  0.060297  0.118263  0.032248      8.000000
  0.071260  0.118263  0.032248      8.000000
  0.082223  0.118263  0.032248      8.000000
  0.005482  0.000000  0.042998      4.000000
  0.016445  0.000000  0.042998      4.000000
  0.027408  0.000000  0.042998      4.000000
  0.038371  0.000000  0.042998      4.000000
  0.049334  0.000000  0.042998      4.000000
  0.060297  0.000000  0.042998      4.000000
  0.071260  0.000000  0.042998      4.000000
  0.082223  0.000000  0.042998      4.000000
  0.005482  0.010751  0.042998      8.000000
  0.016445  0.010751  0.042998      8.000000
  0.027408  0.010751  0.042998      8.000000
  0.038371  0.010751  0.042998      8.000000
  0.049334  0.010751  0.042998      8.000000
  0.060297  0.010751  0.042998      8.000000
  0.071260  0.010751  0.042998      8.000000
  0.082223  0.010751  0.042998      8.000000
  0.005482  0.021502  0.042998      8.000000
  0.016445  0.021502  0.042998      8.000000
  0.027408  0.021502  0.042998      8.000000
  0.038371  0.021502  0.042998      8.000000
  0.049334  0.021502  0.042998      8.000000
  0.060297  0.021502  0.042998      8.000000
  0.071260  0.021502  0.042998      8.000000
  0.082223  0.021502  0.042998      8.000000
  0.005482  0.032253  0.042998      8.000000
  0.016445  0.032253  0.042998      8.000000
  0.027408  0.032253  0.042998      8.000000
  0.038371  0.032253  0.042998      8.000000
  0.049334  0.032253  0.042998      8.000000
  0.060297  0.032253  0.042998      8.000000
  0.071260  0.032253  0.042998      8.000000
  0.082223  0.032253  0.042998      8.000000
  0.005482  0.043005  0.042998      8.000000
  0.016445  0.043005  0.042998      8.000000
  0.027408  0.043005  0.042998      8.000000
  0.038371  0.043005  0.042998      8.000000
  0.049334  0.043005  0.042998      8.000000
  0.060297  0.043005  0.042998      8.000000
  0.071260  0.043005  0.042998      8.000000
  0.082223  0.043005  0.042998      8.000000
  0.005482  0.053756  0.042998      8.000000
  0.016445  0.053756  0.042998      8.000000
  0.027408  0.053756  0.042998      8.000000
  0.038371  0.053756  0.042998      8.000000
  0.049334  0.053756  0.042998      8.000000
  0.060297  0.053756  0.042998      8.000000
  0.071260  0.053756  0.042998      8.000000
  0.082223  0.053756  0.042998      8.000000
  0.005482  0.064507  0.042998      8.000000
  0.016445  0.064507  0.042998      8.000000
  0.027408  0.064507  0.042998      8.000000
  0.038371  0.064507  0.042998      8.000000
  0.049334  0.064507  0.042998      8.000000
  0.060297  0.064507  0.042998      8.000000
  0.071260  0.064507  0.042998      8.000000
  0.082223  0.064507  0.042998      8.000000
  0.005482  0.075258  0.042998      8.000000
  0.016445  0.075258  0.042998      8.000000
  0.027408  0.075258  0.042998      8.000000
  0.038371  0.075258  0.042998      8.000000
  0.049334  0.075258  0.042998      8.000000
  0.060297  0.075258  0.042998      8.000000
  0.071260  0.075258  0.042998      8.000000
  0.082223  0.075258  0.042998      8.000000
  0.005482  0.086009  0.042998      8.000000
  0.016445  0.086009  0.042998      8.000000
  0.027408  0.086009  0.042998      8.000000
  0.038371  0.086009  0.042998      8.000000
  0.049334  0.086009  0.042998      8.000000
  0.060297  0.086009  0.042998      8.000000
  0.071260  0.086009  0.042998      8.000000
  0.082223  0.086009  0.042998      8.000000
  0.005482  0.096760  0.042998      8.000000
  0.016445  0.096760  0.042998      8.000000
  0.027408  0.096760  0.042998      8.000000
  0.038371  0.096760  0.042998      8.000000
  0.049334  0.096760  0.042998      8.000000
  0.060297  0.096760  0.042998      8.000000
  0.071260  0.096760  0.042998      8.000000
  0.082223  0.096760  0.042998      8.000000
  0.005482  0.107511  0.042998      8.000000
  0.016445  0.107511  0.042998      8.000000
  0.027408  0.107511  0.042998      8.000000
  0.038371  0.107511  0.042998      8.000000
  0.049334  0.107511  0.042998      8.000000
  0.060297  0.107511  0.042998      8.000000
  0.071260  0.107511  0.042998      8.000000
  0.082223  0.107511  0.042998      8.000000
  0.005482  0.118263  0.042998      8.000000
  0.016445  0.118263  0.042998      8.000000
  0.027408  0.118263  0.042998      8.000000
  0.038371  0.118263  0.042998      8.000000
  0.049334  0.118263  0.042998      8.000000
  0.060297  0.118263  0.042998      8.000000
  0.071260  0.118263  0.042998      8.000000
  0.082223  0.118263  0.042998      8.000000
  0.005482  0.000000  0.053747      4.000000
  0.016445  0.000000  0.053747      4.000000
  0.027408  0.000000  0.053747      4.000000
  0.038371  0.000000  0.053747      4.000000
  0.049334  0.000000  0.053747      4.000000
  0.060297  0.000000  0.053747      4.000000
  0.071260  0.000000  0.053747      4.000000
  0.082223  0.000000  0.053747      4.000000
  0.005482  0.010751  0.053747      8.000000
  0.016445  0.010751  0.053747      8.000000
  0.027408  0.010751  0.053747      8.000000
  0.038371  0.010751  0.053747      8.000000
  0.049334  0.010751  0.053747      8.000000
  0.060297  0.010751  0.053747      8.000000
  0.071260  0.010751  0.053747      8.000000
  0.082223  0.010751  0.053747      8.000000
  0.005482  0.021502  0.053747      8.000000
  0.016445  0.021502  0.053747      8.000000
  0.027408  0.021502  0.053747      8.000000
  0.038371  0.021502  0.053747      8.000000
  0.049334  0.021502  0.053747      8.000000
  0.060297  0.021502  0.053747      8.000000
  0.071260  0.021502  0.053747      8.000000
  0.082223  0.021502  0.053747      8.000000
  0.005482  0.032253  0.053747      8.000000
  0.016445  0.032253  0.053747      8.000000
  0.027408  0.032253  0.053747      8.000000
  0.038371  0.032253  0.053747      8.000000
  0.049334  0.032253  0.053747      8.000000
  0.060297  0.032253  0.053747      8.000000
  0.071260  0.032253  0.053747      8.000000
  0.082223  0.032253  0.053747      8.000000
  0.005482  0.043005  0.053747      8.000000
  0.016445  0.043005  0.053747      8.000000
  0.027408  0.043005  0.053747      8.000000
  0.038371  0.043005  0.053747      8.000000
  0.049334  0.043005  0.053747      8.000000
  0.060297  0.043005  0.053747      8.000000
  0.071260  0.043005  0.053747      8.000000
  0.082223  0.043005  0.053747      8.000000
  0.005482  0.053756  0.053747      8.000000
  0.016445  0.053756  0.053747      8.000000
  0.027408  0.053756  0.053747      8.000000
  0.038371  0.053756  0.053747      8.000000
  0.049334  0.053756  0.053747      8.000000
  0.060297  0.053756  0.053747      8.000000
  0.071260  0.053756  0.053747      8.000000
  0.082223  0.053756  0.053747      8.000000
  0.005482  0.064507  0.053747      8.000000
  0.016445  0.064507  0.053747      8.000000
  0.027408  0.064507  0.053747      8.000000
  0.038371  0.064507  0.053747      8.000000
  0.049334  0.064507  0.053747      8.000000
  0.060297  0.064507  0.053747      8.000000
  0.071260  0.064507  0.053747      8.000000
  0.082223  0.064507  0.053747      8.000000
  0.005482  0.075258  0.053747      8.000000
  0.016445  0.075258  0.053747      8.000000
  0.027408  0.075258  0.053747      8.000000
  0.038371  0.075258  0.053747      8.000000
  0.049334  0.075258  0.053747      8.000000
  0.060297  0.075258  0.053747      8.000000
  0.071260  0.075258  0.053747      8.000000
  0.082223  0.075258  0.053747      8.000000
  0.005482  0.086009  0.053747      8.000000
  0.016445  0.086009  0.053747      8.000000
  0.027408  0.086009  0.053747      8.000000
  0.038371  0.086009  0.053747      8.000000
  0.049334  0.086009  0.053747      8.000000
  0.060297  0.086009  0.053747      8.000000
  0.071260  0.086009  0.053747      8.000000
  0.082223  0.086009  0.053747      8.000000
  0.005482  0.096760  0.053747      8.000000
  0.016445  0.096760  0.053747      8.000000
  0.027408  0.096760  0.053747      8.000000
  0.038371  0.096760  0.053747      8.000000
  0.049334  0.096760  0.053747      8.000000
  0.060297  0.096760  0.053747      8.000000
  0.071260  0.096760  0.053747      8.000000
  0.082223  0.096760  0.053747      8.000000
  0.005482  0.107511  0.053747      8.000000
  0.016445  0.107511  0.053747      8.000000
  0.027408  0.107511  0.053747      8.000000
  0.038371  0.107511  0.053747      8.000000
  0.049334  0.107511  0.053747      8.000000
  0.060297  0.107511  0.053747      8.000000
  0.071260  0.107511  0.053747      8.000000
  0.082223  0.107511  0.053747      8.000000
  0.005482  0.118263  0.053747      8.000000
  0.016445  0.118263  0.053747      8.000000
  0.027408  0.118263  0.053747      8.000000
  0.038371  0.118263  0.053747      8.000000
  0.049334  0.118263  0.053747      8.000000
  0.060297  0.118263  0.053747      8.000000
  0.071260  0.118263  0.053747      8.000000
  0.082223  0.118263  0.053747      8.000000
  0.005482  0.000000  0.064497      4.000000
  0.016445  0.000000  0.064497      4.000000
  0.027408  0.000000  0.064497      4.000000
  0.038371  0.000000  0.064497      4.000000
  0.049334  0.000000  0.064497      4.000000
  0.060297  0.000000  0.064497      4.000000
  0.071260  0.000000  0.064497      4.000000
  0.082223  0.000000  0.064497      4.000000
  0.005482  0.010751  0.064497      8.000000
  0.016445  0.010751  0.064497      8.000000
  0.027408  0.010751  0.064497      8.000000
  0.038371  0.010751  0.064497      8.000000
  0.049334  0.010751  0.064497      8.000000
  0.060297  0.010751  0.064497      8.000000
  0.071260  0.010751  0.064497      8.000000
  0.082223  0.010751  0.064497      8.000000
  0.005482  0.021502  0.064497      8.000000
  0.016445  0.021502  0.064497      8.000000
  0.027408  0.021502  0.064497      8.000000
  0.038371  0.021502  0.064497      8.000000
  0.049334  0.021502  0.064497      8.000000
  0.060297  0.021502  0.064497      8.000000
  0.071260  0.021502  0.064497      8.000000
  0.082223  0.021502  0.064497      8.000000
  0.005482  0.032253  0.064497      8.000000
  0.016445  0.032253  0.064497      8.000000
  0.027408  0.032253  0.064497      8.000000
  0.038371  0.032253  0.064497      8.000000
  0.049334  0.032253  0.064497      8.000000
  0.060297  0.032253  0.064497      8.000000
  0.071260  0.032253  0.064497      8.000000
  0.082223  0.032253  0.064497      8.000000
  0.005482  0.043005  0.064497      8.000000
  0.016445  0.043005  0.064497      8.000000
  0.027408  0.043005  0.064497      8.000000
  0.038371  0.043005  0.064497      8.000000
  0.049334  0.043005  0.064497      8.000000
  0.060297  0.043005  0.064497      8.000000
  0.071260  0.043005  0.064497      8.000000
  0.082223  0.043005  0.064497      8.000000
  0.005482  0.053756  0.064497      8.000000
  0.016445  0.053756  0.064497      8.000000
  0.027408  0.053756  0.064497      8.000000
  0.038371  0.053756  0.064497      8.000000
  0.049334  0.053756  0.064497      8.000000
  0.060297  0.053756  0.064497      8.000000
  0.071260  0.053756  0.064497      8.000000
  0.082223  0.053756  0.064497      8.000000
  0.005482  0.064507  0.064497      8.000000
  0.016445  0.064507  0.064497      8.000000
  0.027408  0.064507  0.064497      8.000000
  0.038371  0.064507  0.064497      8.000000
  0.049334  0.064507  0.064497      8.000000
  0.060297  0.064507  0.064497      8.000000
  0.071260  0.064507  0.064497      8.000000
  0.082223  0.064507  0.064497      8.000000
  0.005482  0.075258  0.064497      8.000000
  0.016445  0.075258  0.064497      8.000000
  0.027408  0.075258  0.064497      8.000000
  0.038371  0.075258  0.064497      8.000000
  0.049334  0.075258  0.064497      8.000000
  0.060297  0.075258  0.064497      8.000000
  0.071260  0.075258  0.064497      8.000000
  0.082223  0.075258  0.064497      8.000000
  0.005482  0.086009  0.064497      8.000000
  0.016445  0.086009  0.064497      8.000000
  0.027408  0.086009  0.064497      8.000000
  0.038371  0.086009  0.064497      8.000000
  0.049334  0.086009  0.064497      8.000000
  0.060297  0.086009  0.064497      8.000000
  0.071260  0.086009  0.064497      8.000000
  0.082223  0.086009  0.064497      8.000000
  0.005482  0.096760  0.064497      8.000000
  0.016445  0.096760  0.064497      8.000000
  0.027408  0.096760  0.064497      8.000000
  0.038371  0.096760  0.064497      8.000000
  0.049334  0.096760  0.064497      8.000000
  0.060297  0.096760  0.064497      8.000000
  0.071260  0.096760  0.064497      8.000000
  0.082223  0.096760  0.064497      8.000000
  0.005482  0.107511  0.064497      8.000000
  0.016445  0.107511  0.064497      8.000000
  0.027408  0.107511  0.064497      8.000000
  0.038371  0.107511  0.064497      8.000000
  0.049334  0.107511  0.064497      8.000000
  0.060297  0.107511  0.064497      8.000000
  0.071260  0.107511  0.064497      8.000000
  0.082223  0.107511  0.064497      8.000000
  0.005482  0.118263  0.064497      8.000000
  0.016445  0.118263  0.064497      8.000000
  0.027408  0.118263  0.064497      8.000000
  0.038371  0.118263  0.064497      8.000000
  0.049334  0.118263  0.064497      8.000000
  0.060297  0.118263  0.064497      8.000000
  0.071260  0.118263  0.064497      8.000000
  0.082223  0.118263  0.064497      8.000000
  0.005482  0.000000  0.075246      4.000000
  0.016445  0.000000  0.075246      4.000000
  0.027408  0.000000  0.075246      4.000000
  0.038371  0.000000  0.075246      4.000000
  0.049334  0.000000  0.075246      4.000000
  0.060297  0.000000  0.075246      4.000000
  0.071260  0.000000  0.075246      4.000000
  0.082223  0.000000  0.075246      4.000000
  0.005482  0.010751  0.075246      8.000000
  0.016445  0.010751  0.075246      8.000000
  0.027408  0.010751  0.075246      8.000000
  0.038371  0.010751  0.075246      8.000000
  0.049334  0.010751  0.075246      8.000000
  0.060297  0.010751  0.075246      8.000000
  0.071260  0.010751  0.075246      8.000000
  0.082223  0.010751  0.075246      8.000000
  0.005482  0.021502  0.075246      8.000000
  0.016445  0.021502  0.075246      8.000000
  0.027408  0.021502  0.075246      8.000000
  0.038371  0.021502  0.075246      8.000000
  0.049334  0.021502  0.075246      8.000000
  0.060297  0.021502  0.075246      8.000000
  0.071260  0.021502  0.075246      8.000000
  0.082223  0.021502  0.075246      8.000000
  0.005482  0.032253  0.075246      8.000000
  0.016445  0.032253  0.075246      8.000000
  0.027408  0.032253  0.075246      8.000000
  0.038371  0.032253  0.075246      8.000000
  0.049334  0.032253  0.075246      8.000000
  0.060297  0.032253  0.075246      8.000000
  0.071260  0.032253  0.075246      8.000000
  0.082223  0.032253  0.075246      8.000000
  0.005482  0.043005  0.075246      8.000000
  0.016445  0.043005  0.075246      8.000000
  0.027408  0.043005  0.075246      8.000000
  0.038371  0.043005  0.075246      8.000000
  0.049334  0.043005  0.075246      8.000000
  0.060297  0.043005  0.075246      8.000000
  0.071260  0.043005  0.075246      8.000000
  0.082223  0.043005  0.075246      8.000000
  0.005482  0.053756  0.075246      8.000000
  0.016445  0.053756  0.075246      8.000000
  0.027408  0.053756  0.075246      8.000000
  0.038371  0.053756  0.075246      8.000000
  0.049334  0.053756  0.075246      8.000000
  0.060297  0.053756  0.075246      8.000000
  0.071260  0.053756  0.075246      8.000000
  0.082223  0.053756  0.075246      8.000000
  0.005482  0.064507  0.075246      8.000000
  0.016445  0.064507  0.075246      8.000000
  0.027408  0.064507  0.075246      8.000000
  0.038371  0.064507  0.075246      8.000000
  0.049334  0.064507  0.075246      8.000000
  0.060297  0.064507  0.075246      8.000000
  0.071260  0.064507  0.075246      8.000000
  0.082223  0.064507  0.075246      8.000000
  0.005482  0.075258  0.075246      8.000000
  0.016445  0.075258  0.075246      8.000000
  0.027408  0.075258  0.075246      8.000000
  0.038371  0.075258  0.075246      8.000000
  0.049334  0.075258  0.075246      8.000000
  0.060297  0.075258  0.075246      8.000000
  0.071260  0.075258  0.075246      8.000000
  0.082223  0.075258  0.075246      8.000000
  0.005482  0.086009  0.075246      8.000000
  0.016445  0.086009  0.075246      8.000000
  0.027408  0.086009  0.075246      8.000000
  0.038371  0.086009  0.075246      8.000000
  0.049334  0.086009  0.075246      8.000000
  0.060297  0.086009  0.075246      8.000000
  0.071260  0.086009  0.075246      8.000000
  0.082223  0.086009  0.075246      8.000000
  0.005482  0.096760  0.075246      8.000000
  0.016445  0.096760  0.075246      8.000000
  0.027408  0.096760  0.075246      8.000000
  0.038371  0.096760  0.075246      8.000000
  0.049334  0.096760  0.075246      8.000000
[...]
     38      12.1225      0.00000
     39      12.4098      0.00000
     40      12.5223      0.00000
     41      13.0028      0.00000
     42      13.0799      0.00000
     43      13.4352      0.00000
     44      13.5848      0.00000
     45      14.3710      0.00000
     46      14.8199      0.00000
     47      15.3995      0.00000
     48      15.5618      0.00000

 k-point   764 :       0.2188    0.4783    0.4667
  band No.  band energies     occupation 
      1     -12.2387      2.00000
      2     -11.5444      2.00000
      3      -8.5440      2.00000
      4      -7.9920      2.00000
      5      -6.1466      2.00000
      6      -6.0594      2.00000
      7      -5.6444      2.00000
      8      -5.2031      2.00000
      9      -3.6481      2.00000
     10      -2.6836      2.00000
     11      -2.5262      2.00000
     12      -1.9226      2.00000
     13      -1.6801      2.00000
     14      -1.4320      2.00000
     15      -1.1200      2.00000
     16      -0.5700      2.00000
     17      -0.1776      2.00000
     18       0.0147      2.00000
     19       0.3170      2.00000
     20       1.7823      1.95507
     21       2.0828      0.02474
     22       2.6988      0.00000
     23       5.0015      0.00000
     24       6.3279      0.00000
     25       6.7266      0.00000
     26       6.7653      0.00000
     27       7.9329      0.00000
     28       8.4237      0.00000
     29       8.6688      0.00000
     30       9.0801      0.00000
     31       9.5215      0.00000
     32      10.0911      0.00000
     33      10.7961      0.00000
     34      11.1415      0.00000
     35      11.3453      0.00000
     36      11.4579      0.00000
     37      11.8450      0.00000
     38      12.2553      0.00000
     39      12.4277      0.00000
     40      12.6057      0.00000
     41      13.2101      0.00000
     42      13.3667      0.00000
     43      13.7009      0.00000
     44      13.7866      0.00000
     45      14.2550      0.00000
     46      14.6299      0.00000
     47      15.3890      0.00000
     48      15.4697      0.00000

 k-point   765 :       0.2812    0.4783    0.4667
  band No.  band energies     occupation 
      1     -12.1810      2.00000
      2     -11.6091      2.00000
      3      -8.5727      2.00000
      4      -8.1034      2.00000
      5      -6.0926      2.00000
      6      -5.7521      2.00000
      7      -5.6737      2.00000
      8      -5.0742      2.00000
      9      -3.8475      2.00000
     10      -3.0230      2.00000
     11      -2.4357      2.00000
     12      -2.0516      2.00000
     13      -1.8396      2.00000
     14      -1.3332      2.00000
     15      -1.0616      2.00000
     16      -0.3857      2.00000
     17       0.0274      2.00000
     18       0.2033      2.00000
     19       0.3660      2.00000
     20       1.7402      1.99067
     21       2.0062      0.24550
     22       2.1581      0.00093
     23       5.2318      0.00000
     24       6.2376      0.00000
     25       6.6453      0.00000
     26       7.0796      0.00000
     27       7.9908      0.00000
     28       8.6038      0.00000
     29       8.7496      0.00000
     30       8.8348      0.00000
     31       9.6444      0.00000
     32       9.8702      0.00000
     33      10.7293      0.00000
     34      11.0187      0.00000
     35      11.3181      0.00000
     36      11.4505      0.00000
     37      11.7390      0.00000
     38      12.0856      0.00000
     39      12.6566      0.00000
     40      12.8266      0.00000
     41      13.5085      0.00000
     42      13.6308      0.00000
     43      13.7611      0.00000
     44      13.9544      0.00000
     45      14.0720      0.00000
     46      14.8259      0.00000
     47      15.3090      0.00000
     48      15.4416      0.00000

 k-point   766 :       0.3438    0.4783    0.4667
  band No.  band energies     occupation 
      1     -12.1118      2.00000
      2     -11.6855      2.00000
      3      -8.5758      2.00000
      4      -8.2180      2.00000
      5      -6.0301      2.00000
      6      -5.7167      2.00000
      7      -5.4098      2.00000
      8      -4.9229      2.00000
      9      -4.0542      2.00000
     10      -3.3970      2.00000
     11      -2.3104      2.00000
     12      -2.1427      2.00000
     13      -1.9778      2.00000
     14      -1.4501      2.00000
     15      -0.7923      2.00000
     16      -0.2029      2.00000
     17       0.2122      2.00000
     18       0.3601      2.00000
     19       0.4137      2.00000
     20       1.6314      1.99996
     21       1.7022      1.99829
     22       1.9177      1.07138
     23       5.4862      0.00000
     24       6.1556      0.00000
     25       6.6141      0.00000
     26       7.3180      0.00000
     27       7.8597      0.00000
     28       8.2751      0.00000
     29       8.9839      0.00000
     30       9.1256      0.00000
     31       9.6641      0.00000
     32       9.8160      0.00000
     33      10.5831      0.00000
     34      11.0131      0.00000
     35      11.2191      0.00000
     36      11.4723      0.00000
     37      11.6487      0.00000
     38      11.9032      0.00000
     39      12.8391      0.00000
     40      13.1550      0.00000
     41      13.4156      0.00000
     42      13.8357      0.00000
     43      13.9051      0.00000
     44      14.1352      0.00000
     45      14.3253      0.00000
     46      14.9574      0.00000
     47      15.0798      0.00000
     48      15.4181      0.00000

 k-point   767 :       0.4063    0.4783    0.4667
  band No.  band energies     occupation 
      1     -12.0331      2.00000
      2     -11.7700      2.00000
      3      -8.5508      2.00000
      4      -8.3267      2.00000
      5      -5.9626      2.00000
      6      -5.7676      2.00000
      7      -5.0575      2.00000
      8      -4.7450      2.00000
      9      -4.2616      2.00000
     10      -3.7819      2.00000
     11      -2.1959      2.00000
     12      -2.1589      2.00000
     13      -2.0874      2.00000
     14      -1.6271      2.00000
     15      -0.4553      2.00000
     16      -0.0538      2.00000
     17       0.3637      2.00000
     18       0.4473      2.00000
     19       0.4665      2.00000
     20       1.1391      2.00000
     21       1.6824      1.99937
     22       1.8267      1.83149
     23       5.7177      0.00000
     24       6.0759      0.00000
     25       6.7062      0.00000
     26       7.4616      0.00000
     27       7.7244      0.00000
     28       7.8090      0.00000
     29       9.2423      0.00000
     30       9.4939      0.00000
     31       9.6864      0.00000
     32       9.8280      0.00000
     33      10.4326      0.00000
     34      10.9945      0.00000
     35      11.1030      0.00000
     36      11.5038      0.00000
     37      11.5847      0.00000
     38      11.7124      0.00000
     39      13.0156      0.00000
     40      13.2406      0.00000
     41      13.5036      0.00000
     42      14.0313      0.00000
     43      14.1889      0.00000
     44      14.3724      0.00000
     45      14.4319      0.00000
     46      14.8067      0.00000
     47      14.9866      0.00000
     48      15.1843      0.00000

 k-point   768 :       0.4687    0.4783    0.4667
  band No.  band energies     occupation 
      1     -11.9477      2.00000
      2     -11.8588      2.00000
      3      -8.4986      2.00000
      4      -8.4223      2.00000
      5      -5.8938      2.00000
      6      -5.8276      2.00000
      7      -4.7357      2.00000
      8      -4.5433      2.00000
      9      -4.4387      2.00000
     10      -4.1597      2.00000
     11      -2.1992      2.00000
     12      -2.1627      2.00000
     13      -1.9950      2.00000
     14      -1.8143      2.00000
     15      -0.1363      2.00000
     16       0.0069      2.00000
     17       0.4663      2.00000
     18       0.5014      2.00000
     19       0.5065      2.00000
     20       0.7263      2.00000
     21       1.6957      1.99876
     22       1.7472      1.98763
     23       5.8819      0.00000
     24       5.9902      0.00000
     25       6.9611      0.00000
     26       7.3478      0.00000
     27       7.5486      0.00000
     28       7.6274      0.00000
     29       9.4630      0.00000
     30       9.6015      0.00000
     31       9.7871      0.00000
     32       9.8659      0.00000
     33      10.4314      0.00000
     34      10.6930      0.00000
     35      11.2586      0.00000
     36      11.4632      0.00000
     37      11.5361      0.00000
     38      11.5739      0.00000
     39      13.1428      0.00000
     40      13.1963      0.00000
     41      13.8656      0.00000
     42      14.1520      0.00000
     43      14.2379      0.00000
     44      14.2826      0.00000
     45      14.6924      0.00000
     46      14.7186      0.00000
     47      14.8279      0.00000
     48      14.9439      0.00000


--------------------------------------------------------------------------------------------------------


 soft charge-density along one line, spin component           1
         0         1         2         3         4         5         6         7         8         9
 total charge-density along one line
 
 pseudopotential strength for first ion, spin component:           1
  6.445   9.813  -0.000  -0.009   0.005  -0.000  -0.014   0.008
  9.813  14.936  -0.000  -0.013   0.008  -0.000  -0.021   0.011
 -0.000  -0.000  -2.174  -0.000  -0.000  -3.694  -0.000  -0.000
 -0.009  -0.013  -0.000  -2.178  -0.001  -0.000  -3.704  -0.002
  0.005   0.008  -0.000  -0.001  -2.177  -0.000  -0.002  -3.702
 -0.000  -0.000  -3.694  -0.000  -0.000  -6.079  -0.000  -0.000
 -0.014  -0.021  -0.000  -3.704  -0.002  -0.000  -6.101  -0.004
  0.008   0.011  -0.000  -0.002  -3.702  -0.000  -0.004  -6.096
 total augmentation occupancy for first ion, spin component:           1
  2.000   0.000   0.000   0.000   0.000   0.000   0.000   0.000
  0.000   0.000   0.000   0.000   0.000   0.000   0.000   0.000
  0.000   0.000   0.333   0.000   0.000   0.000   0.000   0.000
  0.000   0.000   0.000   0.333   0.000   0.000   0.000   0.000
  0.000   0.000   0.000   0.000   0.333   0.000   0.000   0.000
  0.000   0.000   0.000   0.000   0.000   0.000   0.000   0.000
  0.000   0.000   0.000   0.000   0.000   0.000   0.000   0.000
  0.000   0.000   0.000   0.000   0.000   0.000   0.000   0.000


------------------------ aborting loop because EDIFF is reached ----------------------------------------





 total charge

# of ion       s       p       d       tot
------------------------------------------
    1        0.709   1.368   0.000   2.077
    2        0.709   1.368   0.000   2.077
    3        0.709   1.368   0.000   2.077
    4        0.709   1.368   0.000   2.077
    5        0.716   1.299   0.000   2.015
    6        0.716   1.299   0.000   2.015
    7        0.716   1.299   0.000   2.015
    8        0.716   1.299   0.000   2.015
    9        0.702   1.231   0.000   1.932
   10        0.702   1.231   0.000   1.932
   11        0.702   1.231   0.000   1.932
   12        0.702   1.231   0.000   1.932
   13        0.716   1.378   0.000   2.093
   14        0.716   1.378   0.000   2.093
--------------------------------------------------
tot          9.936  18.348   0.000  28.284
 
    CHARGE:  cpu time      0.3601: real time      0.3620
    FORLOC:  cpu time      0.0013: real time      0.0013
    FORNL :  cpu time      3.5818: real time      3.5969
    STRESS:  cpu time     16.6498: real time     16.7132
    FORCOR:  cpu time      0.0109: real time      0.0109
    FORHAR:  cpu time      0.0033: real time      0.0033
    OFIELD:  cpu time      0.0000: real time      0.0000

  FORCE on cell =-STRESS in cart. coord.  units (eV):
  Direction    XX          YY          ZZ          XY          YZ          ZX
  --------------------------------------------------------------------------------------
  Alpha Z    94.30281    94.30281    94.30281
  Ewald     -93.12989  -561.95728  -143.70902    -0.00000    -0.00000     0.00000
  Hartree   186.45811     4.66130   155.57408    -0.00000    -0.00000    -0.00000
  E(xc)    -134.85194  -135.83769  -134.82415     0.00000    -0.00000     0.00000
  Local    -490.78731   130.59950  -408.31255     0.00000    -0.00000    -0.00000
  n-local    -8.81068   -11.01908    -9.31492    -0.00337    -0.00404     0.06689
  augment     1.34885     1.39104     1.36922     0.00000     0.00000    -0.00000
  Kinetic   445.47101   477.78846   445.03402     0.22823     0.04800    -1.11385
  Fock        0.00000     0.00000     0.00000     0.00000     0.00000     0.00000
  -------------------------------------------------------------------------------------
  Total       0.00096    -0.07095     0.11948     0.00000     0.00000    -0.00000
  in kB       0.01072    -0.79499     1.33881     0.00000     0.00000    -0.00000
  external pressure =        0.18 kB  Pullay stress =        0.00 kB


 VOLUME and BASIS-vectors are now :
 -----------------------------------------------------------------------------
  energy-cutoff  :      600.00
  volume of cell :      142.98
      direct lattice vectors                 reciprocal lattice vectors
     5.700970695  0.000000000  0.000000000     0.175408725  0.000000000  0.000000000
     0.000000000  4.044058096  0.000000000     0.000000000  0.247276368  0.000000000
     0.000000000  0.000000000  6.201871195     0.000000000  0.000000000  0.161241659

  length of vectors
     5.700970695  4.044058096  6.201871195     0.175408725  0.247276368  0.161241659


 FORCES acting on ions
    electron-ion (+dipol)            ewald-force                    non-local-force                 convergence-correction
 -----------------------------------------------------------------------------------------------
   0.493E+02 0.853E-12 -.247E+02   -.511E+02 0.185E-14 0.280E+02   0.183E+01 0.371E-18 -.333E+01   -.173E-01 -.157E-12 0.388E-02
   -.493E+02 -.159E-12 0.247E+02   0.511E+02 0.687E-16 -.280E+02   -.183E+01 0.926E-19 0.333E+01   0.173E-01 -.775E-13 -.388E-02
   -.493E+02 0.833E-12 -.247E+02   0.511E+02 -.149E-14 0.280E+02   -.183E+01 0.604E-19 -.333E+01   0.173E-01 0.805E-13 0.388E-02
   0.493E+02 0.837E-13 0.247E+02   -.511E+02 -.171E-14 -.280E+02   0.183E+01 -.157E-18 0.333E+01   -.173E-01 -.918E-13 -.388E-02
   0.291E+02 -.322E-12 -.508E+02   -.315E+02 0.387E-14 0.550E+02   0.247E+01 0.229E-19 -.423E+01   -.116E-01 -.272E-12 0.107E-01
   -.291E+02 0.391E-12 0.508E+02   0.315E+02 0.345E-14 -.550E+02   -.247E+01 -.151E-21 0.423E+01   0.116E-01 -.229E-12 -.107E-01
   -.291E+02 -.133E-11 -.508E+02   0.315E+02 0.431E-14 0.550E+02   -.247E+01 -.224E-19 -.423E+01   0.116E-01 -.176E-12 0.107E-01
   0.291E+02 0.402E-13 0.508E+02   -.315E+02 0.344E-14 -.550E+02   0.247E+01 0.552E-20 0.423E+01   -.116E-01 -.258E-12 -.107E-01
   0.309E-13 -.551E+02 -.161E+02   0.938E-14 0.606E+02 0.172E+02   -.201E-17 -.543E+01 -.111E+01   0.241E-13 -.232E-01 0.321E-02
   0.110E-13 0.551E+02 0.161E+02   0.312E-14 -.606E+02 -.172E+02   0.123E-17 0.543E+01 0.111E+01   0.221E-12 0.232E-01 -.321E-02
   0.305E-13 0.551E+02 -.161E+02   0.561E-14 -.606E+02 0.172E+02   0.853E-18 0.543E+01 -.111E+01   -.162E-12 0.232E-01 0.321E-02
   0.114E-13 -.551E+02 0.161E+02   -.935E-15 0.606E+02 -.172E+02   -.220E-18 -.543E+01 0.111E+01   0.260E-12 -.232E-01 -.321E-02
   0.771E-15 0.379E-12 -.622E+02   -.559E-13 0.564E-16 0.647E+02   -.104E-18 0.186E-19 -.258E+01   0.326E-12 -.445E-13 0.205E-01
   0.554E-14 -.107E-12 0.622E+02   -.571E-13 -.472E-15 -.647E+02   0.440E-19 0.351E-18 0.258E+01   -.537E-12 0.142E-14 -.205E-01
 -----------------------------------------------------------------------------------------------
   -.127E-11 0.668E-12 0.273E-10   -.389E-13 -.415E-15 -.142E-13   0.444E-15 -.888E-15 -.888E-15   0.678E-12 -.108E-11 0.211E-11
 
 
 POSITION                                       TOTAL-FORCE (eV/Angst)
 -----------------------------------------------------------------------------------
      2.97186      2.02203      3.95653         0.008853     -0.000000     -0.002633
      2.72911      2.02203      2.24534        -0.008853      0.000000      0.002633
      5.57960      2.02203      3.95653        -0.008853      0.000000     -0.002633
      0.12137      2.02203      2.24534         0.008853     -0.000000      0.002633
      3.40604      2.02203      5.58087         0.007273     -0.000000      0.003641
      2.29493      2.02203      0.62100        -0.007273     -0.000000     -0.003641
      5.14541      2.02203      5.58087        -0.007273     -0.000000      0.003641
      0.55556      2.02203      0.62100         0.007273     -0.000000     -0.003641
      4.27573      3.20113      4.52476         0.000000      0.008904      0.000654
      1.42524      0.84292      1.67711         0.000000     -0.008904     -0.000654
      4.27573      0.84292      4.52476         0.000000     -0.008904      0.000654
      1.42524      3.20113      1.67711         0.000000      0.008904     -0.000654
      1.42524      2.02203      3.24974         0.000000     -0.000000     -0.015491
      4.27573      2.02203      2.95213         0.000000      0.000000      0.015491
 -----------------------------------------------------------------------------------
    total drift:                               -0.000000     -0.000000      0.000000


--------------------------------------------------------------------------------------------------------



  FREE ENERGIE OF THE ION-ELECTRON SYSTEM (eV)
  ---------------------------------------------------
  free  energy   TOTEN  =       -90.63990080 eV

  energy  without entropy=      -90.62614010  energy(sigma->0) =      -90.63302045
 


--------------------------------------------------------------------------------------------------------


    POTLOK:  cpu time      0.0128: real time      0.0129


--------------------------------------------------------------------------------------------------------


     LOOP+:  cpu time    231.9685: real time    233.6186
    4ORBIT:  cpu time      0.0000: real time      0.0000



 total charge

# of ion       s       p       d       tot
------------------------------------------
    1        0.709   1.368   0.000   2.077
    2        0.709   1.368   0.000   2.077
    3        0.709   1.368   0.000   2.077
    4        0.709   1.368   0.000   2.077
    5        0.716   1.299   0.000   2.015
    6        0.716   1.299   0.000   2.015
    7        0.716   1.299   0.000   2.015
    8        0.716   1.299   0.000   2.015
    9        0.702   1.231   0.000   1.932
   10        0.702   1.231   0.000   1.932
   11        0.702   1.231   0.000   1.932
   12        0.702   1.231   0.000   1.932
   13        0.716   1.378   0.000   2.093
   14        0.716   1.378   0.000   2.093
--------------------------------------------------
tot          9.936  18.348   0.000  28.284
 

 total amount of memory used by VASP MPI-rank0   395276. kBytes
=======================================================================

   base      :      30000. kBytes
   nonl-proj :     238189. kBytes
   fftplans  :       1200. kBytes
   grid      :       4341. kBytes
   one-center:         43. kBytes
   wavefun   :     121503. kBytes
 
  
  
 General timing and accounting informations for this job:
 ========================================================
  
                  Total CPU time used (sec):      249.257
                            User time (sec):      245.603
                          System time (sec):        3.654
                         Elapsed time (sec):      252.927
  
                   Maximum memory used (kb):      858596.
                   Average memory used (kb):          N/A
  
                          Minor page faults:      1005513
                          Major page faults:          844
                 Voluntary context switches:         4042
