 running   24 mpi-ranks, with    1 threads/rank, on    1 nodes
 distrk:  each k-point on   24 cores,    1 groups
 distr:  one band on    1 cores,   24 groups
 vasp.6.4.3 19Mar24 (build May 31 2024 16:31:43) complex                        
  
 POSCAR found type information on POSCAR B 
 POSCAR found :  1 types and      14 ions
 Reading from existing POTCAR
 scaLAPACK will be used
 Reading from existing POTCAR
 LDA part: xc-table for (Slater+PW92), standard interpolation
 WARNING: stress and forces are not correct
 POSCAR, INCAR and KPOINTS ok, starting setup
 FFT: planning ... GRIDC
 FFT: planning ... GRID_SOFT
 FFT: planning ... GRID
 WAVECAR not read
 charge-density read from file: SC                                      
 WARNING: random wavefunctions but no delay for mixing, default for NELMDL
 entering main loop
       N       E                     dE             d eps       ncg     rms          rms(c)
DAV:   1     0.728856851233E+02    0.72886E+02   -0.19656E+04 73728   0.861E+02
DAV:   2    -0.852895152148E+02   -0.15818E+03   -0.14698E+03102576   0.159E+02
DAV:   3    -0.906136877191E+02   -0.53242E+01   -0.52947E+01107448   0.258E+01
DAV:   4    -0.906396698017E+02   -0.25982E-01   -0.25981E-01 89856   0.207E+00
DAV:   5    -0.906398980382E+02   -0.22824E-03   -0.22823E-03108024   0.186E-01
DAV:   6    -0.906399007603E+02   -0.27221E-05   -0.27219E-05 86472   0.205E-02
DAV:   7    -0.906399007964E+02   -0.36079E-07   -0.36294E-07106152   0.233E-03
   1 F= -.90639901E+02 E0= -.90633020E+02  d E =-.137607E-01
