  14  14   0   0
  0.1022880E+02  0.5698709E-09  0.4049114E-09  0.6206061E-09  0.5000000E-15
  1.000000000000000E-004
  CAR 
 Convergence                             
     17.95953504    -14.18493920  301      1.87886150      1.00000000
    -14.185  0.0000E+00  0.0000E+00
    -14.078  0.0000E+00  0.0000E+00
    -13.971  0.0000E+00  0.0000E+00
    -13.863  0.0000E+00  0.0000E+00
    -13.756  0.0000E+00  0.0000E+00
    -13.649  0.0000E+00  0.0000E+00
    -13.542  0.0000E+00  0.0000E+00
    -13.435  0.0000E+00  0.0000E+00
    -13.328  0.0000E+00  0.0000E+00
    -13.221  0.0000E+00  0.0000E+00
    -13.113  0.0000E+00  0.0000E+00
    -13.006  0.4605E-16  0.4934E-17
    -12.899  0.3010E-07  0.3225E-08
    -12.792  0.3831E-02  0.4105E-03
    -12.685  0.5089E+00  0.5494E-01
    -12.578  0.2391E+01  0.3112E+00
    -12.471  0.3566E+01  0.6933E+00
    -12.363  0.4373E+01  0.1162E+01
    -12.256  0.3539E+01  0.1541E+01
    -12.149  0.2736E+01  0.1834E+01
    -12.042  0.2752E+01  0.2129E+01
    -11.935  0.2504E+01  0.2397E+01
    -11.828  0.2771E+01  0.2694E+01
    -11.721  0.3424E+01  0.3061E+01
    -11.613  0.3536E+01  0.3440E+01
    -11.506  0.3120E+01  0.3774E+01
    -11.399  0.1674E+01  0.3954E+01
    -11.292  0.4259E+00  0.3999E+01
    -11.185  0.7500E-02  0.4000E+01
    -11.078  0.1890E-06  0.4000E+01
    -10.970  0.1053E-14  0.4000E+01
    -10.863  0.0000E+00  0.4000E+01
    -10.756  0.0000E+00  0.4000E+01
    -10.649  0.0000E+00  0.4000E+01
    -10.542  0.0000E+00  0.4000E+01
    -10.435  0.0000E+00  0.4000E+01
    -10.328  0.0000E+00  0.4000E+01
    -10.220  0.0000E+00  0.4000E+01
    -10.113  0.0000E+00  0.4000E+01
    -10.006  0.0000E+00  0.4000E+01
     -9.899  0.0000E+00  0.4000E+01
     -9.792  0.0000E+00  0.4000E+01
     -9.685  0.0000E+00  0.4000E+01
     -9.578  0.0000E+00  0.4000E+01
     -9.470  0.0000E+00  0.4000E+01
     -9.363  0.0000E+00  0.4000E+01
     -9.256  0.0000E+00  0.4000E+01
     -9.149  0.0000E+00  0.4000E+01
     -9.042  0.9697E-09  0.4000E+01
     -8.935  0.6307E-03  0.4000E+01
     -8.828  0.2774E+00  0.4030E+01
     -8.720  0.2095E+01  0.4254E+01
     -8.613  0.5342E+01  0.4827E+01
     -8.506  0.6994E+01  0.5576E+01
     -8.399  0.6294E+01  0.6251E+01
     -8.292  0.5326E+01  0.6821E+01
     -8.185  0.4838E+01  0.7340E+01
     -8.077  0.3870E+01  0.7754E+01
     -7.970  0.1665E+01  0.7933E+01
     -7.863  0.5767E+00  0.7994E+01
     -7.756  0.5187E-01  0.8000E+01
     -7.649  0.2405E-04  0.8000E+01
     -7.542  0.2728E-11  0.8000E+01
     -7.435  0.0000E+00  0.8000E+01
     -7.327  0.0000E+00  0.8000E+01
     -7.220  0.0000E+00  0.8000E+01
     -7.113  0.4685E-09  0.8000E+01
     -7.006  0.3881E-03  0.8000E+01
     -6.899  0.1122E+00  0.8012E+01
     -6.792  0.2581E+00  0.8040E+01
     -6.685  0.4257E+00  0.8085E+01
     -6.577  0.7662E+00  0.8167E+01
     -6.470  0.8496E+00  0.8258E+01
     -6.363  0.1442E+01  0.8413E+01
     -6.256  0.1957E+01  0.8623E+01
     -6.149  0.3055E+01  0.8950E+01
     -6.042  0.3787E+01  0.9356E+01
     -5.935  0.4116E+01  0.9797E+01
     -5.827  0.4047E+01  0.1023E+02
     -5.720  0.3868E+01  0.1064E+02
     -5.613  0.4073E+01  0.1108E+02
     -5.506  0.4220E+01  0.1153E+02
     -5.399  0.4550E+01  0.1202E+02
     -5.292  0.4605E+01  0.1251E+02
     -5.184  0.4493E+01  0.1300E+02
     -5.077  0.3873E+01  0.1341E+02
     -4.970  0.3226E+01  0.1376E+02
     -4.863  0.2958E+01  0.1407E+02
     -4.756  0.2330E+01  0.1432E+02
     -4.649  0.2896E+01  0.1463E+02
     -4.542  0.3370E+01  0.1499E+02
     -4.434  0.3465E+01  0.1537E+02
     -4.327  0.3340E+01  0.1572E+02
     -4.220  0.2956E+01  0.1604E+02
     -4.113  0.2908E+01  0.1635E+02
     -4.006  0.2942E+01  0.1667E+02
     -3.899  0.2866E+01  0.1697E+02
     -3.792  0.3116E+01  0.1731E+02
     -3.684  0.2880E+01  0.1762E+02
     -3.577  0.2705E+01  0.1791E+02
     -3.470  0.3068E+01  0.1824E+02
     -3.363  0.2643E+01  0.1852E+02
     -3.256  0.2854E+01  0.1882E+02
     -3.149  0.2756E+01  0.1912E+02
     -3.042  0.2733E+01  0.1941E+02
     -2.934  0.3054E+01  0.1974E+02
     -2.827  0.2977E+01  0.2006E+02
     -2.720  0.2434E+01  0.2032E+02
     -2.613  0.2652E+01  0.2060E+02
     -2.506  0.3019E+01  0.2093E+02
     -2.399  0.2990E+01  0.2125E+02
     -2.291  0.3191E+01  0.2159E+02
     -2.184  0.4006E+01  0.2202E+02
     -2.077  0.3657E+01  0.2241E+02
     -1.970  0.3260E+01  0.2276E+02
     -1.863  0.5095E+01  0.2331E+02
     -1.756  0.5565E+01  0.2390E+02
     -1.649  0.5616E+01  0.2450E+02
     -1.541  0.6181E+01  0.2517E+02
     -1.434  0.6120E+01  0.2582E+02
     -1.327  0.5580E+01  0.2642E+02
     -1.220  0.4683E+01  0.2692E+02
     -1.113  0.6498E+01  0.2762E+02
     -1.006  0.4023E+01  0.2805E+02
     -0.899  0.2274E+01  0.2829E+02
     -0.791  0.2700E+01  0.2858E+02
     -0.684  0.2880E+01  0.2889E+02
     -0.577  0.4499E+01  0.2937E+02
     -0.470  0.6854E+01  0.3011E+02
     -0.363  0.5663E+01  0.3071E+02
     -0.256  0.6690E+01  0.3143E+02
     -0.149  0.6364E+01  0.3211E+02
     -0.041  0.6744E+01  0.3284E+02
      0.066  0.6776E+01  0.3356E+02
      0.173  0.6284E+01  0.3423E+02
      0.280  0.8813E+01  0.3518E+02
      0.387  0.8012E+01  0.3604E+02
      0.494  0.8693E+01  0.3697E+02
      0.602  0.5279E+01  0.3753E+02
      0.709  0.2953E+01  0.3785E+02
      0.816  0.3278E+01  0.3820E+02
      0.923  0.3588E+01  0.3859E+02
      1.030  0.3567E+01  0.3897E+02
      1.137  0.2794E+01  0.3927E+02
      1.244  0.3384E+01  0.3963E+02
      1.352  0.4493E+01  0.4011E+02
      1.459  0.3789E+01  0.4052E+02
      1.566  0.3717E+01  0.4092E+02
      1.673  0.4580E+01  0.4141E+02
      1.780  0.3259E+01  0.4176E+02
      1.887  0.2478E+01  0.4202E+02
      1.994  0.2665E+01  0.4231E+02
      2.102  0.2093E+01  0.4253E+02
      2.209  0.2652E+01  0.4282E+02
      2.316  0.2580E+01  0.4309E+02
      2.423  0.1946E+01  0.4330E+02
      2.530  0.8629E+00  0.4339E+02
      2.637  0.3784E+00  0.4343E+02
      2.744  0.5733E+00  0.4350E+02
      2.852  0.4199E+00  0.4354E+02
      2.959  0.3055E+00  0.4357E+02
      3.066  0.7533E+00  0.4365E+02
      3.173  0.1017E+01  0.4376E+02
      3.280  0.5442E+00  0.4382E+02
      3.387  0.1371E-01  0.4382E+02
      3.495  0.1289E+00  0.4384E+02
      3.602  0.3951E+00  0.4388E+02
      3.709  0.3320E+00  0.4391E+02
      3.816  0.3707E+00  0.4395E+02
      3.923  0.4044E+00  0.4400E+02
      4.030  0.2751E-01  0.4400E+02
      4.137  0.2124E-04  0.4400E+02
      4.245  0.2795E-01  0.4400E+02
      4.352  0.1733E+00  0.4402E+02
      4.459  0.3990E+00  0.4406E+02
      4.566  0.4654E+00  0.4411E+02
      4.673  0.6302E+00  0.4418E+02
      4.780  0.8853E+00  0.4428E+02
      4.887  0.8399E+00  0.4437E+02
      4.995  0.8586E+00  0.4446E+02
      5.102  0.1272E+01  0.4459E+02
      5.209  0.1158E+01  0.4472E+02
      5.316  0.1624E+01  0.4489E+02
      5.423  0.2180E+01  0.4513E+02
      5.530  0.2490E+01  0.4539E+02
      5.637  0.2791E+01  0.4569E+02
      5.745  0.3351E+01  0.4605E+02
      5.852  0.3228E+01  0.4640E+02
      5.959  0.4297E+01  0.4686E+02
      6.066  0.4771E+01  0.4737E+02
      6.173  0.4053E+01  0.4780E+02
      6.280  0.4619E+01  0.4830E+02
      6.388  0.4181E+01  0.4875E+02
      6.495  0.4004E+01  0.4918E+02
      6.602  0.4491E+01  0.4966E+02
      6.709  0.3233E+01  0.5000E+02
      6.816  0.3989E+01  0.5043E+02
      6.923  0.4611E+01  0.5092E+02
      7.030  0.4560E+01  0.5141E+02
      7.138  0.4340E+01  0.5188E+02
      7.245  0.5595E+01  0.5248E+02
      7.352  0.4940E+01  0.5301E+02
      7.459  0.4460E+01  0.5348E+02
      7.566  0.4201E+01  0.5393E+02
      7.673  0.3573E+01  0.5432E+02
      7.780  0.3120E+01  0.5465E+02
      7.888  0.3015E+01  0.5497E+02
      7.995  0.2975E+01  0.5529E+02
      8.102  0.4166E+01  0.5574E+02
      8.209  0.3896E+01  0.5616E+02
      8.316  0.3702E+01  0.5655E+02
      8.423  0.3995E+01  0.5698E+02
      8.530  0.4224E+01  0.5744E+02
      8.638  0.4466E+01  0.5791E+02
      8.745  0.4236E+01  0.5837E+02
      8.852  0.5284E+01  0.5893E+02
      8.959  0.4912E+01  0.5946E+02
      9.066  0.5291E+01  0.6003E+02
      9.173  0.5234E+01  0.6059E+02
      9.281  0.4981E+01  0.6112E+02
      9.388  0.4684E+01  0.6162E+02
      9.495  0.4377E+01  0.6209E+02
      9.602  0.5102E+01  0.6264E+02
      9.709  0.5030E+01  0.6318E+02
      9.816  0.5297E+01  0.6375E+02
      9.923  0.4484E+01  0.6423E+02
     10.031  0.3647E+01  0.6462E+02
     10.138  0.5180E+01  0.6517E+02
     10.245  0.4717E+01  0.6568E+02
     10.352  0.4127E+01  0.6612E+02
     10.459  0.5397E+01  0.6670E+02
     10.566  0.5816E+01  0.6732E+02
     10.673  0.4070E+01  0.6776E+02
     10.781  0.3891E+01  0.6817E+02
     10.888  0.3246E+01  0.6852E+02
     10.995  0.4672E+01  0.6902E+02
     11.102  0.5468E+01  0.6961E+02
     11.209  0.6212E+01  0.7027E+02
     11.316  0.5998E+01  0.7092E+02
     11.423  0.5264E+01  0.7148E+02
     11.531  0.4326E+01  0.7194E+02
     11.638  0.4474E+01  0.7242E+02
     11.745  0.4944E+01  0.7295E+02
     11.852  0.4810E+01  0.7347E+02
     11.959  0.6027E+01  0.7411E+02
     12.066  0.5971E+01  0.7475E+02
     12.174  0.6009E+01  0.7540E+02
     12.281  0.5601E+01  0.7600E+02
     12.388  0.5003E+01  0.7653E+02
     12.495  0.5697E+01  0.7714E+02
     12.602  0.5983E+01  0.7779E+02
     12.709  0.6004E+01  0.7843E+02
     12.816  0.5902E+01  0.7906E+02
     12.924  0.5869E+01  0.7969E+02
     13.031  0.5602E+01  0.8029E+02
     13.138  0.6348E+01  0.8097E+02
     13.245  0.6276E+01  0.8164E+02
     13.352  0.5403E+01  0.8222E+02
     13.459  0.6130E+01  0.8288E+02
     13.566  0.5363E+01  0.8345E+02
     13.674  0.4816E+01  0.8397E+02
     13.781  0.6143E+01  0.8463E+02
     13.888  0.5523E+01  0.8522E+02
     13.995  0.5350E+01  0.8579E+02
     14.102  0.5477E+01  0.8638E+02
     14.209  0.4683E+01  0.8688E+02
     14.316  0.4919E+01  0.8741E+02
     14.424  0.5006E+01  0.8794E+02
     14.531  0.4957E+01  0.8848E+02
     14.638  0.5273E+01  0.8904E+02
     14.745  0.5174E+01  0.8960E+02
     14.852  0.4094E+01  0.9003E+02
     14.959  0.5066E+01  0.9058E+02
     15.067  0.6177E+01  0.9124E+02
     15.174  0.5654E+01  0.9184E+02
     15.281  0.5685E+01  0.9245E+02
     15.388  0.6022E+01  0.9310E+02
     15.495  0.5743E+01  0.9371E+02
     15.602  0.5965E+01  0.9435E+02
     15.709  0.4601E+01  0.9485E+02
     15.817  0.2479E+01  0.9511E+02
     15.924  0.2707E+01  0.9540E+02
     16.031  0.1857E+01  0.9560E+02
     16.138  0.1142E+01  0.9572E+02
     16.245  0.8827E+00  0.9582E+02
     16.352  0.7066E+00  0.9589E+02
     16.459  0.8151E+00  0.9598E+02
     16.567  0.1763E+00  0.9600E+02
     16.674  0.1690E-02  0.9600E+02
     16.781  0.2100E-07  0.9600E+02
     16.888  0.3947E-16  0.9600E+02
     16.995  0.0000E+00  0.9600E+02
     17.102  0.0000E+00  0.9600E+02
     17.209  0.0000E+00  0.9600E+02
     17.317  0.0000E+00  0.9600E+02
     17.424  0.0000E+00  0.9600E+02
     17.531  0.0000E+00  0.9600E+02
     17.638  0.0000E+00  0.9600E+02
     17.745  0.0000E+00  0.9600E+02
     17.852  0.0000E+00  0.9600E+02
     17.960  0.0000E+00  0.9600E+02
