  14  14   0   0
  0.1022573E+02  0.5698139E-09  0.4048710E-09  0.6205441E-09  0.5000000E-15
  1.000000000000000E-004
  CAR 
 Convergence                             
     17.96466168    -14.18554322  301      1.88060499      1.00000000
    -14.186  0.0000E+00  0.0000E+00
    -14.078  0.0000E+00  0.0000E+00
    -13.971  0.0000E+00  0.0000E+00
    -13.864  0.0000E+00  0.0000E+00
    -13.757  0.0000E+00  0.0000E+00
    -13.650  0.0000E+00  0.0000E+00
    -13.543  0.0000E+00  0.0000E+00
    -13.435  0.0000E+00  0.0000E+00
    -13.328  0.0000E+00  0.0000E+00
    -13.221  0.0000E+00  0.0000E+00
    -13.114  0.0000E+00  0.0000E+00
    -13.007  0.4604E-16  0.4934E-17
    -12.900  0.2995E-07  0.3210E-08
    -12.792  0.3826E-02  0.4101E-03
    -12.685  0.5088E+00  0.5493E-01
    -12.578  0.2391E+01  0.3112E+00
    -12.471  0.3565E+01  0.6933E+00
    -12.364  0.4372E+01  0.1162E+01
    -12.257  0.3539E+01  0.1541E+01
    -12.149  0.2735E+01  0.1834E+01
    -12.042  0.2752E+01  0.2129E+01
    -11.935  0.2504E+01  0.2398E+01
    -11.828  0.2771E+01  0.2695E+01
    -11.721  0.3425E+01  0.3062E+01
    -11.614  0.3536E+01  0.3440E+01
    -11.506  0.3118E+01  0.3775E+01
    -11.399  0.1672E+01  0.3954E+01
    -11.292  0.4242E+00  0.3999E+01
    -11.185  0.7399E-02  0.4000E+01
    -11.078  0.1831E-06  0.4000E+01
    -10.971  0.9998E-15  0.4000E+01
    -10.863  0.0000E+00  0.4000E+01
    -10.756  0.0000E+00  0.4000E+01
    -10.649  0.0000E+00  0.4000E+01
    -10.542  0.0000E+00  0.4000E+01
    -10.435  0.0000E+00  0.4000E+01
    -10.328  0.0000E+00  0.4000E+01
    -10.220  0.0000E+00  0.4000E+01
    -10.113  0.0000E+00  0.4000E+01
    -10.006  0.0000E+00  0.4000E+01
     -9.899  0.0000E+00  0.4000E+01
     -9.792  0.0000E+00  0.4000E+01
     -9.685  0.0000E+00  0.4000E+01
     -9.577  0.0000E+00  0.4000E+01
     -9.470  0.0000E+00  0.4000E+01
     -9.363  0.0000E+00  0.4000E+01
     -9.256  0.0000E+00  0.4000E+01
     -9.149  0.0000E+00  0.4000E+01
     -9.042  0.9587E-09  0.4000E+01
     -8.934  0.6278E-03  0.4000E+01
     -8.827  0.2769E+00  0.4030E+01
     -8.720  0.2094E+01  0.4254E+01
     -8.613  0.5338E+01  0.4826E+01
     -8.506  0.6992E+01  0.5576E+01
     -8.399  0.6295E+01  0.6250E+01
     -8.291  0.5326E+01  0.6821E+01
     -8.184  0.4837E+01  0.7339E+01
     -8.077  0.3871E+01  0.7754E+01
     -7.970  0.1665E+01  0.7933E+01
     -7.863  0.5767E+00  0.7994E+01
     -7.756  0.5184E-01  0.8000E+01
     -7.648  0.2397E-04  0.8000E+01
     -7.541  0.2704E-11  0.8000E+01
     -7.434  0.0000E+00  0.8000E+01
     -7.327  0.0000E+00  0.8000E+01
     -7.220  0.0000E+00  0.8000E+01
     -7.112  0.4737E-09  0.8000E+01
     -7.005  0.3910E-03  0.8000E+01
     -6.898  0.1125E+00  0.8012E+01
     -6.791  0.2580E+00  0.8040E+01
     -6.684  0.4259E+00  0.8085E+01
     -6.577  0.7662E+00  0.8167E+01
     -6.469  0.8500E+00  0.8259E+01
     -6.362  0.1443E+01  0.8413E+01
     -6.255  0.1959E+01  0.8623E+01
     -6.148  0.3056E+01  0.8951E+01
     -6.041  0.3786E+01  0.9356E+01
     -5.934  0.4116E+01  0.9797E+01
     -5.826  0.4047E+01  0.1023E+02
     -5.719  0.3866E+01  0.1065E+02
     -5.612  0.4073E+01  0.1108E+02
     -5.505  0.4220E+01  0.1153E+02
     -5.398  0.4549E+01  0.1202E+02
     -5.291  0.4603E+01  0.1251E+02
     -5.183  0.4492E+01  0.1300E+02
     -5.076  0.3871E+01  0.1341E+02
     -4.969  0.3227E+01  0.1376E+02
     -4.862  0.2956E+01  0.1407E+02
     -4.755  0.2332E+01  0.1432E+02
     -4.648  0.2896E+01  0.1463E+02
     -4.540  0.3370E+01  0.1500E+02
     -4.433  0.3467E+01  0.1537E+02
     -4.326  0.3337E+01  0.1572E+02
     -4.219  0.2956E+01  0.1604E+02
     -4.112  0.2908E+01  0.1635E+02
     -4.005  0.2943E+01  0.1667E+02
     -3.897  0.2864E+01  0.1698E+02
     -3.790  0.3117E+01  0.1731E+02
     -3.683  0.2879E+01  0.1762E+02
     -3.576  0.2705E+01  0.1791E+02
     -3.469  0.3067E+01  0.1824E+02
     -3.362  0.2641E+01  0.1852E+02
     -3.254  0.2857E+01  0.1883E+02
     -3.147  0.2752E+01  0.1912E+02
     -3.040  0.2735E+01  0.1941E+02
     -2.933  0.3051E+01  0.1974E+02
     -2.826  0.2976E+01  0.2006E+02
     -2.719  0.2433E+01  0.2032E+02
     -2.611  0.2654E+01  0.2060E+02
     -2.504  0.3019E+01  0.2093E+02
     -2.397  0.2988E+01  0.2125E+02
     -2.290  0.3192E+01  0.2159E+02
     -2.183  0.4007E+01  0.2202E+02
     -2.076  0.3657E+01  0.2241E+02
     -1.968  0.3265E+01  0.2276E+02
     -1.861  0.5106E+01  0.2331E+02
     -1.754  0.5569E+01  0.2391E+02
     -1.647  0.5612E+01  0.2451E+02
     -1.540  0.6182E+01  0.2517E+02
     -1.433  0.6117E+01  0.2583E+02
     -1.325  0.5576E+01  0.2642E+02
     -1.218  0.4683E+01  0.2692E+02
     -1.111  0.6498E+01  0.2762E+02
     -1.004  0.4007E+01  0.2805E+02
     -0.897  0.2273E+01  0.2829E+02
     -0.790  0.2700E+01  0.2858E+02
     -0.682  0.2880E+01  0.2889E+02
     -0.575  0.4507E+01  0.2938E+02
     -0.468  0.6857E+01  0.3011E+02
     -0.361  0.5661E+01  0.3072E+02
     -0.254  0.6695E+01  0.3143E+02
     -0.147  0.6362E+01  0.3212E+02
     -0.039  0.6745E+01  0.3284E+02
      0.068  0.6770E+01  0.3356E+02
      0.175  0.6289E+01  0.3424E+02
      0.282  0.8810E+01  0.3518E+02
      0.389  0.8002E+01  0.3604E+02
      0.496  0.8694E+01  0.3697E+02
      0.604  0.5267E+01  0.3754E+02
      0.711  0.2947E+01  0.3785E+02
      0.818  0.3283E+01  0.3820E+02
      0.925  0.3588E+01  0.3859E+02
      1.032  0.3565E+01  0.3897E+02
      1.139  0.2793E+01  0.3927E+02
      1.247  0.3387E+01  0.3963E+02
      1.354  0.4494E+01  0.4011E+02
      1.461  0.3785E+01  0.4052E+02
      1.568  0.3720E+01  0.4092E+02
      1.675  0.4579E+01  0.4141E+02
      1.782  0.3249E+01  0.4176E+02
      1.890  0.2479E+01  0.4202E+02
      1.997  0.2663E+01  0.4231E+02
      2.104  0.2093E+01  0.4253E+02
      2.211  0.2652E+01  0.4282E+02
      2.318  0.2577E+01  0.4309E+02
      2.425  0.1943E+01  0.4330E+02
      2.533  0.8585E+00  0.4339E+02
      2.640  0.3783E+00  0.4343E+02
      2.747  0.5730E+00  0.4350E+02
      2.854  0.4198E+00  0.4354E+02
      2.961  0.3055E+00  0.4357E+02
      3.068  0.7554E+00  0.4365E+02
      3.176  0.1016E+01  0.4376E+02
      3.283  0.5414E+00  0.4382E+02
      3.390  0.1341E-01  0.4382E+02
      3.497  0.1299E+00  0.4384E+02
      3.604  0.3954E+00  0.4388E+02
      3.711  0.3312E+00  0.4391E+02
      3.819  0.3715E+00  0.4395E+02
      3.926  0.4033E+00  0.4400E+02
      4.033  0.2707E-01  0.4400E+02
      4.140  0.2329E-04  0.4400E+02
      4.247  0.2905E-01  0.4400E+02
      4.354  0.1742E+00  0.4402E+02
      4.462  0.4002E+00  0.4406E+02
      4.569  0.4673E+00  0.4411E+02
      4.676  0.6314E+00  0.4418E+02
      4.783  0.8865E+00  0.4428E+02
      4.890  0.8404E+00  0.4437E+02
      4.997  0.8581E+00  0.4446E+02
      5.105  0.1274E+01  0.4460E+02
      5.212  0.1156E+01  0.4472E+02
      5.319  0.1627E+01  0.4489E+02
      5.426  0.2184E+01  0.4513E+02
      5.533  0.2489E+01  0.4540E+02
      5.640  0.2790E+01  0.4569E+02
      5.748  0.3357E+01  0.4605E+02
      5.855  0.3225E+01  0.4640E+02
      5.962  0.4303E+01  0.4686E+02
      6.069  0.4767E+01  0.4737E+02
      6.176  0.4050E+01  0.4781E+02
      6.283  0.4621E+01  0.4830E+02
      6.391  0.4171E+01  0.4875E+02
      6.498  0.4008E+01  0.4918E+02
      6.605  0.4487E+01  0.4966E+02
      6.712  0.3231E+01  0.5000E+02
      6.819  0.3992E+01  0.5043E+02
      6.926  0.4612E+01  0.5093E+02
      7.034  0.4557E+01  0.5141E+02
      7.141  0.4341E+01  0.5188E+02
      7.248  0.5596E+01  0.5248E+02
      7.355  0.4934E+01  0.5301E+02
      7.462  0.4457E+01  0.5349E+02
      7.569  0.4197E+01  0.5394E+02
      7.677  0.3571E+01  0.5432E+02
      7.784  0.3122E+01  0.5465E+02
      7.891  0.3013E+01  0.5498E+02
      7.998  0.2976E+01  0.5530E+02
      8.105  0.4167E+01  0.5574E+02
      8.212  0.3894E+01  0.5616E+02
      8.320  0.3698E+01  0.5656E+02
      8.427  0.3994E+01  0.5698E+02
      8.534  0.4221E+01  0.5744E+02
      8.641  0.4463E+01  0.5791E+02
      8.748  0.4231E+01  0.5837E+02
      8.855  0.5278E+01  0.5893E+02
      8.963  0.4922E+01  0.5946E+02
      9.070  0.5291E+01  0.6003E+02
      9.177  0.5235E+01  0.6059E+02
      9.284  0.4977E+01  0.6112E+02
      9.391  0.4686E+01  0.6162E+02
      9.498  0.4375E+01  0.6209E+02
      9.606  0.5103E+01  0.6264E+02
      9.713  0.5029E+01  0.6318E+02
      9.820  0.5298E+01  0.6375E+02
      9.927  0.4483E+01  0.6423E+02
     10.034  0.3643E+01  0.6462E+02
     10.141  0.5179E+01  0.6517E+02
     10.249  0.4717E+01  0.6568E+02
     10.356  0.4124E+01  0.6612E+02
     10.463  0.5404E+01  0.6670E+02
     10.570  0.5814E+01  0.6732E+02
     10.677  0.4068E+01  0.6776E+02
     10.784  0.3889E+01  0.6817E+02
     10.892  0.3242E+01  0.6852E+02
     10.999  0.4670E+01  0.6902E+02
     11.106  0.5473E+01  0.6961E+02
     11.213  0.6205E+01  0.7027E+02
     11.320  0.5996E+01  0.7092E+02
     11.427  0.5271E+01  0.7148E+02
     11.535  0.4318E+01  0.7194E+02
     11.642  0.4474E+01  0.7242E+02
     11.749  0.4940E+01  0.7295E+02
     11.856  0.4808E+01  0.7347E+02
     11.963  0.6030E+01  0.7411E+02
     12.070  0.5967E+01  0.7475E+02
     12.178  0.6003E+01  0.7540E+02
     12.285  0.5606E+01  0.7600E+02
     12.392  0.5004E+01  0.7653E+02
     12.499  0.5694E+01  0.7714E+02
     12.606  0.5985E+01  0.7779E+02
     12.713  0.6010E+01  0.7843E+02
     12.821  0.5898E+01  0.7906E+02
     12.928  0.5867E+01  0.7969E+02
     13.035  0.5600E+01  0.8029E+02
     13.142  0.6348E+01  0.8097E+02
     13.249  0.6272E+01  0.8164E+02
     13.356  0.5397E+01  0.8222E+02
     13.464  0.6131E+01  0.8288E+02
     13.571  0.5356E+01  0.8345E+02
     13.678  0.4814E+01  0.8397E+02
     13.785  0.6139E+01  0.8463E+02
     13.892  0.5523E+01  0.8522E+02
     13.999  0.5348E+01  0.8579E+02
     14.107  0.5476E+01  0.8638E+02
     14.214  0.4684E+01  0.8688E+02
     14.321  0.4915E+01  0.8741E+02
     14.428  0.5010E+01  0.8794E+02
     14.535  0.4958E+01  0.8848E+02
     14.642  0.5273E+01  0.8904E+02
     14.750  0.5172E+01  0.8960E+02
     14.857  0.4093E+01  0.9003E+02
     14.964  0.5071E+01  0.9058E+02
     15.071  0.6180E+01  0.9124E+02
     15.178  0.5649E+01  0.9185E+02
     15.285  0.5681E+01  0.9245E+02
     15.393  0.6024E+01  0.9310E+02
     15.500  0.5740E+01  0.9371E+02
     15.607  0.5960E+01  0.9435E+02
     15.714  0.4598E+01  0.9485E+02
     15.821  0.2476E+01  0.9511E+02
     15.928  0.2706E+01  0.9540E+02
     16.036  0.1858E+01  0.9560E+02
     16.143  0.1143E+01  0.9572E+02
     16.250  0.8929E+00  0.9582E+02
     16.357  0.6962E+00  0.9589E+02
     16.464  0.8131E+00  0.9598E+02
     16.571  0.1776E+00  0.9600E+02
     16.679  0.1688E-02  0.9600E+02
     16.786  0.2090E-07  0.9600E+02
     16.893  0.3947E-16  0.9600E+02
     17.000  0.0000E+00  0.9600E+02
     17.107  0.0000E+00  0.9600E+02
     17.214  0.0000E+00  0.9600E+02
     17.322  0.0000E+00  0.9600E+02
     17.429  0.0000E+00  0.9600E+02
     17.536  0.0000E+00  0.9600E+02
     17.643  0.0000E+00  0.9600E+02
     17.750  0.0000E+00  0.9600E+02
     17.857  0.0000E+00  0.9600E+02
     17.965  0.0000E+00  0.9600E+02
