 running   24 mpi-ranks, with    1 threads/rank, on    1 nodes
 distrk:  each k-point on   24 cores,    1 groups
 distr:  one band on    1 cores,   24 groups
 vasp.6.4.3 19Mar24 (build May 31 2024 16:31:43) complex                        
  
 POSCAR found type information on POSCAR B 
 POSCAR found :  1 types and      14 ions
 Reading from existing POTCAR
 scaLAPACK will be used
 Reading from existing POTCAR
 LDA part: xc-table for (Slater+PW92), standard interpolation
 POSCAR, INCAR and KPOINTS ok, starting setup
 FFT: planning ... GRIDC
 FFT: planning ... GRID_SOFT
 FFT: planning ... GRID
 WAVECAR not read
 entering main loop
       N       E                     dE             d eps       ncg     rms          rms(c)
DAV:   1     0.105698088894E+03    0.10570E+03   -0.22499E+04120960   0.102E+03
DAV:   2    -0.905293382539E+02   -0.19623E+03   -0.18304E+03164136   0.184E+02
DAV:   3    -0.976041446950E+02   -0.70748E+01   -0.70245E+01179232   0.309E+01
DAV:   4    -0.976464999559E+02   -0.42355E-01   -0.42353E-01139800   0.277E+00
DAV:   5    -0.976469549097E+02   -0.45495E-03   -0.45494E-03179304   0.273E-01    0.123E+01
DAV:   6    -0.922327818089E+02    0.54142E+01   -0.39470E+00175104   0.658E+00    0.679E+00
DAV:   7    -0.905818864272E+02    0.16509E+01   -0.32097E+00180480   0.586E+00    0.172E+00
DAV:   8    -0.905929591857E+02   -0.11073E-01   -0.22963E-01132936   0.166E+00    0.751E-01
DAV:   9    -0.906076303448E+02   -0.14671E-01   -0.17583E-02170448   0.459E-01    0.206E-01
