   14   14    1    1
  0.1021960E+02  0.5697000E-09  0.4047900E-09  0.6204200E-09  0.5000000E-15
  1.000000000000000E-004
  CAR 
 Kpoints                                 
     42    324     48
 
  0.4166667E-01  0.0000000E+00  0.0000000E+00  0.8912656E-03
      1        -12.729998   1.000000
      2        -11.582605   1.000000
      3         -8.662575   1.000000
      4         -8.425217   1.000000
      5         -6.072008   1.000000
      6         -5.115093   1.000000
      7         -4.662456   1.000000
      8         -4.290862   1.000000
      9         -3.965525   1.000000
     10         -3.565740   1.000000
     11         -2.411024   1.000000
     12         -2.233704   1.000000
     13         -2.191783   1.000000
     14         -1.086917   1.000000
     15         -0.031001   1.000000
     16          0.005106   1.000000
     17          0.148633   1.000000
     18          0.158727   1.000000
     19          0.553137   1.000000
     20          2.075123   0.000001
     21          2.121858   0.000000
     22          2.199121   0.000000
     23          5.422874   0.000000
     24          5.794762   0.000000
     25          5.800566   0.000000
     26          5.965073   0.000000
     27          6.779734   0.000000
     28          7.541287   0.000000
     29          7.819750   0.000000
     30          8.648677   0.000000
     31          8.785126   0.000000
     32          8.875692   0.000000
     33          9.042228   0.000000
     34         10.043071   0.000000
     35         11.150274   0.000000
     36         11.362248   0.000000
     37         11.702604   0.000000
     38         11.776647   0.000000
     39         11.917555   0.000000
     40         12.365845   0.000000
     41         12.847084   0.000000
     42         13.469043   0.000000
     43         13.542949   0.000000
     44         15.421081   0.000000
     45         15.589908   0.000000
     46         16.042066   0.000000
     47         16.371420   0.000000
     48         16.403449   0.000000
 
  0.1250000E+00  0.0000000E+00  0.0000000E+00  0.8912656E-03
      1        -12.699519   1.000000
      2        -11.634584   1.000000
      3         -8.648080   1.000000
      4         -8.416839   1.000000
      5         -6.018555   1.000000
      6         -5.387160   1.000000
      7         -4.768502   1.000000
      8         -3.945353   1.000000
      9         -3.922776   1.000000
     10         -3.314334   1.000000
     11         -2.397755   1.000000
     12         -2.287578   1.000000
     13         -2.242220   1.000000
     14         -1.305757   1.000000
     15         -0.000873   1.000000
     16          0.052873   1.000000
     17          0.066534   1.000000
     18          0.179903   1.000000
     19          0.484059   1.000000
     20          2.012842   0.000876
     21          2.066594   0.000002
     22          2.116197   0.000000
     23          5.486655   0.000000
     24          5.759265   0.000000
     25          5.836794   0.000000
     26          6.231429   0.000000
     27          6.717940   0.000000
     28          7.231607   0.000000
     29          8.010376   0.000000
     30          8.743746   0.000000
     31          9.027239   0.000000
     32          9.030586   0.000000
     33          9.071528   0.000000
     34         10.137140   0.000000
     35         11.080911   0.000000
     36         11.202644   0.000000
     37         11.295763   0.000000
     38         11.686283   0.000000
     39         12.074222   0.000000
     40         12.426702   0.000000
     41         13.074881   0.000000
     42         13.281717   0.000000
     43         13.898486   0.000000
     44         14.955123   0.000000
     45         15.742108   0.000000
     46         15.955700   0.000000
     47         16.289545   0.000000
     48         16.447291   0.000000
 
  0.2083333E+00  0.0000000E+00  0.0000000E+00  0.8912656E-03
      1        -12.639443   1.000000
      2        -11.731170   1.000000
      3         -8.617984   1.000000
      4         -8.404140   1.000000
      5         -5.973493   1.000000
      6         -5.676592   1.000000
      7         -4.801847   1.000000
      8         -3.838210   1.000000
      9         -3.516104   1.000000
     10         -2.944290   1.000000
     11         -2.457812   1.000000
     12         -2.370028   1.000000
     13         -2.258585   1.000000
     14         -1.686510   1.000000
     15         -0.107655   1.000000
     16          0.056227   1.000000
     17          0.132071   1.000000
     18          0.172449   1.000000
     19          0.408243   1.000000
     20          1.903543   0.484866
     21          1.951870   0.080035
     22          1.967574   0.032227
     23          5.584679   0.000000
     24          5.710257   0.000000
     25          6.037851   0.000000
     26          6.611760   0.000000
     27          6.617651   0.000000
     28          6.960408   0.000000
     29          8.148254   0.000000
     30          8.885660   0.000000
     31          8.997572   0.000000
     32          9.379858   0.000000
     33          9.396660   0.000000
     34         10.352784   0.000000
     35         10.599813   0.000000
     36         10.786703   0.000000
     37         11.301706   0.000000
     38         11.720067   0.000000
     39         12.297882   0.000000
     40         12.596009   0.000000
     41         12.856889   0.000000
     42         13.083737   0.000000
     43         14.475709   0.000000
     44         14.746674   0.000000
     45         15.459755   0.000000
     46         15.972302   0.000000
     47         16.226061   0.000000
     48         16.502207   0.000000
 
  0.2916667E+00  0.0000000E+00  0.0000000E+00  0.8912656E-03
      1        -12.551659   1.000000
      2        -11.860037   1.000000
      3         -8.573034   1.000000
      4         -8.394781   1.000000
      5         -6.004155   1.000000
      6         -5.914306   1.000000
      7         -4.642312   1.000000
      8         -3.713746   1.000000
      9         -3.102098   1.000000
     10         -2.673196   1.000000
     11         -2.542308   1.000000
     12         -2.338180   1.000000
     13         -2.278043   1.000000
     14         -2.129442   1.000000
     15         -0.343200   1.000000
     16         -0.032170   1.000000
     17          0.133043   1.000000
     18          0.218966   1.000000
     19          0.491318   1.000000
     20          1.718420   1.000000
     21          1.776105   0.999819
     22          1.845082   0.946907
     23          5.676725   0.000000
     24          5.676941   0.000000
     25          6.395229   0.000000
     26          6.514843   0.000000
     27          6.751625   0.000000
     28          7.072592   0.000000
     29          8.262913   0.000000
     30          8.883603   0.000000
     31          8.919800   0.000000
     32          9.765592   0.000000
     33          9.813678   0.000000
     34         10.003502   0.000000
     35         10.431967   0.000000
     36         10.744880   0.000000
     37         11.393306   0.000000
     38         11.934461   0.000000
     39         12.352004   0.000000
     40         12.427818   0.000000
     41         12.663354   0.000000
     42         12.965521   0.000000
     43         14.903106   0.000000
     44         14.972403   0.000000
     45         15.077000   0.000000
     46         15.806434   0.000000
     47         15.830321   0.000000
     48         16.221873   0.000000
 
  0.3750000E+00  0.0000000E+00  0.0000000E+00  0.8912656E-03
      1        -12.439155   1.000000
      2        -12.007188   1.000000
      3         -8.518427   1.000000
      4         -8.398145   1.000000
      5         -6.085089   1.000000
      6         -6.076837   1.000000
      7         -4.304337   1.000000
      8         -3.552512   1.000000
      9         -2.935738   1.000000
     10         -2.907549   1.000000
     11         -2.529560   1.000000
     12         -2.340609   1.000000
     13         -2.162682   1.000000
     14         -2.132062   1.000000
     15         -0.596541   1.000000
     16         -0.336228   1.000000
     17          0.216312   1.000000
     18          0.287562   1.000000
     19          0.666533   1.000000
     20          1.442795   1.000000
     21          1.668110   1.000000
     22          1.725418   1.000000
     23          5.675226   0.000000
     24          5.729876   0.000000
     25          6.448001   0.000000
     26          6.600386   0.000000
     27          6.880013   0.000000
     28          7.592117   0.000000
     29          8.363424   0.000000
     30          8.617023   0.000000
     31          8.731739   0.000000
     32          9.371928   0.000000
     33         10.173461   0.000000
     34         10.221960   0.000000
     35         10.469742   0.000000
     36         11.324489   0.000000
     37         11.380368   0.000000
     38         11.817705   0.000000
     39         12.082860   0.000000
     40         12.286686   0.000000
     41         12.515450   0.000000
     42         13.306107   0.000000
     43         14.602231   0.000000
     44         15.016341   0.000000
     45         15.085102   0.000000
     46         15.295969   0.000000
     47         15.649077   0.000000
     48         16.425705   0.000000
 
  0.4583333E+00  0.0000000E+00  0.0000000E+00  0.8912656E-03
      1        -12.306385   1.000000
      2        -12.159587   1.000000
      3         -8.463965   1.000000
      4         -8.421226   1.000000
      5         -6.154096   1.000000
      6         -6.149769   1.000000
      7         -3.856320   1.000000
      8         -3.359284   1.000000
      9         -3.356757   1.000000
     10         -3.140979   1.000000
     11         -2.452092   1.000000
     12         -2.380037   1.000000
     13         -1.967382   1.000000
     14         -1.904093   1.000000
     15         -0.749346   1.000000
     16         -0.631094   1.000000
     17          0.284806   1.000000
     18          0.313080   1.000000
     19          0.893517   1.000000
     20          1.158441   1.000000
     21          1.616326   1.000000
     22          1.639317   1.000000
     23          5.701180   0.000000
     24          5.730978   0.000000
     25          6.442841   0.000000
     26          6.497453   0.000000
     27          7.453626   0.000000
     28          8.063986   0.000000
     29          8.155096   0.000000
     30          8.464975   0.000000
     31          8.585865   0.000000
     32          8.751033   0.000000
     33         10.536685   0.000000
     34         10.538164   0.000000
     35         10.815504   0.000000
     36         11.291431   0.000000
     37         11.308126   0.000000
     38         11.544840   0.000000
     39         11.983287   0.000000
     40         12.435758   0.000000
     41         12.719255   0.000000
     42         13.182229   0.000000
     43         14.590154   0.000000
     44         14.734643   0.000000
     45         14.844895   0.000000
     46         14.894952   0.000000
     47         16.140025   0.000000
     48         16.439718   0.000000
 
  0.4166667E-01  0.5882353E-01  0.0000000E+00  0.1782531E-02
      1        -12.721682   1.000000
      2        -11.575134   1.000000
      3         -8.656048   1.000000
      4         -8.417188   1.000000
      5         -6.062765   1.000000
      6         -5.102979   1.000000
      7         -4.654839   1.000000
      8         -4.333464   1.000000
      9         -4.120066   1.000000
     10         -3.557211   1.000000
     11         -2.818908   1.000000
     12         -2.181985   1.000000
     13         -1.569633   1.000000
     14         -1.085327   1.000000
     15         -0.127307   1.000000
     16         -0.102958   1.000000
     17          0.154355   1.000000
     18          0.205654   1.000000
     19          0.590203   1.000000
     20          1.957123   0.060161
     21          2.029749   0.000155
     22          2.238426   0.000000
     23          5.512534   0.000000
     24          5.709499   0.000000
     25          5.854394   0.000000
     26          5.917415   0.000000
     27          6.885266   0.000000
     28          7.647120   0.000000
     29          7.923276   0.000000
     30          8.394665   0.000000
     31          8.785688   0.000000
     32          8.997571   0.000000
     33          9.065773   0.000000
     34         10.240637   0.000000
     35         11.232276   0.000000
     36         11.334019   0.000000
     37         11.677784   0.000000
     38         11.811737   0.000000
     39         11.953873   0.000000
     40         12.465306   0.000000
     41         12.850891   0.000000
     42         13.360093   0.000000
     43         13.428243   0.000000
     44         15.426183   0.000000
     45         15.514774   0.000000
     46         16.019945   0.000000
     47         16.269131   0.000000
     48         16.320293   0.000000
 
  0.1250000E+00  0.5882353E-01  0.0000000E+00  0.1782531E-02
      1        -12.691224   1.000000
      2        -11.627076   1.000000
      3         -8.641514   1.000000
      4         -8.408899   1.000000
      5         -6.008886   1.000000
      6         -5.376472   1.000000
      7         -4.761343   1.000000
      8         -4.168971   1.000000
      9         -3.896312   1.000000
     10         -3.307175   1.000000
     11         -2.865484   1.000000
     12         -2.167535   1.000000
     13         -1.632217   1.000000
     14         -1.303990   1.000000
     15         -0.099668   1.000000
     16         -0.070428   1.000000
     17          0.134077   1.000000
     18          0.188898   1.000000
     19          0.520103   1.000000
     20          1.897602   0.551756
     21          1.974683   0.020178
     22          2.151566   0.000000
     23          5.579047   0.000000
     24          5.735603   0.000000
     25          5.851675   0.000000
     26          6.157697   0.000000
     27          6.823936   0.000000
     28          7.346307   0.000000
     29          8.106065   0.000000
     30          8.495500   0.000000
     31          9.034050   0.000000
     32          9.075681   0.000000
     33          9.185320   0.000000
     34         10.288160   0.000000
     35         11.053435   0.000000
     36         11.266665   0.000000
     37         11.280107   0.000000
     38         11.735706   0.000000
     39         12.111343   0.000000
     40         12.523873   0.000000
     41         13.082477   0.000000
     42         13.170163   0.000000
     43         13.782927   0.000000
     44         14.995320   0.000000
     45         15.643535   0.000000
     46         15.939939   0.000000
     47         16.114271   0.000000
     48         16.472360   0.000000
 
  0.2083333E+00  0.5882353E-01  0.0000000E+00  0.1782531E-02
      1        -12.631195   1.000000
      2        -11.723592   1.000000
      3         -8.611363   1.000000
      4         -8.396378   1.000000
      5         -5.963023   1.000000
      6         -5.666073   1.000000
      7         -4.795623   1.000000
      8         -4.072535   1.000000
      9         -3.480666   1.000000
     10         -2.997726   1.000000
     11         -2.899039   1.000000
     12         -2.138528   1.000000
     13         -1.732631   1.000000
     14         -1.684136   1.000000
     15         -0.126469   1.000000
     16         -0.057195   1.000000
     17          0.101655   1.000000
     18          0.209593   1.000000
     19          0.430320   1.000000
     20          1.791023   0.999168
     21          1.876083   0.769968
     22          1.982520   0.011550
     23          5.680338   0.000000
     24          5.762066   0.000000
     25          5.980442   0.000000
     26          6.521539   0.000000
     27          6.724528   0.000000
     28          7.096482   0.000000
     29          8.238126   0.000000
     30          8.649640   0.000000
     31          9.063846   0.000000
     32          9.390838   0.000000
     33          9.515964   0.000000
     34         10.379662   0.000000
     35         10.590386   0.000000
     36         10.778904   0.000000
     37         11.369036   0.000000
     38         11.800353   0.000000
     39         12.344426   0.000000
     40         12.669251   0.000000
     41         12.763918   0.000000
     42         13.096124   0.000000
     43         14.300258   0.000000
     44         14.858257   0.000000
     45         15.470370   0.000000
     46         15.857689   0.000000
     47         16.047660   0.000000
     48         16.520059   0.000000
 
  0.2916667E+00  0.5882353E-01  0.0000000E+00  0.1782531E-02
      1        -12.543475   1.000000
      2        -11.852369   1.000000
      3         -8.566349   1.000000
      4         -8.387253   1.000000
      5         -5.993075   1.000000
      6         -5.903632   1.000000
      7         -4.636933   1.000000
      8         -3.955503   1.000000
      9         -3.108256   1.000000
     10         -3.059352   1.000000
     11         -2.516574   1.000000
     12         -2.167369   1.000000
     13         -2.066653   1.000000
     14         -1.843980   1.000000
     15         -0.337694   1.000000
     16         -0.090965   1.000000
     17          0.131731   1.000000
     18          0.169067   1.000000
     19          0.497332   1.000000
     20          1.656812   1.000000
     21          1.753695   0.999987
     22          1.754163   0.999986
     23          5.739568   0.000000
     24          5.773205   0.000000
     25          6.330342   0.000000
     26          6.623457   0.000000
     27          6.795949   0.000000
     28          7.080252   0.000000
     29          8.348186   0.000000
     30          8.726137   0.000000
     31          8.968627   0.000000
     32          9.778596   0.000000
     33          9.876488   0.000000
     34          9.978522   0.000000
     35         10.349466   0.000000
     36         10.818871   0.000000
     37         11.438164   0.000000
     38         12.041537   0.000000
     39         12.253808   0.000000
     40         12.495191   0.000000
     41         12.678398   0.000000
     42         13.039503   0.000000
     43         14.736845   0.000000
     44         15.024629   0.000000
     45         15.189538   0.000000
     46         15.696429   0.000000
     47         15.760903   0.000000
     48         16.291148   0.000000
 
  0.3750000E+00  0.5882353E-01  0.0000000E+00  0.1782531E-02
      1        -12.431052   1.000000
      2        -11.999414   1.000000
      3         -8.511664   1.000000
      4         -8.390876   1.000000
      5         -6.073826   1.000000
      6         -6.065929   1.000000
      7         -4.299450   1.000000
      8         -3.810362   1.000000
      9         -3.275495   1.000000
     10         -2.913088   1.000000
     11         -2.420549   1.000000
     12         -2.131206   1.000000
     13         -2.003150   1.000000
     14         -1.953072   1.000000
     15         -0.584723   1.000000
     16         -0.344800   1.000000
     17          0.168766   1.000000
     18          0.233832   1.000000
     19          0.670165   1.000000
     20          1.441840   1.000000
     21          1.583380   1.000000
     22          1.635021   1.000000
     23          5.744622   0.000000
     24          5.821906   0.000000
     25          6.559596   0.000000
     26          6.701814   0.000000
     27          6.813723   0.000000
     28          7.546803   0.000000
     29          8.442991   0.000000
     30          8.515499   0.000000
     31          8.787612   0.000000
     32          9.311045   0.000000
     33         10.189180   0.000000
     34         10.203779   0.000000
     35         10.468026   0.000000
     36         11.350423   0.000000
     37         11.369021   0.000000
     38         11.766046   0.000000
     39         12.097989   0.000000
     40         12.411238   0.000000
     41         12.589417   0.000000
     42         13.381644   0.000000
     43         14.669533   0.000000
     44         14.970038   0.000000
     45         15.034416   0.000000
     46         15.247355   0.000000
     47         15.736804   0.000000
     48         16.424220   0.000000
 
  0.4583333E+00  0.5882353E-01  0.0000000E+00  0.1782531E-02
      1        -12.298388   1.000000
      2        -12.151697   1.000000
      3         -8.457112   1.000000
      4         -8.414196   1.000000
      5         -6.142981   1.000000
      6         -6.138528   1.000000
      7         -3.852053   1.000000
      8         -3.642541   1.000000
      9         -3.458340   1.000000
     10         -3.350097   1.000000
     11         -2.223288   1.000000
     12         -2.068433   1.000000
     13         -1.889368   1.000000
     14         -1.877548   1.000000
     15         -0.738040   1.000000
     16         -0.627586   1.000000
     17          0.230018   1.000000
     18          0.257819   1.000000
     19          0.896796   1.000000
     20          1.161620   1.000000
     21          1.526538   1.000000
     22          1.549140   1.000000
     23          5.777611   0.000000
     24          5.815325   0.000000
     25          6.556648   0.000000
     26          6.609163   0.000000
     27          7.385923   0.000000
     28          7.990844   0.000000
     29          8.099977   0.000000
     30          8.537469   0.000000
     31          8.633415   0.000000
     32          8.706537   0.000000
     33         10.499706   0.000000
     34         10.555936   0.000000
     35         10.789968   0.000000
     36         11.101191   0.000000
     37         11.431132   0.000000
     38         11.571815   0.000000
     39         12.013820   0.000000
     40         12.496212   0.000000
     41         12.838472   0.000000
     42         13.275657   0.000000
     43         14.615341   0.000000
     44         14.742439   0.000000
     45         14.813833   0.000000
     46         14.938282   0.000000
     47         16.156406   0.000000
     48         16.431612   0.000000
 
  0.4166667E-01  0.1176471E+00  0.0000000E+00  0.1782531E-02
      1        -12.697558   1.000000
      2        -11.553486   1.000000
      3         -8.637204   1.000000
      4         -8.393920   1.000000
      5         -6.035946   1.000000
      6         -5.068677   1.000000
      7         -4.651048   1.000000
      8         -4.632512   1.000000
      9         -4.202819   1.000000
     10         -3.535306   1.000000
     11         -3.374310   1.000000
     12         -1.695815   1.000000
     13         -1.080731   1.000000
     14         -0.906198   1.000000
     15         -0.345113   1.000000
     16         -0.321270   1.000000
     17          0.166860   1.000000
     18          0.260431   1.000000
     19          0.659379   1.000000
     20          1.706316   1.000000
     21          1.784052   0.999584
     22          2.277898   0.000000
     23          5.544735   0.000000
     24          5.682394   0.000000
     25          5.758926   0.000000
     26          6.033588   0.000000
     27          7.163934   0.000000
     28          7.920783   0.000000
     29          8.002281   0.000000
     30          8.247595   0.000000
     31          8.788594   0.000000
     32          9.116058   0.000000
     33          9.165539   0.000000
     34         10.655785   0.000000
     35         11.274303   0.000000
     36         11.439245   0.000000
     37         11.614368   0.000000
     38         11.914662   0.000000
     39         12.068076   0.000000
     40         12.743616   0.000000
     41         12.843556   0.000000
     42         13.125098   0.000000
     43         13.153507   0.000000
     44         15.263283   0.000000
     45         15.403927   0.000000
     46         15.775076   0.000000
     47         15.814915   0.000000
     48         16.175068   0.000000
 
  0.1250000E+00  0.1176471E+00  0.0000000E+00  0.1782531E-02
      1        -12.667166   1.000000
      2        -11.605332   1.000000
      3         -8.622571   1.000000
      4         -8.385896   1.000000
      5         -5.980835   1.000000
      6         -5.346340   1.000000
      7         -4.740420   1.000000
      8         -4.588896   1.000000
      9         -3.874090   1.000000
     10         -3.435835   1.000000
     11         -3.268793   1.000000
     12         -1.680781   1.000000
     13         -1.298929   1.000000
     14         -1.006356   1.000000
     15         -0.316499   1.000000
     16         -0.244488   1.000000
     17          0.178303   1.000000
     18          0.204150   1.000000
     19          0.584863   1.000000
     20          1.649543   1.000000
     21          1.730213   0.999999
     22          2.185731   0.000000
     23          5.574921   0.000000
     24          5.832811   0.000000
     25          5.921331   0.000000
     26          6.023928   0.000000
     27          7.104079   0.000000
     28          7.653815   0.000000
     29          8.107634   0.000000
     30          8.386454   0.000000
     31          9.061552   0.000000
     32          9.136778   0.000000
     33          9.359053   0.000000
     34         10.575527   0.000000
     35         10.990477   0.000000
     36         11.219218   0.000000
     37         11.474764   0.000000
     38         11.888152   0.000000
     39         12.225928   0.000000
     40         12.775256   0.000000
     41         12.923806   0.000000
     42         13.097077   0.000000
     43         13.538285   0.000000
     44         15.039715   0.000000
     45         15.318401   0.000000
     46         15.725704   0.000000
     47         15.743984   0.000000
     48         16.302165   0.000000
 
  0.2083333E+00  0.1176471E+00  0.0000000E+00  0.1782531E-02
      1        -12.607279   1.000000
      2        -11.701646   1.000000
      3         -8.592241   1.000000
      4         -8.373889   1.000000
      5         -5.932617   1.000000
      6         -5.635897   1.000000
      7         -4.777475   1.000000
      8         -4.510598   1.000000
      9         -3.520901   1.000000
     10         -3.442807   1.000000
     11         -2.901973   1.000000
     12         -1.678340   1.000000
     13         -1.650280   1.000000
     14         -1.146081   1.000000
     15         -0.272667   1.000000
     16         -0.183566   1.000000
     17          0.058483   1.000000
     18          0.244381   1.000000
     19          0.473008   1.000000
     20          1.548315   1.000000
     21          1.633938   1.000000
     22          2.007084   0.001506
     23          5.765072   0.000000
     24          5.941898   0.000000
     25          5.946254   0.000000
     26          6.325425   0.000000
     27          7.008264   0.000000
     28          7.432161   0.000000
     29          8.282294   0.000000
     30          8.499028   0.000000
     31          9.144896   0.000000
     32          9.429415   0.000000
     33          9.707650   0.000000
     34         10.335282   0.000000
     35         10.538635   0.000000
     36         10.872350   0.000000
     37         11.531817   0.000000
     38         12.032459   0.000000
     39         12.453065   0.000000
     40         12.507839   0.000000
     41         12.948241   0.000000
     42         13.131949   0.000000
     43         14.021446   0.000000
     44         14.950423   0.000000
     45         15.231726   0.000000
     46         15.647001   0.000000
     47         15.716018   0.000000
     48         16.482463   0.000000
 
  0.2916667E+00  0.1176471E+00  0.0000000E+00  0.1782531E-02
      1        -12.519745   1.000000
      2        -11.830146   1.000000
      3         -8.547035   1.000000
      4         -8.365460   1.000000
      5         -5.960825   1.000000
      6         -5.872756   1.000000
      7         -4.621276   1.000000
      8         -4.405465   1.000000
      9         -3.646274   1.000000
     10         -3.013751   1.000000
     11         -2.492313   1.000000
     12         -2.131559   1.000000
     13         -1.606173   1.000000
     14         -1.290323   1.000000
     15         -0.308015   1.000000
     16         -0.254955   1.000000
     17          0.054766   1.000000
     18          0.144370   1.000000
     19          0.511254   1.000000
     20          1.428089   1.000000
     21          1.514944   1.000000
     22          1.759819   0.999972
     23          5.891805   0.000000
     24          6.032666   0.000000
     25          6.156737   0.000000
     26          6.717232   0.000000
     27          6.915116   0.000000
     28          7.317096   0.000000
     29          8.420549   0.000000
     30          8.597544   0.000000
     31          9.067212   0.000000
     32          9.767059   0.000000
     33          9.819201   0.000000
     34         10.114719   0.000000
     35         10.218138   0.000000
     36         10.948370   0.000000
     37         11.508565   0.000000
     38         12.066366   0.000000
     39         12.319513   0.000000
     40         12.673321   0.000000
     41         12.726636   0.000000
     42         13.251262   0.000000
     43         14.480524   0.000000
     44         14.962659   0.000000
     45         15.306114   0.000000
     46         15.479491   0.000000
     47         15.533802   0.000000
     48         16.359037   0.000000
 
  0.3750000E+00  0.1176471E+00  0.0000000E+00  0.1782531E-02
      1        -12.407571   1.000000
      2        -11.976879   1.000000
      3         -8.492134   1.000000
      4         -8.369851   1.000000
      5         -6.041025   1.000000
      6         -6.034254   1.000000
      7         -4.285285   1.000000
      8         -4.274550   1.000000