Automatically generated mesh
     324
Reciprocal lattice
    0.04166666666666    0.00000000000000    0.00000000000000             2
    0.12500000000000    0.00000000000000    0.00000000000000             2
    0.20833333333334    0.00000000000000    0.00000000000000             2
    0.29166666666666    0.00000000000000    0.00000000000000             2
    0.37500000000000    0.00000000000000    0.00000000000000             2
    0.45833333333334    0.00000000000000    0.00000000000000             2
    0.04166666666666    0.05882352941177    0.00000000000000             4
    0.12500000000000    0.05882352941177    0.00000000000000             4
    0.20833333333334    0.05882352941177    0.00000000000000             4
    0.29166666666666    0.05882352941177    0.00000000000000             4
    0.37500000000000    0.05882352941177    0.00000000000000             4
    0.45833333333334    0.05882352941177    0.00000000000000             4
    0.04166666666666    0.11764705882353    0.00000000000000             4
    0.12500000000000    0.11764705882353    0.00000000000000             4
    0.20833333333334    0.11764705882353    0.00000000000000             4
    0.29166666666666    0.11764705882353    0.00000000000000             4
    0.37500000000000    0.11764705882353    0.00000000000000             4
    0.45833333333334    0.11764705882353    0.00000000000000             4
    0.04166666666666    0.17647058823530    0.00000000000000             4
    0.12500000000000    0.17647058823530    0.00000000000000             4
    0.20833333333334    0.17647058823530    0.00000000000000             4
    0.29166666666666    0.17647058823530    0.00000000000000             4
    0.37500000000000    0.17647058823530    0.00000000000000             4
    0.45833333333334    0.17647058823530    0.00000000000000             4
    0.04166666666666    0.23529411764706    0.00000000000000             4
    0.12500000000000    0.23529411764706    0.00000000000000             4
    0.20833333333334    0.23529411764706    0.00000000000000             4
    0.29166666666666    0.23529411764706    0.00000000000000             4
    0.37500000000000    0.23529411764706    0.00000000000000             4
    0.45833333333334    0.23529411764706    0.00000000000000             4
    0.04166666666666    0.29411764705883    0.00000000000000             4
    0.12500000000000    0.29411764705883    0.00000000000000             4
    0.20833333333334    0.29411764705883    0.00000000000000             4
    0.29166666666666    0.29411764705883    0.00000000000000             4
    0.37500000000000    0.29411764705883    0.00000000000000             4
    0.45833333333334    0.29411764705883    0.00000000000000             4
    0.04166666666666    0.35294117647059    0.00000000000000             4
    0.12500000000000    0.35294117647059    0.00000000000000             4
    0.20833333333334    0.35294117647059    0.00000000000000             4
    0.29166666666666    0.35294117647059    0.00000000000000             4
    0.37500000000000    0.35294117647059    0.00000000000000             4
    0.45833333333334    0.35294117647059    0.00000000000000             4
    0.04166666666666    0.41176470588235    0.00000000000000             4
    0.12500000000000    0.41176470588235    0.00000000000000             4
    0.20833333333334    0.41176470588235    0.00000000000000             4
    0.29166666666666    0.41176470588235    0.00000000000000             4
    0.37500000000000    0.41176470588235    0.00000000000000             4
    0.45833333333334    0.41176470588235    0.00000000000000             4
    0.04166666666666    0.47058823529412    0.00000000000000             4
    0.12500000000000    0.47058823529412    0.00000000000000             4
    0.20833333333334    0.47058823529412    0.00000000000000             4
    0.29166666666666    0.47058823529412    0.00000000000000             4
    0.37500000000000    0.47058823529412    0.00000000000000             4
    0.45833333333334    0.47058823529412    0.00000000000000             4
    0.04166666666666    0.00000000000000    0.09090909090909             4
    0.12500000000000    0.00000000000000    0.09090909090909             4
    0.20833333333334    0.00000000000000    0.09090909090909             4
    0.29166666666666    0.00000000000000    0.09090909090909             4
    0.37500000000000    0.00000000000000    0.09090909090909             4
    0.45833333333334    0.00000000000000    0.09090909090909             4
    0.04166666666666    0.05882352941177    0.09090909090909             8
    0.12500000000000    0.05882352941177    0.09090909090909             8
    0.20833333333334    0.05882352941177    0.09090909090909             8
    0.29166666666666    0.05882352941177    0.09090909090909             8
    0.37500000000000    0.05882352941177    0.09090909090909             8
    0.45833333333334    0.05882352941177    0.09090909090909             8
    0.04166666666666    0.11764705882353    0.09090909090909             8
    0.12500000000000    0.11764705882353    0.09090909090909             8
    0.20833333333334    0.11764705882353    0.09090909090909             8
    0.29166666666666    0.11764705882353    0.09090909090909             8
    0.37500000000000    0.11764705882353    0.09090909090909             8
    0.45833333333334    0.11764705882353    0.09090909090909             8
    0.04166666666666    0.17647058823530    0.09090909090909             8
    0.12500000000000    0.17647058823530    0.09090909090909             8
    0.20833333333334    0.17647058823530    0.09090909090909             8
    0.29166666666666    0.17647058823530    0.09090909090909             8
    0.37500000000000    0.17647058823530    0.09090909090909             8
    0.45833333333334    0.17647058823530    0.09090909090909             8
    0.04166666666666    0.23529411764706    0.09090909090909             8
    0.12500000000000    0.23529411764706    0.09090909090909             8
    0.20833333333334    0.23529411764706    0.09090909090909             8
    0.29166666666666    0.23529411764706    0.09090909090909             8
    0.37500000000000    0.23529411764706    0.09090909090909             8
    0.45833333333334    0.23529411764706    0.09090909090909             8
    0.04166666666666    0.29411764705883    0.09090909090909             8
    0.12500000000000    0.29411764705883    0.09090909090909             8
    0.20833333333334    0.29411764705883    0.09090909090909             8
    0.29166666666666    0.29411764705883    0.09090909090909             8
    0.37500000000000    0.29411764705883    0.09090909090909             8
    0.45833333333334    0.29411764705883    0.09090909090909             8
    0.04166666666666    0.35294117647059    0.09090909090909             8
    0.12500000000000    0.35294117647059    0.09090909090909             8
    0.20833333333334    0.35294117647059    0.09090909090909             8
    0.29166666666666    0.35294117647059    0.09090909090909             8
    0.37500000000000    0.35294117647059    0.09090909090909             8
    0.45833333333334    0.35294117647059    0.09090909090909             8
    0.04166666666666    0.41176470588235    0.09090909090909             8
    0.12500000000000    0.41176470588235    0.09090909090909             8
    0.20833333333334    0.41176470588235    0.09090909090909             8
    0.29166666666666    0.41176470588235    0.09090909090909             8
    0.37500000000000    0.41176470588235    0.09090909090909             8
    0.45833333333334    0.41176470588235    0.09090909090909             8
    0.04166666666666    0.47058823529412    0.09090909090909             8
    0.12500000000000    0.47058823529412    0.09090909090909             8
    0.20833333333334    0.47058823529412    0.09090909090909             8
    0.29166666666666    0.47058823529412    0.09090909090909             8
    0.37500000000000    0.47058823529412    0.09090909090909             8
    0.45833333333334    0.47058823529412    0.09090909090909             8
    0.04166666666666    0.00000000000000    0.18181818181818             4
    0.12500000000000    0.00000000000000    0.18181818181818             4
    0.20833333333334    0.00000000000000    0.18181818181818             4
    0.29166666666666    0.00000000000000    0.18181818181818             4
    0.37500000000000    0.00000000000000    0.18181818181818             4
    0.45833333333334    0.00000000000000    0.18181818181818             4
    0.04166666666666    0.05882352941177    0.18181818181818             8
    0.12500000000000    0.05882352941177    0.18181818181818             8
    0.20833333333334    0.05882352941177    0.18181818181818             8
    0.29166666666666    0.05882352941177    0.18181818181818             8
    0.37500000000000    0.05882352941177    0.18181818181818             8
    0.45833333333334    0.05882352941177    0.18181818181818             8
    0.04166666666666    0.11764705882353    0.18181818181818             8
    0.12500000000000    0.11764705882353    0.18181818181818             8
    0.20833333333334    0.11764705882353    0.18181818181818             8
    0.29166666666666    0.11764705882353    0.18181818181818             8
    0.37500000000000    0.11764705882353    0.18181818181818             8
    0.45833333333334    0.11764705882353    0.18181818181818             8
    0.04166666666666    0.17647058823530    0.18181818181818             8
    0.12500000000000    0.17647058823530    0.18181818181818             8
    0.20833333333334    0.17647058823530    0.18181818181818             8
    0.29166666666666    0.17647058823530    0.18181818181818             8
    0.37500000000000    0.17647058823530    0.18181818181818             8
    0.45833333333334    0.17647058823530    0.18181818181818             8
    0.04166666666666    0.23529411764706    0.18181818181818             8
    0.12500000000000    0.23529411764706    0.18181818181818             8
    0.20833333333334    0.23529411764706    0.18181818181818             8
    0.29166666666666    0.23529411764706    0.18181818181818             8
    0.37500000000000    0.23529411764706    0.18181818181818             8
    0.45833333333334    0.23529411764706    0.18181818181818             8
    0.04166666666666    0.29411764705883    0.18181818181818             8
    0.12500000000000    0.29411764705883    0.18181818181818             8
    0.20833333333334    0.29411764705883    0.18181818181818             8
    0.29166666666666    0.29411764705883    0.18181818181818             8
    0.37500000000000    0.29411764705883    0.18181818181818             8
    0.45833333333334    0.29411764705883    0.18181818181818             8
    0.04166666666666    0.35294117647059    0.18181818181818             8
    0.12500000000000    0.35294117647059    0.18181818181818             8
    0.20833333333334    0.35294117647059    0.18181818181818             8
    0.29166666666666    0.35294117647059    0.18181818181818             8
    0.37500000000000    0.35294117647059    0.18181818181818             8
    0.45833333333334    0.35294117647059    0.18181818181818             8
    0.04166666666666    0.41176470588235    0.18181818181818             8
    0.12500000000000    0.41176470588235    0.18181818181818             8
    0.20833333333334    0.41176470588235    0.18181818181818             8
    0.29166666666666    0.41176470588235    0.18181818181818             8
    0.37500000000000    0.41176470588235    0.18181818181818             8
    0.45833333333334    0.41176470588235    0.18181818181818             8
    0.04166666666666    0.47058823529412    0.18181818181818             8
    0.12500000000000    0.47058823529412    0.18181818181818             8
    0.20833333333334    0.47058823529412    0.18181818181818             8
    0.29166666666666    0.47058823529412    0.18181818181818             8
    0.37500000000000    0.47058823529412    0.18181818181818             8
    0.45833333333334    0.47058823529412    0.18181818181818             8
    0.04166666666666    0.00000000000000    0.27272727272727             4
    0.12500000000000    0.00000000000000    0.27272727272727             4
    0.20833333333334    0.00000000000000    0.27272727272727             4
    0.29166666666666    0.00000000000000    0.27272727272727             4
    0.37500000000000    0.00000000000000    0.27272727272727             4
    0.45833333333334    0.00000000000000    0.27272727272727             4
    0.04166666666666    0.05882352941177    0.27272727272727             8
    0.12500000000000    0.05882352941177    0.27272727272727             8
    0.20833333333334    0.05882352941177    0.27272727272727             8
    0.29166666666666    0.05882352941177    0.27272727272727             8
    0.37500000000000    0.05882352941177    0.27272727272727             8
    0.45833333333334    0.05882352941177    0.27272727272727             8
    0.04166666666666    0.11764705882353    0.27272727272727             8
    0.12500000000000    0.11764705882353    0.27272727272727             8
    0.20833333333334    0.11764705882353    0.27272727272727             8
    0.29166666666666    0.11764705882353    0.27272727272727             8
    0.37500000000000    0.11764705882353    0.27272727272727             8
    0.45833333333334    0.11764705882353    0.27272727272727             8
    0.04166666666666    0.17647058823530    0.27272727272727             8
    0.12500000000000    0.17647058823530    0.27272727272727             8
    0.20833333333334    0.17647058823530    0.27272727272727             8
    0.29166666666666    0.17647058823530    0.27272727272727             8
    0.37500000000000    0.17647058823530    0.27272727272727             8
    0.45833333333334    0.17647058823530    0.27272727272727             8
    0.04166666666666    0.23529411764706    0.27272727272727             8
    0.12500000000000    0.23529411764706    0.27272727272727             8
    0.20833333333334    0.23529411764706    0.27272727272727             8
    0.29166666666666    0.23529411764706    0.27272727272727             8
    0.37500000000000    0.23529411764706    0.27272727272727             8
    0.45833333333334    0.23529411764706    0.27272727272727             8
    0.04166666666666    0.29411764705883    0.27272727272727             8
    0.12500000000000    0.29411764705883    0.27272727272727             8
    0.20833333333334    0.29411764705883    0.27272727272727             8
    0.29166666666666    0.29411764705883    0.27272727272727             8
    0.37500000000000    0.29411764705883    0.27272727272727             8
    0.45833333333334    0.29411764705883    0.27272727272727             8
    0.04166666666666    0.35294117647059    0.27272727272727             8
    0.12500000000000    0.35294117647059    0.27272727272727             8
    0.20833333333334    0.35294117647059    0.27272727272727             8
    0.29166666666666    0.35294117647059    0.27272727272727             8
    0.37500000000000    0.35294117647059    0.27272727272727             8
    0.45833333333334    0.35294117647059    0.27272727272727             8
    0.04166666666666    0.41176470588235    0.27272727272727             8
    0.12500000000000    0.41176470588235    0.27272727272727             8
    0.20833333333334    0.41176470588235    0.27272727272727             8
    0.29166666666666    0.41176470588235    0.27272727272727             8
    0.37500000000000    0.41176470588235    0.27272727272727             8
    0.45833333333334    0.41176470588235    0.27272727272727             8
    0.04166666666666    0.47058823529412    0.27272727272727             8
    0.12500000000000    0.47058823529412    0.27272727272727             8
    0.20833333333334    0.47058823529412    0.27272727272727             8
    0.29166666666666    0.47058823529412    0.27272727272727             8
    0.37500000000000    0.47058823529412    0.27272727272727             8
    0.45833333333334    0.47058823529412    0.27272727272727             8
    0.04166666666666    0.00000000000000    0.36363636363637             4
    0.12500000000000    0.00000000000000    0.36363636363637             4
    0.20833333333334    0.00000000000000    0.36363636363637             4
    0.29166666666666    0.00000000000000    0.36363636363637             4
    0.37500000000000    0.00000000000000    0.36363636363637             4
    0.45833333333334    0.00000000000000    0.36363636363637             4
    0.04166666666666    0.05882352941177    0.36363636363637             8
    0.12500000000000    0.05882352941177    0.36363636363637             8
    0.20833333333334    0.05882352941177    0.36363636363637             8
    0.29166666666666    0.05882352941177    0.36363636363637             8
    0.37500000000000    0.05882352941177    0.36363636363637             8
    0.45833333333334    0.05882352941177    0.36363636363637             8
    0.04166666666666    0.11764705882353    0.36363636363637             8
    0.12500000000000    0.11764705882353    0.36363636363637             8
    0.20833333333334    0.11764705882353    0.36363636363637             8
    0.29166666666666    0.11764705882353    0.36363636363637             8
    0.37500000000000    0.11764705882353    0.36363636363637             8
    0.45833333333334    0.11764705882353    0.36363636363637             8
    0.04166666666666    0.17647058823530    0.36363636363637             8
    0.12500000000000    0.17647058823530    0.36363636363637             8
    0.20833333333334    0.17647058823530    0.36363636363637             8
    0.29166666666666    0.17647058823530    0.36363636363637             8
    0.37500000000000    0.17647058823530    0.36363636363637             8
    0.45833333333334    0.17647058823530    0.36363636363637             8
    0.04166666666666    0.23529411764706    0.36363636363637             8
    0.12500000000000    0.23529411764706    0.36363636363637             8
    0.20833333333334    0.23529411764706    0.36363636363637             8
    0.29166666666666    0.23529411764706    0.36363636363637             8
    0.37500000000000    0.23529411764706    0.36363636363637             8
    0.45833333333334    0.23529411764706    0.36363636363637             8
    0.04166666666666    0.29411764705883    0.36363636363637             8
    0.12500000000000    0.29411764705883    0.36363636363637             8
    0.20833333333334    0.29411764705883    0.36363636363637             8
    0.29166666666666    0.29411764705883    0.36363636363637             8
    0.37500000000000    0.29411764705883    0.36363636363637             8
    0.45833333333334    0.29411764705883    0.36363636363637             8
    0.04166666666666    0.35294117647059    0.36363636363637             8
    0.12500000000000    0.35294117647059    0.36363636363637             8
    0.20833333333334    0.35294117647059    0.36363636363637             8
    0.29166666666666    0.35294117647059    0.36363636363637             8
    0.37500000000000    0.35294117647059    0.36363636363637             8
    0.45833333333334    0.35294117647059    0.36363636363637             8
    0.04166666666666    0.41176470588235    0.36363636363637             8
    0.12500000000000    0.41176470588235    0.36363636363637             8
    0.20833333333334    0.41176470588235    0.36363636363637             8
    0.29166666666666    0.41176470588235    0.36363636363637             8
    0.37500000000000    0.41176470588235    0.36363636363637             8
    0.45833333333334    0.41176470588235    0.36363636363637             8
    0.04166666666666    0.47058823529412    0.36363636363637             8
    0.12500000000000    0.47058823529412    0.36363636363637             8
    0.20833333333334    0.47058823529412    0.36363636363637             8
    0.29166666666666    0.47058823529412    0.36363636363637             8
    0.37500000000000    0.47058823529412    0.36363636363637             8
    0.45833333333334    0.47058823529412    0.36363636363637             8
    0.04166666666666    0.00000000000000    0.45454545454545             4
    0.12500000000000    0.00000000000000    0.45454545454545             4
    0.20833333333334    0.00000000000000    0.45454545454545             4
    0.29166666666666    0.00000000000000    0.45454545454545             4
    0.37500000000000    0.00000000000000    0.45454545454545             4
    0.45833333333334    0.00000000000000    0.45454545454545             4
    0.04166666666666    0.05882352941177    0.45454545454545             8
    0.12500000000000    0.05882352941177    0.45454545454545             8
    0.20833333333334    0.05882352941177    0.45454545454545             8
    0.29166666666666    0.05882352941177    0.45454545454545             8
    0.37500000000000    0.05882352941177    0.45454545454545             8
    0.45833333333334    0.05882352941177    0.45454545454545             8
    0.04166666666666    0.11764705882353    0.45454545454545             8
    0.12500000000000    0.11764705882353    0.45454545454545             8
    0.20833333333334    0.11764705882353    0.45454545454545             8
    0.29166666666666    0.11764705882353    0.45454545454545             8
    0.37500000000000    0.11764705882353    0.45454545454545             8
    0.45833333333334    0.11764705882353    0.45454545454545             8
    0.04166666666666    0.17647058823530    0.45454545454545             8
    0.12500000000000    0.17647058823530    0.45454545454545             8
    0.20833333333334    0.17647058823530    0.45454545454545             8
    0.29166666666666    0.17647058823530    0.45454545454545             8
    0.37500000000000    0.17647058823530    0.45454545454545             8
    0.45833333333334    0.17647058823530    0.45454545454545             8
    0.04166666666666    0.23529411764706    0.45454545454545             8
    0.12500000000000    0.23529411764706    0.45454545454545             8
    0.20833333333334    0.23529411764706    0.45454545454545             8
    0.29166666666666    0.23529411764706    0.45454545454545             8
    0.37500000000000    0.23529411764706    0.45454545454545             8
    0.45833333333334    0.23529411764706    0.45454545454545             8
    0.04166666666666    0.29411764705883    0.45454545454545             8
    0.12500000000000    0.29411764705883    0.45454545454545             8
    0.20833333333334    0.29411764705883    0.45454545454545             8
    0.29166666666666    0.29411764705883    0.45454545454545             8
    0.37500000000000    0.29411764705883    0.45454545454545             8
    0.45833333333334    0.29411764705883    0.45454545454545             8
    0.04166666666666    0.35294117647059    0.45454545454545             8
    0.12500000000000    0.35294117647059    0.45454545454545             8
    0.20833333333334    0.35294117647059    0.45454545454545             8
    0.29166666666666    0.35294117647059    0.45454545454545             8
    0.37500000000000    0.35294117647059    0.45454545454545             8
    0.45833333333334    0.35294117647059    0.45454545454545             8
    0.04166666666666    0.41176470588235    0.45454545454545             8
    0.12500000000000    0.41176470588235    0.45454545454545             8
    0.20833333333334    0.41176470588235    0.45454545454545             8
    0.29166666666666    0.41176470588235    0.45454545454545             8
    0.37500000000000    0.41176470588235    0.45454545454545             8
    0.45833333333334    0.41176470588235    0.45454545454545             8
    0.04166666666666    0.47058823529412    0.45454545454545             8
    0.12500000000000    0.47058823529412    0.45454545454545             8
    0.20833333333334    0.47058823529412    0.45454545454545             8
    0.29166666666666    0.47058823529412    0.45454545454545             8
    0.37500000000000    0.47058823529412    0.45454545454545             8
    0.45833333333334    0.47058823529412    0.45454545454545             8
