 running   24 mpi-ranks, with    1 threads/rank, on    1 nodes
 distrk:  each k-point on   24 cores,    1 groups
 distr:  one band on    1 cores,   24 groups
 vasp.6.4.3 19Mar24 (build May 31 2024 16:31:43) complex                        
  
 POSCAR found type information on POSCAR B 
 POSCAR found :  1 types and      14 ions
 Reading from existing POTCAR
 scaLAPACK will be used
 Reading from existing POTCAR
 LDA part: xc-table for (Slater+PW92), standard interpolation
 POSCAR, INCAR and KPOINTS ok, starting setup
 FFT: planning ... GRIDC
 FFT: planning ... GRID_SOFT
 FFT: planning ... GRID
 WAVECAR not read
 entering main loop
       N       E                     dE             d eps       ncg     rms          rms(c)
DAV:   1     0.868063697850E+02    0.86806E+02   -0.20738E+04120960   0.907E+02
DAV:   2    -0.914375536558E+02   -0.17824E+03   -0.16681E+03165192   0.173E+02
DAV:   3    -0.976034026517E+02   -0.61658E+01   -0.61257E+01178632   0.284E+01
DAV:   4    -0.976398764994E+02   -0.36474E-01   -0.36472E-01142608   0.254E+00
