Convergence                             
           1
    15.007500    0.000000    0.000000
     0.000000   12.506250    0.000000
     0.000000    0.000000   18.009000
   B 
     1
Direct configuration=     1
   0.52123000  0.54500000  0.63796000
