   1   1   0   0
  0.3375000E+04  0.1500000E-08  0.1250000E-08  0.1800000E-08  0.5000000E-15
  1.000000000000000E-004
  CAR 
 Convergence                             
      2.43776462     -9.97407659  301     -3.60676481      1.00000000
     -9.974  0.0000E+00  0.0000E+00
     -9.933  0.0000E+00  0.0000E+00
     -9.891  0.0000E+00  0.0000E+00
     -9.850  0.0000E+00  0.0000E+00
     -9.809  0.0000E+00  0.0000E+00
     -9.767  0.0000E+00  0.0000E+00
     -9.726  0.0000E+00  0.0000E+00
     -9.684  0.1959E-12  0.8105E-14
     -9.643  0.1023E-08  0.4233E-10
     -9.602  0.1396E-05  0.5779E-07
     -9.560  0.5032E-03  0.2088E-04
     -9.519  0.4868E-01  0.2035E-02
     -9.478  0.1292E+01  0.5551E-01
     -9.436  0.9691E+01  0.4565E+00
     -9.395  0.2110E+02  0.1330E+01
     -9.353  0.1353E+02  0.1889E+01
     -9.312  0.2535E+01  0.1994E+01
     -9.271  0.1352E+00  0.2000E+01
     -9.229  0.1994E-02  0.2000E+01
     -9.188  0.7932E-05  0.2000E+01
     -9.147  0.8367E-08  0.2000E+01
     -9.105  0.2313E-11  0.2000E+01
     -9.064  0.0000E+00  0.2000E+01
     -9.023  0.0000E+00  0.2000E+01
     -8.981  0.0000E+00  0.2000E+01
     -8.940  0.0000E+00  0.2000E+01
     -8.898  0.0000E+00  0.2000E+01
     -8.857  0.0000E+00  0.2000E+01
     -8.816  0.0000E+00  0.2000E+01
     -8.774  0.0000E+00  0.2000E+01
     -8.733  0.0000E+00  0.2000E+01
     -8.692  0.0000E+00  0.2000E+01
     -8.650  0.0000E+00  0.2000E+01
     -8.609  0.0000E+00  0.2000E+01
     -8.567  0.0000E+00  0.2000E+01
     -8.526  0.0000E+00  0.2000E+01
     -8.485  0.0000E+00  0.2000E+01
     -8.443  0.0000E+00  0.2000E+01
     -8.402  0.0000E+00  0.2000E+01
     -8.361  0.0000E+00  0.2000E+01
     -8.319  0.0000E+00  0.2000E+01
     -8.278  0.0000E+00  0.2000E+01
     -8.236  0.0000E+00  0.2000E+01
     -8.195  0.0000E+00  0.2000E+01
     -8.154  0.0000E+00  0.2000E+01
     -8.112  0.0000E+00  0.2000E+01
     -8.071  0.0000E+00  0.2000E+01
     -8.030  0.0000E+00  0.2000E+01
     -7.988  0.0000E+00  0.2000E+01
     -7.947  0.0000E+00  0.2000E+01
     -7.905  0.0000E+00  0.2000E+01
     -7.864  0.0000E+00  0.2000E+01
     -7.823  0.0000E+00  0.2000E+01
     -7.781  0.0000E+00  0.2000E+01
     -7.740  0.0000E+00  0.2000E+01
     -7.699  0.0000E+00  0.2000E+01
     -7.657  0.0000E+00  0.2000E+01
     -7.616  0.0000E+00  0.2000E+01
     -7.574  0.0000E+00  0.2000E+01
     -7.533  0.0000E+00  0.2000E+01
     -7.492  0.0000E+00  0.2000E+01
     -7.450  0.0000E+00  0.2000E+01
     -7.409  0.0000E+00  0.2000E+01
     -7.368  0.0000E+00  0.2000E+01
     -7.326  0.0000E+00  0.2000E+01
     -7.285  0.0000E+00  0.2000E+01
     -7.243  0.0000E+00  0.2000E+01
     -7.202  0.0000E+00  0.2000E+01
     -7.161  0.0000E+00  0.2000E+01
     -7.119  0.0000E+00  0.2000E+01
     -7.078  0.0000E+00  0.2000E+01
     -7.037  0.0000E+00  0.2000E+01
     -6.995  0.0000E+00  0.2000E+01
     -6.954  0.0000E+00  0.2000E+01
     -6.912  0.0000E+00  0.2000E+01
     -6.871  0.0000E+00  0.2000E+01
     -6.830  0.0000E+00  0.2000E+01
     -6.788  0.0000E+00  0.2000E+01
     -6.747  0.0000E+00  0.2000E+01
     -6.706  0.0000E+00  0.2000E+01
     -6.664  0.0000E+00  0.2000E+01
     -6.623  0.0000E+00  0.2000E+01
     -6.582  0.0000E+00  0.2000E+01
     -6.540  0.0000E+00  0.2000E+01
     -6.499  0.0000E+00  0.2000E+01
     -6.457  0.0000E+00  0.2000E+01
     -6.416  0.0000E+00  0.2000E+01
     -6.375  0.0000E+00  0.2000E+01
     -6.333  0.0000E+00  0.2000E+01
     -6.292  0.0000E+00  0.2000E+01
     -6.251  0.0000E+00  0.2000E+01
     -6.209  0.0000E+00  0.2000E+01
     -6.168  0.0000E+00  0.2000E+01
     -6.126  0.0000E+00  0.2000E+01
     -6.085  0.0000E+00  0.2000E+01
     -6.044  0.0000E+00  0.2000E+01
     -6.002  0.0000E+00  0.2000E+01
     -5.961  0.0000E+00  0.2000E+01
     -5.920  0.0000E+00  0.2000E+01
     -5.878  0.0000E+00  0.2000E+01
     -5.837  0.0000E+00  0.2000E+01
     -5.795  0.0000E+00  0.2000E+01
     -5.754  0.0000E+00  0.2000E+01
     -5.713  0.0000E+00  0.2000E+01
     -5.671  0.0000E+00  0.2000E+01
     -5.630  0.0000E+00  0.2000E+01
     -5.589  0.0000E+00  0.2000E+01
     -5.547  0.0000E+00  0.2000E+01
     -5.506  0.0000E+00  0.2000E+01
     -5.464  0.0000E+00  0.2000E+01
     -5.423  0.0000E+00  0.2000E+01
     -5.382  0.0000E+00  0.2000E+01
     -5.340  0.0000E+00  0.2000E+01
     -5.299  0.0000E+00  0.2000E+01
     -5.258  0.0000E+00  0.2000E+01
     -5.216  0.0000E+00  0.2000E+01
     -5.175  0.0000E+00  0.2000E+01
     -5.133  0.0000E+00  0.2000E+01
     -5.092  0.0000E+00  0.2000E+01
     -5.051  0.0000E+00  0.2000E+01
     -5.009  0.0000E+00  0.2000E+01
     -4.968  0.0000E+00  0.2000E+01
     -4.927  0.0000E+00  0.2000E+01
     -4.885  0.0000E+00  0.2000E+01
     -4.844  0.0000E+00  0.2000E+01
     -4.802  0.0000E+00  0.2000E+01
     -4.761  0.0000E+00  0.2000E+01
     -4.720  0.0000E+00  0.2000E+01
     -4.678  0.0000E+00  0.2000E+01
     -4.637  0.0000E+00  0.2000E+01
     -4.596  0.0000E+00  0.2000E+01
     -4.554  0.0000E+00  0.2000E+01
     -4.513  0.0000E+00  0.2000E+01
     -4.471  0.0000E+00  0.2000E+01
     -4.430  0.0000E+00  0.2000E+01
     -4.389  0.0000E+00  0.2000E+01
     -4.347  0.0000E+00  0.2000E+01
     -4.306  0.0000E+00  0.2000E+01
     -4.265  0.0000E+00  0.2000E+01
     -4.223  0.0000E+00  0.2000E+01
     -4.182  0.0000E+00  0.2000E+01
     -4.141  0.0000E+00  0.2000E+01
     -4.099  0.0000E+00  0.2000E+01
     -4.058  0.0000E+00  0.2000E+01
     -4.016  0.0000E+00  0.2000E+01
     -3.975  0.0000E+00  0.2000E+01
     -3.934  0.0000E+00  0.2000E+01
     -3.892  0.0000E+00  0.2000E+01
     -3.851  0.2506E-12  0.2000E+01
     -3.810  0.1486E-08  0.2000E+01
     -3.768  0.2291E-05  0.2000E+01
     -3.727  0.9320E-03  0.2000E+01
     -3.685  0.1016E+00  0.2004E+01
     -3.644  0.3031E+01  0.2130E+01
     -3.603  0.2547E+02  0.3184E+01
     -3.561  0.6204E+02  0.5750E+01
     -3.520  0.4448E+02  0.7590E+01
     -3.479  0.9330E+01  0.7976E+01
     -3.437  0.5587E+00  0.8000E+01
     -3.396  0.9275E-02  0.8000E+01
     -3.354  0.4162E-04  0.8000E+01
     -3.313  0.4959E-07  0.8000E+01
     -3.272  0.1549E-10  0.8000E+01
     -3.230  0.0000E+00  0.8000E+01
     -3.189  0.0000E+00  0.8000E+01
     -3.148  0.0000E+00  0.8000E+01
     -3.106  0.0000E+00  0.8000E+01
     -3.065  0.0000E+00  0.8000E+01
     -3.023  0.0000E+00  0.8000E+01
     -2.982  0.0000E+00  0.8000E+01
     -2.941  0.0000E+00  0.8000E+01
     -2.899  0.0000E+00  0.8000E+01
     -2.858  0.0000E+00  0.8000E+01
     -2.817  0.0000E+00  0.8000E+01
     -2.775  0.0000E+00  0.8000E+01
     -2.734  0.0000E+00  0.8000E+01
     -2.692  0.0000E+00  0.8000E+01
     -2.651  0.0000E+00  0.8000E+01
     -2.610  0.0000E+00  0.8000E+01
     -2.568  0.0000E+00  0.8000E+01
     -2.527  0.0000E+00  0.8000E+01
     -2.486  0.0000E+00  0.8000E+01
     -2.444  0.0000E+00  0.8000E+01
     -2.403  0.0000E+00  0.8000E+01
     -2.361  0.0000E+00  0.8000E+01
     -2.320  0.0000E+00  0.8000E+01
     -2.279  0.0000E+00  0.8000E+01
     -2.237  0.0000E+00  0.8000E+01
     -2.196  0.0000E+00  0.8000E+01
     -2.155  0.0000E+00  0.8000E+01
     -2.113  0.0000E+00  0.8000E+01
     -2.072  0.0000E+00  0.8000E+01
     -2.030  0.0000E+00  0.8000E+01
     -1.989  0.0000E+00  0.8000E+01
     -1.948  0.0000E+00  0.8000E+01
     -1.906  0.0000E+00  0.8000E+01
     -1.865  0.0000E+00  0.8000E+01
     -1.824  0.0000E+00  0.8000E+01
     -1.782  0.0000E+00  0.8000E+01
     -1.741  0.0000E+00  0.8000E+01
     -1.700  0.0000E+00  0.8000E+01
     -1.658  0.0000E+00  0.8000E+01
     -1.617  0.0000E+00  0.8000E+01
     -1.575  0.0000E+00  0.8000E+01
     -1.534  0.0000E+00  0.8000E+01
     -1.493  0.0000E+00  0.8000E+01
     -1.451  0.0000E+00  0.8000E+01
     -1.410  0.0000E+00  0.8000E+01
     -1.369  0.0000E+00  0.8000E+01
     -1.327  0.0000E+00  0.8000E+01
     -1.286  0.0000E+00  0.8000E+01
     -1.244  0.0000E+00  0.8000E+01
     -1.203  0.0000E+00  0.8000E+01
     -1.162  0.0000E+00  0.8000E+01
     -1.120  0.0000E+00  0.8000E+01
     -1.079  0.0000E+00  0.8000E+01
     -1.038  0.0000E+00  0.8000E+01
     -0.996  0.0000E+00  0.8000E+01
     -0.955  0.0000E+00  0.8000E+01
     -0.913  0.0000E+00  0.8000E+01
     -0.872  0.0000E+00  0.8000E+01
     -0.831  0.0000E+00  0.8000E+01
     -0.789  0.0000E+00  0.8000E+01
     -0.748  0.0000E+00  0.8000E+01
     -0.707  0.0000E+00  0.8000E+01
     -0.665  0.0000E+00  0.8000E+01
     -0.624  0.0000E+00  0.8000E+01
     -0.582  0.0000E+00  0.8000E+01
     -0.541  0.5878E-15  0.8000E+01
     -0.500  0.4181E-11  0.8000E+01
     -0.458  0.8022E-08  0.8000E+01
     -0.417  0.4290E-05  0.8000E+01
     -0.376  0.6640E-03  0.8000E+01
     -0.334  0.3142E-01  0.8001E+01
     -0.293  0.4927E+00  0.8022E+01
     -0.251  0.2887E+01  0.8141E+01
     -0.210  0.7494E+01  0.8451E+01
     -0.169  0.1065E+02  0.8892E+01
     -0.127  0.1049E+02  0.9326E+01
     -0.086  0.8652E+01  0.9684E+01
     -0.045  0.5392E+01  0.9907E+01
     -0.003  0.1949E+01  0.9988E+01
      0.038  0.6534E+00  0.1001E+02
      0.080  0.1898E+01  0.1009E+02
      0.121  0.5379E+01  0.1032E+02
      0.162  0.9990E+01  0.1073E+02
      0.204  0.1365E+02  0.1129E+02
      0.245  0.1567E+02  0.1194E+02
      0.286  0.1585E+02  0.1260E+02
      0.328  0.1552E+02  0.1324E+02
      0.369  0.1636E+02  0.1392E+02
      0.410  0.1695E+02  0.1462E+02
      0.452  0.1705E+02  0.1532E+02
      0.493  0.1776E+02  0.1606E+02
      0.535  0.1913E+02  0.1685E+02
      0.576  0.1962E+02  0.1766E+02
      0.617  0.1897E+02  0.1845E+02
      0.659  0.1970E+02  0.1926E+02
      0.700  0.2160E+02  0.2016E+02
      0.741  0.2239E+02  0.2108E+02
      0.783  0.2232E+02  0.2200E+02
      0.824  0.2211E+02  0.2292E+02
      0.866  0.2255E+02  0.2385E+02
      0.907  0.2405E+02  0.2485E+02
      0.948  0.2532E+02  0.2590E+02
      0.990  0.2463E+02  0.2691E+02
      1.031  0.2473E+02  0.2794E+02
      1.072  0.2634E+02  0.2903E+02
      1.114  0.2699E+02  0.3014E+02
      1.155  0.2676E+02  0.3125E+02
      1.197  0.2636E+02  0.3234E+02
      1.238  0.2696E+02  0.3346E+02
      1.279  0.2789E+02  0.3461E+02
      1.321  0.2910E+02  0.3581E+02
      1.362  0.2968E+02  0.3704E+02
      1.403  0.2819E+02  0.3821E+02
      1.445  0.2719E+02  0.3933E+02
      1.486  0.2948E+02  0.4055E+02
      1.528  0.3118E+02  0.4184E+02
      1.569  0.3079E+02  0.4312E+02
      1.610  0.3115E+02  0.4441E+02
      1.652  0.3014E+02  0.4565E+02
      1.693  0.2181E+02  0.4655E+02
      1.734  0.1376E+02  0.4712E+02
      1.776  0.9989E+01  0.4754E+02
      1.817  0.6049E+01  0.4779E+02
      1.859  0.3210E+01  0.4792E+02
      1.900  0.1506E+01  0.4798E+02
      1.941  0.3815E+00  0.4800E+02
      1.983  0.3694E-01  0.4800E+02
      2.024  0.1164E-02  0.4800E+02
      2.065  0.1089E-04  0.4800E+02
      2.107  0.2856E-07  0.4800E+02
      2.148  0.2029E-10  0.4800E+02
      2.190  0.3782E-14  0.4800E+02
      2.231  0.0000E+00  0.4800E+02
      2.272  0.0000E+00  0.4800E+02
      2.314  0.0000E+00  0.4800E+02
      2.355  0.0000E+00  0.4800E+02
      2.396  0.0000E+00  0.4800E+02
      2.438  0.0000E+00  0.4800E+02
