 vasp.6.4.3 19Mar24 (build May 31 2024 16:31:43) complex                        
  
 executed on             LinuxIFC date 2024.11.02  01:45:39
 running   24 mpi-ranks, with    1 threads/rank, on    1 nodes
 distrk:  each k-point on   24 cores,    1 groups
 distr:  one band on NCORE=   1 cores,   24 groups


--------------------------------------------------------------------------------------------------------


 INCAR:
   SYSTEM = Convergence
   ISTART = 0
   ICHARG = 2
   PREC = Accurate
   ENCUT = 480
   LCHARG = .FALSE.
   LWAVE = .FALSE.
   ALGO = Normal
   NELM = 100
   EDIFF = 1E-6
   EDIFFG = -1E-3
   SIGMA = 0.05
   ISMEAR = 0
   ISPIN = 1
   NSW = 0
   IBRION = -1
   POTIM = .5
   ISIF = 2
   GGA = PE

 POTCAR:    PAW_PBE B 06Sep2000                   
 POTCAR:    PAW_PBE B 06Sep2000                   
   SHA256 =  a32ced30f5ae56fd4d10b4325ff17eb3e4e38ee0f4288bc219fb012fddfa6e97 B/POTCAR              
   COPYR  = (c) Copyright 06Sep2000 Georg Kresse                                                    
   COPYR  = This file is part of the software VASP. Any use, copying, and all other rights are regul
   COPYR  = If you do not have a valid VASP license, you may not use, copy or distribute this file. 
   VRHFIN =B: s2p1                                                                                  
   LEXCH  = PE                                                                                      
   EATOM  =    71.1703 eV,    5.2309 Ry                                                             
                                                                                                    
   TITEL  = PAW_PBE B 06Sep2000                                                                     
   LULTRA =        F    use ultrasoft PP ?                                                          
   IUNSCR =        1    unscreen: 0-lin 1-nonlin 2-no                                               
   RPACOR =    1.200    partial core radius                                                         
   POMASS =   10.811; ZVAL   =    3.000    mass and valenz                                          
   RCORE  =    1.700    outmost cutoff radius                                                       
   RWIGS  =    1.710; RWIGS  =    0.905    wigner-seitz radius (au A)                               
   ENMAX  =  318.614; ENMIN  =  238.960 eV                                                          
   ICORE  =        2    local potential                                                             
   LCOR   =        T    correct aug charges                                                         
   LPAW   =        T    paw PP                                                                      
   EAUG   =  535.514                                                                                
   DEXC   =    0.000                                                                                
   RMAX   =    1.732    core radius for proj-oper                                                   
   RAUG   =    1.300    factor for augmentation sphere                                              
   RDEP   =    1.757    radius for radial grids                                                     
   RDEPT  =    1.436    core radius for aug-charge                                                  
                                                                                                    
   Atomic configuration                                                                             
    4 entries                                                                                       
     n  l   j            E        occ.                                                              
     1  0  0.50      -180.5896   2.0000                                                             
     2  0  0.50        -9.4431   2.0000                                                             
     2  1  0.50        -3.6068   1.0000                                                             
     3  2  1.50        -4.0817   0.0000                                                             
   Description                                                                                      
     l       E           TYP  RCUT    TYP  RCUT                                                     
     0     -9.4430752     23  1.500                                                                 
     0      0.8675899     23  1.500                                                                 
     1     -3.6067955     23  1.700                                                                 
     1      6.1086146     23  1.700                                                                 
     2     -4.0817478      7  1.700                                                                 
  local pseudopotential read in
  partial core-charges read in
  partial kinetic energy density read in
  atomic valenz-charges read in
  non local Contribution for L=           0  read in
    real space projection operators read in
  non local Contribution for L=           0  read in
    real space projection operators read in
  non local Contribution for L=           1  read in
    real space projection operators read in
  non local Contribution for L=           1  read in
    real space projection operators read in
    PAW grid and wavefunctions read in
 
   number of l-projection  operators is LMAX  =           4
   number of lm-projection operators is LMMAX =           8
 
  PAW_PBE B 06Sep2000                   :
 energy of atom  1       EATOM=  -71.1703
 kinetic energy error for atom=    0.0013 (will be added to EATOM!!)
 
 
 POSCAR: B1
  positions in direct lattice
  No initial velocities read in


 exchange-correlation table for PE
   RHO(1)=    0.500       N(1)  =     2000
   RHO(2)=  100.500       N(2)  =     4000
 


--------------------------------------------------------------------------------------------------------


 ion  position               nearest neighbor table
   1  0.521  0.545  0.638-
 
  LATTYP: Found a simple orthorhombic cell.
 ALAT       =    12.5000000000
 B/A-ratio  =     1.2000000000
 C/A-ratio  =     1.4400000000
  
  Lattice vectors:
  
 A1 = (   0.0000000000, -12.5000000000,   0.0000000000)
 A2 = (  15.0000000000,   0.0000000000,   0.0000000000)
 A3 = (   0.0000000000,   0.0000000000,  18.0000000000)


Analysis of symmetry for initial positions (statically):
=====================================================================
 Subroutine PRICEL returns:
 Original cell was already a primitive cell.
 

 Routine SETGRP: Setting up the symmetry group for a 
 simple orthorhombic supercell.


 Subroutine GETGRP returns: Found  8 space group operations
 (whereof  1 operations were pure point group operations)
 out of a pool of  8 trial point group operations.


The static configuration has the point symmetry C_1 .
 The point group associated with its full space group is D_2h.


Analysis of symmetry for dynamics (positions and initial velocities):
=====================================================================
 Subroutine PRICEL returns:
 Original cell was already a primitive cell.
 

 Routine SETGRP: Setting up the symmetry group for a 
 simple orthorhombic supercell.


 Subroutine GETGRP returns: Found  8 space group operations
 (whereof  1 operations were pure point group operations)
 out of a pool of  8 trial point group operations.


The dynamic configuration has the point symmetry C_1 .
 The point group associated with its full space group is D_2h.


 Subroutine INISYM returns: Found  8 space group operations
 (whereof  1 operations are pure point group operations),
 and found     1 'primitive' translations


----------------------------------------------------------------------------------------

                                     Primitive cell                                     

  volume of cell :    3375.0000

  direct lattice vectors                    reciprocal lattice vectors
    15.000000000  0.000000000  0.000000000     0.066666667  0.000000000  0.000000000
     0.000000000 12.500000000  0.000000000     0.000000000  0.080000000  0.000000000
     0.000000000  0.000000000 18.000000000     0.000000000  0.000000000  0.055555556

  length of vectors
    15.000000000 12.500000000 18.000000000     0.066666667  0.080000000  0.055555556

  position of ions in fractional coordinates (direct lattice)
     0.521230000  0.545000000  0.637960000

  ion indices of the primitive-cell ions
   primitive index   ion index
                 1           1

----------------------------------------------------------------------------------------

 
 
 KPOINTS: k-points                                

Automatic generation of k-mesh.
 Grid dimensions read from file:
 generate k-points for:    7   10    6

 Generating k-lattice:

  Cartesian coordinates                     Fractional coordinates (reciprocal lattice)
     0.009523810  0.000000000  0.000000000     0.142857143  0.000000000  0.000000000
     0.000000000  0.008000000  0.000000000     0.000000000  0.100000000  0.000000000
     0.000000000  0.000000000  0.009259259     0.000000000  0.000000000  0.166666667

  Length of vectors
     0.009523810  0.008000000  0.009259259

  Shift w.r.t. Gamma in fractional coordinates (k-lattice)
     0.000000000  0.500000000  0.500000000

 
 Subroutine IBZKPT returns following result:
 ===========================================
 
 Found     60 irreducible k-points:
 
 Following reciprocal coordinates:
            Coordinates               Weight
  0.000000  0.050000  0.083333      4.000000
  0.142857  0.050000  0.083333      8.000000
  0.285714  0.050000  0.083333      8.000000
  0.428571  0.050000  0.083333      8.000000
  0.000000  0.150000  0.083333      4.000000
  0.142857  0.150000  0.083333      8.000000
  0.285714  0.150000  0.083333      8.000000
  0.428571  0.150000  0.083333      8.000000
  0.000000  0.250000  0.083333      4.000000
  0.142857  0.250000  0.083333      8.000000
  0.285714  0.250000  0.083333      8.000000
  0.428571  0.250000  0.083333      8.000000
  0.000000  0.350000  0.083333      4.000000
  0.142857  0.350000  0.083333      8.000000
  0.285714  0.350000  0.083333      8.000000
  0.428571  0.350000  0.083333      8.000000
  0.000000  0.450000  0.083333      4.000000
  0.142857  0.450000  0.083333      8.000000
  0.285714  0.450000  0.083333      8.000000
  0.428571  0.450000  0.083333      8.000000
  0.000000  0.050000  0.250000      4.000000
  0.142857  0.050000  0.250000      8.000000
  0.285714  0.050000  0.250000      8.000000
  0.428571  0.050000  0.250000      8.000000
  0.000000  0.150000  0.250000      4.000000
  0.142857  0.150000  0.250000      8.000000
  0.285714  0.150000  0.250000      8.000000
  0.428571  0.150000  0.250000      8.000000
  0.000000  0.250000  0.250000      4.000000
  0.142857  0.250000  0.250000      8.000000
  0.285714  0.250000  0.250000      8.000000
  0.428571  0.250000  0.250000      8.000000
  0.000000  0.350000  0.250000      4.000000
  0.142857  0.350000  0.250000      8.000000
  0.285714  0.350000  0.250000      8.000000
  0.428571  0.350000  0.250000      8.000000
  0.000000  0.450000  0.250000      4.000000
  0.142857  0.450000  0.250000      8.000000
  0.285714  0.450000  0.250000      8.000000
  0.428571  0.450000  0.250000      8.000000
  0.000000  0.050000  0.416667      4.000000
  0.142857  0.050000  0.416667      8.000000
  0.285714  0.050000  0.416667      8.000000
  0.428571  0.050000  0.416667      8.000000
  0.000000  0.150000  0.416667      4.000000
  0.142857  0.150000  0.416667      8.000000
  0.285714  0.150000  0.416667      8.000000
  0.428571  0.150000  0.416667      8.000000
  0.000000  0.250000  0.416667      4.000000
  0.142857  0.250000  0.416667      8.000000
  0.285714  0.250000  0.416667      8.000000
  0.428571  0.250000  0.416667      8.000000
  0.000000  0.350000  0.416667      4.000000
  0.142857  0.350000  0.416667      8.000000
  0.285714  0.350000  0.416667      8.000000
  0.428571  0.350000  0.416667      8.000000
  0.000000  0.450000  0.416667      4.000000
  0.142857  0.450000  0.416667      8.000000
  0.285714  0.450000  0.416667      8.000000
  0.428571  0.450000  0.416667      8.000000
 
 Following cartesian coordinates:
            Coordinates               Weight
  0.000000  0.004000  0.004630      4.000000
  0.009524  0.004000  0.004630      8.000000
  0.019048  0.004000  0.004630      8.000000
  0.028571  0.004000  0.004630      8.000000
  0.000000  0.012000  0.004630      4.000000
  0.009524  0.012000  0.004630      8.000000
  0.019048  0.012000  0.004630      8.000000
  0.028571  0.012000  0.004630      8.000000
  0.000000  0.020000  0.004630      4.000000
  0.009524  0.020000  0.004630      8.000000
  0.019048  0.020000  0.004630      8.000000
  0.028571  0.020000  0.004630      8.000000
  0.000000  0.028000  0.004630      4.000000
  0.009524  0.028000  0.004630      8.000000
  0.019048  0.028000  0.004630      8.000000
  0.028571  0.028000  0.004630      8.000000
  0.000000  0.036000  0.004630      4.000000
  0.009524  0.036000  0.004630      8.000000
  0.019048  0.036000  0.004630      8.000000
  0.028571  0.036000  0.004630      8.000000
  0.000000  0.004000  0.013889      4.000000
  0.009524  0.004000  0.013889      8.000000
  0.019048  0.004000  0.013889      8.000000
  0.028571  0.004000  0.013889      8.000000
  0.000000  0.012000  0.013889      4.000000
  0.009524  0.012000  0.013889      8.000000
  0.019048  0.012000  0.013889      8.000000
  0.028571  0.012000  0.013889      8.000000
  0.000000  0.020000  0.013889      4.000000
  0.009524  0.020000  0.013889      8.000000
  0.019048  0.020000  0.013889      8.000000
  0.028571  0.020000  0.013889      8.000000
  0.000000  0.028000  0.013889      4.000000
  0.009524  0.028000  0.013889      8.000000
  0.019048  0.028000  0.013889      8.000000
  0.028571  0.028000  0.013889      8.000000
  0.000000  0.036000  0.013889      4.000000
  0.009524  0.036000  0.013889      8.000000
  0.019048  0.036000  0.013889      8.000000
  0.028571  0.036000  0.013889      8.000000
  0.000000  0.004000  0.023148      4.000000
  0.009524  0.004000  0.023148      8.000000
  0.019048  0.004000  0.023148      8.000000
  0.028571  0.004000  0.023148      8.000000
  0.000000  0.012000  0.023148      4.000000
  0.009524  0.012000  0.023148      8.000000
  0.019048  0.012000  0.023148      8.000000
  0.028571  0.012000  0.023148      8.000000
  0.000000  0.020000  0.023148      4.000000
  0.009524  0.020000  0.023148      8.000000
  0.019048  0.020000  0.023148      8.000000
  0.028571  0.020000  0.023148      8.000000
  0.000000  0.028000  0.023148      4.000000
  0.009524  0.028000  0.023148      8.000000
  0.019048  0.028000  0.023148      8.000000
  0.028571  0.028000  0.023148      8.000000
  0.000000  0.036000  0.023148      4.000000
  0.009524  0.036000  0.023148      8.000000
  0.019048  0.036000  0.023148      8.000000
  0.028571  0.036000  0.023148      8.000000
 


--------------------------------------------------------------------------------------------------------




 Dimension of arrays:
   k-points           NKPTS =     60   k-points in BZ     NKDIM =     60   number of bands    NBANDS=     24
   number of dos      NEDOS =    301   number of ions     NIONS =      1
   non local maximal  LDIM  =      4   non local SUM 2l+1 LMDIM =      8
   total plane-waves  NPLWV = ******
   max r-space proj   IRMAX =      1   max aug-charges    IRDMAX=   6486
   dimension x,y,z NGX =   108 NGY =   90 NGZ =  140
   dimension x,y,z NGXF=   216 NGYF=  180 NGZF=  280
   support grid    NGXF=   216 NGYF=  180 NGZF=  280
   ions per type =               1
   NGX,Y,Z   is equivalent  to a cutoff of  11.97, 11.97, 12.93 a.u.
   NGXF,Y,Z  is equivalent  to a cutoff of  23.94, 23.94, 25.86 a.u.

 SYSTEM =  Convergence                             
 POSCAR =  B1                                      

 Startparameter for this run:
   NWRITE =      2    write-flag & timer
   PREC   = accura    normal or accurate (medium, high low for compatibility)
   ISTART =      0    job   : 0-new  1-cont  2-samecut
   ICHARG =      2    charge: 1-file 2-atom 10-const
   ISPIN  =      1    spin polarized calculation?
   LNONCOLLINEAR =      F non collinear calculations
   LSORBIT =      F    spin-orbit coupling
   INIWAV =      1    electr: 0-lowe 1-rand  2-diag
   LASPH  =      F    aspherical Exc in radial PAW
 Electronic Relaxation 1
   ENCUT  =  480.0 eV  35.28 Ry    5.94 a.u.  26.80 22.33 32.16*2*pi/ulx,y,z
   ENINI  =  480.0     initial cutoff
   ENAUG  =  535.5 eV  augmentation charge cutoff
   NELM   =    100;   NELMIN=  2; NELMDL= -5     # of ELM steps 
   EDIFF  = 0.1E-05   stopping-criterion for ELM
   LREAL  =      F    real-space projection
   NLSPLINE    = F    spline interpolate recip. space projectors
   LCOMPAT=      F    compatible to vasp.4.4
   GGA_COMPAT  = T    GGA compatible to vasp.4.4-vasp.4.6
   LMAXPAW     = -100 max onsite density
   LMAXMIX     =    2 max onsite mixed and CHGCAR
   VOSKOWN=      0    Vosko Wilk Nusair interpolation
   ROPT   =    0.00000
 Ionic relaxation
   EDIFFG = -.1E-02   stopping-criterion for IOM
   NSW    =      0    number of steps for IOM
   NBLOCK =      1;   KBLOCK =      1    inner block; outer block 
   IBRION =     -1    ionic relax: 0-MD 1-quasi-New 2-CG
   NFREE  =      0    steps in history (QN), initial steepest desc. (CG)
   ISIF   =      2    stress and relaxation
   IWAVPR =     10    prediction:  0-non 1-charg 2-wave 3-comb
   ISYM   =      2    0-nonsym 1-usesym 2-fastsym
   LCORR  =      T    Harris-Foulkes like correction to forces

   POTIM  = 0.5000    time-step for ionic-motion
   TEIN   =    0.0    initial temperature
   TEBEG  =    0.0;   TEEND  =   0.0 temperature during run
   SMASS  =  -3.00    Nose mass-parameter (am)
   estimated Nose-frequenzy (Omega)   =  0.10E-29 period in steps = 0.13E+47 mass=  -0.514E-26a.u.
   SCALEE = 1.0000    scale energy and forces
   NPACO  =    256;   APACO  = 10.0  distance and # of slots for P.C.
   PSTRESS=    0.0 pullay stress

  Mass of Ions in am
   POMASS =  10.81
  Ionic Valenz
   ZVAL   =   3.00
  Atomic Wigner-Seitz radii
   RWIGS  =  -1.00
  virtual crystal weights 
   VCA    =   1.00
   NELECT =       3.0000    total number of electrons
   NUPDOWN=      -1.0000    fix difference up-down

 DOS related values:
   EMIN   =  10.00;   EMAX   =-10.00  energy-range for DOS
   EFERMI =   0.00;   METHOD = LEGACY      
   ISMEAR =     0;   SIGMA  =   0.05  broadening in eV -4-tet -1-fermi 0-gaus

 Electronic relaxation 2 (details)
   IALGO  =     38    algorithm
   LDIAG  =      T    sub-space diagonalisation (order eigenvalues)
   LSUBROT=      F    optimize rotation matrix (better conditioning)
   TURBO    =      0    0=normal 1=particle mesh
   IRESTART =      0    0=no restart 2=restart with 2 vectors
   NREBOOT  =      0    no. of reboots
   NMIN     =      0    reboot dimension
   EREF     =   0.00    reference energy to select bands
   IMIX   =      4    mixing-type and parameters
     AMIX     =   0.40;   BMIX     =  1.00
     AMIX_MAG =   1.60;   BMIX_MAG =  1.00
     AMIN     =   0.10
     WC   =   100.;   INIMIX=   1;  MIXPRE=   1;  MAXMIX= -45

 Intra band minimization:
   WEIMIN = 0.0000     energy-eigenvalue tresh-hold
   EBREAK =  0.10E-07  absolut break condition
   DEPER  =   0.30     relativ break condition  

   TIME   =   0.40     timestep for ELM

  volume/ion in A,a.u.               =    3375.00     22775.62
  Fermi-wavevector in a.u.,A,eV,Ry     =   0.157407  0.297456  0.337111  0.024777
  Thomas-Fermi vector in A             =   0.845991
 
 Write flags
   LWAVE        =      F    write WAVECAR
   LDOWNSAMPLE  =      F    k-point downsampling of WAVECAR
   LCHARG       =      F    write CHGCAR
   LVTOT        =      F    write LOCPOT, total local potential
   LVHAR        =      F    write LOCPOT, Hartree potential only
   WRT_POTENTIAL= false  ! write potential to hdf5 file
   LELF         =      F    write electronic localiz. function (ELF)
   LORBIT       =      0    0 simple, 1 ext, 2 COOP (PROOUT), +10 PAW based schemes


 Dipole corrections
   LMONO      =      F    monopole corrections only (constant potential shift)
   LDIPOL     =      F    correct potential (dipole corrections)
   IDIPOL     =      0    1-x, 2-y, 3-z, 4-all directions 
   EPSILON    =  1.0000000 bulk dielectric constant
   LVACPOTAV  =      F  vacuum potentials using an averaging scheme for the charge density
   VACPOTFLAT =  0.1000000 required flatness to determine vacuum potential
 Exchange correlation treatment:
   GGA     = PE    functional components
   XC_C    = 1    coefficients multiplying the functional components
   LIBXC   =     F    Libxc                    
   VOSKOWN =     0    Vosko Wilk Nusair interpolation
   LHFCALC =     F    Hartree Fock is set to
   LHFONE  =     F    Hartree Fock one center treatment
   AEXX    =    0.0000 exact exchange contribution

 Parameters of functionals:
   PE:
     No parameter
 
 Van der Waals corrections
   IVDW    =     0    specifies the selected vdW correction

 Linear response parameters
   LEPSILON=     F    determine dielectric tensor
   LRPA    =     F    only Hartree local field effects (RPA)
   LNABLA  =     F    use nabla operator in PAW spheres
   LVEL    =     F    velocity operator in full k-point grid
   CSHIFT  =0.1000    complex shift for real part using Kramers Kronig
   OMEGAMAX=  -1.0    maximum frequency
   DEG_THRESHOLD= 0.2000000E-02 threshold for treating states as degnerate
   RTIME   =   -0.100 relaxation time in fs
  (WPLASMAI=    0.000 imaginary part of plasma frequency in eV, 0.658/RTIME)
   DFIELD  = 0.0000000 0.0000000 0.0000000 field for delta impulse in time
 
  Optional k-point grid parameters
   LKPOINTS_OPT  =     F    use optional k-point grid
   KPOINTS_OPT_MODE=     1    mode for optional k-point grid
 
 Orbital magnetization related:
   ORBITALMAG=     F  switch on orbital magnetization
   LCHIMAG   =     F  perturbation theory with respect to B field
   DQ        =  0.001000  dq finite difference perturbation B field
   LLRAUG    =     F  two centre corrections for induced B field
   LBONE     =     F  B-component reconstruction in AE one-centre
   LVGVCALC  =     T  calculate vGv susceptibility
   LVGVAPPL  =     F  apply vGv susceptibility instead of pGv for G=0

 Random number generation:
   RANDOM_GENERATOR = DEFAULT
   PCG_SEED         = not used


--------------------------------------------------------------------------------------------------------


 Static calculation
 charge density and potential will be updated during run
 non-spin polarized calculation
 Variant of blocked Davidson
 Davidson routine will perform the subspace rotation
 perform sub-space diagonalisation
    after iterative eigenvector-optimisation
 modified Broyden-mixing scheme, WC =      100.0
 initial mixing is a Kerker type mixing with AMIX =  0.4000 and BMIX =      1.0000
 Hartree-type preconditioning will be used
 using additional bands           22
 reciprocal scheme for non local part
 use partial core corrections
 calculate Harris-corrections to forces 
   (improved forces if not selfconsistent)
 use gradient corrections 
 use of overlap-Matrix (Vanderbilt PP)
 Gauss-broadening in eV      SIGMA  =   0.05


--------------------------------------------------------------------------------------------------------


  energy-cutoff  :      480.00
  volume of cell :     3375.00
      direct lattice vectors                 reciprocal lattice vectors
    15.000000000  0.000000000  0.000000000     0.066666667  0.000000000  0.000000000
     0.000000000 12.500000000  0.000000000     0.000000000  0.080000000  0.000000000
     0.000000000  0.000000000 18.000000000     0.000000000  0.000000000  0.055555556

  length of vectors
    15.000000000 12.500000000 18.000000000     0.066666667  0.080000000  0.055555556


 
 k-points in units of 2pi/SCALE and weight: k-points                                
   0.00000000  0.00400000  0.00462963       0.010
   0.00952381  0.00400000  0.00462963       0.019
   0.01904762  0.00400000  0.00462963       0.019
   0.02857143  0.00400000  0.00462963       0.019
   0.00000000  0.01200000  0.00462963       0.010
   0.00952381  0.01200000  0.00462963       0.019
   0.01904762  0.01200000  0.00462963       0.019
   0.02857143  0.01200000  0.00462963       0.019
   0.00000000  0.02000000  0.00462963       0.010
   0.00952381  0.02000000  0.00462963       0.019
   0.01904762  0.02000000  0.00462963       0.019
   0.02857143  0.02000000  0.00462963       0.019
   0.00000000  0.02800000  0.00462963       0.010
   0.00952381  0.02800000  0.00462963       0.019
   0.01904762  0.02800000  0.00462963       0.019
   0.02857143  0.02800000  0.00462963       0.019
   0.00000000  0.03600000  0.00462963       0.010
   0.00952381  0.03600000  0.00462963       0.019
   0.01904762  0.03600000  0.00462963       0.019
   0.02857143  0.03600000  0.00462963       0.019
   0.00000000  0.00400000  0.01388889       0.010
   0.00952381  0.00400000  0.01388889       0.019
   0.01904762  0.00400000  0.01388889       0.019
   0.02857143  0.00400000  0.01388889       0.019
   0.00000000  0.01200000  0.01388889       0.010
   0.00952381  0.01200000  0.01388889       0.019
   0.01904762  0.01200000  0.01388889       0.019
   0.02857143  0.01200000  0.01388889       0.019
   0.00000000  0.02000000  0.01388889       0.010
   0.00952381  0.02000000  0.01388889       0.019
   0.01904762  0.02000000  0.01388889       0.019
   0.02857143  0.02000000  0.01388889       0.019
   0.00000000  0.02800000  0.01388889       0.010
   0.00952381  0.02800000  0.01388889       0.019
   0.01904762  0.02800000  0.01388889       0.019
   0.02857143  0.02800000  0.01388889       0.019
   0.00000000  0.03600000  0.01388889       0.010
   0.00952381  0.03600000  0.01388889       0.019
   0.01904762  0.03600000  0.01388889       0.019
   0.02857143  0.03600000  0.01388889       0.019
   0.00000000  0.00400000  0.02314815       0.010
   0.00952381  0.00400000  0.02314815       0.019
   0.01904762  0.00400000  0.02314815       0.019
   0.02857143  0.00400000  0.02314815       0.019
   0.00000000  0.01200000  0.02314815       0.010
   0.00952381  0.01200000  0.02314815       0.019
   0.01904762  0.01200000  0.02314815       0.019
   0.02857143  0.01200000  0.02314815       0.019
   0.00000000  0.02000000  0.02314815       0.010
   0.00952381  0.02000000  0.02314815       0.019
   0.01904762  0.02000000  0.02314815       0.019
   0.02857143  0.02000000  0.02314815       0.019
   0.00000000  0.02800000  0.02314815       0.010
   0.00952381  0.02800000  0.02314815       0.019
   0.01904762  0.02800000  0.02314815       0.019
   0.02857143  0.02800000  0.02314815       0.019
   0.00000000  0.03600000  0.02314815       0.010
   0.00952381  0.03600000  0.02314815       0.019
   0.01904762  0.03600000  0.02314815       0.019
   0.02857143  0.03600000  0.02314815       0.019
 
 k-points in reciprocal lattice and weights: k-points                                
   0.00000000  0.05000000  0.08333333       0.010
   0.14285714  0.05000000  0.08333333       0.019
   0.28571429  0.05000000  0.08333333       0.019
   0.42857143  0.05000000  0.08333333       0.019
   0.00000000  0.15000000  0.08333333       0.010
   0.14285714  0.15000000  0.08333333       0.019
   0.28571429  0.15000000  0.08333333       0.019
   0.42857143  0.15000000  0.08333333       0.019
   0.00000000  0.25000000  0.08333333       0.010
   0.14285714  0.25000000  0.08333333       0.019
   0.28571429  0.25000000  0.08333333       0.019
   0.42857143  0.25000000  0.08333333       0.019
   0.00000000  0.35000000  0.08333333       0.010
   0.14285714  0.35000000  0.08333333       0.019
   0.28571429  0.35000000  0.08333333       0.019
   0.42857143  0.35000000  0.08333333       0.019
   0.00000000  0.45000000  0.08333333       0.010
   0.14285714  0.45000000  0.08333333       0.019
   0.28571429  0.45000000  0.08333333       0.019
   0.42857143  0.45000000  0.08333333       0.019
   0.00000000  0.05000000  0.25000000       0.010
   0.14285714  0.05000000  0.25000000       0.019
   0.28571429  0.05000000  0.25000000       0.019
   0.42857143  0.05000000  0.25000000       0.019
   0.00000000  0.15000000  0.25000000       0.010
   0.14285714  0.15000000  0.25000000       0.019
   0.28571429  0.15000000  0.25000000       0.019
   0.42857143  0.15000000  0.25000000       0.019
   0.00000000  0.25000000  0.25000000       0.010
   0.14285714  0.25000000  0.25000000       0.019
   0.28571429  0.25000000  0.25000000       0.019
   0.42857143  0.25000000  0.25000000       0.019
   0.00000000  0.35000000  0.25000000       0.010
   0.14285714  0.35000000  0.25000000       0.019
   0.28571429  0.35000000  0.25000000       0.019
   0.42857143  0.35000000  0.25000000       0.019
   0.00000000  0.45000000  0.25000000       0.010
   0.14285714  0.45000000  0.25000000       0.019
   0.28571429  0.45000000  0.25000000       0.019
   0.42857143  0.45000000  0.25000000       0.019
   0.00000000  0.05000000  0.41666667       0.010
   0.14285714  0.05000000  0.41666667       0.019
   0.28571429  0.05000000  0.41666667       0.019
   0.42857143  0.05000000  0.41666667       0.019
   0.00000000  0.15000000  0.41666667       0.010
   0.14285714  0.15000000  0.41666667       0.019
   0.28571429  0.15000000  0.41666667       0.019
   0.42857143  0.15000000  0.41666667       0.019
   0.00000000  0.25000000  0.41666667       0.010
   0.14285714  0.25000000  0.41666667       0.019
   0.28571429  0.25000000  0.41666667       0.019
   0.42857143  0.25000000  0.41666667       0.019
   0.00000000  0.35000000  0.41666667       0.010
   0.14285714  0.35000000  0.41666667       0.019
   0.28571429  0.35000000  0.41666667       0.019
   0.42857143  0.35000000  0.41666667       0.019
   0.00000000  0.45000000  0.41666667       0.010
   0.14285714  0.45000000  0.41666667       0.019
   0.28571429  0.45000000  0.41666667       0.019
   0.42857143  0.45000000  0.41666667       0.019
 
 position of ions in fractional coordinates (direct lattice) 
   0.52123000  0.54500000  0.63796000
 
 position of ions in cartesian coordinates  (Angst):
   7.81845000  6.81250000 11.48328000
 


--------------------------------------------------------------------------------------------------------


 k-point     1 :   0.0000 0.0500 0.0833  plane waves:   80573
 k-point     2 :   0.1429 0.0500 0.0833  plane waves:   80556
 k-point     3 :   0.2857 0.0500 0.0833  plane waves:   80599
 k-point     4 :   0.4286 0.0500 0.0833  plane waves:   80606
 k-point     5 :   0.0000 0.1500 0.0833  plane waves:   80605
 k-point     6 :   0.1429 0.1500 0.0833  plane waves:   80609
 k-point     7 :   0.2857 0.1500 0.0833  plane waves:   80584
 k-point     8 :   0.4286 0.1500 0.0833  plane waves:   80606
 k-point     9 :   0.0000 0.2500 0.0833  plane waves:   80597
 k-point    10 :   0.1429 0.2500 0.0833  plane waves:   80587
 k-point    11 :   0.2857 0.2500 0.0833  plane waves:   80574
 k-point    12 :   0.4286 0.2500 0.0833  plane waves:   80579
 k-point    13 :   0.0000 0.3500 0.0833  plane waves:   80578
 k-point    14 :   0.1429 0.3500 0.0833  plane waves:   80573
 k-point    15 :   0.2857 0.3500 0.0833  plane waves:   80578
 k-point    16 :   0.4286 0.3500 0.0833  plane waves:   80607
 k-point    17 :   0.0000 0.4500 0.0833  plane waves:   80545
 k-point    18 :   0.1429 0.4500 0.0833  plane waves:   80590
 k-point    19 :   0.2857 0.4500 0.0833  plane waves:   80575
 k-point    20 :   0.4286 0.4500 0.0833  plane waves:   80595
 k-point    21 :   0.0000 0.0500 0.2500  plane waves:   80581
 k-point    22 :   0.1429 0.0500 0.2500  plane waves:   80595
 k-point    23 :   0.2857 0.0500 0.2500  plane waves:   80627
 k-point    24 :   0.4286 0.0500 0.2500  plane waves:   80623
 k-point    25 :   0.0000 0.1500 0.2500  plane waves:   80609
 k-point    26 :   0.1429 0.1500 0.2500  plane waves:   80586
 k-point    27 :   0.2857 0.1500 0.2500  plane waves:   80619
 k-point    28 :   0.4286 0.1500 0.2500  plane waves:   80604
 k-point    29 :   0.0000 0.2500 0.2500  plane waves:   80586
 k-point    30 :   0.1429 0.2500 0.2500  plane waves:   80598
 k-point    31 :   0.2857 0.2500 0.2500  plane waves:   80598
 k-point    32 :   0.4286 0.2500 0.2500  plane waves:   80597
 k-point    33 :   0.0000 0.3500 0.2500  plane waves:   80619
 k-point    34 :   0.1429 0.3500 0.2500  plane waves:   80556
 k-point    35 :   0.2857 0.3500 0.2500  plane waves:   80564
 k-point    36 :   0.4286 0.3500 0.2500  plane waves:   80597
 k-point    37 :   0.0000 0.4500 0.2500  plane waves:   80586
 k-point    38 :   0.1429 0.4500 0.2500  plane waves:   80584
 k-point    39 :   0.2857 0.4500 0.2500  plane waves:   80565
 k-point    40 :   0.4286 0.4500 0.2500  plane waves:   80598
 k-point    41 :   0.0000 0.0500 0.4167  plane waves:   80573
 k-point    42 :   0.1429 0.0500 0.4167  plane waves:   80620
 k-point    43 :   0.2857 0.0500 0.4167  plane waves:   80620
 k-point    44 :   0.4286 0.0500 0.4167  plane waves:   80643
 k-point    45 :   0.0000 0.1500 0.4167  plane waves:   80580
 k-point    46 :   0.1429 0.1500 0.4167  plane waves:   80589
 k-point    47 :   0.2857 0.1500 0.4167  plane waves:   80621
 k-point    48 :   0.4286 0.1500 0.4167  plane waves:   80631
 k-point    49 :   0.0000 0.2500 0.4167  plane waves:   80611
 k-point    50 :   0.1429 0.2500 0.4167  plane waves:   80591
 k-point    51 :   0.2857 0.2500 0.4167  plane waves:   80591
 k-point    52 :   0.4286 0.2500 0.4167  plane waves:   80576
 k-point    53 :   0.0000 0.3500 0.4167  plane waves:   80612
 k-point    54 :   0.1429 0.3500 0.4167  plane waves:   80611
 k-point    55 :   0.2857 0.3500 0.4167  plane waves:   80570
 k-point    56 :   0.4286 0.3500 0.4167  plane waves:   80560
 k-point    57 :   0.0000 0.4500 0.4167  plane waves:   80595
 k-point    58 :   0.1429 0.4500 0.4167  plane waves:   80611
 k-point    59 :   0.2857 0.4500 0.4167  plane waves:   80567
 k-point    60 :   0.4286 0.4500 0.4167  plane waves:   80577

 maximum and minimum number of plane-waves per node :     80643    80545

 maximum number of plane-waves:     80643
 maximum index in each direction: 
   IXMAX=   26   IYMAX=   22   IZMAX=   32
   IXMIN=  -27   IYMIN=  -22   IZMIN=  -32


 serial   3D FFT for wavefunctions
 parallel 3D FFT for charge:
    minimum data exchange during FFTs selected (reduces bandwidth)


 total amount of memory used by VASP MPI-rank0   515839. kBytes
=======================================================================

   base      :      30000. kBytes
   nonl-proj :     311040. kBytes
   fftplans  :      20866. kBytes
   grid      :      76470. kBytes
   one-center:          3. kBytes
   wavefun   :      77460. kBytes
 
     INWAV:  cpu time      0.0001: real time      0.0003
 Broyden mixing: mesh for mixing (old mesh)
   NGX = 53   NGY = 45   NGZ = 65
  (NGX  =216   NGY  =180   NGZ  =280)
  gives a total of 155025 points

 initial charge density was supplied:
 charge density of overlapping atoms calculated
 number of electron       3.0000000 magnetization 
 keeping initial charge density in first step


--------------------------------------------------------------------------------------------------------


 Maximum index for augmentation-charges          229 (set IRDMAX)


--------------------------------------------------------------------------------------------------------


 First call to EWALD:  gamma=   0.118
 Maximum number of real-space cells 3x 3x 2
 Maximum number of reciprocal cells 3x 2x 3

    FEWALD:  cpu time      0.0020: real time      0.0021


--------------------------------------- Ionic step        1  -------------------------------------------




--------------------------------------- Iteration      1(   1)  ---------------------------------------


    POTLOK:  cpu time      0.3549: real time      0.3645
    SETDIJ:  cpu time      0.0013: real time      0.0013
     EDDAV:  cpu time     17.5287: real time     17.8306
       DOS:  cpu time      0.0010: real time      0.0010
    --------------------------------------------
      LOOP:  cpu time     17.8859: real time     18.1974

 eigenvalue-minimisations  :  2880
 total energy-change (2. order) : 0.7596132E+01  (-0.3423442E+02)
 number of electron       3.0000000 magnetization 
 augmentation part        3.0000000 magnetization 

 Free energy of the ion-electron system (eV)
  ---------------------------------------------------
  alpha Z        PSCENC =         0.02038373
  Ewald energy   TEWEN  =       -11.82901664
  -Hartree energ DENC   =       -42.58396533
  -exchange      EXHF   =         0.00000000
  -V(xc)+E(xc)   XCENC  =         4.75549673
  PAW double counting   =        43.49986551      -42.64454556
  entropy T*S    EENTRO =        -0.01319731
  eigenvalues    EBANDS =       -14.77789852
  atomic energy  EATOM  =        71.16900941
  Solvation  Ediel_sol  =         0.00000000
  ---------------------------------------------------
  free energy    TOTEN  =         7.59613202 eV

  energy without entropy =        7.60932932  energy(sigma->0) =        7.60273067


--------------------------------------------------------------------------------------------------------




--------------------------------------- Iteration      1(   2)  ---------------------------------------


     EDDAV:  cpu time     28.6438: real time     28.9853
       DOS:  cpu time      0.0010: real time      0.0015
    --------------------------------------------
      LOOP:  cpu time     28.6447: real time     28.9868

 eigenvalue-minimisations  :  5760
 total energy-change (2. order) :-0.7527901E+01  (-0.7503866E+01)
 number of electron       3.0000000 magnetization 
 augmentation part        3.0000000 magnetization 

 Free energy of the ion-electron system (eV)
  ---------------------------------------------------
  alpha Z        PSCENC =         0.02038373
  Ewald energy   TEWEN  =       -11.82901664
  -Hartree energ DENC   =       -42.58396533
  -exchange      EXHF   =         0.00000000
  -V(xc)+E(xc)   XCENC  =         4.75549673
  PAW double counting   =        43.49986551      -42.64454556
  entropy T*S    EENTRO =        -0.03284407
  eigenvalues    EBANDS =       -22.28615279
  atomic energy  EATOM  =        71.16900941
  Solvation  Ediel_sol  =         0.00000000
  ---------------------------------------------------
  free energy    TOTEN  =         0.06823098 eV

  energy without entropy =        0.10107506  energy(sigma->0) =        0.08465302


--------------------------------------------------------------------------------------------------------




--------------------------------------- Iteration      1(   3)  ---------------------------------------


     EDDAV:  cpu time     17.4508: real time     17.6544
       DOS:  cpu time      0.0009: real time      0.0009
    --------------------------------------------
      LOOP:  cpu time     17.4516: real time     17.6553

 eigenvalue-minimisations  :  2880
 total energy-change (2. order) :-0.1241773E+00  (-0.1052669E+00)
 number of electron       3.0000000 magnetization 
 augmentation part        3.0000000 magnetization 

 Free energy of the ion-electron system (eV)
  ---------------------------------------------------
  alpha Z        PSCENC =         0.02038373
  Ewald energy   TEWEN  =       -11.82901664
  -Hartree energ DENC   =       -42.58396533
  -exchange      EXHF   =         0.00000000
  -V(xc)+E(xc)   XCENC  =         4.75549673
  PAW double counting   =        43.49986551      -42.64454556
  entropy T*S    EENTRO =        -0.05296099
  eigenvalues    EBANDS =       -22.39021318
  atomic energy  EATOM  =        71.16900941
  Solvation  Ediel_sol  =         0.00000000
  ---------------------------------------------------
  free energy    TOTEN  =        -0.05594633 eV

  energy without entropy =       -0.00298534  energy(sigma->0) =       -0.02946583


--------------------------------------------------------------------------------------------------------




--------------------------------------- Iteration      1(   4)  ---------------------------------------


     EDDAV:  cpu time     19.1660: real time     19.3858
       DOS:  cpu time      0.0009: real time      0.0009
    --------------------------------------------
      LOOP:  cpu time     19.1669: real time     19.3867

 eigenvalue-minimisations  :  3312
 total energy-change (2. order) :-0.2300484E-02  (-0.2262430E-02)
 number of electron       3.0000000 magnetization 
 augmentation part        3.0000000 magnetization 

 Free energy of the ion-electron system (eV)
  ---------------------------------------------------
  alpha Z        PSCENC =         0.02038373
  Ewald energy   TEWEN  =       -11.82901664
  -Hartree energ DENC   =       -42.58396533
  -exchange      EXHF   =         0.00000000
  -V(xc)+E(xc)   XCENC  =         4.75549673
  PAW double counting   =        43.49986551      -42.64454556
  entropy T*S    EENTRO =        -0.05300132
  eigenvalues    EBANDS =       -22.39247333
  atomic energy  EATOM  =        71.16900941
  Solvation  Ediel_sol  =         0.00000000
  ---------------------------------------------------
  free energy    TOTEN  =        -0.05824681 eV

  energy without entropy =       -0.00524549  energy(sigma->0) =       -0.03174615


--------------------------------------------------------------------------------------------------------




--------------------------------------- Iteration      1(   5)  ---------------------------------------


     EDDAV:  cpu time     22.4939: real time     22.7111
       DOS:  cpu time      0.0008: real time      0.0008
    CHARGE:  cpu time      1.2113: real time      1.2261
    MIXING:  cpu time      0.0258: real time      0.0260
    --------------------------------------------
      LOOP:  cpu time     23.7318: real time     23.9640

 eigenvalue-minimisations  :  4176
 total energy-change (2. order) :-0.2496175E-04  (-0.2495620E-04)
 number of electron       3.0000000 magnetization 
 augmentation part       -0.0945663 magnetization 

 Broyden mixing:
  rms(total) = 0.74046E-03    rms(broyden)= 0.68591E-03
  rms(prec ) = 0.69172E-03
  weight for this iteration     100.00

 Free energy of the ion-electron system (eV)
  ---------------------------------------------------
  alpha Z        PSCENC =         0.02038373
  Ewald energy   TEWEN  =       -11.82901664
  -Hartree energ DENC   =       -42.58396533
  -exchange      EXHF   =         0.00000000
  -V(xc)+E(xc)   XCENC  =         4.75549673
  PAW double counting   =        43.49986551      -42.64454556
  entropy T*S    EENTRO =        -0.05300134
  eigenvalues    EBANDS =       -22.39249828
  atomic energy  EATOM  =        71.16900941
  Solvation  Ediel_sol  =         0.00000000
  ---------------------------------------------------
  free energy    TOTEN  =        -0.05827177 eV

  energy without entropy =       -0.00527043  energy(sigma->0) =       -0.03177110


--------------------------------------------------------------------------------------------------------




--------------------------------------- Iteration      1(   6)  ---------------------------------------


    POTLOK:  cpu time      0.3548: real time      0.3580
    SETDIJ:  cpu time      0.0007: real time      0.0009
     EDDAV:  cpu time     21.0967: real time     21.3287
       DOS:  cpu time      0.0009: real time      0.0009
    --------------------------------------------
      LOOP:  cpu time     21.4531: real time     21.6885

 eigenvalue-minimisations  :  3840
 total energy-change (2. order) :-0.3262192E-06  (-0.2251923E-06)
 number of electron       3.0000000 magnetization 
 augmentation part       -0.0945663 magnetization 

 Free energy of the ion-electron system (eV)
  ---------------------------------------------------
  alpha Z        PSCENC =         0.02038373
  Ewald energy   TEWEN  =       -11.82901664
  -Hartree energ DENC   =       -42.58386581
  -exchange      EXHF   =         0.00000000
  -V(xc)+E(xc)   XCENC  =         4.75536849
  PAW double counting   =        43.51353331      -42.65831951
  entropy T*S    EENTRO =        -0.05300134
  eigenvalues    EBANDS =       -22.39236375
  atomic energy  EATOM  =        71.16900941
  Solvation  Ediel_sol  =         0.00000000
  ---------------------------------------------------
  free energy    TOTEN  =        -0.05827210 eV

  energy without entropy =       -0.00527076  energy(sigma->0) =       -0.03177143


--------------------------------------------------------------------------------------------------------




 average (electrostatic) potential at core
  the test charge radii are     0.7672
  (the norm of the test charge is              1.0000)
       1 -39.4299
 
 
 
 E-fermi :  -3.6068     XC(G=0):  -0.2675     alpha+bet : -0.0329

 val. band max:       -9.4099003085   @ k =   0.0000   0.4500   0.0833
 cond. band min:      -3.5726718096   @ k =   0.0000   0.4500   0.4167
 fundamental gap:      5.8372284989
 Fermi energy:        -3.6067648102

 k-point     1 :       0.0000    0.0500    0.0833
  band No.  band energies     occupation 
      1      -9.4099      2.00000
      2      -3.5726      0.33346
      3      -3.5726      0.33332
      4      -3.5725      0.33179
      5      -0.2603      0.00000
      6       0.2374      0.00000
      7       0.3729      0.00000
      8       0.4732      0.00000
      9       0.5428      0.00000
     10       0.6643      0.00000
     11       0.8542      0.00000
     12       0.9072      0.00000
     13       0.9342      0.00000
     14       1.0506      0.00000
     15       1.0772      0.00000
     16       1.1145      0.00000
     17       1.2370      0.00000
     18       1.2912      0.00000
     19       1.2999      0.00000
     20       1.4050      0.00000
     21       1.4373      0.00000
     22       1.5223      0.00000
     23       1.5321      0.00000
     24       1.6293      0.00000

 k-point     2 :       0.1429    0.0500    0.0833
  band No.  band energies     occupation 
      1      -9.4099      2.00000
      2      -3.5726      0.33345
      3      -3.5726      0.33336
      4      -3.5725      0.33179
      5      -0.2502      0.00000
      6       0.2406      0.00000
      7       0.3236      0.00000
      8       0.4161      0.00000
      9       0.6700      0.00000
     10       0.6983      0.00000
     11       0.7557      0.00000
     12       0.8653      0.00000
     13       0.9016      0.00000
     14       1.0946      0.00000
     15       1.1218      0.00000
     16       1.1770      0.00000
     17       1.2547      0.00000
     18       1.2660      0.00000
     19       1.3292      0.00000
     20       1.3697      0.00000
     21       1.4572      0.00000
     22       1.5334      0.00000
     23       1.5751      0.00000
     24       1.6272      0.00000

 k-point     3 :       0.2857    0.0500    0.0833
  band No.  band energies     occupation 
      1      -9.4099      2.00000
      2      -3.5726      0.33348
      3      -3.5726      0.33344
      4      -3.5725      0.33179
      5      -0.2233      0.00000
      6       0.1751      0.00000
      7       0.3031      0.00000
      8       0.4442      0.00000
      9       0.6097      0.00000
     10       0.7024      0.00000
     11       0.7528      0.00000
     12       0.8940      0.00000
     13       0.9250      0.00000
     14       1.0435      0.00000
     15       1.1468      0.00000
     16       1.2337      0.00000
     17       1.2948      0.00000
     18       1.3069      0.00000
     19       1.3782      0.00000
     20       1.4788      0.00000
     21       1.4849      0.00000
     22       1.5096      0.00000
     23       1.5707      0.00000
     24       1.6157      0.00000

 k-point     4 :       0.4286    0.0500    0.0833
  band No.  band energies     occupation 
      1      -9.4099      2.00000
      2      -3.5726      0.33356
      3      -3.5726      0.33344
      4      -3.5725      0.33179
      5      -0.1946      0.00000
      6       0.0996      0.00000
      7       0.3467      0.00000
      8       0.4884      0.00000
      9       0.5125      0.00000
     10       0.6537      0.00000
     11       0.7365      0.00000
     12       0.9319      0.00000
     13       0.9569      0.00000
     14       1.1255      0.00000
     15       1.1821      0.00000
     16       1.1960      0.00000
     17       1.3283      0.00000
     18       1.3803      0.00000
     19       1.3916      0.00000
     20       1.4470      0.00000
     21       1.4970      0.00000
     22       1.5475      0.00000
     23       1.5582      0.00000
     24       1.6295      0.00000

 k-point     5 :       0.0000    0.1500    0.0833
  band No.  band energies     occupation 
      1      -9.4099      2.00000
      2      -3.5726      0.33341
      3      -3.5726      0.33328
      4      -3.5725      0.33239
      5      -0.2426      0.00000
      6       0.2546      0.00000
      7       0.3864      0.00000
      8       0.4900      0.00000
      9       0.5038      0.00000
     10       0.5663      0.00000
     11       0.9143      0.00000
     12       0.9244      0.00000
     13       0.9717      0.00000
     14       1.0292      0.00000
     15       1.0617      0.00000
     16       1.0950      0.00000
     17       1.1204      0.00000
     18       1.1561      0.00000
     19       1.2441      0.00000
     20       1.4852      0.00000
     21       1.5482      0.00000
     22       1.5961      0.00000
     23       1.6270      0.00000
     24       1.6450      0.00000

 k-point     6 :       0.1429    0.1500    0.0833
  band No.  band energies     occupation 
      1      -9.4099      2.00000
      2      -3.5726      0.33341
      3      -3.5726      0.33332
      4      -3.5725      0.33239
      5      -0.2325      0.00000
      6       0.2576      0.00000
      7       0.3407      0.00000
      8       0.4313      0.00000
      9       0.5159      0.00000
     10       0.7131      0.00000
     11       0.7735      0.00000
     12       0.9152      0.00000
     13       0.9392      0.00000
     14       1.0117      0.00000
     15       1.0620      0.00000
     16       1.1107      0.00000
     17       1.1449      0.00000
     18       1.2880      0.00000
     19       1.3702      0.00000
     20       1.4457      0.00000
     21       1.5170      0.00000
     22       1.5429      0.00000
     23       1.5701      0.00000
     24       1.6407      0.00000

 k-point     7 :       0.2857    0.1500    0.0833
  band No.  band energies     occupation 
      1      -9.4099      2.00000
      2      -3.5726      0.33342
      3      -3.5726      0.33340
      4      -3.5725      0.33238
      5      -0.2057      0.00000
      6       0.1929      0.00000
      7       0.3207      0.00000
      8       0.4583      0.00000
      9       0.5464      0.00000
     10       0.6278      0.00000
     11       0.7678      0.00000
     12       0.8736      0.00000
     13       0.9499      0.00000
     14       0.9865      0.00000
     15       1.0844      0.00000
     16       1.1466      0.00000
     17       1.2887      0.00000
     18       1.3581      0.00000
     19       1.4232      0.00000
     20       1.4457      0.00000
     21       1.5141      0.00000
     22       1.5534      0.00000
     23       1.5973      0.00000
     24       1.6358      0.00000

 k-point     8 :       0.4286    0.1500    0.0833
  band No.  band energies     occupation 
      1      -9.4099      2.00000
      2      -3.5726      0.33351
      3      -3.5726      0.33340
      4      -3.5725      0.33237
      5      -0.1771      0.00000
      6       0.1179      0.00000
      7       0.3639      0.00000
      8       0.5029      0.00000
      9       0.5286      0.00000
     10       0.5847      0.00000
     11       0.6700      0.00000
     12       0.7926      0.00000
     13       1.0283      0.00000
     14       1.1167      0.00000
     15       1.1731      0.00000
     16       1.1790      0.00000
     17       1.2279      0.00000
     18       1.3270      0.00000
     19       1.3687      0.00000
     20       1.4678      0.00000
     21       1.5563      0.00000
     22       1.6128      0.00000
     23       1.6578      0.00000
     24       1.7224      0.00000

 k-point     9 :       0.0000    0.2500    0.0833
  band No.  band energies     occupation 
      1      -9.4099      2.00000
      2      -3.5726      0.33335
      3      -3.5726      0.33333
      4      -3.5726      0.33321
      5      -0.2084      0.00000
      6       0.2800      0.00000
      7       0.3507      0.00000
      8       0.4442      0.00000
      9       0.5229      0.00000
     10       0.6017      0.00000
     11       0.7820      0.00000
     12       0.9180      0.00000
     13       0.9526      0.00000
     14       1.0006      0.00000
     15       1.0059      0.00000
     16       1.0913      0.00000
     17       1.1166      0.00000
     18       1.1513      0.00000
     19       1.2757      0.00000
     20       1.4580      0.00000
     21       1.4724      0.00000
     22       1.5783      0.00000
     23       1.5972      0.00000
     24       1.6304      0.00000

 k-point    10 :       0.1429    0.2500    0.0833
  band No.  band energies     occupation 
      1      -9.4099      2.00000
      2      -3.5726      0.33335
      3      -3.5726      0.33333
      4      -3.5726      0.33325
      5      -0.1985      0.00000
      6       0.2827      0.00000
      7       0.3581      0.00000
      8       0.3921      0.00000
      9       0.4758      0.00000
     10       0.7438      0.00000
     11       0.7847      0.00000
     12       0.8216      0.00000
     13       0.8623      0.00000
     14       0.9569      0.00000
     15       0.9651      0.00000
     16       1.1696      0.00000
     17       1.2281      0.00000
     18       1.2694      0.00000
     19       1.3189      0.00000
     20       1.3347      0.00000
     21       1.4496      0.00000
     22       1.5892      0.00000
     23       1.6547      0.00000
     24       1.7341      0.00000

 k-point    11 :       0.2857    0.2500    0.0833
  band No.  band energies     occupation 
      1      -9.4099      2.00000
      2      -3.5726      0.33335
      3      -3.5726      0.33333
      4      -3.5726      0.33333
      5      -0.1720      0.00000
      6       0.2267      0.00000
      7       0.3517      0.00000
      8       0.3970      0.00000
      9       0.5062      0.00000
     10       0.6594      0.00000
     11       0.7246      0.00000
     12       0.8108      0.00000
     13       0.8475      0.00000
     14       0.9803      0.00000
     15       0.9881      0.00000
     16       1.1494      0.00000
     17       1.2830      0.00000
     18       1.3071      0.00000
     19       1.4014      0.00000
     20       1.4661      0.00000
     21       1.5458      0.00000
     22       1.6197      0.00000
     23       1.6851      0.00000
     24       1.7635      0.00000

 k-point    12 :       0.4286    0.2500    0.0833
  band No.  band energies     occupation 
      1      -9.4099      2.00000
      2      -3.5726      0.33344
      3      -3.5726      0.33333
      4      -3.5726      0.33332
      5      -0.1439      0.00000
      6       0.1543      0.00000
      7       0.3916      0.00000
      8       0.4352      0.00000
      9       0.5445      0.00000
     10       0.5701      0.00000
     11       0.6375      0.00000
     12       0.7183      0.00000
     13       0.8874      0.00000
     14       1.0274      0.00000
     15       1.0549      0.00000
     16       1.1879      0.00000
     17       1.2260      0.00000
     18       1.3391      0.00000
     19       1.4771      0.00000
     20       1.5887      0.00000
     21       1.6217      0.00000
     22       1.6632      0.00000
     23       1.7373      0.00000
     24       1.7933      0.00000

 k-point    13 :       0.0000    0.3500    0.0833
  band No.  band energies     occupation 
      1      -9.4099      2.00000
      2      -3.5726      0.33430
      3      -3.5726      0.33326
      4      -3.5725      0.33314
      5      -0.1625      0.00000
      6       0.2147      0.00000
      7       0.3561      0.00000
      8       0.4904      0.00000
      9       0.5690      0.00000
     10       0.6538      0.00000
     11       0.6587      0.00000
     12       0.7932      0.00000
     13       0.8817      0.00000
     14       0.9616      0.00000
     15       1.0145      0.00000
     16       1.0553      0.00000
     17       1.1611      0.00000
     18       1.2070      0.00000
     19       1.3351      0.00000
     20       1.3392      0.00000
     21       1.4655      0.00000
     22       1.4758      0.00000
     23       1.5374      0.00000
     24       1.6405      0.00000

 k-point    14 :       0.1429    0.3500    0.0833
  band No.  band energies     occupation 
      1      -9.4099      2.00000
      2      -3.5726      0.33430
      3      -3.5726      0.33326
      4      -3.5726      0.33318
      5      -0.1528      0.00000
      6       0.2251      0.00000
      7       0.3631      0.00000
      8       0.4309      0.00000
      9       0.5254      0.00000
     10       0.6629      0.00000
     11       0.7333      0.00000
     12       0.8049      0.00000
     13       0.8280      0.00000
     14       0.8722      0.00000
     15       1.0145      0.00000
     16       1.1072      0.00000
     17       1.1683      0.00000
     18       1.2339      0.00000
     19       1.3124      0.00000
     20       1.3837      0.00000
     21       1.4965      0.00000
     22       1.5508      0.00000
     23       1.6473      0.00000
     24       1.6882      0.00000

 k-point    15 :       0.2857    0.3500    0.0833
  band No.  band energies     occupation 
      1      -9.4099      2.00000
      2      -3.5726      0.33429
      3      -3.5726      0.33328
      4      -3.5726      0.33326
      5      -0.1270      0.00000
      6       0.2461      0.00000
      7       0.3062      0.00000
      8       0.4107      0.00000
      9       0.5541      0.00000
     10       0.5936      0.00000
     11       0.7104      0.00000
     12       0.7301      0.00000
     13       0.8542      0.00000
     14       0.8733      0.00000
     15       1.0108      0.00000
     16       1.0432      0.00000
     17       1.1651      0.00000
     18       1.3355      0.00000
     19       1.4467      0.00000
     20       1.5285      0.00000
     21       1.6036      0.00000
     22       1.6706      0.00000
     23       1.7554      0.00000
     24       1.8358      0.00000

 k-point    16 :       0.4286    0.3500    0.0833
  band No.  band energies     occupation 
      1      -9.4099      2.00000
      2      -3.5726      0.33429
      3      -3.5726      0.33337
      4      -3.5726      0.33326
      5      -0.1001      0.00000
      6       0.2071      0.00000
      7       0.3091      0.00000
      8       0.4530      0.00000
      9       0.5028      0.00000
     10       0.6010      0.00000
     11       0.6301      0.00000
     12       0.7602      0.00000
     13       0.7730      0.00000
     14       0.9014      0.00000
     15       0.9265      0.00000
     16       1.0628      0.00000
     17       1.2723      0.00000
     18       1.4985      0.00000
     19       1.5569      0.00000
     20       1.5953      0.00000
     21       1.6742      0.00000
     22       1.7420      0.00000
     23       1.8015      0.00000
     24       1.8569      0.00000

 k-point    17 :       0.0000    0.4500    0.0833
  band No.  band energies     occupation 
      1      -9.4099      2.00000
      2      -3.5727      0.33489
      3      -3.5726      0.33322
      4      -3.5725      0.33309
      5      -0.1207      0.00000
      6       0.1397      0.00000
      7       0.4143      0.00000
      8       0.5433      0.00000
      9       0.5660      0.00000
     10       0.6160      0.00000
     11       0.6944      0.00000
     12       0.7203      0.00000
     13       0.8015      0.00000
     14       0.8608      0.00000
     15       1.0656      0.00000
     16       1.1244      0.00000
     17       1.2087      0.00000
     18       1.2325      0.00000
     19       1.2504      0.00000
     20       1.2817      0.00000
     21       1.3851      0.00000
     22       1.3858      0.00000
     23       1.6507      0.00000
     24       1.7745      0.00000

 k-point    18 :       0.1429    0.4500    0.0833
  band No.  band energies     occupation 
      1      -9.4099      2.00000
      2      -3.5727      0.33489
      3      -3.5726      0.33321
      4      -3.5725      0.33314
      5      -0.1113      0.00000
      6       0.1515      0.00000
      7       0.4203      0.00000
      8       0.4856      0.00000
      9       0.5569      0.00000
     10       0.5935      0.00000
     11       0.6454      0.00000
     12       0.7315      0.00000
     13       0.8568      0.00000
     14       0.9322      0.00000
     15       1.0189      0.00000
     16       1.0557      0.00000
     17       1.0943      0.00000
     18       1.2091      0.00000
     19       1.2940      0.00000
     20       1.4220      0.00000
     21       1.4616      0.00000
     22       1.5782      0.00000
     23       1.6604      0.00000
     24       1.7839      0.00000

 k-point    19 :       0.2857    0.4500    0.0833
  band No.  band energies     occupation 
      1      -9.4099      2.00000
      2      -3.5727      0.33488
      3      -3.5726      0.33323
      4      -3.5726      0.33321
      5      -0.0868      0.00000
      6       0.1855      0.00000
      7       0.3500      0.00000
      8       0.4671      0.00000
      9       0.4963      0.00000
     10       0.6076      0.00000
     11       0.6315      0.00000
     12       0.7602      0.00000
     13       0.7905      0.00000
     14       0.9117      0.00000
     15       0.9339      0.00000
     16       1.0603      0.00000
     17       1.0973      0.00000
     18       1.2484      0.00000
     19       1.5025      0.00000
     20       1.6384      0.00000
     21       1.6588      0.00000
     22       1.6913      0.00000
     23       1.7692      0.00000
     24       1.8095      0.00000

 k-point    20 :       0.4286    0.4500    0.0833
  band No.  band energies     occupation 
      1      -9.4099      2.00000
      2      -3.5727      0.33488
      3      -3.5726      0.33332
      4      -3.5726      0.33321
      5      -0.0619      0.00000
      6       0.2307      0.00000
      7       0.2745      0.00000
      8       0.4054      0.00000
      9       0.5060      0.00000
     10       0.6521      0.00000
     11       0.6814      0.00000
     12       0.6977      0.00000
     13       0.7992      0.00000
     14       0.8224      0.00000
     15       0.8370      0.00000
     16       0.9598      0.00000
     17       1.3226      0.00000
     18       1.4875      0.00000
     19       1.5811      0.00000
     20       1.6795      0.00000
     21       1.7343      0.00000
     22       1.7591      0.00000
     23       1.8455      0.00000
     24       1.8736      0.00000

 k-point    21 :       0.0000    0.0500    0.2500
  band No.  band energies     occupation 
      1      -9.4099      2.00000
      2      -3.5726      0.33347
      3      -3.5726      0.33332
      4      -3.5725      0.33179
      5      -0.2481      0.00000
      6       0.1303      0.00000
      7       0.4880      0.00000
      8       0.4981      0.00000
      9       0.6036      0.00000
     10       0.6790      0.00000
     11       0.7992      0.00000
     12       0.8161      0.00000
     13       0.8702      0.00000
     14       0.9942      0.00000
     15       1.1696      0.00000
     16       1.2109      0.00000
     17       1.2570      0.00000
     18       1.2806      0.00000
     19       1.3040      0.00000
     20       1.3741      0.00000
     21       1.4730      0.00000
     22       1.5394      0.00000
     23       1.5847      0.00000
     24       1.6447      0.00000

 k-point    22 :       0.1429    0.0500    0.2500
  band No.  band energies     occupation 
      1      -9.4099      2.00000
      2      -3.5726      0.33346
      3      -3.5726      0.33336
      4      -3.5725      0.33180
      5      -0.2382      0.00000
      6       0.1417      0.00000
      7       0.3417      0.00000
      8       0.5639      0.00000
      9       0.6427      0.00000
     10       0.6870      0.00000
     11       0.7230      0.00000
     12       0.8805      0.00000
     13       0.9868      0.00000
     14       1.0189      0.00000
     15       1.0711      0.00000
     16       1.1874      0.00000
     17       1.1949      0.00000
     18       1.2729      0.00000
     19       1.3888      0.00000
     20       1.4065      0.00000
     21       1.4593      0.00000
     22       1.5191      0.00000
     23       1.5745      0.00000
     24       1.6218      0.00000

 k-point    23 :       0.2857    0.0500    0.2500
  band No.  band energies     occupation 
      1      -9.4099      2.00000
      2      -3.5726      0.33348
      3      -3.5726      0.33345
      4      -3.5725      0.33179
      5      -0.2121      0.00000
      6       0.1643      0.00000
      7       0.2264      0.00000
      8       0.4874      0.00000
      9       0.6170      0.00000
     10       0.7166      0.00000
     11       0.8942      0.00000
     12       0.9166      0.00000
     13       0.9617      0.00000
     14       1.0339      0.00000
     15       1.0736      0.00000
     16       1.1939      0.00000
     17       1.2322      0.00000
     18       1.2744      0.00000
     19       1.3295      0.00000
     20       1.3516      0.00000
     21       1.4763      0.00000
     22       1.5301      0.00000
     23       1.6167      0.00000
     24       1.6527      0.00000

 k-point    24 :       0.4286    0.0500    0.2500
  band No.  band energies     occupation 
      1      -9.4099      2.00000
      2      -3.5726      0.33356
      3      -3.5726      0.33345
      4      -3.5725      0.33179
      5      -0.1845      0.00000
      6       0.1203      0.00000
      7       0.2419      0.00000
      8       0.3852      0.00000
      9       0.6633      0.00000
     10       0.7490      0.00000
     11       0.8243      0.00000
     12       0.9460      0.00000
     13       0.9774      0.00000
     14       1.0920      0.00000
     15       1.1430      0.00000
     16       1.2022      0.00000
     17       1.2386      0.00000
     18       1.2816      0.00000
     19       1.3625      0.00000
     20       1.4102      0.00000
     21       1.4571      0.00000
     22       1.4975      0.00000
     23       1.5335      0.00000
     24       1.5588      0.00000

 k-point    25 :       0.0000    0.1500    0.2500
  band No.  band energies     occupation 
      1      -9.4099      2.00000
      2      -3.5726      0.33342
      3      -3.5726      0.33328
      4      -3.5725      0.33239
      5      -0.2304      0.00000
      6       0.1485      0.00000
      7       0.4847      0.00000
      8       0.5046      0.00000
      9       0.5503      0.00000
     10       0.6212      0.00000
     11       0.8076      0.00000
     12       0.8172      0.00000
     13       0.8561      0.00000
     14       1.0589      0.00000
     15       1.1491      0.00000
     16       1.2029      0.00000
     17       1.2425      0.00000
     18       1.2586      0.00000
     19       1.2818      0.00000
     20       1.3273      0.00000
     21       1.4026      0.00000
     22       1.4976      0.00000
     23       1.5228      0.00000
     24       1.7116      0.00000

 k-point    26 :       0.1429    0.1500    0.2500
  band No.  band energies     occupation 
      1      -9.4099      2.00000
      2      -3.5726      0.33341
      3      -3.5726      0.33332
      4      -3.5725      0.33238
      5      -0.2206      0.00000
      6       0.1599      0.00000
      7       0.3585      0.00000
      8       0.5190      0.00000
      9       0.5894      0.00000
     10       0.6625      0.00000
     11       0.7396      0.00000
     12       0.8360      0.00000
     13       1.0121      0.00000
     14       1.0298      0.00000
     15       1.0823      0.00000
     16       1.0988      0.00000
     17       1.2467      0.00000
     18       1.2758      0.00000
     19       1.3395      0.00000
     20       1.4032      0.00000
     21       1.4307      0.00000
     22       1.4690      0.00000
     23       1.6016      0.00000
     24       1.6936      0.00000

 k-point    27 :       0.2857    0.1500    0.2500
  band No.  band energies     occupation 
      1      -9.4099      2.00000
      2      -3.5726      0.33343
      3      -3.5726      0.33341
      4      -3.5725      0.33238
      5      -0.1945      0.00000
      6       0.1824      0.00000
      7       0.2444      0.00000
      8       0.5054      0.00000
      9       0.5504      0.00000
     10       0.6418      0.00000
     11       0.8609      0.00000
     12       0.8875      0.00000
     13       0.9490      0.00000
     14       0.9817      0.00000
     15       1.1040      0.00000
     16       1.1709      0.00000
     17       1.2335      0.00000
     18       1.3128      0.00000
     19       1.3324      0.00000
     20       1.4325      0.00000
     21       1.4769      0.00000
     22       1.5861      0.00000
     23       1.6246      0.00000
     24       1.6620      0.00000

 k-point    28 :       0.4286    0.1500    0.2500
  band No.  band energies     occupation 
      1      -9.4099      2.00000
      2      -3.5726      0.33351
      3      -3.5726      0.33340
      4      -3.5725      0.33237
      5      -0.1671      0.00000
      6       0.1386      0.00000
      7       0.2599      0.00000
      8       0.4037      0.00000
      9       0.5868      0.00000
     10       0.6855      0.00000
     11       0.7961      0.00000
     12       0.8584      0.00000
     13       0.9305      0.00000
     14       1.0720      0.00000
     15       1.1341      0.00000
     16       1.1987      0.00000
     17       1.3285      0.00000
     18       1.3491      0.00000
     19       1.3899      0.00000
     20       1.4617      0.00000
     21       1.5040      0.00000
     22       1.5087      0.00000
     23       1.5332      0.00000
     24       1.5791      0.00000

 k-point    29 :       0.0000    0.2500    0.2500
  band No.  band energies     occupation 
      1      -9.4099      2.00000
      2      -3.5726      0.33334
      3      -3.5726      0.33334
      4      -3.5726      0.33321
      5      -0.1965      0.00000
      6       0.1839      0.00000
      7       0.3620      0.00000
      8       0.5370      0.00000
      9       0.5663      0.00000
     10       0.6480      0.00000
     11       0.6840      0.00000
     12       0.8525      0.00000
     13       0.8795      0.00000
     14       1.0190      0.00000
     15       1.0485      0.00000
     16       1.1456      0.00000
     17       1.2614      0.00000
     18       1.2703      0.00000
     19       1.3034      0.00000
     20       1.3429      0.00000
     21       1.3624      0.00000
     22       1.3802      0.00000
     23       1.6231      0.00000
     24       1.7546      0.00000

 k-point    30 :       0.1429    0.2500    0.2500
  band No.  band energies     occupation 
      1      -9.4099      2.00000
      2      -3.5726      0.33335
      3      -3.5726      0.33334
      4      -3.5726      0.33325
      5      -0.1868      0.00000
      6       0.1952      0.00000
      7       0.3639      0.00000
      8       0.4097      0.00000
      9       0.6143      0.00000
     10       0.6891      0.00000
     11       0.7054      0.00000
     12       0.7735      0.00000
     13       0.8872      0.00000
     14       1.0591      0.00000
     15       1.0949      0.00000
     16       1.1328      0.00000
     17       1.1902      0.00000
     18       1.2474      0.00000
     19       1.2925      0.00000
     20       1.3571      0.00000
     21       1.4850      0.00000
     22       1.5446      0.00000
     23       1.6212      0.00000
     24       1.6445      0.00000

 k-point    31 :       0.2857    0.2500    0.2500
  band No.  band energies     occupation 
      1      -9.4099      2.00000
      2      -3.5726      0.33335
      3      -3.5726      0.33334
      4      -3.5726      0.33333
      5      -0.1610      0.00000
      6       0.2172      0.00000
      7       0.2798      0.00000
      8       0.4105      0.00000
      9       0.5403      0.00000
     10       0.6706      0.00000
     11       0.7227      0.00000
     12       0.7599      0.00000
     13       0.9634      0.00000
     14       1.0028      0.00000
     15       1.0433      0.00000
     16       1.1571      0.00000
     17       1.2643      0.00000
     18       1.3266      0.00000
     19       1.3602      0.00000
     20       1.4428      0.00000
     21       1.5252      0.00000
     22       1.6371      0.00000
     23       1.6546      0.00000
     24       1.6982      0.00000

 k-point    32 :       0.4286    0.2500    0.2500
  band No.  band energies     occupation 
      1      -9.4099      2.00000
      2      -3.5726      0.33344
      3      -3.5726      0.33334
      4      -3.5726      0.33332
      5      -0.1341      0.00000
      6       0.1748      0.00000
      7       0.2949      0.00000
      8       0.4398      0.00000
      9       0.4468      0.00000
     10       0.6575      0.00000
     11       0.7139      0.00000
     12       0.7906      0.00000
     13       0.8849      0.00000
     14       0.9262      0.00000
     15       1.1951      0.00000
     16       1.2377      0.00000
     17       1.3320      0.00000
     18       1.3649      0.00000
     19       1.3897      0.00000
     20       1.5157      0.00000
     21       1.5308      0.00000
     22       1.6065      0.00000
     23       1.6150      0.00000
     24       1.7092      0.00000

 k-point    33 :       0.0000    0.3500    0.2500
  band No.  band energies     occupation 
      1      -9.4099      2.00000
      2      -3.5726      0.33430
      3      -3.5726      0.33327
      4      -3.5725      0.33314
      5      -0.1513      0.00000
      6       0.2165      0.00000
      7       0.2657      0.00000
      8       0.5391      0.00000
      9       0.5824      0.00000
     10       0.6245      0.00000
     11       0.7123      0.00000
     12       0.8866      0.00000
     13       0.9219      0.00000
     14       0.9224      0.00000
     15       0.9361      0.00000
     16       1.0219      0.00000
     17       1.2055      0.00000
     18       1.2236      0.00000
     19       1.3395      0.00000
     20       1.3519      0.00000
     21       1.3856      0.00000
     22       1.5275      0.00000
     23       1.6364      0.00000
     24       1.6445      0.00000

 k-point    34 :       0.1429    0.3500    0.2500
  band No.  band energies     occupation 
      1      -9.4099      2.00000
      2      -3.5726      0.33429
      3      -3.5726      0.33326
      4      -3.5726      0.33318
      5      -0.1417      0.00000
      6       0.2272      0.00000
      7       0.2774      0.00000
      8       0.4496      0.00000
      9       0.5504      0.00000
     10       0.6792      0.00000
     11       0.7456      0.00000
     12       0.7685      0.00000
     13       0.8316      0.00000
     14       0.9780      0.00000
     15       1.0476      0.00000
     16       1.1194      0.00000
     17       1.1383      0.00000
     18       1.1915      0.00000
     19       1.3703      0.00000
     20       1.4119      0.00000
     21       1.4755      0.00000
     22       1.5149      0.00000
     23       1.5940      0.00000
     24       1.6778      0.00000

 k-point    35 :       0.2857    0.3500    0.2500
  band No.  band energies     occupation 
      1      -9.4099      2.00000
      2      -3.5726      0.33429
      3      -3.5726      0.33328
      4      -3.5726      0.33326
      5      -0.1166      0.00000
      6       0.2514      0.00000
      7       0.3099      0.00000
      8       0.3329      0.00000
      9       0.5635      0.00000
     10       0.6150      0.00000
     11       0.6364      0.00000
     12       0.7338      0.00000
     13       0.8937      0.00000
     14       1.0082      0.00000
     15       1.0373      0.00000
     16       1.0782      0.00000
     17       1.3075      0.00000
     18       1.3286      0.00000
     19       1.3682      0.00000
     20       1.4271      0.00000
     21       1.5536      0.00000
     22       1.6165      0.00000
     23       1.7113      0.00000
     24       1.7436      0.00000

 k-point    36 :       0.4286    0.3500    0.2500
  band No.  band energies     occupation 
      1      -9.4099      2.00000
      2      -3.5726      0.33428
      3      -3.5726      0.33336
      4      -3.5726      0.33326
      5      -0.0907      0.00000
      6       0.2271      0.00000
      7       0.3188      0.00000
      8       0.3580      0.00000
      9       0.4879      0.00000
     10       0.5387      0.00000
     11       0.6498      0.00000
     12       0.7772      0.00000
     13       0.7951      0.00000
     14       0.9419      0.00000
     15       1.0797      0.00000
     16       1.2334      0.00000
     17       1.2866      0.00000
     18       1.4177      0.00000
     19       1.5082      0.00000
     20       1.5590      0.00000
     21       1.6065      0.00000
     22       1.6405      0.00000
     23       1.6696      0.00000
     24       1.7470      0.00000

 k-point    37 :       0.0000    0.4500    0.2500
  band No.  band energies     occupation 
      1      -9.4099      2.00000
      2      -3.5727      0.33490
      3      -3.5726      0.33322
      4      -3.5725      0.33309
      5      -0.1105      0.00000
      6       0.1585      0.00000
      7       0.3100      0.00000
      8       0.4402      0.00000
      9       0.6279      0.00000
     10       0.6879      0.00000
     11       0.7696      0.00000
     12       0.8192      0.00000
     13       0.8220      0.00000
     14       0.9236      0.00000
     15       0.9682      0.00000
     16       1.0095      0.00000
     17       1.1148      0.00000
     18       1.1155      0.00000
     19       1.3849      0.00000
     20       1.4100      0.00000
     21       1.4568      0.00000
     22       1.5391      0.00000
     23       1.5582      0.00000
     24       1.5893      0.00000

 k-point    38 :       0.1429    0.4500    0.2500
  band No.  band energies     occupation 
      1      -9.4099      2.00000
      2      -3.5727      0.33489
      3      -3.5726      0.33322
      4      -3.5725      0.33314
      5      -0.1013      0.00000
      6       0.1702      0.00000
      7       0.3214      0.00000
      8       0.4521      0.00000
      9       0.5035      0.00000
     10       0.6657      0.00000
     11       0.7356      0.00000
     12       0.8252      0.00000
     13       0.8829      0.00000
     14       0.8863      0.00000
     15       0.9470      0.00000
     16       1.0480      0.00000
     17       1.1815      0.00000
     18       1.2501      0.00000
     19       1.3116      0.00000
     20       1.3861      0.00000
     21       1.4293      0.00000
     22       1.5835      0.00000
     23       1.6099      0.00000
     24       1.7390      0.00000

 k-point    39 :       0.2857    0.4500    0.2500
  band No.  band energies     occupation 
      1      -9.4099      2.00000
      2      -3.5727      0.33488
      3      -3.5726      0.33323
[...]
      7       0.3831      0.00000
      8       0.5429      0.00000
      9       0.5722      0.00000
     10       0.7412      0.00000
     11       0.7602      0.00000
     12       0.8205      0.00000
     13       0.9486      0.00000
     14       1.0391      0.00000
     15       1.0551      0.00000
     16       1.1040      0.00000
     17       1.2263      0.00000
     18       1.2947      0.00000
     19       1.3496      0.00000
     20       1.4269      0.00000
     21       1.4676      0.00000
     22       1.5233      0.00000
     23       1.6092      0.00000
     24       1.6189      0.00000

 k-point    47 :       0.2857    0.1500    0.4167
  band No.  band energies     occupation 
      1      -9.4099      2.00000
      2      -3.5726      0.33343
      3      -3.5726      0.33341
      4      -3.5725      0.33238
      5      -0.1815      0.00000
      6       0.1363      0.00000
      7       0.2554      0.00000
      8       0.4318      0.00000
      9       0.5721      0.00000
     10       0.7859      0.00000
     11       0.8507      0.00000
     12       0.9103      0.00000
     13       0.9869      0.00000
     14       1.0538      0.00000
     15       1.0862      0.00000
     16       1.1219      0.00000
     17       1.1668      0.00000
     18       1.2062      0.00000
     19       1.3729      0.00000
     20       1.3924      0.00000
     21       1.4771      0.00000
     22       1.5059      0.00000
     23       1.6516      0.00000
     24       1.6695      0.00000

 k-point    48 :       0.4286    0.1500    0.4167
  band No.  band energies     occupation 
      1      -9.4099      2.00000
      2      -3.5726      0.33351
      3      -3.5726      0.33341
      4      -3.5725      0.33238
      5      -0.1557      0.00000
      6       0.1712      0.00000
      7       0.1986      0.00000
      8       0.3231      0.00000
      9       0.6054      0.00000
     10       0.8287      0.00000
     11       0.8433      0.00000
     12       0.9051      0.00000
     13       0.9873      0.00000
     14       1.0520      0.00000
     15       1.1009      0.00000
     16       1.1552      0.00000
     17       1.2130      0.00000
     18       1.2936      0.00000
     19       1.4017      0.00000
     20       1.4221      0.00000
     21       1.4552      0.00000
     22       1.5140      0.00000
     23       1.5553      0.00000
     24       1.5882      0.00000

 k-point    49 :       0.0000    0.2500    0.4167
  band No.  band energies     occupation 
      1      -9.4099      2.00000
      2      -3.5726      0.33335
      3      -3.5726      0.33334
      4      -3.5726      0.33321
      5      -0.1825      0.00000
      6       0.1230      0.00000
      7       0.3829      0.00000
      8       0.5551      0.00000
      9       0.5955      0.00000
     10       0.6264      0.00000
     11       0.7665      0.00000
     12       0.7882      0.00000
     13       0.8619      0.00000
     14       1.0375      0.00000
     15       1.0547      0.00000
     16       1.1228      0.00000
     17       1.2295      0.00000
     18       1.2659      0.00000
     19       1.3020      0.00000
     20       1.3636      0.00000
     21       1.4762      0.00000
     22       1.5142      0.00000
     23       1.5462      0.00000
     24       1.5931      0.00000

 k-point    50 :       0.1429    0.2500    0.4167
  band No.  band energies     occupation 
      1      -9.4099      2.00000
      2      -3.5726      0.33335
      3      -3.5726      0.33334
      4      -3.5726      0.33325
      5      -0.1730      0.00000
      6       0.1358      0.00000
      7       0.3845      0.00000
      8       0.4327      0.00000
      9       0.5911      0.00000
     10       0.6345      0.00000
     11       0.7803      0.00000
     12       0.8451      0.00000
     13       0.9138      0.00000
     14       0.9865      0.00000
     15       1.0736      0.00000
     16       1.1005      0.00000
     17       1.2428      0.00000
     18       1.3116      0.00000
     19       1.3255      0.00000
     20       1.3604      0.00000
     21       1.4714      0.00000
     22       1.5457      0.00000
     23       1.5664      0.00000
     24       1.6002      0.00000

 k-point    51 :       0.2857    0.2500    0.4167
  band No.  band energies     occupation 
      1      -9.4099      2.00000
      2      -3.5726      0.33336
      3      -3.5726      0.33334
      4      -3.5726      0.33333
      5      -0.1483      0.00000
      6       0.1731      0.00000
      7       0.2893      0.00000
      8       0.4301      0.00000
      9       0.4683      0.00000
     10       0.6529      0.00000
     11       0.7769      0.00000
     12       0.8726      0.00000
     13       0.9490      0.00000
     14       1.0102      0.00000
     15       1.0894      0.00000
     16       1.1876      0.00000
     17       1.2416      0.00000
     18       1.3070      0.00000
     19       1.3669      0.00000
     20       1.4259      0.00000
     21       1.5031      0.00000
     22       1.5591      0.00000
     23       1.6258      0.00000
     24       1.6765      0.00000

 k-point    52 :       0.4286    0.2500    0.4167
  band No.  band energies     occupation 
      1      -9.4099      2.00000
      2      -3.5726      0.33343
      3      -3.5726      0.33333
      4      -3.5726      0.33332
      5      -0.1230      0.00000
      6       0.2070      0.00000
      7       0.2348      0.00000
      8       0.3607      0.00000
      9       0.4632      0.00000
     10       0.6894      0.00000
     11       0.7109      0.00000
     12       0.8396      0.00000
     13       0.9234      0.00000
     14       1.0832      0.00000
     15       1.1383      0.00000
     16       1.2439      0.00000
     17       1.3123      0.00000
     18       1.3554      0.00000
     19       1.4073      0.00000
     20       1.4913      0.00000
     21       1.5248      0.00000
     22       1.5543      0.00000
     23       1.6404      0.00000
     24       1.6436      0.00000

 k-point    53 :       0.0000    0.3500    0.4167
  band No.  band energies     occupation 
      1      -9.4099      2.00000
      2      -3.5726      0.33430
      3      -3.5726      0.33328
      4      -3.5725      0.33314
      5      -0.1381      0.00000
      6       0.1773      0.00000
      7       0.2658      0.00000
      8       0.4704      0.00000
      9       0.5991      0.00000
     10       0.6808      0.00000
     11       0.8138      0.00000
     12       0.8419      0.00000
     13       0.9162      0.00000
     14       0.9242      0.00000
     15       0.9860      0.00000
     16       1.1067      0.00000
     17       1.1217      0.00000
     18       1.1420      0.00000
     19       1.2202      0.00000
     20       1.4172      0.00000
     21       1.5173      0.00000
     22       1.5230      0.00000
     23       1.6023      0.00000
     24       1.7451      0.00000

 k-point    54 :       0.1429    0.3500    0.4167
  band No.  band energies     occupation 
      1      -9.4099      2.00000
      2      -3.5726      0.33430
      3      -3.5726      0.33328
      4      -3.5726      0.33318
      5      -0.1289      0.00000
      6       0.1899      0.00000
      7       0.2763      0.00000
      8       0.4727      0.00000
      9       0.4827      0.00000
     10       0.6686      0.00000
     11       0.7801      0.00000
     12       0.8453      0.00000
     13       0.8935      0.00000
     14       0.9601      0.00000
     15       1.0410      0.00000
     16       1.1276      0.00000
     17       1.1531      0.00000
     18       1.2072      0.00000
     19       1.3297      0.00000
     20       1.3913      0.00000
     21       1.4378      0.00000
     22       1.5407      0.00000
     23       1.6192      0.00000
     24       1.6845      0.00000

 k-point    55 :       0.2857    0.3500    0.4167
  band No.  band energies     occupation 
      1      -9.4099      2.00000
      2      -3.5726      0.33429
      3      -3.5726      0.33328
      4      -3.5726      0.33326
      5      -0.1047      0.00000
      6       0.2268      0.00000
      7       0.3017      0.00000
      8       0.3515      0.00000
      9       0.5056      0.00000
     10       0.5429      0.00000
     11       0.6552      0.00000
     12       0.8173      0.00000
     13       0.9257      0.00000
     14       1.0558      0.00000
     15       1.1399      0.00000
     16       1.2214      0.00000
     17       1.2384      0.00000
     18       1.2993      0.00000
     19       1.3663      0.00000
     20       1.4471      0.00000
     21       1.4697      0.00000
     22       1.5334      0.00000
     23       1.5970      0.00000
     24       1.6070      0.00000

 k-point    56 :       0.4286    0.3500    0.4167
  band No.  band energies     occupation 
      1      -9.4099      2.00000
      2      -3.5726      0.33428
      3      -3.5726      0.33336
      4      -3.5726      0.33326
      5      -0.0803      0.00000
      6       0.2585      0.00000
      7       0.2876      0.00000
      8       0.3475      0.00000
      9       0.4163      0.00000
     10       0.5642      0.00000
     11       0.5858      0.00000
     12       0.7088      0.00000
     13       0.9715      0.00000
     14       1.1348      0.00000
     15       1.1871      0.00000
     16       1.2632      0.00000
     17       1.3011      0.00000
     18       1.3703      0.00000
     19       1.4377      0.00000
     20       1.4881      0.00000
     21       1.5248      0.00000
     22       1.5560      0.00000
     23       1.6203      0.00000
     24       1.6632      0.00000

 k-point    57 :       0.0000    0.4500    0.4167
  band No.  band energies     occupation 
      1      -9.4099      2.00000
      2      -3.5727      0.33490
      3      -3.5726      0.33323
      4      -3.5725      0.33309
      5      -0.0989      0.00000
      6       0.1866      0.00000
      7       0.2477      0.00000
      8       0.3662      0.00000
      9       0.6422      0.00000
     10       0.7466      0.00000
     11       0.8444      0.00000
     12       0.8708      0.00000
     13       0.8846      0.00000
     14       0.9071      0.00000
     15       0.9811      0.00000
     16       1.0173      0.00000
     17       1.0420      0.00000
     18       1.1118      0.00000
     19       1.1819      0.00000
     20       1.3257      0.00000
     21       1.5615      0.00000
     22       1.6363      0.00000
     23       1.7295      0.00000
     24       1.7518      0.00000

 k-point    58 :       0.1429    0.4500    0.4167
  band No.  band energies     occupation 
      1      -9.4099      2.00000
      2      -3.5727      0.33489
      3      -3.5726      0.33323
      4      -3.5725      0.33314
      5      -0.0900      0.00000
      6       0.1979      0.00000
      7       0.2602      0.00000
      8       0.3792      0.00000
      9       0.5241      0.00000
     10       0.6962      0.00000
     11       0.7358      0.00000
     12       0.8550      0.00000
     13       0.8974      0.00000
     14       0.9501      0.00000
     15       1.0456      0.00000
     16       1.1063      0.00000
     17       1.1139      0.00000
     18       1.2029      0.00000
     19       1.2378      0.00000
     20       1.3451      0.00000
     21       1.4423      0.00000
     22       1.5839      0.00000
     23       1.6547      0.00000
     24       1.7649      0.00000

 k-point    59 :       0.2857    0.4500    0.4167
  band No.  band energies     occupation 
      1      -9.4099      2.00000
      2      -3.5727      0.33489
      3      -3.5726      0.33323
      4      -3.5726      0.33322
      5      -0.0669      0.00000
      6       0.2299      0.00000
      7       0.2963      0.00000
      8       0.3999      0.00000
      9       0.4174      0.00000
     10       0.5624      0.00000
     11       0.5980      0.00000
     12       0.7119      0.00000
     13       0.9835      0.00000
     14       1.1024      0.00000
     15       1.1288      0.00000
     16       1.1982      0.00000
     17       1.2807      0.00000
     18       1.2947      0.00000
     19       1.3585      0.00000
     20       1.3777      0.00000
     21       1.4499      0.00000
     22       1.4845      0.00000
     23       1.5455      0.00000
     24       1.6696      0.00000

 k-point    60 :       0.4286    0.4500    0.4167
  band No.  band energies     occupation 
      1      -9.4099      2.00000
      2      -3.5727      0.33488
      3      -3.5726      0.33331
      4      -3.5726      0.33321
      5      -0.0439      0.00000
      6       0.2701      0.00000
      7       0.3210      0.00000
      8       0.3506      0.00000
      9       0.4592      0.00000
     10       0.4853      0.00000
     11       0.4981      0.00000
     12       0.5995      0.00000
     13       1.0271      0.00000
     14       1.1765      0.00000
     15       1.1963      0.00000
     16       1.2384      0.00000
     17       1.3302      0.00000
     18       1.3487      0.00000
     19       1.4101      0.00000
     20       1.4467      0.00000
     21       1.5174      0.00000
     22       1.5836      0.00000
     23       1.6180      0.00000
     24       1.6366      0.00000


--------------------------------------------------------------------------------------------------------


 soft charge-density along one line, spin component           1
         0         1         2         3         4         5         6         7         8         9
 total charge-density along one line
 
 pseudopotential strength for first ion, spin component:           1
  6.996  10.697   0.000  -0.000  -0.000   0.000  -0.000  -0.000
 10.697  16.353   0.000  -0.000  -0.000   0.000  -0.000  -0.000
  0.000   0.000  -2.483  -0.000   0.000  -4.297  -0.000   0.000
 -0.000  -0.000  -0.000  -2.483   0.000  -0.000  -4.297   0.000
 -0.000  -0.000   0.000   0.000  -2.483   0.000   0.000  -4.297
  0.000   0.000  -4.297  -0.000   0.000  -7.240  -0.000   0.000
 -0.000  -0.000  -0.000  -4.297   0.000  -0.000  -7.240   0.000
 -0.000  -0.000   0.000   0.000  -4.297   0.000   0.000  -7.240
 total augmentation occupancy for first ion, spin component:           1
  2.011  -0.003   0.000   0.000   0.000   0.000   0.000   0.000
 -0.003   0.000   0.000   0.000   0.000   0.000   0.000   0.000
  0.000   0.000   0.330   0.000   0.000   0.001   0.000   0.000
  0.000   0.000   0.000   0.330   0.000   0.000   0.001   0.000
  0.000   0.000   0.000   0.000   0.330   0.000   0.000   0.001
  0.000   0.000   0.001   0.000   0.000   0.000   0.000   0.000
  0.000   0.000   0.000   0.001   0.000   0.000   0.000   0.000
  0.000   0.000   0.000   0.000   0.001   0.000   0.000   0.000


------------------------ aborting loop because EDIFF is reached ----------------------------------------


    CHARGE:  cpu time      1.2120: real time      1.2189
    FORLOC:  cpu time      0.0136: real time      0.0136
    FORNL :  cpu time      0.3505: real time      0.3522
    STRESS:  cpu time     13.2884: real time     13.3774
    FORCOR:  cpu time      0.2992: real time      0.3019
    FORHAR:  cpu time      0.0745: real time      0.0750
    MIXING:  cpu time      0.0104: real time      0.0105
    OFIELD:  cpu time      0.0000: real time      0.0000

  FORCE on cell =-STRESS in cart. coord.  units (eV):
  Direction    XX          YY          ZZ          XY          YZ          ZX
  --------------------------------------------------------------------------------------
  Alpha Z     0.02038     0.02038     0.02038
  Ewald      -3.85600    -1.56275    -6.41027     0.00000    -0.00000    -0.00000
  Hartree    14.28935    16.49874    11.79585     0.00000    -0.00000     0.00000
  E(xc)      -7.33233    -7.33233    -7.33233    -0.00000    -0.00000    -0.00000
  Local     -32.28577   -36.78851   -27.23808    -0.00000     0.00000    -0.00000
  n-local     6.85109     6.85106     6.85107     0.00000    -0.00001     0.00000
  augment     0.68455     0.68468     0.68457    -0.00000     0.00000     0.00000
  Kinetic    21.62740    21.62753    21.62750     0.00001     0.00004     0.00000
  Fock        0.00000     0.00000     0.00000     0.00000     0.00000     0.00000
  -------------------------------------------------------------------------------------
  Total      -0.00133    -0.00120    -0.00131     0.00000     0.00000     0.00000
  in kB      -0.00063    -0.00057    -0.00062     0.00000     0.00000     0.00000
  external pressure =       -0.00 kB  Pullay stress =        0.00 kB


 VOLUME and BASIS-vectors are now :
 -----------------------------------------------------------------------------
  energy-cutoff  :      480.00
  volume of cell :     3375.00
      direct lattice vectors                 reciprocal lattice vectors
    15.000000000  0.000000000  0.000000000     0.066666667  0.000000000  0.000000000
     0.000000000 12.500000000  0.000000000     0.000000000  0.080000000  0.000000000
     0.000000000  0.000000000 18.000000000     0.000000000  0.000000000  0.055555556

  length of vectors
    15.000000000 12.500000000 18.000000000     0.066666667  0.080000000  0.055555556


 FORCES acting on ions
    electron-ion (+dipol)            ewald-force                    non-local-force                 convergence-correction
 -----------------------------------------------------------------------------------------------
   0.407E-05 -.479E-05 0.365E-05   0.332E-17 -.449E-17 -.121E-17   -.132E-22 -.199E-21 -.529E-22   -.188E-06 0.275E-06 -.197E-06
 -----------------------------------------------------------------------------------------------
   0.407E-05 -.479E-05 0.365E-05   0.332E-17 -.449E-17 -.121E-17   -.132E-22 -.199E-21 -.529E-22   -.188E-06 0.275E-06 -.197E-06
 
 
 POSITION                                       TOTAL-FORCE (eV/Angst)
 -----------------------------------------------------------------------------------
      7.81845      6.81250     11.48328        -0.000000     -0.000000      0.000000
 -----------------------------------------------------------------------------------
    total drift:                                0.000004     -0.000005      0.000003


--------------------------------------------------------------------------------------------------------



  FREE ENERGIE OF THE ION-ELECTRON SYSTEM (eV)
  ---------------------------------------------------
  free  energy   TOTEN  =        -0.05827210 eV

  energy  without entropy=       -0.00527076  energy(sigma->0) =       -0.03177143
 


--------------------------------------------------------------------------------------------------------


    POTLOK:  cpu time      0.3488: real time      0.3524


--------------------------------------------------------------------------------------------------------


     LOOP+:  cpu time    143.9381: real time    145.5914
    4ORBIT:  cpu time      0.0000: real time      0.0000

 total amount of memory used by VASP MPI-rank0   515839. kBytes
=======================================================================

   base      :      30000. kBytes
   nonl-proj :     311040. kBytes
   fftplans  :      20866. kBytes
   grid      :      76470. kBytes
   one-center:          3. kBytes
   wavefun   :      77460. kBytes
 
  
  
 General timing and accounting informations for this job:
 ========================================================
  
                  Total CPU time used (sec):      152.369
                            User time (sec):      147.807
                          System time (sec):        4.561
                         Elapsed time (sec):      156.140
  
                   Maximum memory used (kb):     1064392.
                   Average memory used (kb):          N/A
  
                          Minor page faults:      2163037
                          Major page faults:           66
                 Voluntary context switches:         6509
