  14  14   0   0
  0.1021318E+02  0.5700971E-09  0.4044058E-09  0.6201871E-09  0.5000000E-15
  1.000000000000000E-004
  CAR 
 Dielectric                              
     46.53372884    -15.51946065 4000      1.91773826      1.00000000
    -15.519  0.0000E+00  0.0000E+00
    -15.504  0.0000E+00  0.0000E+00
    -15.488  0.0000E+00  0.0000E+00
    -15.473  0.0000E+00  0.0000E+00
    -15.457  0.0000E+00  0.0000E+00
    -15.442  0.0000E+00  0.0000E+00
    -15.426  0.0000E+00  0.0000E+00
    -15.411  0.0000E+00  0.0000E+00
    -15.395  0.0000E+00  0.0000E+00
    -15.380  0.0000E+00  0.0000E+00
    -15.364  0.0000E+00  0.0000E+00
    -15.349  0.0000E+00  0.0000E+00
    -15.333  0.0000E+00  0.0000E+00
    -15.318  0.0000E+00  0.0000E+00
    -15.302  0.0000E+00  0.0000E+00
    -15.287  0.0000E+00  0.0000E+00
    -15.271  0.0000E+00  0.0000E+00
    -15.256  0.0000E+00  0.0000E+00
    -15.240  0.0000E+00  0.0000E+00
    -15.225  0.0000E+00  0.0000E+00
    -15.209  0.0000E+00  0.0000E+00
    -15.194  0.0000E+00  0.0000E+00
    -15.178  0.0000E+00  0.0000E+00
    -15.163  0.0000E+00  0.0000E+00
    -15.147  0.0000E+00  0.0000E+00
    -15.132  0.0000E+00  0.0000E+00
    -15.116  0.0000E+00  0.0000E+00
    -15.100  0.0000E+00  0.0000E+00
    -15.085  0.0000E+00  0.0000E+00
    -15.069  0.0000E+00  0.0000E+00
    -15.054  0.0000E+00  0.0000E+00
    -15.038  0.0000E+00  0.0000E+00
    -15.023  0.0000E+00  0.0000E+00
    -15.007  0.0000E+00  0.0000E+00
    -14.992  0.0000E+00  0.0000E+00
    -14.976  0.0000E+00  0.0000E+00
    -14.961  0.0000E+00  0.0000E+00
    -14.945  0.0000E+00  0.0000E+00
    -14.930  0.0000E+00  0.0000E+00
    -14.914  0.0000E+00  0.0000E+00
    -14.899  0.0000E+00  0.0000E+00
    -14.883  0.0000E+00  0.0000E+00
    -14.868  0.0000E+00  0.0000E+00
    -14.852  0.0000E+00  0.0000E+00
    -14.837  0.0000E+00  0.0000E+00
    -14.821  0.0000E+00  0.0000E+00
    -14.806  0.0000E+00  0.0000E+00
    -14.790  0.0000E+00  0.0000E+00
    -14.775  0.0000E+00  0.0000E+00
    -14.759  0.0000E+00  0.0000E+00
    -14.744  0.0000E+00  0.0000E+00
    -14.728  0.0000E+00  0.0000E+00
    -14.713  0.0000E+00  0.0000E+00
    -14.697  0.0000E+00  0.0000E+00
    -14.682  0.0000E+00  0.0000E+00
    -14.666  0.0000E+00  0.0000E+00
    -14.650  0.0000E+00  0.0000E+00
    -14.635  0.0000E+00  0.0000E+00
    -14.619  0.0000E+00  0.0000E+00
    -14.604  0.0000E+00  0.0000E+00
    -14.588  0.0000E+00  0.0000E+00
    -14.573  0.0000E+00  0.0000E+00
    -14.557  0.0000E+00  0.0000E+00
    -14.542  0.0000E+00  0.0000E+00
    -14.526  0.0000E+00  0.0000E+00
    -14.511  0.0000E+00  0.0000E+00
    -14.495  0.0000E+00  0.0000E+00
    -14.480  0.0000E+00  0.0000E+00
    -14.464  0.0000E+00  0.0000E+00
    -14.449  0.0000E+00  0.0000E+00
    -14.433  0.0000E+00  0.0000E+00
    -14.418  0.0000E+00  0.0000E+00
    -14.402  0.0000E+00  0.0000E+00
    -14.387  0.0000E+00  0.0000E+00
    -14.371  0.0000E+00  0.0000E+00
    -14.356  0.0000E+00  0.0000E+00
    -14.340  0.0000E+00  0.0000E+00
    -14.325  0.0000E+00  0.0000E+00
    -14.309  0.0000E+00  0.0000E+00
    -14.294  0.0000E+00  0.0000E+00
    -14.278  0.0000E+00  0.0000E+00
    -14.263  0.0000E+00  0.0000E+00
    -14.247  0.0000E+00  0.0000E+00
    -14.232  0.0000E+00  0.0000E+00
    -14.216  0.0000E+00  0.0000E+00
    -14.201  0.0000E+00  0.0000E+00
    -14.185  0.0000E+00  0.0000E+00
    -14.169  0.0000E+00  0.0000E+00
    -14.154  0.0000E+00  0.0000E+00
    -14.138  0.0000E+00  0.0000E+00
    -14.123  0.0000E+00  0.0000E+00
    -14.107  0.0000E+00  0.0000E+00
    -14.092  0.0000E+00  0.0000E+00
    -14.076  0.0000E+00  0.0000E+00
    -14.061  0.0000E+00  0.0000E+00
    -14.045  0.0000E+00  0.0000E+00
    -14.030  0.0000E+00  0.0000E+00
    -14.014  0.0000E+00  0.0000E+00
    -13.999  0.0000E+00  0.0000E+00
    -13.983  0.0000E+00  0.0000E+00
    -13.968  0.0000E+00  0.0000E+00
    -13.952  0.0000E+00  0.0000E+00
    -13.937  0.0000E+00  0.0000E+00
    -13.921  0.0000E+00  0.0000E+00
    -13.906  0.0000E+00  0.0000E+00
    -13.890  0.0000E+00  0.0000E+00
    -13.875  0.0000E+00  0.0000E+00
    -13.859  0.0000E+00  0.0000E+00
    -13.844  0.0000E+00  0.0000E+00
    -13.828  0.0000E+00  0.0000E+00
    -13.813  0.0000E+00  0.0000E+00
    -13.797  0.0000E+00  0.0000E+00
    -13.782  0.0000E+00  0.0000E+00
    -13.766  0.0000E+00  0.0000E+00
    -13.751  0.0000E+00  0.0000E+00
    -13.735  0.0000E+00  0.0000E+00
    -13.719  0.0000E+00  0.0000E+00
    -13.704  0.0000E+00  0.0000E+00
    -13.688  0.0000E+00  0.0000E+00
    -13.673  0.0000E+00  0.0000E+00
    -13.657  0.0000E+00  0.0000E+00
    -13.642  0.0000E+00  0.0000E+00
    -13.626  0.0000E+00  0.0000E+00
    -13.611  0.0000E+00  0.0000E+00
    -13.595  0.0000E+00  0.0000E+00
    -13.580  0.0000E+00  0.0000E+00
    -13.564  0.0000E+00  0.0000E+00
    -13.549  0.0000E+00  0.0000E+00
    -13.533  0.0000E+00  0.0000E+00
    -13.518  0.0000E+00  0.0000E+00
    -13.502  0.0000E+00  0.0000E+00
    -13.487  0.0000E+00  0.0000E+00
    -13.471  0.0000E+00  0.0000E+00
    -13.456  0.0000E+00  0.0000E+00
    -13.440  0.0000E+00  0.0000E+00
    -13.425  0.0000E+00  0.0000E+00
    -13.409  0.0000E+00  0.0000E+00
    -13.394  0.0000E+00  0.0000E+00
    -13.378  0.0000E+00  0.0000E+00
    -13.363  0.0000E+00  0.0000E+00
    -13.347  0.0000E+00  0.0000E+00
    -13.332  0.0000E+00  0.0000E+00
    -13.316  0.0000E+00  0.0000E+00
    -13.301  0.0000E+00  0.0000E+00
    -13.285  0.0000E+00  0.0000E+00
    -13.269  0.0000E+00  0.0000E+00
    -13.254  0.0000E+00  0.0000E+00
    -13.238  0.0000E+00  0.0000E+00
    -13.223  0.0000E+00  0.0000E+00
    -13.207  0.0000E+00  0.0000E+00
    -13.192  0.0000E+00  0.0000E+00
    -13.176  0.0000E+00  0.0000E+00
    -13.161  0.0000E+00  0.0000E+00
    -13.145  0.0000E+00  0.0000E+00
    -13.130  0.0000E+00  0.0000E+00
    -13.114  0.0000E+00  0.0000E+00
    -13.099  0.0000E+00  0.0000E+00
    -13.083  0.0000E+00  0.0000E+00
    -13.068  0.0000E+00  0.0000E+00
    -13.052  0.0000E+00  0.0000E+00
    -13.037  0.0000E+00  0.0000E+00
    -13.021  0.0000E+00  0.0000E+00
    -13.006  0.0000E+00  0.0000E+00
    -12.990  0.0000E+00  0.0000E+00
    -12.975  0.0000E+00  0.0000E+00
    -12.959  0.0000E+00  0.0000E+00
    -12.944  0.0000E+00  0.0000E+00
    -12.928  0.0000E+00  0.0000E+00
    -12.913  0.0000E+00  0.0000E+00
    -12.897  0.0000E+00  0.0000E+00
    -12.882  0.0000E+00  0.0000E+00
    -12.866  0.0000E+00  0.0000E+00
    -12.851  0.0000E+00  0.0000E+00
    -12.835  0.0000E+00  0.0000E+00
    -12.819  0.0000E+00  0.0000E+00
    -12.804  0.0000E+00  0.0000E+00
    -12.788  0.0000E+00  0.0000E+00
    -12.773  0.0000E+00  0.0000E+00
    -12.757  0.2098E-17  0.3256E-19
    -12.742  0.2684E-10  0.4166E-12
    -12.726  0.2865E-05  0.4446E-07
    -12.711  0.4028E-02  0.6255E-04
    -12.695  0.1540E+00  0.2451E-02
    -12.680  0.6228E+00  0.1212E-01
    -12.664  0.1010E+01  0.2778E-01
    -12.649  0.1291E+01  0.4782E-01
    -12.633  0.1614E+01  0.7286E-01
    -12.618  0.1869E+01  0.1019E+00
    -12.602  0.2261E+01  0.1369E+00
    -12.587  0.2762E+01  0.1798E+00
    -12.571  0.2935E+01  0.2253E+00
    -12.556  0.3046E+01  0.2726E+00
    -12.540  0.3173E+01  0.3218E+00
    -12.525  0.3139E+01  0.3705E+00
    -12.509  0.3194E+01  0.4201E+00
    -12.494  0.3463E+01  0.4738E+00
    -12.478  0.3443E+01  0.5273E+00
    -12.463  0.3583E+01  0.5829E+00
    -12.447  0.3662E+01  0.6397E+00
    -12.432  0.4134E+01  0.7038E+00
    -12.416  0.4513E+01  0.7738E+00
    -12.401  0.4433E+01  0.8426E+00
    -12.385  0.4412E+01  0.9111E+00
    -12.369  0.4681E+01  0.9837E+00
    -12.354  0.4537E+01  0.1054E+01
    -12.338  0.4376E+01  0.1122E+01
    -12.323  0.4177E+01  0.1187E+01
    -12.307  0.3863E+01  0.1247E+01
    -12.292  0.3716E+01  0.1304E+01
    -12.276  0.3432E+01  0.1358E+01
    -12.261  0.3222E+01  0.1408E+01
    -12.245  0.3140E+01  0.1456E+01
    -12.230  0.2944E+01  0.1502E+01
    -12.214  0.3100E+01  0.1550E+01
    -12.199  0.2936E+01  0.1596E+01
    -12.183  0.3010E+01  0.1643E+01
    -12.168  0.2729E+01  0.1685E+01
    -12.152  0.2341E+01  0.1721E+01
    -12.137  0.2801E+01  0.1765E+01
    -12.121  0.3178E+01  0.1814E+01
    -12.106  0.2705E+01  0.1856E+01
    -12.090  0.2237E+01  0.1891E+01
    -12.075  0.2093E+01  0.1923E+01
    -12.059  0.3053E+01  0.1970E+01
    -12.044  0.2991E+01  0.2017E+01
    -12.028  0.2412E+01  0.2054E+01
    -12.013  0.2148E+01  0.2088E+01
    -11.997  0.2250E+01  0.2123E+01
    -11.982  0.2840E+01  0.2167E+01
    -11.966  0.2812E+01  0.2210E+01
    -11.951  0.2489E+01  0.2249E+01
    -11.935  0.2344E+01  0.2285E+01
    -11.919  0.2201E+01  0.2319E+01
    -11.904  0.2561E+01  0.2359E+01
    -11.888  0.2852E+01  0.2403E+01
    -11.873  0.2921E+01  0.2449E+01
    -11.857  0.2303E+01  0.2484E+01
    -11.842  0.2090E+01  0.2517E+01
    -11.826  0.2643E+01  0.2558E+01
    -11.811  0.3283E+01  0.2609E+01
    -11.795  0.2948E+01  0.2655E+01
    -11.780  0.2327E+01  0.2691E+01
    -11.764  0.2494E+01  0.2729E+01
    -11.749  0.3050E+01  0.2777E+01
    -11.733  0.3601E+01  0.2833E+01
    -11.718  0.3253E+01  0.2883E+01
    -11.702  0.3076E+01  0.2931E+01
    -11.687  0.3504E+01  0.2985E+01
    -11.671  0.3882E+01  0.3045E+01
    -11.656  0.3770E+01  0.3104E+01
    -11.640  0.3542E+01  0.3159E+01
    -11.625  0.3439E+01  0.3212E+01
    -11.609  0.3534E+01  0.3267E+01
    -11.594  0.3505E+01  0.3321E+01
    -11.578  0.3563E+01  0.3377E+01
    -11.563  0.3659E+01  0.3434E+01
    -11.547  0.3315E+01  0.3485E+01
    -11.532  0.3383E+01  0.3537E+01
    -11.516  0.3417E+01  0.3590E+01
    -11.501  0.3220E+01  0.3640E+01
    -11.485  0.2962E+01  0.3686E+01
    -11.469  0.2684E+01  0.3728E+01
    -11.454  0.2641E+01  0.3769E+01
    -11.438  0.2572E+01  0.3809E+01
    -11.423  0.2197E+01  0.3843E+01
    -11.407  0.1778E+01  0.3871E+01
    -11.392  0.1588E+01  0.3895E+01
    -11.376  0.1459E+01  0.3918E+01
    -11.361  0.1277E+01  0.3938E+01
    -11.345  0.1038E+01  0.3954E+01
    -11.330  0.9534E+00  0.3969E+01
    -11.314  0.7919E+00  0.3981E+01
    -11.299  0.6020E+00  0.3990E+01
    -11.283  0.4424E+00  0.3997E+01
    -11.268  0.1727E+00  0.4000E+01
    -11.252  0.1307E-01  0.4000E+01
    -11.237  0.3588E-04  0.4000E+01
    -11.221  0.1331E-08  0.4000E+01
    -11.206  0.4784E-15  0.4000E+01
    -11.190  0.0000E+00  0.4000E+01
    -11.175  0.0000E+00  0.4000E+01
    -11.159  0.0000E+00  0.4000E+01
    -11.144  0.0000E+00  0.4000E+01
    -11.128  0.0000E+00  0.4000E+01
    -11.113  0.0000E+00  0.4000E+01
    -11.097  0.0000E+00  0.4000E+01
    -11.082  0.0000E+00  0.4000E+01
    -11.066  0.0000E+00  0.4000E+01
    -11.051  0.0000E+00  0.4000E+01
    -11.035  0.0000E+00  0.4000E+01
    -11.019  0.0000E+00  0.4000E+01
    -11.004  0.0000E+00  0.4000E+01
    -10.988  0.0000E+00  0.4000E+01
    -10.973  0.0000E+00  0.4000E+01
    -10.957  0.0000E+00  0.4000E+01
    -10.942  0.0000E+00  0.4000E+01
    -10.926  0.0000E+00  0.4000E+01
    -10.911  0.0000E+00  0.4000E+01
    -10.895  0.0000E+00  0.4000E+01
    -10.880  0.0000E+00  0.4000E+01
    -10.864  0.0000E+00  0.4000E+01
    -10.849  0.0000E+00  0.4000E+01
    -10.833  0.0000E+00  0.4000E+01
    -10.818  0.0000E+00  0.4000E+01
    -10.802  0.0000E+00  0.4000E+01
    -10.787  0.0000E+00  0.4000E+01
    -10.771  0.0000E+00  0.4000E+01
    -10.756  0.0000E+00  0.4000E+01
    -10.740  0.0000E+00  0.4000E+01
    -10.725  0.0000E+00  0.4000E+01
    -10.709  0.0000E+00  0.4000E+01
    -10.694  0.0000E+00  0.4000E+01
    -10.678  0.0000E+00  0.4000E+01
    -10.663  0.0000E+00  0.4000E+01
    -10.647  0.0000E+00  0.4000E+01
    -10.632  0.0000E+00  0.4000E+01
    -10.616  0.0000E+00  0.4000E+01
    -10.601  0.0000E+00  0.4000E+01
    -10.585  0.0000E+00  0.4000E+01
    -10.569  0.0000E+00  0.4000E+01
    -10.554  0.0000E+00  0.4000E+01
    -10.538  0.0000E+00  0.4000E+01
    -10.523  0.0000E+00  0.4000E+01
    -10.507  0.0000E+00  0.4000E+01
    -10.492  0.0000E+00  0.4000E+01
    -10.476  0.0000E+00  0.4000E+01
    -10.461  0.0000E+00  0.4000E+01
    -10.445  0.0000E+00  0.4000E+01
    -10.430  0.0000E+00  0.4000E+01
    -10.414  0.0000E+00  0.4000E+01
    -10.399  0.0000E+00  0.4000E+01
    -10.383  0.0000E+00  0.4000E+01
    -10.368  0.0000E+00  0.4000E+01
    -10.352  0.0000E+00  0.4000E+01
    -10.337  0.0000E+00  0.4000E+01
    -10.321  0.0000E+00  0.4000E+01
    -10.306  0.0000E+00  0.4000E+01
    -10.290  0.0000E+00  0.4000E+01
    -10.275  0.0000E+00  0.4000E+01
    -10.259  0.0000E+00  0.4000E+01
    -10.244  0.0000E+00  0.4000E+01
    -10.228  0.0000E+00  0.4000E+01
    -10.213  0.0000E+00  0.4000E+01
    -10.197  0.0000E+00  0.4000E+01
    -10.182  0.0000E+00  0.4000E+01
    -10.166  0.0000E+00  0.4000E+01
    -10.151  0.0000E+00  0.4000E+01
    -10.135  0.0000E+00  0.4000E+01
    -10.119  0.0000E+00  0.4000E+01
    -10.104  0.0000E+00  0.4000E+01
    -10.088  0.0000E+00  0.4000E+01
    -10.073  0.0000E+00  0.4000E+01
    -10.057  0.0000E+00  0.4000E+01
    -10.042  0.0000E+00  0.4000E+01
    -10.026  0.0000E+00  0.4000E+01
    -10.011  0.0000E+00  0.4000E+01
     -9.995  0.0000E+00  0.4000E+01
     -9.980  0.0000E+00  0.4000E+01
     -9.964  0.0000E+00  0.4000E+01
     -9.949  0.0000E+00  0.4000E+01
     -9.933  0.0000E+00  0.4000E+01
     -9.918  0.0000E+00  0.4000E+01
     -9.902  0.0000E+00  0.4000E+01
     -9.887  0.0000E+00  0.4000E+01
     -9.871  0.0000E+00  0.4000E+01
     -9.856  0.0000E+00  0.4000E+01
     -9.840  0.0000E+00  0.4000E+01
     -9.825  0.0000E+00  0.4000E+01
     -9.809  0.0000E+00  0.4000E+01
     -9.794  0.0000E+00  0.4000E+01
     -9.778  0.0000E+00  0.4000E+01
     -9.763  0.0000E+00  0.4000E+01
     -9.747  0.0000E+00  0.4000E+01
     -9.732  0.0000E+00  0.4000E+01
     -9.716  0.0000E+00  0.4000E+01
     -9.701  0.0000E+00  0.4000E+01
     -9.685  0.0000E+00  0.4000E+01
     -9.669  0.0000E+00  0.4000E+01
     -9.654  0.0000E+00  0.4000E+01
     -9.638  0.0000E+00  0.4000E+01
     -9.623  0.0000E+00  0.4000E+01
     -9.607  0.0000E+00  0.4000E+01
     -9.592  0.0000E+00  0.4000E+01
     -9.576  0.0000E+00  0.4000E+01
     -9.561  0.0000E+00  0.4000E+01
     -9.545  0.0000E+00  0.4000E+01
     -9.530  0.0000E+00  0.4000E+01
     -9.514  0.0000E+00  0.4000E+01
     -9.499  0.0000E+00  0.4000E+01
     -9.483  0.0000E+00  0.4000E+01
     -9.468  0.0000E+00  0.4000E+01
     -9.452  0.0000E+00  0.4000E+01
     -9.437  0.0000E+00  0.4000E+01
     -9.421  0.0000E+00  0.4000E+01
     -9.406  0.0000E+00  0.4000E+01
     -9.390  0.0000E+00  0.4000E+01
     -9.375  0.0000E+00  0.4000E+01
     -9.359  0.0000E+00  0.4000E+01
     -9.344  0.0000E+00  0.4000E+01
     -9.328  0.0000E+00  0.4000E+01
     -9.313  0.0000E+00  0.4000E+01
     -9.297  0.0000E+00  0.4000E+01
     -9.282  0.0000E+00  0.4000E+01
     -9.266  0.0000E+00  0.4000E+01
     -9.251  0.0000E+00  0.4000E+01
     -9.235  0.0000E+00  0.4000E+01
     -9.219  0.0000E+00  0.4000E+01
     -9.204  0.0000E+00  0.4000E+01
     -9.188  0.0000E+00  0.4000E+01
     -9.173  0.0000E+00  0.4000E+01
     -9.157  0.0000E+00  0.4000E+01
     -9.142  0.0000E+00  0.4000E+01
     -9.126  0.0000E+00  0.4000E+01
     -9.111  0.0000E+00  0.4000E+01
     -9.095  0.0000E+00  0.4000E+01
     -9.080  0.0000E+00  0.4000E+01
     -9.064  0.0000E+00  0.4000E+01
     -9.049  0.0000E+00  0.4000E+01
     -9.033  0.0000E+00  0.4000E+01
     -9.018  0.0000E+00  0.4000E+01
     -9.002  0.0000E+00  0.4000E+01
     -8.987  0.0000E+00  0.4000E+01
     -8.971  0.0000E+00  0.4000E+01
     -8.956  0.0000E+00  0.4000E+01
     -8.940  0.0000E+00  0.4000E+01
     -8.925  0.0000E+00  0.4000E+01
     -8.909  0.0000E+00  0.4000E+01
     -8.894  0.0000E+00  0.4000E+01
     -8.878  0.8490E-13  0.4000E+01
     -8.863  0.5290E-07  0.4000E+01
     -8.847  0.3709E-03  0.4000E+01
     -8.832  0.5112E-01  0.4001E+01
     -8.816  0.4702E+00  0.4008E+01
     -8.801  0.9395E+00  0.4023E+01
     -8.785  0.1347E+01  0.4044E+01
     -8.769  0.1596E+01  0.4068E+01
     -8.754  0.1894E+01  0.4098E+01
     -8.738  0.2326E+01  0.4134E+01
     -8.723  0.2340E+01  0.4170E+01
     -8.707  0.3015E+01  0.4217E+01
     -8.692  0.3158E+01  0.4266E+01
     -8.676  0.3563E+01  0.4321E+01
     -8.661  0.4674E+01  0.4394E+01
     -8.645  0.5933E+01  0.4486E+01
     -8.630  0.6441E+01  0.4586E+01
     -8.614  0.6771E+01  0.4691E+01
     -8.599  0.6738E+01  0.4795E+01
     -8.583  0.6511E+01  0.4896E+01
     -8.568  0.6907E+01  0.5004E+01
     -8.552  0.6776E+01  0.5109E+01
     -8.537  0.6863E+01  0.5215E+01
     -8.521  0.6677E+01  0.5319E+01
     -8.506  0.6753E+01  0.5424E+01
     -8.490  0.6704E+01  0.5528E+01
     -8.475  0.6535E+01  0.5629E+01
     -8.459  0.7227E+01  0.5741E+01
     -8.444  0.7059E+01  0.5851E+01
     -8.428  0.5930E+01  0.5943E+01
     -8.413  0.4549E+01  0.6013E+01
     -8.397  0.3720E+01  0.6071E+01
     -8.382  0.3535E+01  0.6126E+01
     -8.366  0.3839E+01  0.6185E+01
     -8.351  0.4147E+01  0.6250E+01
     -8.335  0.4778E+01  0.6324E+01
     -8.319  0.5195E+01  0.6405E+01
     -8.304  0.4949E+01  0.6481E+01
     -8.288  0.5190E+01  0.6562E+01
     -8.273  0.5085E+01  0.6641E+01
     -8.257  0.4919E+01  0.6717E+01
     -8.242  0.4809E+01  0.6792E+01
     -8.226  0.4631E+01  0.6864E+01
     -8.211  0.4648E+01  0.6936E+01
     -8.195  0.4818E+01  0.7011E+01
     -8.180  0.4591E+01  0.7082E+01
     -8.164  0.4483E+01  0.7151E+01
     -8.149  0.4287E+01  0.7218E+01
     -8.133  0.4514E+01  0.7288E+01
     -8.118  0.4780E+01  0.7362E+01
     -8.102  0.4745E+01  0.7436E+01
     -8.087  0.4693E+01  0.7509E+01
     -8.071  0.4096E+01  0.7572E+01
     -8.056  0.3653E+01  0.7629E+01
     -8.040  0.3079E+01  0.7677E+01
     -8.025  0.2926E+01  0.7722E+01
     -8.009  0.2407E+01  0.7759E+01
     -7.994  0.2092E+01  0.7792E+01
     -7.978  0.2251E+01  0.7827E+01
     -7.963  0.1794E+01  0.7854E+01
     -7.947  0.1401E+01  0.7876E+01
     -7.932  0.1344E+01  0.7897E+01
     -7.916  0.1107E+01  0.7914E+01
     -7.901  0.1149E+01  0.7932E+01
     -7.885  0.9313E+00  0.7947E+01
     -7.869  0.6967E+00  0.7957E+01
     -7.854  0.6805E+00  0.7968E+01
     -7.838  0.6873E+00  0.7979E+01
     -7.823  0.4346E+00  0.7985E+01
     -7.807  0.3861E+00  0.7991E+01
     -7.792  0.3389E+00  0.7997E+01
     -7.776  0.1673E+00  0.7999E+01
     -7.761  0.5263E-01  0.8000E+01
     -7.745  0.9881E-03  0.8000E+01
     -7.730  0.3101E-06  0.8000E+01
     -7.714  0.1036E-11  0.8000E+01
     -7.699  0.0000E+00  0.8000E+01
     -7.683  0.0000E+00  0.8000E+01
     -7.668  0.0000E+00  0.8000E+01
     -7.652  0.0000E+00  0.8000E+01
     -7.637  0.0000E+00  0.8000E+01
     -7.621  0.0000E+00  0.8000E+01
     -7.606  0.0000E+00  0.8000E+01
     -7.590  0.0000E+00  0.8000E+01
     -7.575  0.0000E+00  0.8000E+01
     -7.559  0.0000E+00  0.8000E+01
     -7.544  0.0000E+00  0.8000E+01
     -7.528  0.0000E+00  0.8000E+01
     -7.513  0.0000E+00  0.8000E+01
     -7.497  0.0000E+00  0.8000E+01
     -7.482  0.0000E+00  0.8000E+01
     -7.466  0.0000E+00  0.8000E+01
     -7.451  0.0000E+00  0.8000E+01
     -7.435  0.0000E+00  0.8000E+01
     -7.419  0.0000E+00  0.8000E+01
     -7.404  0.0000E+00  0.8000E+01
     -7.388  0.0000E+00  0.8000E+01
     -7.373  0.0000E+00  0.8000E+01
     -7.357  0.0000E+00  0.8000E+01
     -7.342  0.0000E+00  0.8000E+01
     -7.326  0.0000E+00  0.8000E+01
     -7.311  0.0000E+00  0.8000E+01
     -7.295  0.0000E+00  0.8000E+01
     -7.280  0.0000E+00  0.8000E+01
     -7.264  0.0000E+00  0.8000E+01
     -7.249  0.0000E+00  0.8000E+01
     -7.233  0.0000E+00  0.8000E+01
     -7.218  0.0000E+00  0.8000E+01
     -7.202  0.0000E+00  0.8000E+01
     -7.187  0.0000E+00  0.8000E+01
     -7.171  0.0000E+00  0.8000E+01
     -7.156  0.0000E+00  0.8000E+01
     -7.140  0.0000E+00  0.8000E+01
     -7.125  0.0000E+00  0.8000E+01
     -7.109  0.0000E+00  0.8000E+01
     -7.094  0.0000E+00  0.8000E+01
     -7.078  0.0000E+00  0.8000E+01
     -7.063  0.0000E+00  0.8000E+01
     -7.047  0.0000E+00  0.8000E+01
     -7.032  0.0000E+00  0.8000E+01
     -7.016  0.4826E-16  0.8000E+01
     -7.001  0.2194E-09  0.8000E+01
     -6.985  0.1063E-04  0.8000E+01
     -6.969  0.6478E-02  0.8000E+01
     -6.954  0.9075E-01  0.8002E+01
     -6.938  0.1056E+00  0.8003E+01
     -6.923  0.7868E-01  0.8004E+01
     -6.907  0.1732E+00  0.8007E+01
     -6.892  0.2375E+00  0.8011E+01
     -6.876  0.2119E+00  0.8014E+01
     -6.861  0.2186E+00  0.8017E+01
     -6.845  0.2659E+00  0.8022E+01
     -6.830  0.2898E+00  0.8026E+01
     -6.814  0.2942E+00  0.8031E+01
     -6.799  0.2384E+00  0.8034E+01
     -6.783  0.3758E+00  0.8040E+01
     -6.768  0.4135E+00  0.8047E+01
     -6.752  0.4311E+00  0.8053E+01
     -6.737  0.4190E+00  0.8060E+01
     -6.721  0.4447E+00  0.8067E+01
     -6.706  0.4964E+00  0.8074E+01
     -6.690  0.6043E+00  0.8084E+01
     -6.675  0.5511E+00  0.8092E+01
     -6.659  0.5295E+00  0.8100E+01
     -6.644  0.4492E+00  0.8107E+01
     -6.628  0.6694E+00  0.8118E+01
     -6.613  0.6631E+00  0.8128E+01
     -6.597  0.8738E+00  0.8142E+01
     -6.582  0.8718E+00  0.8155E+01
     -6.566  0.9490E+00  0.8170E+01
     -6.551  0.6969E+00  0.8181E+01
     -6.535  0.9214E+00  0.8195E+01
     -6.519  0.7738E+00  0.8207E+01
     -6.504  0.8178E+00  0.8220E+01
     -6.488  0.5800E+00  0.8229E+01
     -6.473  0.8200E+00  0.8241E+01
     -6.457  0.9133E+00  0.8256E+01
     -6.442  0.1057E+01  0.8272E+01
     -6.426  0.1301E+01  0.8292E+01
     -6.411  0.1667E+01  0.8318E+01
     -6.395  0.1516E+01  0.8342E+01
     -6.380  0.1657E+01  0.8367E+01
     -6.364  0.1347E+01  0.8388E+01
     -6.349  0.1507E+01  0.8412E+01
     -6.333  0.1672E+01  0.8438E+01
     -6.318  0.1823E+01  0.8466E+01
     -6.302  0.2068E+01  0.8498E+01
     -6.287  0.2162E+01  0.8531E+01
     -6.271  0.2124E+01  0.8564E+01
     -6.256  0.2319E+01  0.8600E+01
     -6.240  0.2324E+01  0.8636E+01
     -6.225  0.2347E+01  0.8673E+01
     -6.209  0.2802E+01  0.8716E+01
     -6.194  0.2877E+01  0.8761E+01
     -6.178  0.3252E+01  0.8811E+01
     -6.163  0.3609E+01  0.8867E+01
     -6.147  0.3927E+01  0.8928E+01
     -6.132  0.3946E+01  0.8990E+01
     -6.116  0.3894E+01  0.9050E+01
     -6.101  0.3427E+01  0.9103E+01
     -6.085  0.3702E+01  0.9161E+01
     -6.070  0.3860E+01  0.9221E+01
     -6.054  0.4197E+01  0.9286E+01
     -6.038  0.3980E+01  0.9347E+01
     -6.023  0.3805E+01  0.9407E+01
     -6.007  0.3944E+01  0.9468E+01
     -5.992  0.4013E+01  0.9530E+01
     -5.976  0.4096E+01  0.9594E+01
     -5.961  0.4122E+01  0.9657E+01
     -5.945  0.4800E+01  0.9732E+01
     -5.930  0.4027E+01  0.9794E+01
     -5.914  0.4139E+01  0.9859E+01
     -5.899  0.3707E+01  0.9916E+01
     -5.883  0.4111E+01  0.9980E+01
     -5.868  0.3348E+01  0.1003E+02
     -5.852  0.3898E+01  0.1009E+02
     -5.837  0.3803E+01  0.1015E+02
     -5.821  0.4106E+01  0.1022E+02
     -5.806  0.4412E+01  0.1028E+02
     -5.790  0.4543E+01  0.1035E+02
     -5.775  0.4423E+01  0.1042E+02
     -5.759  0.4529E+01  0.1049E+02
     -5.744  0.4254E+01  0.1056E+02
     -5.728  0.3861E+01  0.1062E+02
     -5.713  0.3907E+01  0.1068E+02
     -5.697  0.4334E+01  0.1075E+02
     -5.682  0.3808E+01  0.1081E+02
     -5.666  0.3665E+01  0.1086E+02
     -5.651  0.3954E+01  0.1092E+02
     -5.635  0.3659E+01  0.1098E+02
     -5.620  0.4365E+01  0.1105E+02
     -5.604  0.4341E+01  0.1112E+02
     -5.588  0.3869E+01  0.1118E+02
     -5.573  0.3815E+01  0.1124E+02
     -5.557  0.4216E+01  0.1130E+02
     -5.542  0.4058E+01  0.1136E+02
     -5.526  0.4529E+01  0.1143E+02
     -5.511  0.4176E+01  0.1150E+02
     -5.495  0.4137E+01  0.1156E+02
     -5.480  0.4289E+01  0.1163E+02
     -5.464  0.4182E+01  0.1169E+02
     -5.449  0.4267E+01  0.1176E+02
     -5.433  0.4333E+01  0.1183E+02
     -5.418  0.4961E+01  0.1190E+02
     -5.402  0.5141E+01  0.1198E+02
     -5.387  0.4956E+01  0.1206E+02
     -5.371  0.5154E+01  0.1214E+02
     -5.356  0.5194E+01  0.1222E+02
     -5.340  0.4911E+01  0.1230E+02
     -5.325  0.4091E+01  0.1236E+02
     -5.309  0.4540E+01  0.1243E+02
     -5.294  0.4948E+01  0.1251E+02
     -5.278  0.4511E+01  0.1258E+02
     -5.263  0.4471E+01  0.1265E+02
     -5.247  0.4175E+01  0.1271E+02
     -5.232  0.4348E+01  0.1278E+02
     -5.216  0.4560E+01  0.1285E+02
     -5.201  0.4466E+01  0.1292E+02
     -5.185  0.4765E+01  0.1299E+02
     -5.170  0.3701E+01  0.1305E+02
     -5.154  0.3915E+01  0.1311E+02
     -5.138  0.4077E+01  0.1318E+02
     -5.123  0.3839E+01  0.1324E+02
     -5.107  0.4054E+01  0.1330E+02
     -5.092  0.3598E+01  0.1335E+02
     -5.076  0.3654E+01  0.1341E+02
     -5.061  0.3529E+01  0.1347E+02
     -5.045  0.3549E+01  0.1352E+02
     -5.030  0.3731E+01  0.1358E+02
     -5.014  0.3006E+01  0.1363E+02
     -4.999  0.3143E+01  0.1367E+02
     -4.983  0.3090E+01  0.1372E+02
     -4.968  0.2777E+01  0.1377E+02
     -4.952  0.2997E+01  0.1381E+02
     -4.937  0.3032E+01  0.1386E+02
     -4.921  0.2496E+01  0.1390E+02
     -4.906  0.2009E+01  0.1393E+02
     -4.890  0.2215E+01  0.1396E+02
     -4.875  0.2350E+01  0.1400E+02
     -4.859  0.2224E+01  0.1403E+02
     -4.844  0.1758E+01  0.1406E+02
     -4.828  0.2358E+01  0.1410E+02
     -4.813  0.2998E+01  0.1414E+02
     -4.797  0.2659E+01  0.1419E+02
     -4.782  0.2488E+01  0.1422E+02
     -4.766  0.2722E+01  0.1427E+02
     -4.751  0.2816E+01  0.1431E+02
     -4.735  0.3383E+01  0.1436E+02
     -4.720  0.3328E+01  0.1441E+02
     -4.704  0.2737E+01  0.1446E+02
     -4.688  0.2811E+01  0.1450E+02
     -4.673  0.2897E+01  0.1455E+02
     -4.657  0.3907E+01  0.1461E+02
     -4.642  0.4270E+01  0.1467E+02
     -4.626  0.3535E+01  0.1473E+02
     -4.611  0.3235E+01  0.1478E+02
     -4.595  0.3461E+01  0.1483E+02
     -4.580  0.4093E+01  0.1489E+02
     -4.564  0.4112E+01  0.1496E+02
     -4.549  0.3210E+01  0.1501E+02
     -4.533  0.3244E+01  0.1506E+02
     -4.518  0.3432E+01  0.1511E+02
     -4.502  0.3406E+01  0.1516E+02
     -4.487  0.3758E+01  0.1522E+02
     -4.471  0.3667E+01  0.1528E+02
     -4.456  0.3673E+01  0.1534E+02
     -4.440  0.3396E+01  0.1539E+02
     -4.425  0.2686E+01  0.1543E+02
     -4.409  0.2776E+01  0.1547E+02
     -4.394  0.2891E+01  0.1552E+02
     -4.378  0.3297E+01  0.1557E+02
     -4.363  0.3061E+01  0.1562E+02
     -4.347  0.2651E+01  0.1566E+02
     -4.332  0.2876E+01  0.1570E+02
     -4.316  0.3381E+01  0.1576E+02
     -4.301  0.3099E+01  0.1580E+02
     -4.285  0.2573E+01  0.1584E+02
     -4.270  0.2665E+01  0.1589E+02
     -4.254  0.2868E+01  0.1593E+02
     -4.238  0.3525E+01  0.1598E+02
     -4.223  0.3188E+01  0.1603E+02
     -4.207  0.2547E+01  0.1607E+02
     -4.192  0.2716E+01  0.1612E+02
     -4.176  0.2941E+01  0.1616E+02
     -4.161  0.2769E+01  0.1620E+02
     -4.145  0.3120E+01  0.1625E+02
     -4.130  0.2697E+01  0.1629E+02
     -4.114  0.2626E+01  0.1634E+02
     -4.099  0.2811E+01  0.1638E+02
     -4.083  0.2819E+01  0.1642E+02
     -4.068  0.2997E+01  0.1647E+02
     -4.052  0.3281E+01  0.1652E+02
     -4.037  0.2968E+01  0.1657E+02
     -4.021  0.2742E+01  0.1661E+02
     -4.006  0.3010E+01  0.1666E+02
     -3.990  0.3175E+01  0.1670E+02
     -3.975  0.3235E+01  0.1675E+02
     -3.959  0.3223E+01  0.1680E+02
     -3.944  0.2902E+01  0.1685E+02
     -3.928  0.2846E+01  0.1689E+02
     -3.913  0.2894E+01  0.1694E+02
     -3.897  0.2974E+01  0.1699E+02
     -3.882  0.2981E+01  0.1703E+02
     -3.866  0.2863E+01  0.1708E+02
     -3.851  0.2903E+01  0.1712E+02
     -3.835  0.2918E+01  0.1717E+02
     -3.820  0.2733E+01  0.1721E+02
     -3.804  0.3056E+01  0.1726E+02
     -3.788  0.3242E+01  0.1731E+02
     -3.773  0.3009E+01  0.1735E+02
     -3.757  0.2957E+01  0.1740E+02
     -3.742  0.3451E+01  0.1745E+02
     -3.726  0.3352E+01  0.1750E+02
     -3.711  0.2811E+01  0.1755E+02
     -3.695  0.2932E+01  0.1759E+02
     -3.680  0.3185E+01  0.1764E+02
     -3.664  0.2861E+01  0.1769E+02
     -3.649  0.2893E+01  0.1773E+02
     -3.633  0.2688E+01  0.1777E+02
     -3.618  0.2167E+01  0.1781E+02
     -3.602  0.2695E+01  0.1785E+02
     -3.587  0.2691E+01  0.1789E+02
     -3.571  0.2622E+01  0.1793E+02
     -3.556  0.2839E+01  0.1798E+02
     -3.540  0.2814E+01  0.1802E+02
     -3.525  0.2461E+01  0.1806E+02
     -3.509  0.2603E+01  0.1810E+02
     -3.494  0.2935E+01  0.1814E+02
     -3.478  0.3316E+01  0.1820E+02
     -3.463  0.3165E+01  0.1824E+02
     -3.447  0.2887E+01  0.1829E+02
     -3.432  0.2621E+01  0.1833E+02
     -3.416  0.2493E+01  0.1837E+02
     -3.401  0.2619E+01  0.1841E+02
     -3.385  0.2545E+01  0.1845E+02
     -3.370  0.2234E+01  0.1848E+02
     -3.354  0.2629E+01  0.1852E+02
     -3.338  0.2385E+01  0.1856E+02
     -3.323  0.2404E+01  0.1860E+02
     -3.307  0.2475E+01  0.1864E+02
     -3.292  0.2568E+01  0.1868E+02
     -3.276  0.2843E+01  0.1872E+02
     -3.261  0.2791E+01  0.1876E+02
     -3.245  0.2702E+01  0.1881E+02
     -3.230  0.3049E+01  0.1885E+02
     -3.214  0.2979E+01  0.1890E+02
     -3.199  0.2656E+01  0.1894E+02
     -3.183  0.2889E+01  0.1899E+02
     -3.168  0.2537E+01  0.1902E+02
     -3.152  0.2502E+01  0.1906E+02
     -3.137  0.2921E+01  0.1911E+02
     -3.121  0.2656E+01  0.1915E+02
     -3.106  0.2611E+01  0.1919E+02
     -3.090  0.2845E+01  0.1923E+02
     -3.075  0.2931E+01  0.1928E+02
     -3.059  0.3250E+01  0.1933E+02
     -3.044  0.3272E+01  0.1938E+02
     -3.028  0.3181E+01  0.1943E+02
     -3.013  0.3065E+01  0.1948E+02
     -2.997  0.3451E+01  0.1953E+02
     -2.982  0.2977E+01  0.1958E+02
     -2.966  0.2745E+01  0.1962E+02
     -2.951  0.2840E+01  0.1966E+02
     -2.935  0.2862E+01  0.1971E+02
     -2.920  0.2932E+01  0.1975E+02
     -2.904  0.3028E+01  0.1980E+02
     -2.888  0.2753E+01  0.1984E+02
     -2.873  0.2658E+01  0.1989E+02
     -2.857  0.2751E+01  0.1993E+02
     -2.842  0.3037E+01  0.1998E+02
     -2.826  0.3151E+01  0.2002E+02
     -2.811  0.2867E+01  0.2007E+02
     -2.795  0.2570E+01  0.2011E+02
     -2.780  0.1958E+01  0.2014E+02
     -2.764  0.1859E+01  0.2017E+02
     -2.749  0.1998E+01  0.2020E+02
     -2.733  0.2013E+01  0.2023E+02
     -2.718  0.1972E+01  0.2026E+02