  14  14   0   0
  0.1021960E+02  0.5697000E-09  0.4047900E-09  0.6204200E-09  0.5000000E-15
  1.000000000000000E-004
  CAR 
 Kpoints                                 
     18.00448803    -14.19530128  301      1.89376997      1.00000000
    -14.195  0.0000E+00  0.0000E+00
    -14.088  0.0000E+00  0.0000E+00
    -13.981  0.0000E+00  0.0000E+00
    -13.873  0.0000E+00  0.0000E+00
    -13.766  0.0000E+00  0.0000E+00
    -13.659  0.0000E+00  0.0000E+00
    -13.551  0.0000E+00  0.0000E+00
    -13.444  0.0000E+00  0.0000E+00
    -13.337  0.0000E+00  0.0000E+00
    -13.229  0.0000E+00  0.0000E+00
    -13.122  0.0000E+00  0.0000E+00
    -13.015  0.1204E-16  0.1293E-17
    -12.907  0.1168E-07  0.1254E-08
    -12.800  0.2290E-02  0.2457E-03
    -12.693  0.4281E+00  0.4619E-01
    -12.585  0.2280E+01  0.2909E+00
    -12.478  0.3525E+01  0.6692E+00
    -12.371  0.4344E+01  0.1135E+01
    -12.263  0.3561E+01  0.1518E+01
    -12.156  0.2868E+01  0.1826E+01
    -12.049  0.2634E+01  0.2108E+01
    -11.941  0.2587E+01  0.2386E+01
    -11.834  0.2741E+01  0.2680E+01
    -11.727  0.3320E+01  0.3036E+01
    -11.619  0.3622E+01  0.3425E+01
    -11.512  0.3134E+01  0.3762E+01
    -11.405  0.1740E+01  0.3948E+01
    -11.297  0.4712E+00  0.3999E+01
    -11.190  0.9907E-02  0.4000E+01
    -11.083  0.4458E-06  0.4000E+01
    -10.975  0.5709E-14  0.4000E+01
    -10.868  0.0000E+00  0.4000E+01
    -10.761  0.0000E+00  0.4000E+01
    -10.653  0.0000E+00  0.4000E+01
    -10.546  0.0000E+00  0.4000E+01
    -10.439  0.0000E+00  0.4000E+01
    -10.331  0.0000E+00  0.4000E+01
    -10.224  0.0000E+00  0.4000E+01
    -10.117  0.0000E+00  0.4000E+01
    -10.009  0.0000E+00  0.4000E+01
     -9.902  0.0000E+00  0.4000E+01
     -9.795  0.0000E+00  0.4000E+01
     -9.687  0.0000E+00  0.4000E+01
     -9.580  0.0000E+00  0.4000E+01
     -9.473  0.0000E+00  0.4000E+01
     -9.365  0.0000E+00  0.4000E+01
     -9.258  0.0000E+00  0.4000E+01
     -9.151  0.0000E+00  0.4000E+01
     -9.043  0.5840E-09  0.4000E+01
     -8.936  0.4979E-03  0.4000E+01
     -8.829  0.2646E+00  0.4028E+01
     -8.721  0.2069E+01  0.4251E+01
     -8.614  0.5269E+01  0.4816E+01
     -8.507  0.7012E+01  0.5569E+01
     -8.399  0.6277E+01  0.6242E+01
     -8.292  0.5313E+01  0.6813E+01
     -8.185  0.4885E+01  0.7337E+01
     -8.077  0.3842E+01  0.7749E+01
     -7.970  0.1700E+01  0.7932E+01
     -7.863  0.5845E+00  0.7995E+01
     -7.755  0.5096E-01  0.8000E+01
     -7.648  0.4473E-04  0.8000E+01
     -7.541  0.1983E-10  0.8000E+01
     -7.433  0.0000E+00  0.8000E+01
     -7.326  0.0000E+00  0.8000E+01
     -7.219  0.4100E-14  0.8000E+01
     -7.111  0.2417E-06  0.8000E+01
     -7.004  0.2964E-02  0.8000E+01
     -6.897  0.9901E-01  0.8011E+01
     -6.789  0.2671E+00  0.8040E+01
     -6.682  0.4836E+00  0.8092E+01
     -6.575  0.6601E+00  0.8162E+01
     -6.467  0.9228E+00  0.8261E+01
     -6.360  0.1366E+01  0.8408E+01
     -6.253  0.2113E+01  0.8635E+01
     -6.145  0.2914E+01  0.8948E+01
     -6.038  0.3839E+01  0.9360E+01
     -5.931  0.4125E+01  0.9803E+01
     -5.823  0.3920E+01  0.1022E+02
     -5.716  0.4118E+01  0.1067E+02
     -5.609  0.4047E+01  0.1110E+02
     -5.501  0.4076E+01  0.1154E+02
     -5.394  0.4382E+01  0.1201E+02
     -5.287  0.4868E+01  0.1253E+02
     -5.179  0.4398E+01  0.1300E+02
     -5.072  0.3903E+01  0.1342E+02
     -4.965  0.3478E+01  0.1379E+02
     -4.857  0.2446E+01  0.1406E+02
     -4.750  0.2420E+01  0.1432E+02
     -4.643  0.2981E+01  0.1464E+02
     -4.535  0.3651E+01  0.1503E+02
     -4.428  0.3366E+01  0.1539E+02
     -4.321  0.3181E+01  0.1573E+02
     -4.213  0.2987E+01  0.1605E+02
     -4.106  0.2781E+01  0.1635E+02
     -3.999  0.3056E+01  0.1668E+02
     -3.891  0.2986E+01  0.1700E+02
     -3.784  0.2992E+01  0.1732E+02
     -3.677  0.2868E+01  0.1763E+02
     -3.569  0.2931E+01  0.1794E+02
     -3.462  0.2725E+01  0.1823E+02
     -3.355  0.2794E+01  0.1853E+02
     -3.247  0.2862E+01  0.1884E+02
     -3.140  0.2563E+01  0.1912E+02
     -3.033  0.3094E+01  0.1945E+02
     -2.925  0.3035E+01  0.1977E+02
     -2.818  0.2753E+01  0.2007E+02
     -2.711  0.2526E+01  0.2034E+02
     -2.603  0.2484E+01  0.2061E+02
     -2.496  0.3023E+01  0.2093E+02
     -2.389  0.3130E+01  0.2127E+02
     -2.281  0.3709E+01  0.2167E+02
     -2.174  0.3260E+01  0.2202E+02
     -2.067  0.3775E+01  0.2242E+02
     -1.959  0.3660E+01  0.2281E+02
     -1.852  0.4651E+01  0.2331E+02
     -1.745  0.6047E+01  0.2396E+02
     -1.637  0.5461E+01  0.2455E+02
     -1.530  0.6099E+01  0.2520E+02
     -1.423  0.6070E+01  0.2585E+02
     -1.315  0.5825E+01  0.2648E+02
     -1.208  0.5160E+01  0.2703E+02
     -1.101  0.5233E+01  0.2760E+02
     -0.993  0.4099E+01  0.2804E+02
     -0.886  0.2805E+01  0.2834E+02
     -0.779  0.2414E+01  0.2860E+02
     -0.671  0.3219E+01  0.2894E+02
     -0.564  0.4919E+01  0.2947E+02
     -0.457  0.6106E+01  0.3012E+02
     -0.349  0.6202E+01  0.3079E+02
     -0.242  0.6222E+01  0.3146E+02
     -0.135  0.6672E+01  0.3217E+02
     -0.027  0.6971E+01  0.3292E+02
      0.080  0.6400E+01  0.3361E+02
      0.187  0.6558E+01  0.3431E+02
      0.295  0.8426E+01  0.3522E+02
      0.402  0.8500E+01  0.3613E+02
      0.509  0.8790E+01  0.3707E+02
      0.617  0.4670E+01  0.3757E+02
      0.724  0.2968E+01  0.3789E+02
      0.831  0.3047E+01  0.3822E+02
      0.939  0.3327E+01  0.3858E+02
      1.046  0.3523E+01  0.3896E+02
      1.153  0.3538E+01  0.3933E+02
      1.261  0.3777E+01  0.3974E+02
      1.368  0.3775E+01  0.4015E+02
      1.475  0.3664E+01  0.4054E+02
      1.583  0.4077E+01  0.4098E+02
      1.690  0.4140E+01  0.4142E+02
      1.797  0.2795E+01  0.4172E+02
      1.905  0.2916E+01  0.4203E+02
      2.012  0.3099E+01  0.4237E+02
      2.119  0.2587E+01  0.4264E+02
      2.227  0.2132E+01  0.4287E+02
      2.334  0.1927E+01  0.4308E+02
      2.441  0.1720E+01  0.4326E+02
      2.549  0.1108E+01  0.4338E+02
      2.656  0.5225E+00  0.4344E+02
      2.763  0.5221E+00  0.4350E+02
      2.871  0.6981E+00  0.4357E+02
      2.978  0.6447E+00  0.4364E+02
      3.085  0.4483E+00  0.4369E+02
      3.193  0.3798E+00  0.4373E+02
      3.300  0.3937E+00  0.4377E+02
      3.407  0.5012E+00  0.4382E+02
      3.515  0.4163E+00  0.4387E+02
      3.622  0.2180E+00  0.4389E+02
      3.729  0.3147E+00  0.4393E+02
      3.837  0.3534E+00  0.4396E+02
      3.944  0.2154E+00  0.4399E+02
      4.051  0.1076E+00  0.4400E+02
      4.159  0.1169E-01  0.4400E+02
      4.266  0.4277E-01  0.4400E+02
      4.373  0.2277E+00  0.4403E+02
      4.481  0.3546E+00  0.4407E+02
      4.588  0.5136E+00  0.4412E+02
      4.695  0.7140E+00  0.4420E+02
      4.803  0.8067E+00  0.4429E+02
      4.910  0.8882E+00  0.4438E+02
      5.017  0.9374E+00  0.4448E+02
      5.125  0.1189E+01  0.4461E+02
      5.232  0.1278E+01  0.4475E+02
      5.339  0.1712E+01  0.4493E+02
      5.447  0.2088E+01  0.4515E+02
      5.554  0.2599E+01  0.4543E+02
      5.661  0.2843E+01  0.4574E+02
      5.769  0.3313E+01  0.4609E+02
      5.876  0.3696E+01  0.4649E+02
      5.983  0.4023E+01  0.4692E+02
      6.091  0.4566E+01  0.4741E+02
      6.198  0.4608E+01  0.4791E+02
      6.305  0.4173E+01  0.4835E+02
      6.413  0.4141E+01  0.4880E+02
      6.520  0.4449E+01  0.4928E+02
      6.627  0.3875E+01  0.4969E+02
      6.735  0.3646E+01  0.5008E+02
      6.842  0.3910E+01  0.5050E+02
      6.949  0.4267E+01  0.5096E+02
      7.057  0.4864E+01  0.5148E+02
      7.164  0.5103E+01  0.5203E+02
      7.271  0.4955E+01  0.5256E+02
      7.379  0.4666E+01  0.5306E+02
      7.486  0.4496E+01  0.5355E+02
      7.593  0.4251E+01  0.5400E+02
      7.701  0.3334E+01  0.5436E+02
      7.808  0.3187E+01  0.5470E+02
      7.915  0.3223E+01  0.5505E+02
      8.023  0.3212E+01  0.5539E+02
      8.130  0.3616E+01  0.5578E+02
      8.237  0.3913E+01  0.5620E+02
      8.345  0.3987E+01  0.5663E+02
      8.452  0.4233E+01  0.5708E+02
      8.559  0.3890E+01  0.5750E+02
      8.667  0.4166E+01  0.5795E+02
      8.774  0.5102E+01  0.5850E+02
      8.881  0.4917E+01  0.5902E+02
      8.989  0.5172E+01  0.5958E+02
      9.096  0.4940E+01  0.6011E+02
      9.203  0.5160E+01  0.6066E+02
      9.311  0.5042E+01  0.6120E+02
      9.418  0.4786E+01  0.6172E+02
      9.525  0.4577E+01  0.6221E+02
      9.633  0.4706E+01  0.6271E+02
      9.740  0.4954E+01  0.6325E+02
      9.847  0.5290E+01  0.6381E+02
      9.955  0.4940E+01  0.6434E+02
     10.062  0.4170E+01  0.6479E+02
     10.169  0.4039E+01  0.6523E+02
     10.277  0.4328E+01  0.6569E+02
     10.384  0.4992E+01  0.6623E+02
     10.491  0.5658E+01  0.6683E+02
     10.599  0.5125E+01  0.6738E+02
     10.706  0.4477E+01  0.6786E+02
     10.813  0.3719E+01  0.6826E+02
     10.921  0.3522E+01  0.6864E+02
     11.028  0.4534E+01  0.6913E+02
     11.135  0.5523E+01  0.6972E+02
     11.243  0.6186E+01  0.7038E+02
     11.350  0.5974E+01  0.7103E+02
     11.457  0.4647E+01  0.7152E+02
     11.565  0.4807E+01  0.7204E+02
     11.672  0.4791E+01  0.7255E+02
     11.779  0.4806E+01  0.7307E+02
     11.887  0.4967E+01  0.7360E+02
     11.994  0.5941E+01  0.7424E+02
     12.101  0.6253E+01  0.7491E+02
     12.209  0.5533E+01  0.7551E+02
     12.316  0.5020E+01  0.7604E+02
     12.423  0.5725E+01  0.7666E+02
     12.531  0.5916E+01  0.7729E+02
     12.638  0.5767E+01  0.7791E+02
     12.745  0.5999E+01  0.7856E+02
     12.853  0.5822E+01  0.7918E+02
     12.960  0.5875E+01  0.7981E+02
     13.067  0.6209E+01  0.8048E+02
     13.175  0.5996E+01  0.8112E+02
     13.282  0.6233E+01  0.8179E+02
     13.389  0.5475E+01  0.8238E+02
     13.497  0.5433E+01  0.8296E+02
     13.604  0.5378E+01  0.8354E+02
     13.711  0.5592E+01  0.8414E+02
     13.819  0.5462E+01  0.8473E+02
     13.926  0.5774E+01  0.8535E+02
     14.033  0.5435E+01  0.8593E+02
     14.141  0.5175E+01  0.8648E+02
     14.248  0.4917E+01  0.8701E+02
     14.355  0.4926E+01  0.8754E+02
     14.463  0.4760E+01  0.8805E+02
     14.570  0.5322E+01  0.8862E+02
     14.677  0.5353E+01  0.8920E+02
     14.785  0.4482E+01  0.8968E+02
     14.892  0.4141E+01  0.9012E+02
     14.999  0.5538E+01  0.9072E+02
     15.107  0.6009E+01  0.9136E+02
     15.214  0.5827E+01  0.9199E+02
     15.321  0.6026E+01  0.9263E+02
     15.429  0.5653E+01  0.9324E+02
     15.536  0.5952E+01  0.9388E+02
     15.643  0.5630E+01  0.9448E+02
     15.751  0.3781E+01  0.9489E+02
     15.858  0.3048E+01  0.9522E+02
     15.965  0.2024E+01  0.9543E+02
     16.073  0.1595E+01  0.9561E+02
     16.180  0.1219E+01  0.9574E+02
     16.287  0.9737E+00  0.9584E+02
     16.394  0.8373E+00  0.9593E+02
     16.502  0.5234E+00  0.9599E+02
     16.609  0.1168E+00  0.9600E+02
     16.716  0.9064E-03  0.9600E+02
     16.824  0.8144E-08  0.9600E+02
     16.931  0.1521E-16  0.9600E+02
     17.038  0.0000E+00  0.9600E+02
     17.146  0.0000E+00  0.9600E+02
     17.253  0.0000E+00  0.9600E+02
     17.360  0.0000E+00  0.9600E+02
     17.468  0.0000E+00  0.9600E+02
     17.575  0.0000E+00  0.9600E+02
     17.682  0.0000E+00  0.9600E+02
     17.790  0.0000E+00  0.9600E+02
     17.897  0.0000E+00  0.9600E+02
     18.004  0.0000E+00  0.9600E+02
