 vasp.6.4.3 19Mar24 (build May 31 2024 16:31:43) complex                        
  
 executed on             LinuxIFC date 2024.10.31  00:22:35
 running   24 mpi-ranks, with    1 threads/rank, on    1 nodes
 distrk:  each k-point on   24 cores,    1 groups
 distr:  one band on NCORE=   1 cores,   24 groups


--------------------------------------------------------------------------------------------------------


 INCAR:
   SYSTEM = Kpoints
   ISTART = 0
   ICHARG = 2
   PREC = Accurate
   ENCUT = 480
   LCHARG = .FALSE.
   LWAVE = .FALSE.
   ALGO = Normal
   NELM = 100
   EDIFF = 1E-6
   EDIFFG = -1E-3
   SIGMA = 0.05
   ISMEAR = 0
   ISPIN = 1
   NSW = 0
   IBRION = -1
   POTIM = .5
   ISIF = 2
   GGA = PE

 POTCAR:    PAW_PBE B 06Sep2000                   
 POTCAR:    PAW_PBE B 06Sep2000                   
   SHA256 =  a32ced30f5ae56fd4d10b4325ff17eb3e4e38ee0f4288bc219fb012fddfa6e97 B/POTCAR              
   COPYR  = (c) Copyright 06Sep2000 Georg Kresse                                                    
   COPYR  = This file is part of the software VASP. Any use, copying, and all other rights are regul
   COPYR  = If you do not have a valid VASP license, you may not use, copy or distribute this file. 
   VRHFIN =B: s2p1                                                                                  
   LEXCH  = PE                                                                                      
   EATOM  =    71.1703 eV,    5.2309 Ry                                                             
                                                                                                    
   TITEL  = PAW_PBE B 06Sep2000                                                                     
   LULTRA =        F    use ultrasoft PP ?                                                          
   IUNSCR =        1    unscreen: 0-lin 1-nonlin 2-no                                               
   RPACOR =    1.200    partial core radius                                                         
   POMASS =   10.811; ZVAL   =    3.000    mass and valenz                                          
   RCORE  =    1.700    outmost cutoff radius                                                       
   RWIGS  =    1.710; RWIGS  =    0.905    wigner-seitz radius (au A)                               
   ENMAX  =  318.614; ENMIN  =  238.960 eV                                                          
   ICORE  =        2    local potential                                                             
   LCOR   =        T    correct aug charges                                                         
   LPAW   =        T    paw PP                                                                      
   EAUG   =  535.514                                                                                
   DEXC   =    0.000                                                                                
   RMAX   =    1.732    core radius for proj-oper                                                   
   RAUG   =    1.300    factor for augmentation sphere                                              
   RDEP   =    1.757    radius for radial grids                                                     
   RDEPT  =    1.436    core radius for aug-charge                                                  
                                                                                                    
   Atomic configuration                                                                             
    4 entries                                                                                       
     n  l   j            E        occ.                                                              
     1  0  0.50      -180.5896   2.0000                                                             
     2  0  0.50        -9.4431   2.0000                                                             
     2  1  0.50        -3.6068   1.0000                                                             
     3  2  1.50        -4.0817   0.0000                                                             
   Description                                                                                      
     l       E           TYP  RCUT    TYP  RCUT                                                     
     0     -9.4430752     23  1.500                                                                 
     0      0.8675899     23  1.500                                                                 
     1     -3.6067955     23  1.700                                                                 
     1      6.1086146     23  1.700                                                                 
     2     -4.0817478      7  1.700                                                                 
  local pseudopotential read in
  partial core-charges read in
  partial kinetic energy density read in
  atomic valenz-charges read in
  non local Contribution for L=           0  read in
    real space projection operators read in
  non local Contribution for L=           0  read in
    real space projection operators read in
  non local Contribution for L=           1  read in
    real space projection operators read in
  non local Contribution for L=           1  read in
    real space projection operators read in
    PAW grid and wavefunctions read in
 
   number of l-projection  operators is LMAX  =           4
   number of lm-projection operators is LMMAX =           8
 
  PAW_PBE B 06Sep2000                   :
 energy of atom  1       EATOM=  -71.1703
 kinetic energy error for atom=    0.0013 (will be added to EATOM!!)
 
 
 POSCAR: o-B14
  positions in direct lattice
  No initial velocities read in


 exchange-correlation table for PE
   RHO(1)=    0.500       N(1)  =     2000
   RHO(2)=  100.500       N(2)  =     4000
 


--------------------------------------------------------------------------------------------------------


 ion  position               nearest neighbor table
   1  0.521  0.500  0.638-  14 1.64   5 1.69  13 1.70   2 1.73   9 1.85  11 1.85
   2  0.479  0.500  0.362-  13 1.64   6 1.69  14 1.70   1 1.73  10 1.85  12 1.85
   3  0.979  0.500  0.638-  14 1.64   7 1.69  13 1.70   4 1.73   9 1.85  11 1.85
   4  0.021  0.500  0.362-  13 1.64   8 1.69  14 1.70   3 1.73  10 1.85  12 1.85
   5  0.601  0.500  0.900-   1 1.69   6 1.69   7 1.70   9 1.80  11 1.80
   6  0.399  0.500  0.100-   2 1.69   5 1.69   8 1.70  10 1.80  12 1.80
   7  0.899  0.500  0.900-   3 1.69   8 1.69   5 1.70   9 1.80  11 1.80
   8  0.101  0.500  0.100-   4 1.69   7 1.69   6 1.70  10 1.80  12 1.80
   9  0.750  0.792  0.730-  11 1.69   7 1.80   5 1.80   3 1.85   1 1.85  14 1.97
  10  0.250  0.208  0.270-  12 1.69   8 1.80   6 1.80   4 1.85   2 1.85  13 1.97
  11  0.750  0.208  0.730-   9 1.69   7 1.80   5 1.80   3 1.85   1 1.85  14 1.97
  12  0.250  0.792  0.270-  10 1.69   8 1.80   6 1.80   4 1.85   2 1.85  13 1.97
  13  0.250  0.500  0.524-   2 1.64   4 1.64   3 1.70   1 1.70  10 1.97  12 1.97
  14  0.750  0.500  0.476-   1 1.64   3 1.64   2 1.70   4 1.70   9 1.97  11 1.97
 
  LATTYP: Found a simple orthorhombic cell.
 ALAT       =     4.0479000000
 B/A-ratio  =     1.4073964278
 C/A-ratio  =     1.5326959658
  
  Lattice vectors:
  
 A1 = (   0.0000000000,  -4.0479000000,   0.0000000000)
 A2 = (   5.6970000000,   0.0000000000,   0.0000000000)
 A3 = (   0.0000000000,   0.0000000000,   6.2042000000)


Analysis of symmetry for initial positions (statically):
=====================================================================
 Subroutine PRICEL returns:
 Original cell was already a primitive cell.
 

 Routine SETGRP: Setting up the symmetry group for a 
 simple orthorhombic supercell.


 Subroutine GETGRP returns: Found  8 space group operations
 (whereof  4 operations were pure point group operations)
 out of a pool of  8 trial point group operations.


The static configuration has the point symmetry C_2h.
 The point group associated with its full space group is D_2h.


Analysis of symmetry for dynamics (positions and initial velocities):
=====================================================================
 Subroutine PRICEL returns:
 Original cell was already a primitive cell.
 

 Routine SETGRP: Setting up the symmetry group for a 
 simple orthorhombic supercell.


 Subroutine GETGRP returns: Found  8 space group operations
 (whereof  4 operations were pure point group operations)
 out of a pool of  8 trial point group operations.


The dynamic configuration has the point symmetry C_2h.
 The point group associated with its full space group is D_2h.


 Subroutine INISYM returns: Found  8 space group operations
 (whereof  4 operations are pure point group operations),
 and found     1 'primitive' translations


----------------------------------------------------------------------------------------

                                     Primitive cell                                     

  volume of cell :     143.0744

  direct lattice vectors                    reciprocal lattice vectors
     5.697000000  0.000000000  0.000000000     0.175530981  0.000000000  0.000000000
     0.000000000  4.047900000  0.000000000     0.000000000  0.247041676  0.000000000
     0.000000000  0.000000000  6.204200000     0.000000000  0.000000000  0.161181135

  length of vectors
     5.697000000  4.047900000  6.204200000     0.175530981  0.247041676  0.161181135

  position of ions in fractional coordinates (direct lattice)
     0.521230000  0.500000000  0.637960000
     0.478770000  0.500000000  0.362040000
     0.978770000  0.500000000  0.637960000
     0.021230000  0.500000000  0.362040000
     0.600900000  0.500000000  0.899910000
     0.399100000  0.500000000  0.100090000
     0.899100000  0.500000000  0.899910000
     0.100900000  0.500000000  0.100090000
     0.750000000  0.791710000  0.729730000
     0.250000000  0.208290000  0.270270000
     0.750000000  0.208290000  0.729730000
     0.250000000  0.791710000  0.270270000
     0.250000000  0.500000000  0.523670000
     0.750000000  0.500000000  0.476330000

  ion indices of the primitive-cell ions
   primitive index   ion index
                 1           1
                 2           2
                 3           3
                 4           4
                 5           5
                 6           6
                 7           7
                 8           8
                 9           9
                10          10
                11          11
                12          12
                13          13
                14          14

----------------------------------------------------------------------------------------

 
 
 KPOINTS: k-points                                

Automatic generation of k-mesh.
 Grid dimensions read from file:
 generate k-points for:   17   24   16

 Generating k-lattice:

  Cartesian coordinates                     Fractional coordinates (reciprocal lattice)
     0.010325352  0.000000000  0.000000000     0.058823529  0.000000000  0.000000000
     0.000000000  0.010293403  0.000000000     0.000000000  0.041666667  0.000000000
     0.000000000  0.000000000  0.010073821     0.000000000  0.000000000  0.062500000

  Length of vectors
     0.010325352  0.010293403  0.010073821

  Shift w.r.t. Gamma in fractional coordinates (k-lattice)
     0.000000000  0.500000000  0.500000000

 
 Subroutine IBZKPT returns following result:
 ===========================================
 
 Found    864 irreducible k-points:
 
 Following reciprocal coordinates:
            Coordinates               Weight
  0.000000  0.020833  0.031250      4.000000
  0.058824  0.020833  0.031250      8.000000
  0.117647  0.020833  0.031250      8.000000
  0.176471  0.020833  0.031250      8.000000
  0.235294  0.020833  0.031250      8.000000
  0.294118  0.020833  0.031250      8.000000
  0.352941  0.020833  0.031250      8.000000
  0.411765  0.020833  0.031250      8.000000
  0.470588  0.020833  0.031250      8.000000
  0.000000  0.062500  0.031250      4.000000
  0.058824  0.062500  0.031250      8.000000
  0.117647  0.062500  0.031250      8.000000
  0.176471  0.062500  0.031250      8.000000
  0.235294  0.062500  0.031250      8.000000
  0.294118  0.062500  0.031250      8.000000
  0.352941  0.062500  0.031250      8.000000
  0.411765  0.062500  0.031250      8.000000
  0.470588  0.062500  0.031250      8.000000
  0.000000  0.104167  0.031250      4.000000
  0.058824  0.104167  0.031250      8.000000
  0.117647  0.104167  0.031250      8.000000
  0.176471  0.104167  0.031250      8.000000
  0.235294  0.104167  0.031250      8.000000
  0.294118  0.104167  0.031250      8.000000
  0.352941  0.104167  0.031250      8.000000
  0.411765  0.104167  0.031250      8.000000
  0.470588  0.104167  0.031250      8.000000
  0.000000  0.145833  0.031250      4.000000
  0.058824  0.145833  0.031250      8.000000
  0.117647  0.145833  0.031250      8.000000
  0.176471  0.145833  0.031250      8.000000
  0.235294  0.145833  0.031250      8.000000
  0.294118  0.145833  0.031250      8.000000
  0.352941  0.145833  0.031250      8.000000
  0.411765  0.145833  0.031250      8.000000
  0.470588  0.145833  0.031250      8.000000
  0.000000  0.187500  0.031250      4.000000
  0.058824  0.187500  0.031250      8.000000
  0.117647  0.187500  0.031250      8.000000
  0.176471  0.187500  0.031250      8.000000
  0.235294  0.187500  0.031250      8.000000
  0.294118  0.187500  0.031250      8.000000
  0.352941  0.187500  0.031250      8.000000
  0.411765  0.187500  0.031250      8.000000
  0.470588  0.187500  0.031250      8.000000
  0.000000  0.229167  0.031250      4.000000
  0.058824  0.229167  0.031250      8.000000
  0.117647  0.229167  0.031250      8.000000
  0.176471  0.229167  0.031250      8.000000
  0.235294  0.229167  0.031250      8.000000
  0.294118  0.229167  0.031250      8.000000
  0.352941  0.229167  0.031250      8.000000
  0.411765  0.229167  0.031250      8.000000
  0.470588  0.229167  0.031250      8.000000
  0.000000  0.270833  0.031250      4.000000
  0.058824  0.270833  0.031250      8.000000
  0.117647  0.270833  0.031250      8.000000
  0.176471  0.270833  0.031250      8.000000
  0.235294  0.270833  0.031250      8.000000
  0.294118  0.270833  0.031250      8.000000
  0.352941  0.270833  0.031250      8.000000
  0.411765  0.270833  0.031250      8.000000
  0.470588  0.270833  0.031250      8.000000
  0.000000  0.312500  0.031250      4.000000
  0.058824  0.312500  0.031250      8.000000
  0.117647  0.312500  0.031250      8.000000
  0.176471  0.312500  0.031250      8.000000
  0.235294  0.312500  0.031250      8.000000
  0.294118  0.312500  0.031250      8.000000
  0.352941  0.312500  0.031250      8.000000
  0.411765  0.312500  0.031250      8.000000
  0.470588  0.312500  0.031250      8.000000
  0.000000  0.354167  0.031250      4.000000
  0.058824  0.354167  0.031250      8.000000
  0.117647  0.354167  0.031250      8.000000
  0.176471  0.354167  0.031250      8.000000
  0.235294  0.354167  0.031250      8.000000
  0.294118  0.354167  0.031250      8.000000
  0.352941  0.354167  0.031250      8.000000
  0.411765  0.354167  0.031250      8.000000
  0.470588  0.354167  0.031250      8.000000
  0.000000  0.395833  0.031250      4.000000
  0.058824  0.395833  0.031250      8.000000
  0.117647  0.395833  0.031250      8.000000
  0.176471  0.395833  0.031250      8.000000
  0.235294  0.395833  0.031250      8.000000
  0.294118  0.395833  0.031250      8.000000
  0.352941  0.395833  0.031250      8.000000
  0.411765  0.395833  0.031250      8.000000
  0.470588  0.395833  0.031250      8.000000
  0.000000  0.437500  0.031250      4.000000
  0.058824  0.437500  0.031250      8.000000
  0.117647  0.437500  0.031250      8.000000
  0.176471  0.437500  0.031250      8.000000
  0.235294  0.437500  0.031250      8.000000
  0.294118  0.437500  0.031250      8.000000
  0.352941  0.437500  0.031250      8.000000
  0.411765  0.437500  0.031250      8.000000
  0.470588  0.437500  0.031250      8.000000
  0.000000  0.479167  0.031250      4.000000
  0.058824  0.479167  0.031250      8.000000
  0.117647  0.479167  0.031250      8.000000
  0.176471  0.479167  0.031250      8.000000
  0.235294  0.479167  0.031250      8.000000
  0.294118  0.479167  0.031250      8.000000
  0.352941  0.479167  0.031250      8.000000
  0.411765  0.479167  0.031250      8.000000
  0.470588  0.479167  0.031250      8.000000
  0.000000  0.020833  0.093750      4.000000
  0.058824  0.020833  0.093750      8.000000
  0.117647  0.020833  0.093750      8.000000
  0.176471  0.020833  0.093750      8.000000
  0.235294  0.020833  0.093750      8.000000
  0.294118  0.020833  0.093750      8.000000
  0.352941  0.020833  0.093750      8.000000
  0.411765  0.020833  0.093750      8.000000
  0.470588  0.020833  0.093750      8.000000
  0.000000  0.062500  0.093750      4.000000
  0.058824  0.062500  0.093750      8.000000
  0.117647  0.062500  0.093750      8.000000
  0.176471  0.062500  0.093750      8.000000
  0.235294  0.062500  0.093750      8.000000
  0.294118  0.062500  0.093750      8.000000
  0.352941  0.062500  0.093750      8.000000
  0.411765  0.062500  0.093750      8.000000
  0.470588  0.062500  0.093750      8.000000
  0.000000  0.104167  0.093750      4.000000
  0.058824  0.104167  0.093750      8.000000
  0.117647  0.104167  0.093750      8.000000
  0.176471  0.104167  0.093750      8.000000
  0.235294  0.104167  0.093750      8.000000
  0.294118  0.104167  0.093750      8.000000
  0.352941  0.104167  0.093750      8.000000
  0.411765  0.104167  0.093750      8.000000
  0.470588  0.104167  0.093750      8.000000
  0.000000  0.145833  0.093750      4.000000
  0.058824  0.145833  0.093750      8.000000
  0.117647  0.145833  0.093750      8.000000
  0.176471  0.145833  0.093750      8.000000
  0.235294  0.145833  0.093750      8.000000
  0.294118  0.145833  0.093750      8.000000
  0.352941  0.145833  0.093750      8.000000
  0.411765  0.145833  0.093750      8.000000
  0.470588  0.145833  0.093750      8.000000
  0.000000  0.187500  0.093750      4.000000
  0.058824  0.187500  0.093750      8.000000
  0.117647  0.187500  0.093750      8.000000
  0.176471  0.187500  0.093750      8.000000
  0.235294  0.187500  0.093750      8.000000
  0.294118  0.187500  0.093750      8.000000
  0.352941  0.187500  0.093750      8.000000
  0.411765  0.187500  0.093750      8.000000
  0.470588  0.187500  0.093750      8.000000
  0.000000  0.229167  0.093750      4.000000
  0.058824  0.229167  0.093750      8.000000
  0.117647  0.229167  0.093750      8.000000
  0.176471  0.229167  0.093750      8.000000
  0.235294  0.229167  0.093750      8.000000
  0.294118  0.229167  0.093750      8.000000
  0.352941  0.229167  0.093750      8.000000
  0.411765  0.229167  0.093750      8.000000
  0.470588  0.229167  0.093750      8.000000
  0.000000  0.270833  0.093750      4.000000
  0.058824  0.270833  0.093750      8.000000
  0.117647  0.270833  0.093750      8.000000
  0.176471  0.270833  0.093750      8.000000
  0.235294  0.270833  0.093750      8.000000
  0.294118  0.270833  0.093750      8.000000
  0.352941  0.270833  0.093750      8.000000
  0.411765  0.270833  0.093750      8.000000
  0.470588  0.270833  0.093750      8.000000
  0.000000  0.312500  0.093750      4.000000
  0.058824  0.312500  0.093750      8.000000
  0.117647  0.312500  0.093750      8.000000
  0.176471  0.312500  0.093750      8.000000
  0.235294  0.312500  0.093750      8.000000
  0.294118  0.312500  0.093750      8.000000
  0.352941  0.312500  0.093750      8.000000
  0.411765  0.312500  0.093750      8.000000
  0.470588  0.312500  0.093750      8.000000
  0.000000  0.354167  0.093750      4.000000
  0.058824  0.354167  0.093750      8.000000
  0.117647  0.354167  0.093750      8.000000
  0.176471  0.354167  0.093750      8.000000
  0.235294  0.354167  0.093750      8.000000
  0.294118  0.354167  0.093750      8.000000
  0.352941  0.354167  0.093750      8.000000
  0.411765  0.354167  0.093750      8.000000
  0.470588  0.354167  0.093750      8.000000
  0.000000  0.395833  0.093750      4.000000
  0.058824  0.395833  0.093750      8.000000
  0.117647  0.395833  0.093750      8.000000
  0.176471  0.395833  0.093750      8.000000
  0.235294  0.395833  0.093750      8.000000
  0.294118  0.395833  0.093750      8.000000
  0.352941  0.395833  0.093750      8.000000
  0.411765  0.395833  0.093750      8.000000
  0.470588  0.395833  0.093750      8.000000
  0.000000  0.437500  0.093750      4.000000
  0.058824  0.437500  0.093750      8.000000
  0.117647  0.437500  0.093750      8.000000
  0.176471  0.437500  0.093750      8.000000
  0.235294  0.437500  0.093750      8.000000
  0.294118  0.437500  0.093750      8.000000
  0.352941  0.437500  0.093750      8.000000
  0.411765  0.437500  0.093750      8.000000
  0.470588  0.437500  0.093750      8.000000
  0.000000  0.479167  0.093750      4.000000
  0.058824  0.479167  0.093750      8.000000
  0.117647  0.479167  0.093750      8.000000
  0.176471  0.479167  0.093750      8.000000
  0.235294  0.479167  0.093750      8.000000
  0.294118  0.479167  0.093750      8.000000
  0.352941  0.479167  0.093750      8.000000
  0.411765  0.479167  0.093750      8.000000
  0.470588  0.479167  0.093750      8.000000
  0.000000  0.020833  0.156250      4.000000
  0.058824  0.020833  0.156250      8.000000
  0.117647  0.020833  0.156250      8.000000
  0.176471  0.020833  0.156250      8.000000
  0.235294  0.020833  0.156250      8.000000
  0.294118  0.020833  0.156250      8.000000
  0.352941  0.020833  0.156250      8.000000
  0.411765  0.020833  0.156250      8.000000
  0.470588  0.020833  0.156250      8.000000
  0.000000  0.062500  0.156250      4.000000
  0.058824  0.062500  0.156250      8.000000
  0.117647  0.062500  0.156250      8.000000
  0.176471  0.062500  0.156250      8.000000
  0.235294  0.062500  0.156250      8.000000
  0.294118  0.062500  0.156250      8.000000
  0.352941  0.062500  0.156250      8.000000
  0.411765  0.062500  0.156250      8.000000
  0.470588  0.062500  0.156250      8.000000
  0.000000  0.104167  0.156250      4.000000
  0.058824  0.104167  0.156250      8.000000
  0.117647  0.104167  0.156250      8.000000
  0.176471  0.104167  0.156250      8.000000
  0.235294  0.104167  0.156250      8.000000
  0.294118  0.104167  0.156250      8.000000
  0.352941  0.104167  0.156250      8.000000
  0.411765  0.104167  0.156250      8.000000
  0.470588  0.104167  0.156250      8.000000
  0.000000  0.145833  0.156250      4.000000
  0.058824  0.145833  0.156250      8.000000
  0.117647  0.145833  0.156250      8.000000
  0.176471  0.145833  0.156250      8.000000
  0.235294  0.145833  0.156250      8.000000
  0.294118  0.145833  0.156250      8.000000
  0.352941  0.145833  0.156250      8.000000
  0.411765  0.145833  0.156250      8.000000
  0.470588  0.145833  0.156250      8.000000
  0.000000  0.187500  0.156250      4.000000
  0.058824  0.187500  0.156250      8.000000
  0.117647  0.187500  0.156250      8.000000
  0.176471  0.187500  0.156250      8.000000
  0.235294  0.187500  0.156250      8.000000
  0.294118  0.187500  0.156250      8.000000
  0.352941  0.187500  0.156250      8.000000
  0.411765  0.187500  0.156250      8.000000
  0.470588  0.187500  0.156250      8.000000
  0.000000  0.229167  0.156250      4.000000
  0.058824  0.229167  0.156250      8.000000
  0.117647  0.229167  0.156250      8.000000
  0.176471  0.229167  0.156250      8.000000
  0.235294  0.229167  0.156250      8.000000
  0.294118  0.229167  0.156250      8.000000
  0.352941  0.229167  0.156250      8.000000
  0.411765  0.229167  0.156250      8.000000
  0.470588  0.229167  0.156250      8.000000
  0.000000  0.270833  0.156250      4.000000
  0.058824  0.270833  0.156250      8.000000
  0.117647  0.270833  0.156250      8.000000
  0.176471  0.270833  0.156250      8.000000
  0.235294  0.270833  0.156250      8.000000
  0.294118  0.270833  0.156250      8.000000
  0.352941  0.270833  0.156250      8.000000
  0.411765  0.270833  0.156250      8.000000
  0.470588  0.270833  0.156250      8.000000
  0.000000  0.312500  0.156250      4.000000
  0.058824  0.312500  0.156250      8.000000
  0.117647  0.312500  0.156250      8.000000
  0.176471  0.312500  0.156250      8.000000
  0.235294  0.312500  0.156250      8.000000
  0.294118  0.312500  0.156250      8.000000
  0.352941  0.312500  0.156250      8.000000
  0.411765  0.312500  0.156250      8.000000
  0.470588  0.312500  0.156250      8.000000
  0.000000  0.354167  0.156250      4.000000
  0.058824  0.354167  0.156250      8.000000
  0.117647  0.354167  0.156250      8.000000
  0.176471  0.354167  0.156250      8.000000
  0.235294  0.354167  0.156250      8.000000
  0.294118  0.354167  0.156250      8.000000
  0.352941  0.354167  0.156250      8.000000
  0.411765  0.354167  0.156250      8.000000
  0.470588  0.354167  0.156250      8.000000
  0.000000  0.395833  0.156250      4.000000
  0.058824  0.395833  0.156250      8.000000
  0.117647  0.395833  0.156250      8.000000
  0.176471  0.395833  0.156250      8.000000
  0.235294  0.395833  0.156250      8.000000
  0.294118  0.395833  0.156250      8.000000
  0.352941  0.395833  0.156250      8.000000
  0.411765  0.395833  0.156250      8.000000
  0.470588  0.395833  0.156250      8.000000
  0.000000  0.437500  0.156250      4.000000
  0.058824  0.437500  0.156250      8.000000
  0.117647  0.437500  0.156250      8.000000
  0.176471  0.437500  0.156250      8.000000
  0.235294  0.437500  0.156250      8.000000
  0.294118  0.437500  0.156250      8.000000
  0.352941  0.437500  0.156250      8.000000
  0.411765  0.437500  0.156250      8.000000
  0.470588  0.437500  0.156250      8.000000
  0.000000  0.479167  0.156250      4.000000
  0.058824  0.479167  0.156250      8.000000
  0.117647  0.479167  0.156250      8.000000
  0.176471  0.479167  0.156250      8.000000
  0.235294  0.479167  0.156250      8.000000
  0.294118  0.479167  0.156250      8.000000
  0.352941  0.479167  0.156250      8.000000
  0.411765  0.479167  0.156250      8.000000
  0.470588  0.479167  0.156250      8.000000
  0.000000  0.020833  0.218750      4.000000
  0.058824  0.020833  0.218750      8.000000
  0.117647  0.020833  0.218750      8.000000
  0.176471  0.020833  0.218750      8.000000
  0.235294  0.020833  0.218750      8.000000
  0.294118  0.020833  0.218750      8.000000
  0.352941  0.020833  0.218750      8.000000
  0.411765  0.020833  0.218750      8.000000
  0.470588  0.020833  0.218750      8.000000
  0.000000  0.062500  0.218750      4.000000
  0.058824  0.062500  0.218750      8.000000
  0.117647  0.062500  0.218750      8.000000
  0.176471  0.062500  0.218750      8.000000
  0.235294  0.062500  0.218750      8.000000
  0.294118  0.062500  0.218750      8.000000
  0.352941  0.062500  0.218750      8.000000
  0.411765  0.062500  0.218750      8.000000
  0.470588  0.062500  0.218750      8.000000
  0.000000  0.104167  0.218750      4.000000
  0.058824  0.104167  0.218750      8.000000
  0.117647  0.104167  0.218750      8.000000
  0.176471  0.104167  0.218750      8.000000
  0.235294  0.104167  0.218750      8.000000
  0.294118  0.104167  0.218750      8.000000
  0.352941  0.104167  0.218750      8.000000
  0.411765  0.104167  0.218750      8.000000
  0.470588  0.104167  0.218750      8.000000
  0.000000  0.145833  0.218750      4.000000
  0.058824  0.145833  0.218750      8.000000
  0.117647  0.145833  0.218750      8.000000
  0.176471  0.145833  0.218750      8.000000
  0.235294  0.145833  0.218750      8.000000
  0.294118  0.145833  0.218750      8.000000
  0.352941  0.145833  0.218750      8.000000
  0.411765  0.145833  0.218750      8.000000
  0.470588  0.145833  0.218750      8.000000
  0.000000  0.187500  0.218750      4.000000
  0.058824  0.187500  0.218750      8.000000
  0.117647  0.187500  0.218750      8.000000
  0.176471  0.187500  0.218750      8.000000
  0.235294  0.187500  0.218750      8.000000
  0.294118  0.187500  0.218750      8.000000
  0.352941  0.187500  0.218750      8.000000
  0.411765  0.187500  0.218750      8.000000
  0.470588  0.187500  0.218750      8.000000
  0.000000  0.229167  0.218750      4.000000
  0.058824  0.229167  0.218750      8.000000
  0.117647  0.229167  0.218750      8.000000
  0.176471  0.229167  0.218750      8.000000
  0.235294  0.229167  0.218750      8.000000
  0.294118  0.229167  0.218750      8.000000
  0.352941  0.229167  0.218750      8.000000
  0.411765  0.229167  0.218750      8.000000
  0.470588  0.229167  0.218750      8.000000
  0.000000  0.270833  0.218750      4.000000
  0.058824  0.270833  0.218750      8.000000
  0.117647  0.270833  0.218750      8.000000
  0.176471  0.270833  0.218750      8.000000
  0.235294  0.270833  0.218750      8.000000
  0.294118  0.270833  0.218750      8.000000
  0.352941  0.270833  0.218750      8.000000
  0.411765  0.270833  0.218750      8.000000
  0.470588  0.270833  0.218750      8.000000
  0.000000  0.312500  0.218750      4.000000
  0.058824  0.312500  0.218750      8.000000
  0.117647  0.312500  0.218750      8.000000
  0.176471  0.312500  0.218750      8.000000
  0.235294  0.312500  0.218750      8.000000
  0.294118  0.312500  0.218750      8.000000
  0.352941  0.312500  0.218750      8.000000
  0.411765  0.312500  0.218750      8.000000
  0.470588  0.312500  0.218750      8.000000
  0.000000  0.354167  0.218750      4.000000
  0.058824  0.354167  0.218750      8.000000
  0.117647  0.354167  0.218750      8.000000
  0.176471  0.354167  0.218750      8.000000
  0.235294  0.354167  0.218750      8.000000
  0.294118  0.354167  0.218750      8.000000
  0.352941  0.354167  0.218750      8.000000
  0.411765  0.354167  0.218750      8.000000
  0.470588  0.354167  0.218750      8.000000
  0.000000  0.395833  0.218750      4.000000
  0.058824  0.395833  0.218750      8.000000
  0.117647  0.395833  0.218750      8.000000
  0.176471  0.395833  0.218750      8.000000
  0.235294  0.395833  0.218750      8.000000
  0.294118  0.395833  0.218750      8.000000
  0.352941  0.395833  0.218750      8.000000
  0.411765  0.395833  0.218750      8.000000
  0.470588  0.395833  0.218750      8.000000
  0.000000  0.437500  0.218750      4.000000
  0.058824  0.437500  0.218750      8.000000
  0.117647  0.437500  0.218750      8.000000
  0.176471  0.437500  0.218750      8.000000
  0.235294  0.437500  0.218750      8.000000
  0.294118  0.437500  0.218750      8.000000
  0.352941  0.437500  0.218750      8.000000
  0.411765  0.437500  0.218750      8.000000
  0.470588  0.437500  0.218750      8.000000
  0.000000  0.479167  0.218750      4.000000
  0.058824  0.479167  0.218750      8.000000
  0.117647  0.479167  0.218750      8.000000
  0.176471  0.479167  0.218750      8.000000
  0.235294  0.479167  0.218750      8.000000
  0.294118  0.479167  0.218750      8.000000
  0.352941  0.479167  0.218750      8.000000
  0.411765  0.479167  0.218750      8.000000
  0.470588  0.479167  0.218750      8.000000
  0.000000  0.020833  0.281250      4.000000
  0.058824  0.020833  0.281250      8.000000
  0.117647  0.020833  0.281250      8.000000
  0.176471  0.020833  0.281250      8.000000
  0.235294  0.020833  0.281250      8.000000
  0.294118  0.020833  0.281250      8.000000
  0.352941  0.020833  0.281250      8.000000
  0.411765  0.020833  0.281250      8.000000
  0.470588  0.020833  0.281250      8.000000
  0.000000  0.062500  0.281250      4.000000
  0.058824  0.062500  0.281250      8.000000
  0.117647  0.062500  0.281250      8.000000
  0.176471  0.062500  0.281250      8.000000
  0.235294  0.062500  0.281250      8.000000
  0.294118  0.062500  0.281250      8.000000
  0.352941  0.062500  0.281250      8.000000
  0.411765  0.062500  0.281250      8.000000
  0.470588  0.062500  0.281250      8.000000
  0.000000  0.104167  0.281250      4.000000
  0.058824  0.104167  0.281250      8.000000
  0.117647  0.104167  0.281250      8.000000
  0.176471  0.104167  0.281250      8.000000
  0.235294  0.104167  0.281250      8.000000
  0.294118  0.104167  0.281250      8.000000
  0.352941  0.104167  0.281250      8.000000
  0.411765  0.104167  0.281250      8.000000
  0.470588  0.104167  0.281250      8.000000
  0.000000  0.145833  0.281250      4.000000
  0.058824  0.145833  0.281250      8.000000
  0.117647  0.145833  0.281250      8.000000
  0.176471  0.145833  0.281250      8.000000
  0.235294  0.145833  0.281250      8.000000
  0.294118  0.145833  0.281250      8.000000
  0.352941  0.145833  0.281250      8.000000
  0.411765  0.145833  0.281250      8.000000
  0.470588  0.145833  0.281250      8.000000
  0.000000  0.187500  0.281250      4.000000
  0.058824  0.187500  0.281250      8.000000
  0.117647  0.187500  0.281250      8.000000
  0.176471  0.187500  0.281250      8.000000
  0.235294  0.187500  0.281250      8.000000
  0.294118  0.187500  0.281250      8.000000
  0.352941  0.187500  0.281250      8.000000
  0.411765  0.187500  0.281250      8.000000
  0.470588  0.187500  0.281250      8.000000
  0.000000  0.229167  0.281250      4.000000
  0.058824  0.229167  0.281250      8.000000
  0.117647  0.229167  0.281250      8.000000
  0.176471  0.229167  0.281250      8.000000
  0.235294  0.229167  0.281250      8.000000
  0.294118  0.229167  0.281250      8.000000
  0.352941  0.229167  0.281250      8.000000
  0.411765  0.229167  0.281250      8.000000
  0.470588  0.229167  0.281250      8.000000
  0.000000  0.270833  0.281250      4.000000
  0.058824  0.270833  0.281250      8.000000
  0.117647  0.270833  0.281250      8.000000
  0.176471  0.270833  0.281250      8.000000
  0.235294  0.270833  0.281250      8.000000
  0.294118  0.270833  0.281250      8.000000
  0.352941  0.270833  0.281250      8.000000
  0.411765  0.270833  0.281250      8.000000
  0.470588  0.270833  0.281250      8.000000
  0.000000  0.312500  0.281250      4.000000
  0.058824  0.312500  0.281250      8.000000
  0.117647  0.312500  0.281250      8.000000
  0.176471  0.312500  0.281250      8.000000
  0.235294  0.312500  0.281250      8.000000
  0.294118  0.312500  0.281250      8.000000
  0.352941  0.312500  0.281250      8.000000
  0.411765  0.312500  0.281250      8.000000
  0.470588  0.312500  0.281250      8.000000
  0.000000  0.354167  0.281250      4.000000
  0.058824  0.354167  0.281250      8.000000
  0.117647  0.354167  0.281250      8.000000
  0.176471  0.354167  0.281250      8.000000
  0.235294  0.354167  0.281250      8.000000
  0.294118  0.354167  0.281250      8.000000
  0.352941  0.354167  0.281250      8.000000
  0.411765  0.354167  0.281250      8.000000
  0.470588  0.354167  0.281250      8.000000
  0.000000  0.395833  0.281250      4.000000
  0.058824  0.395833  0.281250      8.000000
  0.117647  0.395833  0.281250      8.000000
  0.176471  0.395833  0.281250      8.000000
  0.235294  0.395833  0.281250      8.000000
  0.294118  0.395833  0.281250      8.000000
  0.352941  0.395833  0.281250      8.000000
  0.411765  0.395833  0.281250      8.000000
  0.470588  0.395833  0.281250      8.000000
  0.000000  0.437500  0.281250      4.000000
  0.058824  0.437500  0.281250      8.000000
  0.117647  0.437500  0.281250      8.000000
  0.176471  0.437500  0.281250      8.000000
  0.235294  0.437500  0.281250      8.000000
  0.294118  0.437500  0.281250      8.000000
  0.352941  0.437500  0.281250      8.000000
  0.411765  0.437500  0.281250      8.000000
  0.470588  0.437500  0.281250      8.000000
  0.000000  0.479167  0.281250      4.000000
  0.058824  0.479167  0.281250      8.000000
  0.117647  0.479167  0.281250      8.000000
  0.176471  0.479167  0.281250      8.000000
  0.235294  0.479167  0.281250      8.000000
  0.294118  0.479167  0.281250      8.000000
  0.352941  0.479167  0.281250      8.000000
  0.411765  0.479167  0.281250      8.000000
  0.470588  0.479167  0.281250      8.000000
  0.000000  0.020833  0.343750      4.000000
  0.058824  0.020833  0.343750      8.000000
  0.117647  0.020833  0.343750      8.000000
  0.176471  0.020833  0.343750      8.000000
  0.235294  0.020833  0.343750      8.000000
  0.294118  0.020833  0.343750      8.000000
  0.352941  0.020833  0.343750      8.000000
  0.411765  0.020833  0.343750      8.000000
  0.470588  0.020833  0.343750      8.000000
  0.000000  0.062500  0.343750      4.000000
  0.058824  0.062500  0.343750      8.000000
  0.117647  0.062500  0.343750      8.000000
  0.176471  0.062500  0.343750      8.000000
  0.235294  0.062500  0.343750      8.000000
  0.294118  0.062500  0.343750      8.000000
  0.352941  0.062500  0.343750      8.000000
  0.411765  0.062500  0.343750      8.000000
  0.470588  0.062500  0.343750      8.000000
  0.000000  0.104167  0.343750      4.000000
  0.058824  0.104167  0.343750      8.000000
  0.117647  0.104167  0.343750      8.000000
  0.176471  0.104167  0.343750      8.000000
  0.235294  0.104167  0.343750      8.000000
  0.294118  0.104167  0.343750      8.000000
  0.352941  0.104167  0.343750      8.000000
  0.411765  0.104167  0.343750      8.000000
  0.470588  0.104167  0.343750      8.000000
  0.000000  0.145833  0.343750      4.000000
  0.058824  0.145833  0.343750      8.000000
  0.117647  0.145833  0.343750      8.000000
  0.176471  0.145833  0.343750      8.000000
  0.235294  0.145833  0.343750      8.000000
  0.294118  0.145833  0.343750      8.000000
  0.352941  0.145833  0.343750      8.000000
  0.411765  0.145833  0.343750      8.000000
  0.470588  0.145833  0.343750      8.000000
  0.000000  0.187500  0.343750      4.000000
  0.058824  0.187500  0.343750      8.000000
  0.117647  0.187500  0.343750      8.000000
  0.176471  0.187500  0.343750      8.000000
  0.235294  0.187500  0.343750      8.000000
  0.294118  0.187500  0.343750      8.000000
  0.352941  0.187500  0.343750      8.000000
  0.411765  0.187500  0.343750      8.000000
  0.470588  0.187500  0.343750      8.000000
  0.000000  0.229167  0.343750      4.000000
  0.058824  0.229167  0.343750      8.000000
  0.117647  0.229167  0.343750      8.000000
  0.176471  0.229167  0.343750      8.000000
  0.235294  0.229167  0.343750      8.000000
  0.294118  0.229167  0.343750      8.000000
  0.352941  0.229167  0.343750      8.000000
  0.411765  0.229167  0.343750      8.000000
  0.470588  0.229167  0.343750      8.000000
  0.000000  0.270833  0.343750      4.000000
  0.058824  0.270833  0.343750      8.000000
  0.117647  0.270833  0.343750      8.000000
  0.176471  0.270833  0.343750      8.000000
  0.235294  0.270833  0.343750      8.000000
  0.294118  0.270833  0.343750      8.000000
  0.352941  0.270833  0.343750      8.000000
  0.411765  0.270833  0.343750      8.000000
  0.470588  0.270833  0.343750      8.000000
  0.000000  0.312500  0.343750      4.000000
  0.058824  0.312500  0.343750      8.000000
  0.117647  0.312500  0.343750      8.000000
  0.176471  0.312500  0.343750      8.000000
  0.235294  0.312500  0.343750      8.000000
  0.294118  0.312500  0.343750      8.000000
  0.352941  0.312500  0.343750      8.000000
  0.411765  0.312500  0.343750      8.000000
  0.470588  0.312500  0.343750      8.000000
  0.000000  0.354167  0.343750      4.000000
  0.058824  0.354167  0.343750      8.000000
  0.117647  0.354167  0.343750      8.000000
  0.176471  0.354167  0.343750      8.000000
  0.235294  0.354167  0.343750      8.000000
  0.294118  0.354167  0.343750      8.000000
  0.352941  0.354167  0.343750      8.000000
  0.411765  0.354167  0.343750      8.000000
  0.470588  0.354167  0.343750      8.000000
  0.000000  0.395833  0.343750      4.000000
  0.058824  0.395833  0.343750      8.000000
  0.117647  0.395833  0.343750      8.000000
  0.176471  0.395833  0.343750      8.000000
  0.235294  0.395833  0.343750      8.000000
  0.294118  0.395833  0.343750      8.000000
  0.352941  0.395833  0.343750      8.000000
  0.411765  0.395833  0.343750      8.000000
  0.470588  0.395833  0.343750      8.000000
  0.000000  0.437500  0.343750      4.000000
  0.058824  0.437500  0.343750      8.000000
  0.117647  0.437500  0.343750      8.000000
  0.176471  0.437500  0.343750      8.000000
  0.235294  0.437500  0.343750      8.000000
  0.294118  0.437500  0.343750      8.000000
  0.352941  0.437500  0.343750      8.000000
  0.411765  0.437500  0.343750      8.000000
  0.470588  0.437500  0.343750      8.000000
  0.000000  0.479167  0.343750      4.000000
  0.058824  0.479167  0.343750      8.000000
  0.117647  0.479167  0.343750      8.000000
  0.176471  0.479167  0.343750      8.000000
  0.235294  0.479167  0.343750      8.000000
  0.294118  0.479167  0.343750      8.000000
  0.352941  0.479167  0.343750      8.000000
  0.411765  0.479167  0.343750      8.000000
  0.470588  0.479167  0.343750      8.000000
  0.000000  0.020833  0.406250      4.000000
  0.058824  0.020833  0.406250      8.000000
  0.117647  0.020833  0.406250      8.000000
  0.176471  0.020833  0.406250      8.000000
  0.235294  0.020833  0.406250      8.000000
  0.294118  0.020833  0.406250      8.000000
  0.352941  0.020833  0.406250      8.000000
  0.411765  0.020833  0.406250      8.000000
  0.470588  0.020833  0.406250      8.000000
  0.000000  0.062500  0.406250      4.000000
  0.058824  0.062500  0.406250      8.000000
  0.117647  0.062500  0.406250      8.000000
  0.176471  0.062500  0.406250      8.000000
  0.235294  0.062500  0.406250      8.000000
  0.294118  0.062500  0.406250      8.000000
  0.352941  0.062500  0.406250      8.000000
  0.411765  0.062500  0.406250      8.000000
  0.470588  0.062500  0.406250      8.000000
  0.000000  0.104167  0.406250      4.000000
  0.058824  0.104167  0.406250      8.000000
  0.117647  0.104167  0.406250      8.000000
  0.176471  0.104167  0.406250      8.000000
  0.235294  0.104167  0.406250      8.000000
  0.294118  0.104167  0.406250      8.000000
  0.352941  0.104167  0.406250      8.000000
  0.411765  0.104167  0.406250      8.000000
  0.470588  0.104167  0.406250      8.000000
  0.000000  0.145833  0.406250      4.000000
  0.058824  0.145833  0.406250      8.000000
  0.117647  0.145833  0.406250      8.000000
  0.176471  0.145833  0.406250      8.000000
  0.235294  0.145833  0.406250      8.000000
  0.294118  0.145833  0.406250      8.000000
  0.352941  0.145833  0.406250      8.000000
  0.411765  0.145833  0.406250      8.000000
  0.470588  0.145833  0.406250      8.000000
  0.000000  0.187500  0.406250      4.000000
  0.058824  0.187500  0.406250      8.000000
  0.117647  0.187500  0.406250      8.000000
  0.176471  0.187500  0.406250      8.000000
  0.235294  0.187500  0.406250      8.000000
  0.294118  0.187500  0.406250      8.000000
  0.352941  0.187500  0.406250      8.000000
  0.411765  0.187500  0.406250      8.000000
  0.470588  0.187500  0.406250      8.000000
  0.000000  0.229167  0.406250      4.000000
  0.058824  0.229167  0.406250      8.000000
  0.117647  0.229167  0.406250      8.000000
  0.176471  0.229167  0.406250      8.000000
  0.235294  0.229167  0.406250      8.000000
  0.294118  0.229167  0.406250      8.000000
  0.352941  0.229167  0.406250      8.000000
  0.411765  0.229167  0.406250      8.000000
  0.470588  0.229167  0.406250      8.000000
  0.000000  0.270833  0.406250      4.000000
  0.058824  0.270833  0.406250      8.000000
  0.117647  0.270833  0.406250      8.000000
  0.176471  0.270833  0.406250      8.000000
  0.235294  0.270833  0.406250      8.000000
  0.294118  0.270833  0.406250      8.000000
  0.352941  0.270833  0.406250      8.000000
  0.411765  0.270833  0.406250      8.000000
  0.470588  0.270833  0.406250      8.000000
  0.000000  0.312500  0.406250      4.000000
  0.058824  0.312500  0.406250      8.000000
  0.117647  0.312500  0.406250      8.000000
  0.176471  0.312500  0.406250      8.000000
  0.235294  0.312500  0.406250      8.000000
  0.294118  0.312500  0.406250      8.000000
  0.352941  0.312500  0.406250      8.000000
  0.411765  0.312500  0.406250      8.000000
  0.470588  0.312500  0.406250      8.000000
  0.000000  0.354167  0.406250      4.000000
  0.058824  0.354167  0.406250      8.000000
  0.117647  0.354167  0.406250      8.000000
  0.176471  0.354167  0.406250      8.000000
  0.235294  0.354167  0.406250      8.000000
  0.294118  0.354167  0.406250      8.000000
  0.352941  0.354167  0.406250      8.000000
  0.411765  0.354167  0.406250      8.000000
  0.470588  0.354167  0.406250      8.000000
  0.000000  0.395833  0.406250      4.000000
  0.058824  0.395833  0.406250      8.000000
  0.117647  0.395833  0.406250      8.000000
  0.176471  0.395833  0.406250      8.000000
  0.235294  0.395833  0.406250      8.000000
  0.294118  0.395833  0.406250      8.000000
  0.352941  0.395833  0.406250      8.000000
  0.411765  0.395833  0.406250      8.000000
  0.470588  0.395833  0.406250      8.000000
  0.000000  0.437500  0.406250      4.000000
  0.058824  0.437500  0.406250      8.000000
  0.117647  0.437500  0.406250      8.000000
  0.176471  0.437500  0.406250      8.000000
  0.235294  0.437500  0.406250      8.000000
  0.294118  0.437500  0.406250      8.000000
  0.352941  0.437500  0.406250      8.000000
  0.411765  0.437500  0.406250      8.000000
  0.470588  0.437500  0.406250      8.000000
  0.000000  0.479167  0.406250      4.000000
  0.058824  0.479167  0.406250      8.000000
  0.117647  0.479167  0.406250      8.000000
  0.176471  0.479167  0.406250      8.000000
  0.235294  0.479167  0.406250      8.000000
  0.294118  0.479167  0.406250      8.000000
  0.352941  0.479167  0.406250      8.000000
  0.411765  0.479167  0.406250      8.000000
  0.470588  0.479167  0.406250      8.000000
  0.000000  0.020833  0.468750      4.000000
  0.058824  0.020833  0.468750      8.000000
  0.117647  0.020833  0.468750      8.000000
  0.176471  0.020833  0.468750      8.000000
  0.235294  0.020833  0.468750      8.000000
  0.294118  0.020833  0.468750      8.000000
  0.352941  0.020833  0.468750      8.000000
  0.411765  0.020833  0.468750      8.000000
  0.470588  0.020833  0.468750      8.000000
  0.000000  0.062500  0.468750      4.000000
  0.058824  0.062500  0.468750      8.000000
  0.117647  0.062500  0.468750      8.000000
  0.176471  0.062500  0.468750      8.000000
  0.235294  0.062500  0.468750      8.000000
  0.294118  0.062500  0.468750      8.000000
  0.352941  0.062500  0.468750      8.000000
  0.411765  0.062500  0.468750      8.000000
  0.470588  0.062500  0.468750      8.000000
  0.000000  0.104167  0.468750      4.000000
  0.058824  0.104167  0.468750      8.000000
  0.117647  0.104167  0.468750      8.000000
  0.176471  0.104167  0.468750      8.000000
  0.235294  0.104167  0.468750      8.000000
  0.294118  0.104167  0.468750      8.000000
  0.352941  0.104167  0.468750      8.000000
  0.411765  0.104167  0.468750      8.000000
  0.470588  0.104167  0.468750      8.000000
  0.000000  0.145833  0.468750      4.000000
  0.058824  0.145833  0.468750      8.000000
  0.117647  0.145833  0.468750      8.000000
  0.176471  0.145833  0.468750      8.000000
  0.235294  0.145833  0.468750      8.000000
  0.294118  0.145833  0.468750      8.000000
  0.352941  0.145833  0.468750      8.000000
  0.411765  0.145833  0.468750      8.000000
  0.470588  0.145833  0.468750      8.000000
  0.000000  0.187500  0.468750      4.000000
  0.058824  0.187500  0.468750      8.000000
  0.117647  0.187500  0.468750      8.000000
  0.176471  0.187500  0.468750      8.000000
  0.235294  0.187500  0.468750      8.000000
  0.294118  0.187500  0.468750      8.000000
  0.352941  0.187500  0.468750      8.000000
  0.411765  0.187500  0.468750      8.000000
  0.470588  0.187500  0.468750      8.000000
  0.000000  0.229167  0.468750      4.000000
  0.058824  0.229167  0.468750      8.000000
  0.117647  0.229167  0.468750      8.000000
  0.176471  0.229167  0.468750      8.000000
  0.235294  0.229167  0.468750      8.000000
  0.294118  0.229167  0.468750      8.000000
  0.352941  0.229167  0.468750      8.000000
  0.411765  0.229167  0.468750      8.000000
  0.470588  0.229167  0.468750      8.000000
  0.000000  0.270833  0.468750      4.000000
  0.058824  0.270833  0.468750      8.000000
  0.117647  0.270833  0.468750      8.000000
  0.176471  0.270833  0.468750      8.000000
  0.235294  0.270833  0.468750      8.000000
  0.294118  0.270833  0.468750      8.000000
  0.352941  0.270833  0.468750      8.000000
  0.411765  0.270833  0.468750      8.000000
  0.470588  0.270833  0.468750      8.000000
  0.000000  0.312500  0.468750      4.000000
  0.058824  0.312500  0.468750      8.000000
  0.117647  0.312500  0.468750      8.000000
  0.176471  0.312500  0.468750      8.000000
  0.235294  0.312500  0.468750      8.000000
  0.294118  0.312500  0.468750      8.000000
  0.352941  0.312500  0.468750      8.000000
  0.411765  0.312500  0.468750      8.000000
  0.470588  0.312500  0.468750      8.000000
  0.000000  0.354167  0.468750      4.000000
  0.058824  0.354167  0.468750      8.000000
  0.117647  0.354167  0.468750      8.000000
  0.176471  0.354167  0.468750      8.000000
  0.235294  0.354167  0.468750      8.000000
  0.294118  0.354167  0.468750      8.000000
  0.352941  0.354167  0.468750      8.000000
  0.411765  0.354167  0.468750      8.000000
  0.470588  0.354167  0.468750      8.000000
  0.000000  0.395833  0.468750      4.000000
  0.058824  0.395833  0.468750      8.000000
  0.117647  0.395833  0.468750      8.000000
  0.176471  0.395833  0.468750      8.000000
  0.235294  0.395833  0.468750      8.000000
  0.294118  0.395833  0.468750      8.000000
  0.352941  0.395833  0.468750      8.000000
  0.411765  0.395833  0.468750      8.000000
  0.470588  0.395833  0.468750      8.000000
  0.000000  0.437500  0.468750      4.000000
  0.058824  0.437500  0.468750      8.000000
  0.117647  0.437500  0.468750      8.000000
  0.176471  0.437500  0.468750      8.000000
  0.235294  0.437500  0.468750      8.000000
  0.294118  0.437500  0.468750      8.000000
  0.352941  0.437500  0.468750      8.000000
  0.411765  0.437500  0.468750      8.000000
  0.470588  0.437500  0.468750      8.000000
  0.000000  0.479167  0.468750      4.000000
  0.058824  0.479167  0.468750      8.000000
  0.117647  0.479167  0.468750      8.000000
  0.176471  0.479167  0.468750      8.000000
  0.235294  0.479167  0.468750      8.000000
  0.294118  0.479167  0.468750      8.000000
  0.352941  0.479167  0.468750      8.000000
  0.411765  0.479167  0.468750      8.000000
  0.470588  0.479167  0.468750      8.000000
 
 Following cartesian coordinates:
            Coordinates               Weight
  0.000000  0.005147  0.005037      4.000000
  0.010325  0.005147  0.005037      8.000000
  0.020651  0.005147  0.005037      8.000000
  0.030976  0.005147  0.005037      8.000000
  0.041301  0.005147  0.005037      8.000000
  0.051627  0.005147  0.005037      8.000000
  0.061952  0.005147  0.005037      8.000000
  0.072277  0.005147  0.005037      8.000000
  0.082603  0.005147  0.005037      8.000000
  0.000000  0.015440  0.005037      4.000000
  0.010325  0.015440  0.005037      8.000000
  0.020651  0.015440  0.005037      8.000000
  0.030976  0.015440  0.005037      8.000000
  0.041301  0.015440  0.005037      8.000000
  0.051627  0.015440  0.005037      8.000000
  0.061952  0.015440  0.005037      8.000000
  0.072277  0.015440  0.005037      8.000000
  0.082603  0.015440  0.005037      8.000000
  0.000000  0.025734  0.005037      4.000000
  0.010325  0.025734  0.005037      8.000000
  0.020651  0.025734  0.005037      8.000000
  0.030976  0.025734  0.005037      8.000000
  0.041301  0.025734  0.005037      8.000000
  0.051627  0.025734  0.005037      8.000000
  0.061952  0.025734  0.005037      8.000000
  0.072277  0.025734  0.005037      8.000000
  0.082603  0.025734  0.005037      8.000000
  0.000000  0.036027  0.005037      4.000000
  0.010325  0.036027  0.005037      8.000000
  0.020651  0.036027  0.005037      8.000000
  0.030976  0.036027  0.005037      8.000000
  0.041301  0.036027  0.005037      8.000000
  0.051627  0.036027  0.005037      8.000000
  0.061952  0.036027  0.005037      8.000000
  0.072277  0.036027  0.005037      8.000000
  0.082603  0.036027  0.005037      8.000000
  0.000000  0.046320  0.005037      4.000000
  0.010325  0.046320  0.005037      8.000000
  0.020651  0.046320  0.005037      8.000000
  0.030976  0.046320  0.005037      8.000000
  0.041301  0.046320  0.005037      8.000000
  0.051627  0.046320  0.005037      8.000000
  0.061952  0.046320  0.005037      8.000000
  0.072277  0.046320  0.005037      8.000000
  0.082603  0.046320  0.005037      8.000000
  0.000000  0.056614  0.005037      4.000000
  0.010325  0.056614  0.005037      8.000000
  0.020651  0.056614  0.005037      8.000000
  0.030976  0.056614  0.005037      8.000000
  0.041301  0.056614  0.005037      8.000000
  0.051627  0.056614  0.005037      8.000000
  0.061952  0.056614  0.005037      8.000000
  0.072277  0.056614  0.005037      8.000000
  0.082603  0.056614  0.005037      8.000000
  0.000000  0.066907  0.005037      4.000000
  0.010325  0.066907  0.005037      8.000000
  0.020651  0.066907  0.005037      8.000000
  0.030976  0.066907  0.005037      8.000000
  0.041301  0.066907  0.005037      8.000000
  0.051627  0.066907  0.005037      8.000000
  0.061952  0.066907  0.005037      8.000000
  0.072277  0.066907  0.005037      8.000000
  0.082603  0.066907  0.005037      8.000000
  0.000000  0.077201  0.005037      4.000000
  0.010325  0.077201  0.005037      8.000000
  0.020651  0.077201  0.005037      8.000000
  0.030976  0.077201  0.005037      8.000000
  0.041301  0.077201  0.005037      8.000000
  0.051627  0.077201  0.005037      8.000000
  0.061952  0.077201  0.005037      8.000000
  0.072277  0.077201  0.005037      8.000000
  0.082603  0.077201  0.005037      8.000000
  0.000000  0.087494  0.005037      4.000000
  0.010325  0.087494  0.005037      8.000000
  0.020651  0.087494  0.005037      8.000000
  0.030976  0.087494  0.005037      8.000000
  0.041301  0.087494  0.005037      8.000000
  0.051627  0.087494  0.005037      8.000000
  0.061952  0.087494  0.005037      8.000000
  0.072277  0.087494  0.005037      8.000000
  0.082603  0.087494  0.005037      8.000000
  0.000000  0.097787  0.005037      4.000000
  0.010325  0.097787  0.005037      8.000000
  0.020651  0.097787  0.005037      8.000000
  0.030976  0.097787  0.005037      8.000000
  0.041301  0.097787  0.005037      8.000000
  0.051627  0.097787  0.005037      8.000000
  0.061952  0.097787  0.005037      8.000000
  0.072277  0.097787  0.005037      8.000000
  0.082603  0.097787  0.005037      8.000000
  0.000000  0.108081  0.005037      4.000000
  0.010325  0.108081  0.005037      8.000000
  0.020651  0.108081  0.005037      8.000000
  0.030976  0.108081  0.005037      8.000000
  0.041301  0.108081  0.005037      8.000000
  0.051627  0.108081  0.005037      8.000000
  0.061952  0.108081  0.005037      8.000000
  0.072277  0.108081  0.005037      8.000000
  0.082603  0.108081  0.005037      8.000000
  0.000000  0.118374  0.005037      4.000000
  0.010325  0.118374  0.005037      8.000000
  0.020651  0.118374  0.005037      8.000000
  0.030976  0.118374  0.005037      8.000000
  0.041301  0.118374  0.005037      8.000000
  0.051627  0.118374  0.005037      8.000000
  0.061952  0.118374  0.005037      8.000000
  0.072277  0.118374  0.005037      8.000000
  0.082603  0.118374  0.005037      8.000000
  0.000000  0.005147  0.015111      4.000000
  0.010325  0.005147  0.015111      8.000000
  0.020651  0.005147  0.015111      8.000000
  0.030976  0.005147  0.015111      8.000000
  0.041301  0.005147  0.015111      8.000000
  0.051627  0.005147  0.015111      8.000000
  0.061952  0.005147  0.015111      8.000000
  0.072277  0.005147  0.015111      8.000000
  0.082603  0.005147  0.015111      8.000000
  0.000000  0.015440  0.015111      4.000000
  0.010325  0.015440  0.015111      8.000000
  0.020651  0.015440  0.015111      8.000000
  0.030976  0.015440  0.015111      8.000000
  0.041301  0.015440  0.015111      8.000000
  0.051627  0.015440  0.015111      8.000000
  0.061952  0.015440  0.015111      8.000000
  0.072277  0.015440  0.015111      8.000000
  0.082603  0.015440  0.015111      8.000000
  0.000000  0.025734  0.015111      4.000000
  0.010325  0.025734  0.015111      8.000000
  0.020651  0.025734  0.015111      8.000000
  0.030976  0.025734  0.015111      8.000000
  0.041301  0.025734  0.015111      8.000000
  0.051627  0.025734  0.015111      8.000000
  0.061952  0.025734  0.015111      8.000000
  0.072277  0.025734  0.015111      8.000000
  0.082603  0.025734  0.015111      8.000000
  0.000000  0.036027  0.015111      4.000000
  0.010325  0.036027  0.015111      8.000000
  0.020651  0.036027  0.015111      8.000000
  0.030976  0.036027  0.015111      8.000000
  0.041301  0.036027  0.015111      8.000000
  0.051627  0.036027  0.015111      8.000000
  0.061952  0.036027  0.015111      8.000000
  0.072277  0.036027  0.015111      8.000000
  0.082603  0.036027  0.015111      8.000000
  0.000000  0.046320  0.015111      4.000000
  0.010325  0.046320  0.015111      8.000000
  0.020651  0.046320  0.015111      8.000000
  0.030976  0.046320  0.015111      8.000000
  0.041301  0.046320  0.015111      8.000000
  0.051627  0.046320  0.015111      8.000000
  0.061952  0.046320  0.015111      8.000000
  0.072277  0.046320  0.015111      8.000000
  0.082603  0.046320  0.015111      8.000000
  0.000000  0.056614  0.015111      4.000000
  0.010325  0.056614  0.015111      8.000000
  0.020651  0.056614  0.015111      8.000000
  0.030976  0.056614  0.015111      8.000000
  0.041301  0.056614  0.015111      8.000000
  0.051627  0.056614  0.015111      8.000000
  0.061952  0.056614  0.015111      8.000000
  0.072277  0.056614  0.015111      8.000000
  0.082603  0.056614  0.015111      8.000000
  0.000000  0.066907  0.015111      4.000000
  0.010325  0.066907  0.015111      8.000000
  0.020651  0.066907  0.015111      8.000000
  0.030976  0.066907  0.015111      8.000000
  0.041301  0.066907  0.015111      8.000000
  0.051627  0.066907  0.015111      8.000000
  0.061952  0.066907  0.015111      8.000000
  0.072277  0.066907  0.015111      8.000000
  0.082603  0.066907  0.015111      8.000000
  0.000000  0.077201  0.015111      4.000000
  0.010325  0.077201  0.015111      8.000000
  0.020651  0.077201  0.015111      8.000000
  0.030976  0.077201  0.015111      8.000000
  0.041301  0.077201  0.015111      8.000000
  0.051627  0.077201  0.015111      8.000000
  0.061952  0.077201  0.015111      8.000000
  0.072277  0.077201  0.015111      8.000000
  0.082603  0.077201  0.015111      8.000000
  0.000000  0.087494  0.015111      4.000000
  0.010325  0.087494  0.015111      8.000000
  0.020651  0.087494  0.015111      8.000000
  0.030976  0.087494  0.015111      8.000000
  0.041301  0.087494  0.015111      8.000000
  0.051627  0.087494  0.015111      8.000000
  0.061952  0.087494  0.015111      8.000000
  0.072277  0.087494  0.015111      8.000000
  0.082603  0.087494  0.015111      8.000000
  0.000000  0.097787  0.015111      4.000000
  0.010325  0.097787  0.015111      8.000000
  0.020651  0.097787  0.015111      8.000000
  0.030976  0.097787  0.015111      8.000000
  0.041301  0.097787  0.015111      8.000000
  0.051627  0.097787  0.015111      8.000000
  0.061952  0.097787  0.015111      8.000000
  0.072277  0.097787  0.015111      8.000000
  0.082603  0.097787  0.015111      8.000000
  0.000000  0.108081  0.015111      4.000000
  0.010325  0.108081  0.015111      8.000000
  0.020651  0.108081  0.015111      8.000000
  0.030976  0.108081  0.015111      8.000000
  0.041301  0.108081  0.015111      8.000000
  0.051627  0.108081  0.015111      8.000000
  0.061952  0.108081  0.015111      8.000000
  0.072277  0.108081  0.015111      8.000000
  0.082603  0.108081  0.015111      8.000000
  0.000000  0.118374  0.015111      4.000000
  0.010325  0.118374  0.015111      8.000000
  0.020651  0.118374  0.015111      8.000000
  0.030976  0.118374  0.015111      8.000000
  0.041301  0.118374  0.015111      8.000000
  0.051627  0.118374  0.015111      8.000000
  0.061952  0.118374  0.015111      8.000000
  0.072277  0.118374  0.015111      8.000000
  0.082603  0.118374  0.015111      8.000000
  0.000000  0.005147  0.025185      4.000000
  0.010325  0.005147  0.025185      8.000000
  0.020651  0.005147  0.025185      8.000000
  0.030976  0.005147  0.025185      8.000000
  0.041301  0.005147  0.025185      8.000000
  0.051627  0.005147  0.025185      8.000000
  0.061952  0.005147  0.025185      8.000000
  0.072277  0.005147  0.025185      8.000000
  0.082603  0.005147  0.025185      8.000000
  0.000000  0.015440  0.025185      4.000000
  0.010325  0.015440  0.025185      8.000000
  0.020651  0.015440  0.025185      8.000000
  0.030976  0.015440  0.025185      8.000000
  0.041301  0.015440  0.025185      8.000000
  0.051627  0.015440  0.025185      8.000000
  0.061952  0.015440  0.025185      8.000000
  0.072277  0.015440  0.025185      8.000000
  0.082603  0.015440  0.025185      8.000000
  0.000000  0.025734  0.025185      4.000000
  0.010325  0.025734  0.025185      8.000000
  0.020651  0.025734  0.025185      8.000000
  0.030976  0.025734  0.025185      8.000000
  0.041301  0.025734  0.025185      8.000000
  0.051627  0.025734  0.025185      8.000000
  0.061952  0.025734  0.025185      8.000000
  0.072277  0.025734  0.025185      8.000000
  0.082603  0.025734  0.025185      8.000000
  0.000000  0.036027  0.025185      4.000000
  0.010325  0.036027  0.025185      8.000000
  0.020651  0.036027  0.025185      8.000000
  0.030976  0.036027  0.025185      8.000000
  0.041301  0.036027  0.025185      8.000000
  0.051627  0.036027  0.025185      8.000000
  0.061952  0.036027  0.025185      8.000000
  0.072277  0.036027  0.025185      8.000000
  0.082603  0.036027  0.025185      8.000000
  0.000000  0.046320  0.025185      4.000000
  0.010325  0.046320  0.025185      8.000000
  0.020651  0.046320  0.025185      8.000000
  0.030976  0.046320  0.025185      8.000000
  0.041301  0.046320  0.025185      8.000000
  0.051627  0.046320  0.025185      8.000000
  0.061952  0.046320  0.025185      8.000000
  0.072277  0.046320  0.025185      8.000000
  0.082603  0.046320  0.025185      8.000000
  0.000000  0.056614  0.025185      4.000000
  0.010325  0.056614  0.025185      8.000000
  0.020651  0.056614  0.025185      8.000000
  0.030976  0.056614  0.025185      8.000000
  0.041301  0.056614  0.025185      8.000000
  0.051627  0.056614  0.025185      8.000000
  0.061952  0.056614  0.025185      8.000000
  0.072277  0.056614  0.025185      8.000000
  0.082603  0.056614  0.025185      8.000000
  0.000000  0.066907  0.025185      4.000000
  0.010325  0.066907  0.025185      8.000000
  0.020651  0.066907  0.025185      8.000000
  0.030976  0.066907  0.025185      8.000000
  0.041301  0.066907  0.025185      8.000000
  0.051627  0.066907  0.025185      8.000000
  0.061952  0.066907  0.025185      8.000000
  0.072277  0.066907  0.025185      8.000000
  0.082603  0.066907  0.025185      8.000000
  0.000000  0.077201  0.025185      4.000000
  0.010325  0.077201  0.025185      8.000000
  0.020651  0.077201  0.025185      8.000000
  0.030976  0.077201  0.025185      8.000000
  0.041301  0.077201  0.025185      8.000000
  0.051627  0.077201  0.025185      8.000000
  0.061952  0.077201  0.025185      8.000000
  0.072277  0.077201  0.025185      8.000000
  0.082603  0.077201  0.025185      8.000000
  0.000000  0.087494  0.025185      4.000000
  0.010325  0.087494  0.025185      8.000000
  0.020651  0.087494  0.025185      8.000000
  0.030976  0.087494  0.025185      8.000000
  0.041301  0.087494  0.025185      8.000000
  0.051627  0.087494  0.025185      8.000000
  0.061952  0.087494  0.025185      8.000000
  0.072277  0.087494  0.025185      8.000000
  0.082603  0.087494  0.025185      8.000000
  0.000000  0.097787  0.025185      4.000000
  0.010325  0.097787  0.025185      8.000000
  0.020651  0.097787  0.025185      8.000000
  0.030976  0.097787  0.025185      8.000000
  0.041301  0.097787  0.025185      8.000000
  0.051627  0.097787  0.025185      8.000000
  0.061952  0.097787  0.025185      8.000000
  0.072277  0.097787  0.025185      8.000000
  0.082603  0.097787  0.025185      8.000000
  0.000000  0.108081  0.025185      4.000000
  0.010325  0.108081  0.025185      8.000000
  0.020651  0.108081  0.025185      8.000000
  0.030976  0.108081  0.025185      8.000000
  0.041301  0.108081  0.025185      8.000000
  0.051627  0.108081  0.025185      8.000000
  0.061952  0.108081  0.025185      8.000000
  0.072277  0.108081  0.025185      8.000000
  0.082603  0.108081  0.025185      8.000000
  0.000000  0.118374  0.025185      4.000000
  0.010325  0.118374  0.025185      8.000000
  0.020651  0.118374  0.025185      8.000000
  0.030976  0.118374  0.025185      8.000000
  0.041301  0.118374  0.025185      8.000000
  0.051627  0.118374  0.025185      8.000000
  0.061952  0.118374  0.025185      8.000000
  0.072277  0.118374  0.025185      8.000000
  0.082603  0.118374  0.025185      8.000000
  0.000000  0.005147  0.035258      4.000000
  0.010325  0.005147  0.035258      8.000000
  0.020651  0.005147  0.035258      8.000000
  0.030976  0.005147  0.035258      8.000000
  0.041301  0.005147  0.035258      8.000000
  0.051627  0.005147  0.035258      8.000000
  0.061952  0.005147  0.035258      8.000000
  0.072277  0.005147  0.035258      8.000000
  0.082603  0.005147  0.035258      8.000000
  0.000000  0.015440  0.035258      4.000000
  0.010325  0.015440  0.035258      8.000000
  0.020651  0.015440  0.035258      8.000000
  0.030976  0.015440  0.035258      8.000000
  0.041301  0.015440  0.035258      8.000000
  0.051627  0.015440  0.035258      8.000000
  0.061952  0.015440  0.035258      8.000000
  0.072277  0.015440  0.035258      8.000000
  0.082603  0.015440  0.035258      8.000000
  0.000000  0.025734  0.035258      4.000000
  0.010325  0.025734  0.035258      8.000000
  0.020651  0.025734  0.035258      8.000000
  0.030976  0.025734  0.035258      8.000000
  0.041301  0.025734  0.035258      8.000000
  0.051627  0.025734  0.035258      8.000000
  0.061952  0.025734  0.035258      8.000000
  0.072277  0.025734  0.035258      8.000000
  0.082603  0.025734  0.035258      8.000000
  0.000000  0.036027  0.035258      4.000000
  0.010325  0.036027  0.035258      8.000000
  0.020651  0.036027  0.035258      8.000000
  0.030976  0.036027  0.035258      8.000000
  0.041301  0.036027  0.035258      8.000000
  0.051627  0.036027  0.035258      8.000000
  0.061952  0.036027  0.035258      8.000000
  0.072277  0.036027  0.035258      8.000000
  0.082603  0.036027  0.035258      8.000000
  0.000000  0.046320  0.035258      4.000000
  0.010325  0.046320  0.035258      8.000000
  0.020651  0.046320  0.035258      8.000000
  0.030976  0.046320  0.035258      8.000000
  0.041301  0.046320  0.035258      8.000000
  0.051627  0.046320  0.035258      8.000000
  0.061952  0.046320  0.035258      8.000000
  0.072277  0.046320  0.035258      8.000000
  0.082603  0.046320  0.035258      8.000000
  0.000000  0.056614  0.035258      4.000000
  0.010325  0.056614  0.035258      8.000000
  0.020651  0.056614  0.035258      8.000000
  0.030976  0.056614  0.035258      8.000000
  0.041301  0.056614  0.035258      8.000000
  0.051627  0.056614  0.035258      8.000000
  0.061952  0.056614  0.035258      8.000000
  0.072277  0.056614  0.035258      8.000000
  0.082603  0.056614  0.035258      8.000000
  0.000000  0.066907  0.035258      4.000000
  0.010325  0.066907  0.035258      8.000000
  0.020651  0.066907  0.035258      8.000000
  0.030976  0.066907  0.035258      8.000000
  0.041301  0.066907  0.035258      8.000000
  0.051627  0.066907  0.035258      8.000000
  0.061952  0.066907  0.035258      8.000000
  0.072277  0.066907  0.035258      8.000000
  0.082603  0.066907  0.035258      8.000000
  0.000000  0.077201  0.035258      4.000000
  0.010325  0.077201  0.035258      8.000000
  0.020651  0.077201  0.035258      8.000000
  0.030976  0.077201  0.035258      8.000000
  0.041301  0.077201  0.035258      8.000000
  0.051627  0.077201  0.035258      8.000000
  0.061952  0.077201  0.035258      8.000000
  0.072277  0.077201  0.035258      8.000000
  0.082603  0.077201  0.035258      8.000000
  0.000000  0.087494  0.035258      4.000000
  0.010325  0.087494  0.035258      8.000000
  0.020651  0.087494  0.035258      8.000000
  0.030976  0.087494  0.035258      8.000000
  0.041301  0.087494  0.035258      8.000000
  0.051627  0.087494  0.035258      8.000000
  0.061952  0.087494  0.035258      8.000000
  0.072277  0.087494  0.035258      8.000000
  0.082603  0.087494  0.035258      8.000000
  0.000000  0.097787  0.035258      4.000000
  0.010325  0.097787  0.035258      8.000000
  0.020651  0.097787  0.035258      8.000000
  0.030976  0.097787  0.035258      8.000000
  0.041301  0.097787  0.035258      8.000000
  0.051627  0.097787  0.035258      8.000000
  0.061952  0.097787  0.035258      8.000000
  0.072277  0.097787  0.035258      8.000000
  0.082603  0.097787  0.035258      8.000000
  0.000000  0.108081  0.035258      4.000000
  0.010325  0.108081  0.035258      8.000000
  0.020651  0.108081  0.035258      8.000000
  0.030976  0.108081  0.035258      8.000000
  0.041301  0.108081  0.035258      8.000000
  0.051627  0.108081  0.035258      8.000000
  0.061952  0.108081  0.035258      8.000000
  0.072277  0.108081  0.035258      8.000000
  0.082603  0.108081  0.035258      8.000000
  0.000000  0.118374  0.035258      4.000000
  0.010325  0.118374  0.035258      8.000000
  0.020651  0.118374  0.035258      8.000000
  0.030976  0.118374  0.035258      8.000000
  0.041301  0.118374  0.035258      8.000000
  0.051627  0.118374  0.035258      8.000000
  0.061952  0.118374  0.035258      8.000000
  0.072277  0.118374  0.035258      8.000000
  0.082603  0.118374  0.035258      8.000000
  0.000000  0.005147  0.045332      4.000000
  0.010325  0.005147  0.045332      8.000000
  0.020651  0.005147  0.045332      8.000000
  0.030976  0.005147  0.045332      8.000000
  0.041301  0.005147  0.045332      8.000000
  0.051627  0.005147  0.045332      8.000000
  0.061952  0.005147  0.045332      8.000000
  0.072277  0.005147  0.045332      8.000000
  0.082603  0.005147  0.045332      8.000000
  0.000000  0.015440  0.045332      4.000000
  0.010325  0.015440  0.045332      8.000000
  0.020651  0.015440  0.045332      8.000000
  0.030976  0.015440  0.045332      8.000000
  0.041301  0.015440  0.045332      8.000000
  0.051627  0.015440  0.045332      8.000000
  0.061952  0.015440  0.045332      8.000000
  0.072277  0.015440  0.045332      8.000000
  0.082603  0.015440  0.045332      8.000000
  0.000000  0.025734  0.045332      4.000000
  0.010325  0.025734  0.045332      8.000000
  0.020651  0.025734  0.045332      8.000000
  0.030976  0.025734  0.045332      8.000000
  0.041301  0.025734  0.045332      8.000000
  0.051627  0.025734  0.045332      8.000000
  0.061952  0.025734  0.045332      8.000000
  0.072277  0.025734  0.045332      8.000000
  0.082603  0.025734  0.045332      8.000000
  0.000000  0.036027  0.045332      4.000000
  0.010325  0.036027  0.045332      8.000000
  0.020651  0.036027  0.045332      8.000000
  0.030976  0.036027  0.045332      8.000000
  0.041301  0.036027  0.045332      8.000000
  0.051627  0.036027  0.045332      8.000000
  0.061952  0.036027  0.045332      8.000000
  0.072277  0.036027  0.045332      8.000000
  0.082603  0.036027  0.045332      8.000000
  0.000000  0.046320  0.045332      4.000000
  0.010325  0.046320  0.045332      8.000000
  0.020651  0.046320  0.045332      8.000000
  0.030976  0.046320  0.045332      8.000000
  0.041301  0.046320  0.045332      8.000000
  0.051627  0.046320  0.045332      8.000000
  0.061952  0.046320  0.045332      8.000000
  0.072277  0.046320  0.045332      8.000000
  0.082603  0.046320  0.045332      8.000000
  0.000000  0.056614  0.045332      4.000000
  0.010325  0.056614  0.045332      8.000000
  0.020651  0.056614  0.045332      8.000000
  0.030976  0.056614  0.045332      8.000000
  0.041301  0.056614  0.045332      8.000000
  0.051627  0.056614  0.045332      8.000000
  0.061952  0.056614  0.045332      8.000000
  0.072277  0.056614  0.045332      8.000000
  0.082603  0.056614  0.045332      8.000000
  0.000000  0.066907  0.045332      4.000000
  0.010325  0.066907  0.045332      8.000000
  0.020651  0.066907  0.045332      8.000000
  0.030976  0.066907  0.045332      8.000000
  0.041301  0.066907  0.045332      8.000000
  0.051627  0.066907  0.045332      8.000000
  0.061952  0.066907  0.045332      8.000000
  0.072277  0.066907  0.045332      8.000000
  0.082603  0.066907  0.045332      8.000000
  0.000000  0.077201  0.045332      4.000000
  0.010325  0.077201  0.045332      8.000000
  0.020651  0.077201  0.045332      8.000000
  0.030976  0.077201  0.045332      8.000000
  0.041301  0.077201  0.045332      8.000000
  0.051627  0.077201  0.045332      8.000000
  0.061952  0.077201  0.045332      8.000000
  0.072277  0.077201  0.045332      8.000000
  0.082603  0.077201  0.045332      8.000000
  0.000000  0.087494  0.045332      4.000000
  0.010325  0.087494  0.045332      8.000000
  0.020651  0.087494  0.045332      8.000000
  0.030976  0.087494  0.045332      8.000000
  0.041301  0.087494  0.045332      8.000000
  0.051627  0.087494  0.045332      8.000000
  0.061952  0.087494  0.045332      8.000000
  0.072277  0.087494  0.045332      8.000000
  0.082603  0.087494  0.045332      8.000000
  0.000000  0.097787  0.045332      4.000000
  0.010325  0.097787  0.045332      8.000000
  0.020651  0.097787  0.045332      8.000000
  0.030976  0.097787  0.045332      8.000000
  0.041301  0.097787  0.045332      8.000000
  0.051627  0.097787  0.045332      8.000000
  0.061952  0.097787  0.045332      8.000000
  0.072277  0.097787  0.045332      8.000000
  0.082603  0.097787  0.045332      8.000000
  0.000000  0.108081  0.045332      4.000000
  0.010325  0.108081  0.045332      8.000000
  0.020651  0.108081  0.045332      8.000000
  0.030976  0.108081  0.045332      8.000000
  0.041301  0.108081  0.045332      8.000000
  0.051627  0.108081  0.045332      8.000000
  0.061952  0.108081  0.045332      8.000000
  0.072277  0.108081  0.045332      8.000000
  0.082603  0.108081  0.045332      8.000000
  0.000000  0.118374  0.045332      4.000000
  0.010325  0.118374  0.045332      8.000000
  0.020651  0.118374  0.045332      8.000000
  0.030976  0.118374  0.045332      8.000000
  0.041301  0.118374  0.045332      8.000000
  0.051627  0.118374  0.045332      8.000000
  0.061952  0.118374  0.045332      8.000000
  0.072277  0.118374  0.045332      8.000000
  0.082603  0.118374  0.045332      8.000000
  0.000000  0.005147  0.055406      4.000000
  0.010325  0.005147  0.055406      8.000000
  0.020651  0.005147  0.055406      8.000000
  0.030976  0.005147  0.055406      8.000000
  0.041301  0.005147  0.055406      8.000000
  0.051627  0.005147  0.055406      8.000000
  0.061952  0.005147  0.055406      8.000000
  0.072277  0.005147  0.055406      8.000000
  0.082603  0.005147  0.055406      8.000000
  0.000000  0.015440  0.055406      4.000000
  0.010325  0.015440  0.055406      8.000000
  0.020651  0.015440  0.055406      8.000000
  0.030976  0.015440  0.055406      8.000000
  0.041301  0.015440  0.055406      8.000000
  0.051627  0.015440  0.055406      8.000000
  0.061952  0.015440  0.055406      8.000000
  0.072277  0.015440  0.055406      8.000000
  0.082603  0.015440  0.055406      8.000000
  0.000000  0.025734  0.055406      4.000000
  0.010325  0.025734  0.055406      8.000000
  0.020651  0.025734  0.055406      8.000000
  0.030976  0.025734  0.055406      8.000000
  0.041301  0.025734  0.055406      8.000000
  0.051627  0.025734  0.055406      8.000000
  0.061952  0.025734  0.055406      8.000000
  0.072277  0.025734  0.055406      8.000000
  0.082603  0.025734  0.055406      8.000000
  0.000000  0.036027  0.055406      4.000000
  0.010325  0.036027  0.055406      8.000000
  0.020651  0.036027  0.055406      8.000000
  0.030976  0.036027  0.055406      8.000000
  0.041301  0.036027  0.055406      8.000000
  0.051627  0.036027  0.055406      8.000000
  0.061952  0.036027  0.055406      8.000000
  0.072277  0.036027  0.055406      8.000000
  0.082603  0.036027  0.055406      8.000000
  0.000000  0.046320  0.055406      4.000000
  0.010325  0.046320  0.055406      8.000000
  0.020651  0.046320  0.055406      8.000000
  0.030976  0.046320  0.055406      8.000000
  0.041301  0.046320  0.055406      8.000000
  0.051627  0.046320  0.055406      8.000000
  0.061952  0.046320  0.055406      8.000000
  0.072277  0.046320  0.055406      8.000000
  0.082603  0.046320  0.055406      8.000000
  0.000000  0.056614  0.055406      4.000000
  0.010325  0.056614  0.055406      8.000000
  0.020651  0.056614  0.055406      8.000000
  0.030976  0.056614  0.055406      8.000000
  0.041301  0.056614  0.055406      8.000000
  0.051627  0.056614  0.055406      8.000000
  0.061952  0.056614  0.055406      8.000000
  0.072277  0.056614  0.055406      8.000000
  0.082603  0.056614  0.055406      8.000000
  0.000000  0.066907  0.055406      4.000000
  0.010325  0.066907  0.055406      8.000000
  0.020651  0.066907  0.055406      8.000000
  0.030976  0.066907  0.055406      8.000000
  0.041301  0.066907  0.055406      8.000000
  0.051627  0.066907  0.055406      8.000000
  0.061952  0.066907  0.055406      8.000000
  0.072277  0.066907  0.055406      8.000000
  0.082603  0.066907  0.055406      8.000000
  0.000000  0.077201  0.055406      4.000000
  0.010325  0.077201  0.055406      8.000000
  0.020651  0.077201  0.055406      8.000000
  0.030976  0.077201  0.055406      8.000000
  0.041301  0.077201  0.055406      8.000000
  0.051627  0.077201  0.055406      8.000000
  0.061952  0.077201  0.055406      8.000000
  0.072277  0.077201  0.055406      8.000000
  0.082603  0.077201  0.055406      8.000000
  0.000000  0.087494  0.055406      4.000000
  0.010325  0.087494  0.055406      8.000000
  0.020651  0.087494  0.055406      8.000000
  0.030976  0.087494  0.055406      8.000000
  0.041301  0.087494  0.055406      8.000000
  0.051627  0.087494  0.055406      8.000000
  0.061952  0.087494  0.055406      8.000000
  0.072277  0.087494  0.055406      8.000000
  0.082603  0.087494  0.055406      8.000000
  0.000000  0.097787  0.055406      4.000000
  0.010325  0.097787  0.055406      8.000000
  0.020651  0.097787  0.055406      8.000000
  0.030976  0.097787  0.055406      8.000000
  0.041301  0.097787  0.055406      8.000000
  0.051627  0.097787  0.055406      8.000000
  0.061952  0.097787  0.055406      8.000000
  0.072277  0.097787  0.055406      8.000000
  0.082603  0.097787  0.055406      8.000000
  0.000000  0.108081  0.055406      4.000000
  0.010325  0.108081  0.055406      8.000000
  0.020651  0.108081  0.055406      8.000000
  0.030976  0.108081  0.055406      8.000000
  0.041301  0.108081  0.055406      8.000000
  0.051627  0.108081  0.055406      8.000000
  0.061952  0.108081  0.055406      8.000000
  0.072277  0.108081  0.055406      8.000000
  0.082603  0.108081  0.055406      8.000000
  0.000000  0.118374  0.055406      4.000000
  0.010325  0.118374  0.055406      8.000000
  0.020651  0.118374  0.055406      8.000000
  0.030976  0.118374  0.055406      8.000000
  0.041301  0.118374  0.055406      8.000000
  0.051627  0.118374  0.055406      8.000000
  0.061952  0.118374  0.055406      8.000000
  0.072277  0.118374  0.055406      8.000000
  0.082603  0.118374  0.055406      8.000000
  0.000000  0.005147  0.065480      4.000000
  0.010325  0.005147  0.065480      8.000000
  0.020651  0.005147  0.065480      8.000000
  0.030976  0.005147  0.065480      8.000000
  0.041301  0.005147  0.065480      8.000000
[...]
 k-point   641 :   0.0588 0.4792 0.3438  plane waves:    3419
 k-point   642 :   0.1176 0.4792 0.3438  plane waves:    3421
 k-point   643 :   0.1765 0.4792 0.3438  plane waves:    3429
 k-point   644 :   0.2353 0.4792 0.3438  plane waves:    3425
 k-point   645 :   0.2941 0.4792 0.3438  plane waves:    3426
 k-point   646 :   0.3529 0.4792 0.3438  plane waves:    3421
 k-point   647 :   0.4118 0.4792 0.3438  plane waves:    3421
 k-point   648 :   0.4706 0.4792 0.3438  plane waves:    3422
 k-point   649 :   0.0000 0.0208 0.4062  plane waves:    3436
 k-point   650 :   0.0588 0.0208 0.4062  plane waves:    3435
 k-point   651 :   0.1176 0.0208 0.4062  plane waves:    3432
 k-point   652 :   0.1765 0.0208 0.4062  plane waves:    3429
 k-point   653 :   0.2353 0.0208 0.4062  plane waves:    3423
 k-point   654 :   0.2941 0.0208 0.4062  plane waves:    3415
 k-point   655 :   0.3529 0.0208 0.4062  plane waves:    3418
 k-point   656 :   0.4118 0.0208 0.4062  plane waves:    3417
 k-point   657 :   0.4706 0.0208 0.4062  plane waves:    3413
 k-point   658 :   0.0000 0.0625 0.4062  plane waves:    3430
 k-point   659 :   0.0588 0.0625 0.4062  plane waves:    3428
 k-point   660 :   0.1176 0.0625 0.4062  plane waves:    3426
 k-point   661 :   0.1765 0.0625 0.4062  plane waves:    3420
 k-point   662 :   0.2353 0.0625 0.4062  plane waves:    3421
 k-point   663 :   0.2941 0.0625 0.4062  plane waves:    3414
 k-point   664 :   0.3529 0.0625 0.4062  plane waves:    3415
 k-point   665 :   0.4118 0.0625 0.4062  plane waves:    3416
 k-point   666 :   0.4706 0.0625 0.4062  plane waves:    3415
 k-point   667 :   0.0000 0.1042 0.4062  plane waves:    3421
 k-point   668 :   0.0588 0.1042 0.4062  plane waves:    3427
 k-point   669 :   0.1176 0.1042 0.4062  plane waves:    3423
 k-point   670 :   0.1765 0.1042 0.4062  plane waves:    3423
 k-point   671 :   0.2353 0.1042 0.4062  plane waves:    3425
 k-point   672 :   0.2941 0.1042 0.4062  plane waves:    3421
 k-point   673 :   0.3529 0.1042 0.4062  plane waves:    3413
 k-point   674 :   0.4118 0.1042 0.4062  plane waves:    3410
 k-point   675 :   0.4706 0.1042 0.4062  plane waves:    3405
 k-point   676 :   0.0000 0.1458 0.4062  plane waves:    3427
 k-point   677 :   0.0588 0.1458 0.4062  plane waves:    3427
 k-point   678 :   0.1176 0.1458 0.4062  plane waves:    3426
 k-point   679 :   0.1765 0.1458 0.4062  plane waves:    3421
 k-point   680 :   0.2353 0.1458 0.4062  plane waves:    3419
 k-point   681 :   0.2941 0.1458 0.4062  plane waves:    3416
 k-point   682 :   0.3529 0.1458 0.4062  plane waves:    3409
 k-point   683 :   0.4118 0.1458 0.4062  plane waves:    3410
 k-point   684 :   0.4706 0.1458 0.4062  plane waves:    3412
 k-point   685 :   0.0000 0.1875 0.4062  plane waves:    3429
 k-point   686 :   0.0588 0.1875 0.4062  plane waves:    3431
 k-point   687 :   0.1176 0.1875 0.4062  plane waves:    3419
 k-point   688 :   0.1765 0.1875 0.4062  plane waves:    3417
 k-point   689 :   0.2353 0.1875 0.4062  plane waves:    3416
 k-point   690 :   0.2941 0.1875 0.4062  plane waves:    3413
 k-point   691 :   0.3529 0.1875 0.4062  plane waves:    3412
 k-point   692 :   0.4118 0.1875 0.4062  plane waves:    3411
 k-point   693 :   0.4706 0.1875 0.4062  plane waves:    3415
 k-point   694 :   0.0000 0.2292 0.4062  plane waves:    3412
 k-point   695 :   0.0588 0.2292 0.4062  plane waves:    3418
 k-point   696 :   0.1176 0.2292 0.4062  plane waves:    3415
 k-point   697 :   0.1765 0.2292 0.4062  plane waves:    3410
 k-point   698 :   0.2353 0.2292 0.4062  plane waves:    3416
 k-point   699 :   0.2941 0.2292 0.4062  plane waves:    3417
 k-point   700 :   0.3529 0.2292 0.4062  plane waves:    3416
 k-point   701 :   0.4118 0.2292 0.4062  plane waves:    3419
 k-point   702 :   0.4706 0.2292 0.4062  plane waves:    3425
 k-point   703 :   0.0000 0.2708 0.4062  plane waves:    3418
 k-point   704 :   0.0588 0.2708 0.4062  plane waves:    3412
 k-point   705 :   0.1176 0.2708 0.4062  plane waves:    3410
 k-point   706 :   0.1765 0.2708 0.4062  plane waves:    3406
 k-point   707 :   0.2353 0.2708 0.4062  plane waves:    3413
 k-point   708 :   0.2941 0.2708 0.4062  plane waves:    3422
 k-point   709 :   0.3529 0.2708 0.4062  plane waves:    3420
 k-point   710 :   0.4118 0.2708 0.4062  plane waves:    3420
 k-point   711 :   0.4706 0.2708 0.4062  plane waves:    3423
 k-point   712 :   0.0000 0.3125 0.4062  plane waves:    3417
 k-point   713 :   0.0588 0.3125 0.4062  plane waves:    3411
 k-point   714 :   0.1176 0.3125 0.4062  plane waves:    3409
 k-point   715 :   0.1765 0.3125 0.4062  plane waves:    3412
 k-point   716 :   0.2353 0.3125 0.4062  plane waves:    3415
 k-point   717 :   0.2941 0.3125 0.4062  plane waves:    3420
 k-point   718 :   0.3529 0.3125 0.4062  plane waves:    3421
 k-point   719 :   0.4118 0.3125 0.4062  plane waves:    3425
 k-point   720 :   0.4706 0.3125 0.4062  plane waves:    3423
 k-point   721 :   0.0000 0.3542 0.4062  plane waves:    3404
 k-point   722 :   0.0588 0.3542 0.4062  plane waves:    3410
 k-point   723 :   0.1176 0.3542 0.4062  plane waves:    3416
 k-point   724 :   0.1765 0.3542 0.4062  plane waves:    3415
 k-point   725 :   0.2353 0.3542 0.4062  plane waves:    3417
 k-point   726 :   0.2941 0.3542 0.4062  plane waves:    3423
 k-point   727 :   0.3529 0.3542 0.4062  plane waves:    3425
 k-point   728 :   0.4118 0.3542 0.4062  plane waves:    3421
 k-point   729 :   0.4706 0.3542 0.4062  plane waves:    3421
 k-point   730 :   0.0000 0.3958 0.4062  plane waves:    3409
 k-point   731 :   0.0588 0.3958 0.4062  plane waves:    3416
 k-point   732 :   0.1176 0.3958 0.4062  plane waves:    3418
 k-point   733 :   0.1765 0.3958 0.4062  plane waves:    3421
 k-point   734 :   0.2353 0.3958 0.4062  plane waves:    3421
 k-point   735 :   0.2941 0.3958 0.4062  plane waves:    3426
 k-point   736 :   0.3529 0.3958 0.4062  plane waves:    3424
 k-point   737 :   0.4118 0.3958 0.4062  plane waves:    3424
 k-point   738 :   0.4706 0.3958 0.4062  plane waves:    3422
 k-point   739 :   0.0000 0.4375 0.4062  plane waves:    3417
 k-point   740 :   0.0588 0.4375 0.4062  plane waves:    3416
 k-point   741 :   0.1176 0.4375 0.4062  plane waves:    3424
 k-point   742 :   0.1765 0.4375 0.4062  plane waves:    3431
 k-point   743 :   0.2353 0.4375 0.4062  plane waves:    3424
 k-point   744 :   0.2941 0.4375 0.4062  plane waves:    3417
 k-point   745 :   0.3529 0.4375 0.4062  plane waves:    3419
 k-point   746 :   0.4118 0.4375 0.4062  plane waves:    3422
 k-point   747 :   0.4706 0.4375 0.4062  plane waves:    3427
 k-point   748 :   0.0000 0.4792 0.4062  plane waves:    3431
 k-point   749 :   0.0588 0.4792 0.4062  plane waves:    3426
 k-point   750 :   0.1176 0.4792 0.4062  plane waves:    3426
 k-point   751 :   0.1765 0.4792 0.4062  plane waves:    3430
 k-point   752 :   0.2353 0.4792 0.4062  plane waves:    3429
 k-point   753 :   0.2941 0.4792 0.4062  plane waves:    3420
 k-point   754 :   0.3529 0.4792 0.4062  plane waves:    3419
 k-point   755 :   0.4118 0.4792 0.4062  plane waves:    3419
 k-point   756 :   0.4706 0.4792 0.4062  plane waves:    3426
 k-point   757 :   0.0000 0.0208 0.4688  plane waves:    3432
 k-point   758 :   0.0588 0.0208 0.4688  plane waves:    3439
 k-point   759 :   0.1176 0.0208 0.4688  plane waves:    3433
 k-point   760 :   0.1765 0.0208 0.4688  plane waves:    3430
 k-point   761 :   0.2353 0.0208 0.4688  plane waves:    3426
 k-point   762 :   0.2941 0.0208 0.4688  plane waves:    3426
 k-point   763 :   0.3529 0.0208 0.4688  plane waves:    3420
 k-point   764 :   0.4118 0.0208 0.4688  plane waves:    3407
 k-point   765 :   0.4706 0.0208 0.4688  plane waves:    3409
 k-point   766 :   0.0000 0.0625 0.4688  plane waves:    3434
 k-point   767 :   0.0588 0.0625 0.4688  plane waves:    3432
 k-point   768 :   0.1176 0.0625 0.4688  plane waves:    3428
 k-point   769 :   0.1765 0.0625 0.4688  plane waves:    3423
 k-point   770 :   0.2353 0.0625 0.4688  plane waves:    3420
 k-point   771 :   0.2941 0.0625 0.4688  plane waves:    3425
 k-point   772 :   0.3529 0.0625 0.4688  plane waves:    3421
 k-point   773 :   0.4118 0.0625 0.4688  plane waves:    3411
 k-point   774 :   0.4706 0.0625 0.4688  plane waves:    3411
 k-point   775 :   0.0000 0.1042 0.4688  plane waves:    3432
 k-point   776 :   0.0588 0.1042 0.4688  plane waves:    3430
 k-point   777 :   0.1176 0.1042 0.4688  plane waves:    3429
 k-point   778 :   0.1765 0.1042 0.4688  plane waves:    3425
 k-point   779 :   0.2353 0.1042 0.4688  plane waves:    3418
 k-point   780 :   0.2941 0.1042 0.4688  plane waves:    3423
 k-point   781 :   0.3529 0.1042 0.4688  plane waves:    3417
 k-point   782 :   0.4118 0.1042 0.4688  plane waves:    3411
 k-point   783 :   0.4706 0.1042 0.4688  plane waves:    3407
 k-point   784 :   0.0000 0.1458 0.4688  plane waves:    3433
 k-point   785 :   0.0588 0.1458 0.4688  plane waves:    3423
 k-point   786 :   0.1176 0.1458 0.4688  plane waves:    3423
 k-point   787 :   0.1765 0.1458 0.4688  plane waves:    3422
 k-point   788 :   0.2353 0.1458 0.4688  plane waves:    3421
 k-point   789 :   0.2941 0.1458 0.4688  plane waves:    3416
 k-point   790 :   0.3529 0.1458 0.4688  plane waves:    3411
 k-point   791 :   0.4118 0.1458 0.4688  plane waves:    3414
 k-point   792 :   0.4706 0.1458 0.4688  plane waves:    3415
 k-point   793 :   0.0000 0.1875 0.4688  plane waves:    3436
 k-point   794 :   0.0588 0.1875 0.4688  plane waves:    3428
 k-point   795 :   0.1176 0.1875 0.4688  plane waves:    3426
 k-point   796 :   0.1765 0.1875 0.4688  plane waves:    3418
 k-point   797 :   0.2353 0.1875 0.4688  plane waves:    3419
 k-point   798 :   0.2941 0.1875 0.4688  plane waves:    3413
 k-point   799 :   0.3529 0.1875 0.4688  plane waves:    3412
 k-point   800 :   0.4118 0.1875 0.4688  plane waves:    3414
 k-point   801 :   0.4706 0.1875 0.4688  plane waves:    3421
 k-point   802 :   0.0000 0.2292 0.4688  plane waves:    3420
 k-point   803 :   0.0588 0.2292 0.4688  plane waves:    3423
 k-point   804 :   0.1176 0.2292 0.4688  plane waves:    3419
 k-point   805 :   0.1765 0.2292 0.4688  plane waves:    3412
 k-point   806 :   0.2353 0.2292 0.4688  plane waves:    3417
 k-point   807 :   0.2941 0.2292 0.4688  plane waves:    3405
 k-point   808 :   0.3529 0.2292 0.4688  plane waves:    3411
 k-point   809 :   0.4118 0.2292 0.4688  plane waves:    3421
 k-point   810 :   0.4706 0.2292 0.4688  plane waves:    3424
 k-point   811 :   0.0000 0.2708 0.4688  plane waves:    3411
 k-point   812 :   0.0588 0.2708 0.4688  plane waves:    3413
 k-point   813 :   0.1176 0.2708 0.4688  plane waves:    3403
 k-point   814 :   0.1765 0.2708 0.4688  plane waves:    3414
 k-point   815 :   0.2353 0.2708 0.4688  plane waves:    3413
 k-point   816 :   0.2941 0.2708 0.4688  plane waves:    3412
 k-point   817 :   0.3529 0.2708 0.4688  plane waves:    3417
 k-point   818 :   0.4118 0.2708 0.4688  plane waves:    3427
 k-point   819 :   0.4706 0.2708 0.4688  plane waves:    3429
 k-point   820 :   0.0000 0.3125 0.4688  plane waves:    3420
 k-point   821 :   0.0588 0.3125 0.4688  plane waves:    3409
 k-point   822 :   0.1176 0.3125 0.4688  plane waves:    3411
 k-point   823 :   0.1765 0.3125 0.4688  plane waves:    3403
 k-point   824 :   0.2353 0.3125 0.4688  plane waves:    3408
 k-point   825 :   0.2941 0.3125 0.4688  plane waves:    3418
 k-point   826 :   0.3529 0.3125 0.4688  plane waves:    3416
 k-point   827 :   0.4118 0.3125 0.4688  plane waves:    3423
 k-point   828 :   0.4706 0.3125 0.4688  plane waves:    3415
 k-point   829 :   0.0000 0.3542 0.4688  plane waves:    3416
 k-point   830 :   0.0588 0.3542 0.4688  plane waves:    3414
 k-point   831 :   0.1176 0.3542 0.4688  plane waves:    3417
 k-point   832 :   0.1765 0.3542 0.4688  plane waves:    3410
 k-point   833 :   0.2353 0.3542 0.4688  plane waves:    3415
 k-point   834 :   0.2941 0.3542 0.4688  plane waves:    3415
 k-point   835 :   0.3529 0.3542 0.4688  plane waves:    3419
 k-point   836 :   0.4118 0.3542 0.4688  plane waves:    3421
 k-point   837 :   0.4706 0.3542 0.4688  plane waves:    3410
 k-point   838 :   0.0000 0.3958 0.4688  plane waves:    3421
 k-point   839 :   0.0588 0.3958 0.4688  plane waves:    3426
 k-point   840 :   0.1176 0.3958 0.4688  plane waves:    3428
 k-point   841 :   0.1765 0.3958 0.4688  plane waves:    3416
 k-point   842 :   0.2353 0.3958 0.4688  plane waves:    3413
 k-point   843 :   0.2941 0.3958 0.4688  plane waves:    3414
 k-point   844 :   0.3529 0.3958 0.4688  plane waves:    3422
 k-point   845 :   0.4118 0.3958 0.4688  plane waves:    3417
 k-point   846 :   0.4706 0.3958 0.4688  plane waves:    3414
 k-point   847 :   0.0000 0.4375 0.4688  plane waves:    3434
 k-point   848 :   0.0588 0.4375 0.4688  plane waves:    3425
 k-point   849 :   0.1176 0.4375 0.4688  plane waves:    3430
 k-point   850 :   0.1765 0.4375 0.4688  plane waves:    3429
 k-point   851 :   0.2353 0.4375 0.4688  plane waves:    3426
 k-point   852 :   0.2941 0.4375 0.4688  plane waves:    3413
 k-point   853 :   0.3529 0.4375 0.4688  plane waves:    3418
 k-point   854 :   0.4118 0.4375 0.4688  plane waves:    3422
 k-point   855 :   0.4706 0.4375 0.4688  plane waves:    3424
 k-point   856 :   0.0000 0.4792 0.4688  plane waves:    3418
 k-point   857 :   0.0588 0.4792 0.4688  plane waves:    3424
 k-point   858 :   0.1176 0.4792 0.4688  plane waves:    3429
 k-point   859 :   0.1765 0.4792 0.4688  plane waves:    3430
 k-point   860 :   0.2353 0.4792 0.4688  plane waves:    3431
 k-point   861 :   0.2941 0.4792 0.4688  plane waves:    3417
 k-point   862 :   0.3529 0.4792 0.4688  plane waves:    3411
 k-point   863 :   0.4118 0.4792 0.4688  plane waves:    3429
 k-point   864 :   0.4706 0.4792 0.4688  plane waves:    3428

 maximum and minimum number of plane-waves per node :      3439     3392

 maximum number of plane-waves:      3439
 maximum index in each direction: 
   IXMAX=   10   IYMAX=    7   IZMAX=   11
   IXMIN=  -10   IYMIN=   -7   IZMIN=  -11


 serial   3D FFT for wavefunctions
 parallel 3D FFT for charge:
    minimum data exchange during FFTs selected (reduces bandwidth)


 total amount of memory used by VASP MPI-rank0   325368. kBytes
=======================================================================

   base      :      30000. kBytes
   nonl-proj :     191877. kBytes
   fftplans  :       1019. kBytes
   grid      :       3560. kBytes
   one-center:         43. kBytes
   wavefun   :      98869. kBytes
 
     INWAV:  cpu time      0.0000: real time      0.0001
 Broyden mixing: mesh for mixing (old mesh)
   NGX = 21   NGY = 15   NGZ = 23
  (NGX  = 84   NGY  = 60   NGZ  = 96)
  gives a total of   7245 points

 initial charge density was supplied:
 charge density of overlapping atoms calculated
 number of electron      42.0000000 magnetization 
 keeping initial charge density in first step


--------------------------------------------------------------------------------------------------------


 Maximum index for augmentation-charges          566 (set IRDMAX)


--------------------------------------------------------------------------------------------------------


 First call to EWALD:  gamma=   0.339
 Maximum number of real-space cells 3x 3x 2
 Maximum number of reciprocal cells 3x 2x 3

    FEWALD:  cpu time      0.0009: real time      0.0010


--------------------------------------- Ionic step        1  -------------------------------------------




--------------------------------------- Iteration      1(   1)  ---------------------------------------


    POTLOK:  cpu time      0.0118: real time      0.0146
    SETDIJ:  cpu time      0.0025: real time      0.0035
     EDDAV:  cpu time     24.3281: real time     24.5194
       DOS:  cpu time      0.0192: real time      0.0271
    --------------------------------------------
      LOOP:  cpu time     24.3615: real time     24.5647

 eigenvalue-minimisations  : 82944
 total energy-change (2. order) : 0.5395559E+02  (-0.1764037E+04)
 number of electron      42.0000000 magnetization 
 augmentation part       42.0000000 magnetization 

 Free energy of the ion-electron system (eV)
  ---------------------------------------------------
  alpha Z        PSCENC =        94.24357992
  Ewald energy   TEWEN  =      -795.76658092
  -Hartree energ DENC   =      -271.33601302
  -exchange      EXHF   =         0.00000000
  -V(xc)+E(xc)   XCENC  =        97.50108136
  PAW double counting   =       608.99811708     -597.02363782
  entropy T*S    EENTRO =        -0.00208161
  eigenvalues    EBANDS =       -79.02500771
  atomic energy  EATOM  =       996.36613177
  Solvation  Ediel_sol  =         0.00000000
  ---------------------------------------------------
  free energy    TOTEN  =        53.95558905 eV

  energy without entropy =       53.95767066  energy(sigma->0) =       53.95662985


--------------------------------------------------------------------------------------------------------




--------------------------------------- Iteration      1(   2)  ---------------------------------------


     EDDAV:  cpu time     32.4814: real time     32.6745
       DOS:  cpu time      0.0169: real time      0.0244
    --------------------------------------------
      LOOP:  cpu time     32.4983: real time     32.6989

 eigenvalue-minimisations  :115920
 total energy-change (2. order) :-0.1468526E+03  (-0.1382081E+03)
 number of electron      42.0000000 magnetization 
 augmentation part       42.0000000 magnetization 

 Free energy of the ion-electron system (eV)
  ---------------------------------------------------
  alpha Z        PSCENC =        94.24357992
  Ewald energy   TEWEN  =      -795.76658092
  -Hartree energ DENC   =      -271.33601302
  -exchange      EXHF   =         0.00000000
  -V(xc)+E(xc)   XCENC  =        97.50108136
  PAW double counting   =       608.99811708     -597.02363782
  entropy T*S    EENTRO =        -0.00423649
  eigenvalues    EBANDS =      -225.87549146
  atomic energy  EATOM  =       996.36613177
  Solvation  Ediel_sol  =         0.00000000
  ---------------------------------------------------
  free energy    TOTEN  =       -92.89704958 eV

  energy without entropy =      -92.89281309  energy(sigma->0) =      -92.89493133


--------------------------------------------------------------------------------------------------------




--------------------------------------- Iteration      1(   3)  ---------------------------------------


     EDDAV:  cpu time     33.4027: real time     33.5919
       DOS:  cpu time      0.0062: real time      0.0084
    --------------------------------------------
      LOOP:  cpu time     33.4089: real time     33.6003

 eigenvalue-minimisations  :120240
 total energy-change (2. order) :-0.4689327E+01  (-0.4666787E+01)
 number of electron      42.0000000 magnetization 
 augmentation part       42.0000000 magnetization 

 Free energy of the ion-electron system (eV)
  ---------------------------------------------------
  alpha Z        PSCENC =        94.24357992
  Ewald energy   TEWEN  =      -795.76658092
  -Hartree energ DENC   =      -271.33601302
  -exchange      EXHF   =         0.00000000
  -V(xc)+E(xc)   XCENC  =        97.50108136
  PAW double counting   =       608.99811708     -597.02363782
  entropy T*S    EENTRO =        -0.00488406
  eigenvalues    EBANDS =      -230.56417135
  atomic energy  EATOM  =       996.36613177
  Solvation  Ediel_sol  =         0.00000000
  ---------------------------------------------------
  free energy    TOTEN  =       -97.58637704 eV

  energy without entropy =      -97.58149299  energy(sigma->0) =      -97.58393502


--------------------------------------------------------------------------------------------------------




--------------------------------------- Iteration      1(   4)  ---------------------------------------


