  14  14   1   0
  0.1021318E+02  0.5700971E-09  0.4044058E-09  0.6201871E-09  0.5000000E-15
  1.000000000000000E-004
  CAR 
 BS                                      
     18.00449903    -14.16218132  301      2.21017250      1.00000000
    -14.162  0.0000E+00  0.0000E+00
    -14.055  0.0000E+00  0.0000E+00
    -13.948  0.0000E+00  0.0000E+00
    -13.841  0.0000E+00  0.0000E+00
    -13.733  0.0000E+00  0.0000E+00
    -13.626  0.0000E+00  0.0000E+00
    -13.519  0.0000E+00  0.0000E+00
    -13.412  0.0000E+00  0.0000E+00
    -13.304  0.0000E+00  0.0000E+00
    -13.197  0.5508E-12  0.5905E-13
    -13.090  0.1042E-07  0.1118E-08
    -12.983  0.2181E-04  0.2340E-05
    -12.876  0.5396E-02  0.5809E-03
    -12.768  0.1822E+00  0.2012E-01
    -12.661  0.1109E+01  0.1391E+00
    -12.554  0.1800E+01  0.3321E+00
    -12.447  0.1800E+01  0.5251E+00
    -12.339  0.2954E+01  0.8418E+00
    -12.232  0.4052E+01  0.1276E+01
    -12.125  0.5840E+01  0.1902E+01
    -12.018  0.4007E+01  0.2332E+01
    -11.911  0.2731E+01  0.2625E+01
    -11.803  0.1943E+01  0.2833E+01
    -11.696  0.1974E+01  0.3045E+01
    -11.589  0.2131E+01  0.3273E+01
    -11.482  0.2137E+01  0.3502E+01
    -11.374  0.2121E+01  0.3730E+01
    -11.267  0.1734E+01  0.3916E+01
    -11.160  0.7165E+00  0.3993E+01
    -11.053  0.6722E-01  0.4000E+01
    -10.946  0.9478E-03  0.4000E+01
    -10.838  0.1666E-05  0.4000E+01
    -10.731  0.3327E-09  0.4000E+01
    -10.624  0.7186E-14  0.4000E+01
    -10.517  0.0000E+00  0.4000E+01
    -10.409  0.0000E+00  0.4000E+01
    -10.302  0.0000E+00  0.4000E+01
    -10.195  0.0000E+00  0.4000E+01
    -10.088  0.0000E+00  0.4000E+01
     -9.981  0.0000E+00  0.4000E+01
     -9.873  0.0000E+00  0.4000E+01
     -9.766  0.0000E+00  0.4000E+01
     -9.659  0.0000E+00  0.4000E+01
     -9.552  0.0000E+00  0.4000E+01
     -9.444  0.0000E+00  0.4000E+01
     -9.337  0.1581E-12  0.4000E+01
     -9.230  0.3740E-08  0.4000E+01
     -9.123  0.9726E-05  0.4000E+01
     -9.016  0.2957E-02  0.4000E+01
     -8.908  0.1209E+00  0.4013E+01
     -8.801  0.9430E+00  0.4114E+01
     -8.694  0.2712E+01  0.4405E+01
     -8.587  0.4289E+01  0.4865E+01
     -8.479  0.4733E+01  0.5373E+01
     -8.372  0.6235E+01  0.6041E+01
     -8.265  0.5057E+01  0.6583E+01
     -8.158  0.4123E+01  0.7025E+01
     -8.051  0.4042E+01  0.7459E+01
     -7.943  0.2506E+01  0.7727E+01
     -7.836  0.1305E+01  0.7867E+01
     -7.729  0.9537E+00  0.7970E+01
     -7.622  0.2693E+00  0.7999E+01
     -7.514  0.1376E-01  0.8000E+01
     -7.407  0.9668E-04  0.8000E+01
     -7.300  0.8984E-06  0.8000E+01
     -7.193  0.4612E-03  0.8000E+01
     -7.086  0.3211E-01  0.8003E+01
     -6.978  0.3260E+00  0.8038E+01
     -6.871  0.6569E+00  0.8109E+01
     -6.764  0.5344E+00  0.8166E+01
     -6.657  0.6803E+00  0.8239E+01
     -6.549  0.1158E+01  0.8363E+01
     -6.442  0.1864E+01  0.8563E+01
     -6.335  0.2419E+01  0.8823E+01
     -6.228  0.2855E+01  0.9129E+01
     -6.121  0.3913E+01  0.9548E+01
     -6.013  0.3643E+01  0.9939E+01
     -5.906  0.3565E+01  0.1032E+02
     -5.799  0.4784E+01  0.1083E+02
     -5.692  0.5338E+01  0.1141E+02
     -5.584  0.4675E+01  0.1191E+02
     -5.477  0.3418E+01  0.1227E+02
     -5.370  0.3332E+01  0.1263E+02
     -5.263  0.3460E+01  0.1300E+02
     -5.156  0.2648E+01  0.1329E+02
     -5.048  0.1986E+01  0.1350E+02
     -4.941  0.1744E+01  0.1369E+02
     -4.834  0.1184E+01  0.1381E+02
     -4.727  0.1005E+01  0.1392E+02
     -4.619  0.1692E+01  0.1410E+02
     -4.512  0.2261E+01  0.1434E+02
     -4.405  0.2181E+01  0.1458E+02
     -4.298  0.2148E+01  0.1481E+02
     -4.191  0.1973E+01  0.1502E+02
     -4.083  0.2177E+01  0.1525E+02
     -3.976  0.2334E+01  0.1550E+02
     -3.869  0.2867E+01  0.1581E+02
     -3.762  0.3284E+01  0.1616E+02
     -3.654  0.4390E+01  0.1663E+02
     -3.547  0.5531E+01  0.1723E+02
     -3.440  0.4567E+01  0.1772E+02
     -3.333  0.2775E+01  0.1801E+02
     -3.226  0.3537E+01  0.1839E+02
     -3.118  0.5051E+01  0.1894E+02
     -3.011  0.3083E+01  0.1927E+02
     -2.904  0.2063E+01  0.1949E+02
     -2.797  0.2262E+01  0.1973E+02
     -2.689  0.2923E+01  0.2004E+02
     -2.582  0.3427E+01  0.2041E+02
     -2.475  0.3287E+01  0.2076E+02
     -2.368  0.6730E+01  0.2148E+02
     -2.261  0.7383E+01  0.2228E+02
     -2.153  0.5327E+01  0.2285E+02
     -2.046  0.5487E+01  0.2344E+02
     -1.939  0.5372E+01  0.2401E+02
     -1.832  0.5715E+01  0.2462E+02
     -1.724  0.6557E+01  0.2533E+02
     -1.617  0.6607E+01  0.2604E+02
     -1.510  0.5850E+01  0.2666E+02
     -1.403  0.4742E+01  0.2717E+02
     -1.296  0.3655E+01  0.2756E+02
     -1.188  0.3386E+01  0.2793E+02
     -1.081  0.3587E+01  0.2831E+02
     -0.974  0.3227E+01  0.2866E+02
     -0.867  0.2312E+01  0.2891E+02
     -0.759  0.3262E+01  0.2926E+02
     -0.652  0.5131E+01  0.2981E+02
     -0.545  0.4545E+01  0.3029E+02
     -0.438  0.4389E+01  0.3076E+02
     -0.331  0.5040E+01  0.3130E+02
     -0.223  0.5833E+01  0.3193E+02
     -0.116  0.5858E+01  0.3256E+02
     -0.009  0.5847E+01  0.3318E+02
      0.098  0.7847E+01  0.3403E+02
      0.206  0.9200E+01  0.3501E+02
      0.313  0.8929E+01  0.3597E+02
      0.420  0.6331E+01  0.3665E+02
      0.527  0.3166E+01  0.3699E+02
      0.634  0.2145E+01  0.3722E+02
      0.742  0.2070E+01  0.3744E+02
      0.849  0.2204E+01  0.3768E+02
      0.956  0.2873E+01  0.3798E+02
      1.063  0.4453E+01  0.3846E+02
      1.171  0.3657E+01  0.3885E+02
      1.278  0.1910E+01  0.3906E+02
      1.385  0.2291E+01  0.3930E+02
      1.492  0.2574E+01  0.3958E+02
      1.599  0.2763E+01  0.3988E+02
      1.707  0.3413E+01  0.4024E+02
      1.814  0.3894E+01  0.4066E+02
      1.921  0.3756E+01  0.4106E+02
      2.028  0.3257E+01  0.4141E+02
      2.136  0.3230E+01  0.4176E+02
      2.243  0.3220E+01  0.4210E+02
      2.350  0.3176E+01  0.4244E+02
      2.457  0.3600E+01  0.4283E+02
      2.564  0.3018E+01  0.4315E+02
      2.672  0.1440E+01  0.4331E+02
      2.779  0.4908E+00  0.4336E+02
      2.886  0.3442E+00  0.4340E+02
      2.993  0.3375E+00  0.4343E+02
      3.101  0.3410E+00  0.4347E+02
      3.208  0.3334E+00  0.4351E+02
      3.315  0.3511E+00  0.4354E+02
      3.422  0.3483E+00  0.4358E+02
      3.529  0.3684E+00  0.4362E+02
      3.637  0.3860E+00  0.4366E+02
      3.744  0.4116E+00  0.4371E+02
      3.851  0.4671E+00  0.4376E+02
      3.958  0.5879E+00  0.4382E+02
      4.066  0.7848E+00  0.4390E+02
      4.173  0.7522E+00  0.4398E+02
      4.280  0.9130E+00  0.4408E+02
      4.387  0.1143E+01  0.4420E+02
      4.494  0.1159E+01  0.4433E+02
      4.602  0.1467E+01  0.4449E+02
      4.709  0.1324E+01  0.4463E+02
      4.816  0.1114E+01  0.4475E+02
      4.923  0.1170E+01  0.4487E+02
      5.031  0.9516E+00  0.4497E+02
      5.138  0.8438E+00  0.4506E+02
      5.245  0.1157E+01  0.4519E+02
      5.352  0.1768E+01  0.4538E+02
      5.459  0.1999E+01  0.4559E+02
      5.567  0.2166E+01  0.4583E+02
      5.674  0.2465E+01  0.4609E+02
      5.781  0.3438E+01  0.4646E+02
      5.888  0.4459E+01  0.4694E+02
      5.996  0.5599E+01  0.4754E+02
      6.103  0.3427E+01  0.4790E+02
      6.210  0.1957E+01  0.4811E+02
      6.317  0.2062E+01  0.4833E+02
      6.424  0.2697E+01  0.4862E+02
      6.532  0.4552E+01  0.4911E+02
      6.639  0.4769E+01  0.4962E+02
      6.746  0.4532E+01  0.5011E+02
      6.853  0.5137E+01  0.5066E+02
      6.961  0.5985E+01  0.5130E+02
      7.068  0.6407E+01  0.5199E+02
      7.175  0.5988E+01  0.5263E+02
      7.282  0.4891E+01  0.5316E+02
      7.389  0.4182E+01  0.5360E+02
      7.497  0.4033E+01  0.5404E+02
      7.604  0.3589E+01  0.5442E+02
      7.711  0.4006E+01  0.5485E+02
      7.818  0.4553E+01  0.5534E+02
      7.926  0.3319E+01  0.5569E+02
      8.033  0.2485E+01  0.5596E+02
      8.140  0.2852E+01  0.5627E+02
      8.247  0.3484E+01  0.5664E+02
      8.354  0.5044E+01  0.5718E+02
      8.462  0.5540E+01  0.5778E+02
      8.569  0.4633E+01  0.5827E+02
      8.676  0.3529E+01  0.5865E+02
      8.783  0.3090E+01  0.5898E+02
      8.891  0.3362E+01  0.5934E+02
      8.998  0.3564E+01  0.5972E+02
      9.105  0.3767E+01  0.6013E+02
      9.212  0.3445E+01  0.6050E+02
      9.319  0.3432E+01  0.6087E+02
      9.427  0.4397E+01  0.6134E+02
      9.534  0.4287E+01  0.6180E+02
      9.641  0.4165E+01  0.6224E+02
      9.748  0.4253E+01  0.6270E+02
      9.856  0.4037E+01  0.6313E+02
      9.963  0.3427E+01  0.6350E+02
     10.070  0.3846E+01  0.6391E+02
     10.177  0.4631E+01  0.6441E+02
     10.284  0.4859E+01  0.6493E+02
     10.392  0.4869E+01  0.6545E+02
     10.499  0.4722E+01  0.6596E+02
     10.606  0.4886E+01  0.6648E+02
     10.713  0.3941E+01  0.6690E+02
     10.821  0.3291E+01  0.6726E+02
     10.928  0.3527E+01  0.6764E+02
     11.035  0.5155E+01  0.6819E+02
     11.142  0.6345E+01  0.6887E+02
     11.249  0.6568E+01  0.6957E+02
     11.357  0.5717E+01  0.7019E+02
     11.464  0.5158E+01  0.7074E+02
     11.571  0.5341E+01  0.7131E+02
     11.678  0.5455E+01  0.7190E+02
     11.786  0.5951E+01  0.7253E+02
     11.893  0.7895E+01  0.7338E+02
     12.000  0.9231E+01  0.7437E+02
     12.107  0.9473E+01  0.7539E+02
     12.214  0.8492E+01  0.7630E+02
     12.322  0.6045E+01  0.7695E+02
     12.429  0.4769E+01  0.7746E+02
     12.536  0.5558E+01  0.7805E+02
     12.643  0.5827E+01  0.7868E+02
     12.751  0.4697E+01  0.7918E+02
     12.858  0.4280E+01  0.7964E+02
     12.965  0.4781E+01  0.8015E+02
     13.072  0.6259E+01  0.8082E+02
     13.179  0.6798E+01  0.8155E+02
     13.287  0.6105E+01  0.8221E+02
     13.394  0.6189E+01  0.8287E+02
     13.501  0.5280E+01  0.8344E+02
     13.608  0.4153E+01  0.8388E+02
     13.716  0.4093E+01  0.8432E+02
     13.823  0.3930E+01  0.8474E+02
     13.930  0.4603E+01  0.8524E+02
     14.037  0.6014E+01  0.8588E+02
     14.144  0.5854E+01  0.8651E+02
     14.252  0.4780E+01  0.8702E+02
     14.359  0.5076E+01  0.8757E+02
     14.466  0.5159E+01  0.8812E+02
     14.573  0.4936E+01  0.8865E+02
     14.681  0.5694E+01  0.8926E+02
     14.788  0.5611E+01  0.8986E+02
     14.895  0.4692E+01  0.9036E+02
     15.002  0.5060E+01  0.9091E+02
     15.109  0.5064E+01  0.9145E+02
     15.217  0.4359E+01  0.9192E+02
     15.324  0.5994E+01  0.9256E+02
     15.431  0.7958E+01  0.9341E+02
     15.538  0.6802E+01  0.9414E+02
     15.646  0.4855E+01  0.9466E+02
     15.753  0.2674E+01  0.9495E+02
     15.860  0.1537E+01  0.9511E+02
     15.967  0.1364E+01  0.9526E+02
     16.074  0.1066E+01  0.9537E+02
     16.182  0.8662E+00  0.9547E+02
     16.289  0.1436E+01  0.9562E+02
     16.396  0.2133E+01  0.9585E+02
     16.503  0.1086E+01  0.9597E+02
     16.611  0.2785E+00  0.9600E+02
     16.718  0.4128E-01  0.9600E+02
     16.825  0.1392E-02  0.9600E+02
     16.932  0.6381E-05  0.9600E+02
     17.039  0.3353E-08  0.9600E+02
     17.147  0.1899E-12  0.9600E+02
     17.254  0.0000E+00  0.9600E+02
     17.361  0.0000E+00  0.9600E+02
     17.468  0.0000E+00  0.9600E+02
     17.576  0.0000E+00  0.9600E+02
     17.683  0.0000E+00  0.9600E+02
     17.790  0.0000E+00  0.9600E+02
     17.897  0.0000E+00  0.9600E+02
     18.004  0.0000E+00  0.9600E+02
     18.00449903    -14.16218132  301      2.21017250      1.00000000
    -14.162  0.0000E+00  0.0000E+00  0.0000E+00  0.0000E+00  0.0000E+00  0.0000E+00  0.0000E+00  0.0000E+00  0.0000E+00
    -14.055  0.0000E+00  0.0000E+00  0.0000E+00  0.0000E+00  0.0000E+00  0.0000E+00  0.0000E+00  0.0000E+00  0.0000E+00
    -13.948  0.0000E+00  0.0000E+00  0.0000E+00  0.0000E+00  0.0000E+00  0.0000E+00  0.0000E+00  0.0000E+00  0.0000E+00
    -13.841  0.0000E+00  0.0000E+00  0.0000E+00  0.0000E+00  0.0000E+00  0.0000E+00  0.0000E+00  0.0000E+00  0.0000E+00
    -13.733  0.0000E+00  0.0000E+00  0.0000E+00  0.0000E+00  0.0000E+00  0.0000E+00  0.0000E+00  0.0000E+00  0.0000E+00
    -13.626  0.0000E+00  0.0000E+00  0.0000E+00  0.0000E+00  0.0000E+00  0.0000E+00  0.0000E+00  0.0000E+00  0.0000E+00
    -13.519  0.0000E+00  0.0000E+00  0.0000E+00  0.0000E+00  0.0000E+00  0.0000E+00  0.0000E+00  0.0000E+00  0.0000E+00
    -13.412  0.0000E+00  0.0000E+00  0.0000E+00  0.0000E+00  0.0000E+00  0.0000E+00  0.0000E+00  0.0000E+00  0.0000E+00
    -13.304  0.0000E+00  0.0000E+00  0.0000E+00  0.0000E+00  0.0000E+00  0.0000E+00  0.0000E+00  0.0000E+00  0.0000E+00
    -13.197  0.3482E-13  0.2446E-27  0.7226E-15  0.2682E-14  0.0000E+00  0.0000E+00  0.0000E+00  0.0000E+00  0.0000E+00
    -13.090  0.6593E-09  0.4621E-23  0.1374E-10  0.5080E-10  0.0000E+00  0.0000E+00  0.0000E+00  0.0000E+00  0.0000E+00
    -12.983  0.1380E-05  0.9688E-20  0.2896E-07  0.1064E-06  0.0000E+00  0.0000E+00  0.0000E+00  0.0000E+00  0.0000E+00
    -12.876  0.3420E-03  0.2427E-17  0.7271E-05  0.2639E-04  0.0000E+00  0.0000E+00  0.0000E+00  0.0000E+00  0.0000E+00
    -12.768  0.1159E-01  0.8468E-16  0.2539E-03  0.8965E-03  0.0000E+00  0.0000E+00  0.0000E+00  0.0000E+00  0.0000E+00
    -12.661  0.7112E-01  0.5548E-15  0.1661E-02  0.5545E-02  0.0000E+00  0.0000E+00  0.0000E+00  0.0000E+00  0.0000E+00
    -12.554  0.1166E+00  0.1963E-12  0.2962E-02  0.9373E-02  0.0000E+00  0.0000E+00  0.0000E+00  0.0000E+00  0.0000E+00
    -12.447  0.1176E+00  0.2967E-09  0.3027E-02  0.1022E-01  0.0000E+00  0.0000E+00  0.0000E+00  0.0000E+00  0.0000E+00
    -12.339  0.1942E+00  0.5835E-07  0.5039E-02  0.1802E-01  0.0000E+00  0.0000E+00  0.0000E+00  0.0000E+00  0.0000E+00
    -12.232  0.2435E+00  0.1764E-05  0.7662E-02  0.3376E-01  0.0000E+00  0.0000E+00  0.0000E+00  0.0000E+00  0.0000E+00
    -12.125  0.3162E+00  0.1085E-04  0.1171E-01  0.6087E-01  0.0000E+00  0.0000E+00  0.0000E+00  0.0000E+00  0.0000E+00
    -12.018  0.2141E+00  0.1958E-04  0.8267E-02  0.4414E-01  0.0000E+00  0.0000E+00  0.0000E+00  0.0000E+00  0.0000E+00
    -11.911  0.1434E+00  0.1306E-04  0.6027E-02  0.3248E-01  0.0000E+00  0.0000E+00  0.0000E+00  0.0000E+00  0.0000E+00
    -11.803  0.9087E-01  0.2707E-05  0.5131E-02  0.2618E-01  0.0000E+00  0.0000E+00  0.0000E+00  0.0000E+00  0.0000E+00
    -11.696  0.7085E-01  0.1212E-06  0.6757E-02  0.3153E-01  0.0000E+00  0.0000E+00  0.0000E+00  0.0000E+00  0.0000E+00
    -11.589  0.6932E-01  0.8674E-09  0.7792E-02  0.3691E-01  0.0000E+00  0.0000E+00  0.0000E+00  0.0000E+00  0.0000E+00
    -11.482  0.6656E-01  0.8239E-12  0.8103E-02  0.3956E-01  0.0000E+00  0.0000E+00  0.0000E+00  0.0000E+00  0.0000E+00
    -11.374  0.6322E-01  0.1126E-14  0.8523E-02  0.4093E-01  0.0000E+00  0.0000E+00  0.0000E+00  0.0000E+00  0.0000E+00
    -11.267  0.5039E-01  0.9499E-15  0.7002E-02  0.3556E-01  0.0000E+00  0.0000E+00  0.0000E+00  0.0000E+00  0.0000E+00
    -11.160  0.2053E-01  0.4240E-15  0.2868E-02  0.1522E-01  0.0000E+00  0.0000E+00  0.0000E+00  0.0000E+00  0.0000E+00
    -11.053  0.1913E-02  0.4116E-16  0.2685E-03  0.1444E-02  0.0000E+00  0.0000E+00  0.0000E+00  0.0000E+00  0.0000E+00
    -10.946  0.2689E-04  0.5976E-18  0.3783E-05  0.2044E-04  0.0000E+00  0.0000E+00  0.0000E+00  0.0000E+00  0.0000E+00
    -10.838  0.4716E-07  0.1079E-20  0.6646E-08  0.3600E-07  0.0000E+00  0.0000E+00  0.0000E+00  0.0000E+00  0.0000E+00
    -10.731  0.9410E-11  0.2209E-24  0.1327E-11  0.7200E-11  0.0000E+00  0.0000E+00  0.0000E+00  0.0000E+00  0.0000E+00
    -10.624  0.2031E-15  0.4877E-29  0.2867E-16  0.1557E-15  0.0000E+00  0.0000E+00  0.0000E+00  0.0000E+00  0.0000E+00
    -10.517  0.0000E+00  0.0000E+00  0.0000E+00  0.0000E+00  0.0000E+00  0.0000E+00  0.0000E+00  0.0000E+00  0.0000E+00
    -10.409  0.0000E+00  0.0000E+00  0.0000E+00  0.0000E+00  0.0000E+00  0.0000E+00  0.0000E+00  0.0000E+00  0.0000E+00
    -10.302  0.0000E+00  0.0000E+00  0.0000E+00  0.0000E+00  0.0000E+00  0.0000E+00  0.0000E+00  0.0000E+00  0.0000E+00
    -10.195  0.0000E+00  0.0000E+00  0.0000E+00  0.0000E+00  0.0000E+00  0.0000E+00  0.0000E+00  0.0000E+00  0.0000E+00
    -10.088  0.0000E+00  0.0000E+00  0.0000E+00  0.0000E+00  0.0000E+00  0.0000E+00  0.0000E+00  0.0000E+00  0.0000E+00
     -9.981  0.0000E+00  0.0000E+00  0.0000E+00  0.0000E+00  0.0000E+00  0.0000E+00  0.0000E+00  0.0000E+00  0.0000E+00
     -9.873  0.0000E+00  0.0000E+00  0.0000E+00  0.0000E+00  0.0000E+00  0.0000E+00  0.0000E+00  0.0000E+00  0.0000E+00
     -9.766  0.0000E+00  0.0000E+00  0.0000E+00  0.0000E+00  0.0000E+00  0.0000E+00  0.0000E+00  0.0000E+00  0.0000E+00
     -9.659  0.0000E+00  0.0000E+00  0.0000E+00  0.0000E+00  0.0000E+00  0.0000E+00  0.0000E+00  0.0000E+00  0.0000E+00
     -9.552  0.0000E+00  0.0000E+00  0.0000E+00  0.0000E+00  0.0000E+00  0.0000E+00  0.0000E+00  0.0000E+00  0.0000E+00
     -9.444  0.0000E+00  0.0000E+00  0.0000E+00  0.0000E+00  0.0000E+00  0.0000E+00  0.0000E+00  0.0000E+00  0.0000E+00
     -9.337  0.1108E-13  0.2763E-27  0.3297E-14  0.7228E-16  0.0000E+00  0.0000E+00  0.0000E+00  0.0000E+00  0.0000E+00
     -9.230  0.2622E-09  0.6434E-23  0.7802E-10  0.1732E-11  0.0000E+00  0.0000E+00  0.0000E+00  0.0000E+00  0.0000E+00
     -9.123  0.6823E-06  0.1634E-19  0.2030E-06  0.4604E-08  0.0000E+00  0.0000E+00  0.0000E+00  0.0000E+00  0.0000E+00
     -9.016  0.2074E-03  0.4778E-17  0.6180E-04  0.1465E-05  0.0000E+00  0.0000E+00  0.0000E+00  0.0000E+00  0.0000E+00
     -8.908  0.8432E-02  0.1824E-15  0.2545E-02  0.6836E-04  0.0000E+00  0.0000E+00  0.0000E+00  0.0000E+00  0.0000E+00
     -8.801  0.6458E-01  0.4603E-14  0.2026E-01  0.7245E-03  0.0000E+00  0.0000E+00  0.0000E+00  0.0000E+00  0.0000E+00
     -8.694  0.1964E+00  0.1259E-10  0.5879E-01  0.2539E-02  0.0000E+00  0.0000E+00  0.0000E+00  0.0000E+00  0.0000E+00
     -8.587  0.3454E+00  0.5810E-08  0.9276E-01  0.3707E-02  0.0000E+00  0.0000E+00  0.0000E+00  0.0000E+00  0.0000E+00
     -8.479  0.3780E+00  0.3765E-06  0.1114E+00  0.4998E-02  0.0000E+00  0.0000E+00  0.0000E+00  0.0000E+00  0.0000E+00
     -8.372  0.4721E+00  0.4278E-05  0.1627E+00  0.8950E-02  0.0000E+00  0.0000E+00  0.0000E+00  0.0000E+00  0.0000E+00
     -8.265  0.2975E+00  0.1154E-04  0.1525E+00  0.1170E-01  0.0000E+00  0.0000E+00  0.0000E+00  0.0000E+00  0.0000E+00
     -8.158  0.1754E+00  0.9411E-05  0.1423E+00  0.1396E-01  0.0000E+00  0.0000E+00  0.0000E+00  0.0000E+00  0.0000E+00
     -8.051  0.1160E+00  0.2205E-05  0.1541E+00  0.1681E-01  0.0000E+00  0.0000E+00  0.0000E+00  0.0000E+00  0.0000E+00
     -7.943  0.4942E-01  0.1114E-06  0.9949E-01  0.1308E-01  0.0000E+00  0.0000E+00  0.0000E+00  0.0000E+00  0.0000E+00
     -7.836  0.2179E-01  0.9114E-09  0.5294E-01  0.8563E-02  0.0000E+00  0.0000E+00  0.0000E+00  0.0000E+00  0.0000E+00
     -7.729  0.1484E-01  0.9966E-12  0.3974E-01  0.6932E-02  0.0000E+00  0.0000E+00  0.0000E+00  0.0000E+00  0.0000E+00
     -7.622  0.4064E-02  0.2314E-15  0.1134E-01  0.2003E-02  0.0000E+00  0.0000E+00  0.0000E+00  0.0000E+00  0.0000E+00
     -7.514  0.2052E-03  0.4802E-17  0.5816E-03  0.1030E-03  0.0000E+00  0.0000E+00  0.0000E+00  0.0000E+00  0.0000E+00
     -7.407  0.1433E-05  0.3255E-19  0.4093E-05  0.7258E-06  0.0000E+00  0.0000E+00  0.0000E+00  0.0000E+00  0.0000E+00
     -7.300  0.1395E-08  0.1244E-20  0.7377E-08  0.2786E-07  0.0000E+00  0.0000E+00  0.0000E+00  0.0000E+00  0.0000E+00
     -7.193  0.1316E-06  0.6803E-18  0.2230E-05  0.1537E-04  0.0000E+00  0.0000E+00  0.0000E+00  0.0000E+00  0.0000E+00
     -7.086  0.1201E-04  0.4715E-16  0.1563E-03  0.1070E-02  0.0000E+00  0.0000E+00  0.0000E+00  0.0000E+00  0.0000E+00
     -6.978  0.1873E-03  0.2551E-14  0.1612E-02  0.1087E-01  0.0000E+00  0.0000E+00  0.0000E+00  0.0000E+00  0.0000E+00
     -6.871  0.7371E-03  0.5940E-10  0.3381E-02  0.2189E-01  0.0000E+00  0.0000E+00  0.0000E+00  0.0000E+00  0.0000E+00
     -6.764  0.1281E-02  0.1859E-06  0.3005E-02  0.1788E-01  0.0000E+00  0.0000E+00  0.0000E+00  0.0000E+00  0.0000E+00
     -6.657  0.1809E-02  0.6697E-04  0.4031E-02  0.2317E-01  0.0000E+00  0.0000E+00  0.0000E+00  0.0000E+00  0.0000E+00
     -6.549  0.2625E-02  0.3081E-02  0.6185E-02  0.3539E-01  0.0000E+00  0.0000E+00  0.0000E+00  0.0000E+00  0.0000E+00
     -6.442  0.3281E-02  0.2206E-01  0.5634E-02  0.3066E-01  0.0000E+00  0.0000E+00  0.0000E+00  0.0000E+00  0.0000E+00
     -6.335  0.4204E-02  0.3761E-01  0.5202E-02  0.2597E-01  0.0000E+00  0.0000E+00  0.0000E+00  0.0000E+00  0.0000E+00
     -6.228  0.1533E-01  0.3961E-01  0.1030E-01  0.2911E-01  0.0000E+00  0.0000E+00  0.0000E+00  0.0000E+00  0.0000E+00
     -6.121  0.4823E-01  0.3299E-01  0.2660E-01  0.4347E-01  0.0000E+00  0.0000E+00  0.0000E+00  0.0000E+00  0.0000E+00
     -6.013  0.5265E-01  0.2158E-01  0.2928E-01  0.4543E-01  0.0000E+00  0.0000E+00  0.0000E+00  0.0000E+00  0.0000E+00
     -5.906  0.5203E-01  0.2463E-01  0.2742E-01  0.3664E-01  0.0000E+00  0.0000E+00  0.0000E+00  0.0000E+00  0.0000E+00
     -5.799  0.8716E-01  0.2713E-01  0.4303E-01  0.4562E-01  0.0000E+00  0.0000E+00  0.0000E+00  0.0000E+00  0.0000E+00
     -5.692  0.9468E-01  0.2396E-01  0.5039E-01  0.5913E-01  0.0000E+00  0.0000E+00  0.0000E+00  0.0000E+00  0.0000E+00
     -5.584  0.6316E-01  0.2570E-01  0.3716E-01  0.4739E-01  0.0000E+00  0.0000E+00  0.0000E+00  0.0000E+00  0.0000E+00
     -5.477  0.5546E-01  0.1944E-01  0.3031E-01  0.2776E-01  0.0000E+00  0.0000E+00  0.0000E+00  0.0000E+00  0.0000E+00
     -5.370  0.7821E-01  0.1622E-01  0.3829E-01  0.1991E-01  0.0000E+00  0.0000E+00  0.0000E+00  0.0000E+00  0.0000E+00
     -5.263  0.7643E-01  0.1779E-01  0.4015E-01  0.1935E-01  0.0000E+00  0.0000E+00  0.0000E+00  0.0000E+00  0.0000E+00
     -5.156  0.6511E-01  0.1115E-01  0.3769E-01  0.1945E-01  0.0000E+00  0.0000E+00  0.0000E+00  0.0000E+00  0.0000E+00
     -5.048  0.6130E-01  0.4351E-02  0.3751E-01  0.2108E-01  0.0000E+00  0.0000E+00  0.0000E+00  0.0000E+00  0.0000E+00
     -4.941  0.5171E-01  0.3376E-02  0.3461E-01  0.2147E-01  0.0000E+00  0.0000E+00  0.0000E+00  0.0000E+00  0.0000E+00
     -4.834  0.3543E-01  0.3223E-02  0.2389E-01  0.1336E-01  0.0000E+00  0.0000E+00  0.0000E+00  0.0000E+00  0.0000E+00
     -4.727  0.3071E-01  0.3199E-02  0.2434E-01  0.9435E-02  0.0000E+00  0.0000E+00  0.0000E+00  0.0000E+00  0.0000E+00
     -4.619  0.3934E-01  0.3185E-02  0.5611E-01  0.1943E-01  0.0000E+00  0.0000E+00  0.0000E+00  0.0000E+00  0.0000E+00
     -4.512  0.3424E-01  0.3020E-02  0.8397E-01  0.3357E-01  0.0000E+00  0.0000E+00  0.0000E+00  0.0000E+00  0.0000E+00
     -4.405  0.2188E-01  0.3166E-02  0.8298E-01  0.3496E-01  0.0000E+00  0.0000E+00  0.0000E+00  0.0000E+00  0.0000E+00
     -4.298  0.1938E-01  0.3087E-02  0.7515E-01  0.3949E-01  0.0000E+00  0.0000E+00  0.0000E+00  0.0000E+00  0.0000E+00
     -4.191  0.2017E-01  0.3035E-02  0.6115E-01  0.4162E-01  0.0000E+00  0.0000E+00  0.0000E+00  0.0000E+00  0.0000E+00
     -4.083  0.2197E-01  0.3808E-02  0.5926E-01  0.5039E-01  0.0000E+00  0.0000E+00  0.0000E+00  0.0000E+00  0.0000E+00
     -3.976  0.2313E-01  0.1299E-01  0.6143E-01  0.5004E-01  0.0000E+00  0.0000E+00  0.0000E+00  0.0000E+00  0.0000E+00
     -3.869  0.2417E-01  0.3957E-01  0.6582E-01  0.4936E-01  0.0000E+00  0.0000E+00  0.0000E+00  0.0000E+00  0.0000E+00
     -3.762  0.2722E-01  0.5270E-01  0.7550E-01  0.5737E-01  0.0000E+00  0.0000E+00  0.0000E+00  0.0000E+00  0.0000E+00
     -3.654  0.4298E-01  0.6053E-01  0.1084E+00  0.1003E+00  0.0000E+00  0.0000E+00  0.0000E+00  0.0000E+00  0.0000E+00
     -3.547  0.7051E-01  0.3964E-01  0.1546E+00  0.1649E+00  0.0000E+00  0.0000E+00  0.0000E+00  0.0000E+00  0.0000E+00
     -3.440  0.6646E-01  0.2438E-01  0.1180E+00  0.1384E+00  0.0000E+00  0.0000E+00  0.0000E+00  0.0000E+00  0.0000E+00
     -3.333  0.3594E-01  0.2506E-01  0.6613E-01  0.5973E-01  0.0000E+00  0.0000E+00  0.0000E+00  0.0000E+00  0.0000E+00
     -3.226  0.2978E-01  0.6930E-01  0.6578E-01  0.3001E-01  0.0000E+00  0.0000E+00  0.0000E+00  0.0000E+00  0.0000E+00
     -3.118  0.3709E-01  0.1328E+00  0.4060E-01  0.2679E-01  0.0000E+00  0.0000E+00  0.0000E+00  0.0000E+00  0.0000E+00
     -3.011  0.3353E-01  0.6799E-01  0.1248E-01  0.2570E-01  0.0000E+00  0.0000E+00  0.0000E+00  0.0000E+00  0.0000E+00
     -2.904  0.4195E-01  0.1753E-01  0.1050E-01  0.2877E-01  0.0000E+00  0.0000E+00  0.0000E+00  0.0000E+00  0.0000E+00
     -2.797  0.4616E-01  0.1555E-01  0.1175E-01  0.3204E-01  0.0000E+00  0.0000E+00  0.0000E+00  0.0000E+00  0.0000E+00
     -2.689  0.4636E-01  0.2417E-01  0.1339E-01  0.3832E-01  0.0000E+00  0.0000E+00  0.0000E+00  0.0000E+00  0.0000E+00
     -2.582  0.5029E-01  0.2240E-01  0.1314E-01  0.4728E-01  0.0000E+00  0.0000E+00  0.0000E+00  0.0000E+00  0.0000E+00
     -2.475  0.4116E-01  0.1087E-01  0.8719E-02  0.3777E-01  0.0000E+00  0.0000E+00  0.0000E+00  0.0000E+00  0.0000E+00
     -2.368  0.5199E-01  0.8581E-02  0.1165E-01  0.3873E-01  0.0000E+00  0.0000E+00  0.0000E+00  0.0000E+00  0.0000E+00
     -2.261  0.4381E-01  0.1617E-01  0.1173E-01  0.4247E-01  0.0000E+00  0.0000E+00  0.0000E+00  0.0000E+00  0.0000E+00
     -2.153  0.3451E-01  0.3905E-01  0.1047E-01  0.6087E-01  0.0000E+00  0.0000E+00  0.0000E+00  0.0000E+00  0.0000E+00
     -2.046  0.5569E-01  0.3914E-01  0.2539E-01  0.1194E+00  0.0000E+00  0.0000E+00  0.0000E+00  0.0000E+00  0.0000E+00
     -1.939  0.5115E-01  0.2735E-01  0.5210E-01  0.1353E+00  0.0000E+00  0.0000E+00  0.0000E+00  0.0000E+00  0.0000E+00
     -1.832  0.2546E-01  0.5481E-01  0.7400E-01  0.1166E+00  0.0000E+00  0.0000E+00  0.0000E+00  0.0000E+00  0.0000E+00
     -1.724  0.1675E-01  0.1262E+00  0.6822E-01  0.9146E-01  0.0000E+00  0.0000E+00  0.0000E+00  0.0000E+00  0.0000E+00
     -1.617  0.1568E-01  0.1386E+00  0.6700E-01  0.9728E-01  0.0000E+00  0.0000E+00  0.0000E+00  0.0000E+00  0.0000E+00
     -1.510  0.1550E-01  0.9846E-01  0.6197E-01  0.1385E+00  0.0000E+00  0.0000E+00  0.0000E+00  0.0000E+00  0.0000E+00
     -1.403  0.1186E-01  0.6566E-01  0.4840E-01  0.1530E+00  0.0000E+00  0.0000E+00  0.0000E+00  0.0000E+00  0.0000E+00
     -1.296  0.8900E-02  0.3356E-01  0.3586E-01  0.1374E+00  0.0000E+00  0.0000E+00  0.0000E+00  0.0000E+00  0.0000E+00
     -1.188  0.1116E-01  0.2194E-01  0.3342E-01  0.1294E+00  0.0000E+00  0.0000E+00  0.0000E+00  0.0000E+00  0.0000E+00
     -1.081  0.1710E-01  0.1643E-01  0.3501E-01  0.1501E+00  0.0000E+00  0.0000E+00  0.0000E+00  0.0000E+00  0.0000E+00
     -0.974  0.1866E-01  0.1629E-01  0.3074E-01  0.1209E+00  0.0000E+00  0.0000E+00  0.0000E+00  0.0000E+00  0.0000E+00
     -0.867  0.1679E-01  0.1935E-01  0.2336E-01  0.3470E-01  0.0000E+00  0.0000E+00  0.0000E+00  0.0000E+00  0.0000E+00
     -0.759  0.3982E-01  0.1326E-01  0.2635E-01  0.1007E-01  0.0000E+00  0.0000E+00  0.0000E+00  0.0000E+00  0.0000E+00
     -0.652  0.6962E-01  0.1106E-01  0.3436E-01  0.1073E-01  0.0000E+00  0.0000E+00  0.0000E+00  0.0000E+00  0.0000E+00
     -0.545  0.4766E-01  0.2294E-01  0.3406E-01  0.1261E-01  0.0000E+00  0.0000E+00  0.0000E+00  0.0000E+00  0.0000E+00
     -0.438  0.2289E-01  0.4653E-01  0.3286E-01  0.1379E-01  0.0000E+00  0.0000E+00  0.0000E+00  0.0000E+00  0.0000E+00
     -0.331  0.1623E-01  0.7856E-01  0.3741E-01  0.1494E-01  0.0000E+00  0.0000E+00  0.0000E+00  0.0000E+00  0.0000E+00
     -0.223  0.1541E-01  0.1059E+00  0.5125E-01  0.1589E-01  0.0000E+00  0.0000E+00  0.0000E+00  0.0000E+00  0.0000E+00
     -0.116  0.1542E-01  0.9488E-01  0.6853E-01  0.1596E-01  0.0000E+00  0.0000E+00  0.0000E+00  0.0000E+00  0.0000E+00
     -0.009  0.1579E-01  0.1146E+00  0.5900E-01  0.2138E-01  0.0000E+00  0.0000E+00  0.0000E+00  0.0000E+00  0.0000E+00
      0.098  0.3518E-01  0.1510E+00  0.6080E-01  0.4949E-01  0.0000E+00  0.0000E+00  0.0000E+00  0.0000E+00  0.0000E+00
      0.206  0.5744E-01  0.1449E+00  0.6902E-01  0.8418E-01  0.0000E+00  0.0000E+00  0.0000E+00  0.0000E+00  0.0000E+00
      0.313  0.6729E-01  0.1366E+00  0.8449E-01  0.1086E+00  0.0000E+00  0.0000E+00  0.0000E+00  0.0000E+00  0.0000E+00
      0.420  0.4618E-01  0.9355E-01  0.5849E-01  0.7980E-01  0.0000E+00  0.0000E+00  0.0000E+00  0.0000E+00  0.0000E+00
      0.527  0.1362E-01  0.3486E-01  0.3386E-01  0.4074E-01  0.0000E+00  0.0000E+00  0.0000E+00  0.0000E+00  0.0000E+00
      0.634  0.9437E-02  0.1136E-01  0.4728E-01  0.3094E-01  0.0000E+00  0.0000E+00  0.0000E+00  0.0000E+00  0.0000E+00
      0.742  0.1001E-01  0.1091E-01  0.5697E-01  0.2688E-01  0.0000E+00  0.0000E+00  0.0000E+00  0.0000E+00  0.0000E+00
      0.849  0.8776E-02  0.1915E-01  0.4995E-01  0.2590E-01  0.0000E+00  0.0000E+00  0.0000E+00  0.0000E+00  0.0000E+00
      0.956  0.1078E-01  0.1759E-01  0.7431E-01  0.3874E-01  0.0000E+00  0.0000E+00  0.0000E+00  0.0000E+00  0.0000E+00
      1.063  0.1823E-01  0.1459E-01  0.1313E+00  0.7632E-01  0.0000E+00  0.0000E+00  0.0000E+00  0.0000E+00  0.0000E+00
      1.171  0.1530E-01  0.1357E-01  0.1031E+00  0.6789E-01  0.0000E+00  0.0000E+00  0.0000E+00  0.0000E+00  0.0000E+00
      1.278  0.4747E-02  0.2397E-01  0.2851E-01  0.2236E-01  0.0000E+00  0.0000E+00  0.0000E+00  0.0000E+00  0.0000E+00
      1.385  0.1692E-02  0.4867E-01  0.8546E-02  0.9312E-02  0.0000E+00  0.0000E+00  0.0000E+00  0.0000E+00  0.0000E+00
      1.492  0.1404E-02  0.5646E-01  0.7313E-02  0.8589E-02  0.0000E+00  0.0000E+00  0.0000E+00  0.0000E+00  0.0000E+00
      1.599  0.1270E-02  0.6405E-01  0.7085E-02  0.8499E-02  0.0000E+00  0.0000E+00  0.0000E+00  0.0000E+00  0.0000E+00
      1.707  0.1113E-02  0.7914E-01  0.6660E-02  0.8002E-02  0.0000E+00  0.0000E+00  0.0000E+00  0.0000E+00  0.0000E+00
      1.814  0.1093E-02  0.8326E-01  0.6764E-02  0.8215E-02  0.0000E+00  0.0000E+00  0.0000E+00  0.0000E+00  0.0000E+00
      1.921  0.1016E-02  0.7945E-01  0.6461E-02  0.7601E-02  0.0000E+00  0.0000E+00  0.0000E+00  0.0000E+00  0.0000E+00
      2.028  0.1060E-02  0.7347E-01  0.6682E-02  0.7709E-02  0.0000E+00  0.0000E+00  0.0000E+00  0.0000E+00  0.0000E+00
      2.136  0.1204E-02  0.7236E-01  0.7000E-02  0.7361E-02  0.0000E+00  0.0000E+00  0.0000E+00  0.0000E+00  0.0000E+00
      2.243  0.2074E-02  0.6190E-01  0.9184E-02  0.7356E-02  0.0000E+00  0.0000E+00  0.0000E+00  0.0000E+00  0.0000E+00
      2.350  0.3387E-02  0.5812E-01  0.1286E-01  0.7644E-02  0.0000E+00  0.0000E+00  0.0000E+00  0.0000E+00  0.0000E+00
      2.457  0.4637E-02  0.6867E-01  0.1586E-01  0.6715E-02  0.0000E+00  0.0000E+00  0.0000E+00  0.0000E+00  0.0000E+00
      2.564  0.3876E-02  0.6423E-01  0.1437E-01  0.6051E-02  0.0000E+00  0.0000E+00  0.0000E+00  0.0000E+00  0.0000E+00