 running   24 mpi-ranks, with    1 threads/rank, on    1 nodes
 distrk:  each k-point on   24 cores,    1 groups
 distr:  one band on    1 cores,   24 groups
 vasp.6.4.3 19Mar24 (build May 31 2024 16:31:43) complex                        
  
 POSCAR found type information on POSCAR B 
 POSCAR found :  1 types and      14 ions
 Reading from existing POTCAR
 scaLAPACK will be used
 Reading from existing POTCAR
 LDA part: xc-table for (Slater+PW92), standard interpolation
 WARNING: stress and forces are not correct
 POSCAR, INCAR and KPOINTS ok, starting setup
 FFT: planning ... GRIDC
 FFT: planning ... GRID_SOFT
 FFT: planning ... GRID
 WAVECAR not read
 charge-density read from file: BS                                      
 entering main loop
       N       E                     dE             d eps       ncg     rms          rms(c)
DAV:   1     0.724092279023E+02    0.72409E+02   -0.19649E+04 16128   0.861E+02
DAV:   2    -0.852564412710E+02   -0.15767E+03   -0.14656E+03 22320   0.159E+02
DAV:   3    -0.905241183560E+02   -0.52677E+01   -0.52393E+01 23496   0.257E+01
DAV:   4    -0.905498836981E+02   -0.25765E-01   -0.25764E-01 19632   0.205E+00
DAV:   5    -0.905501117624E+02   -0.22806E-03   -0.22806E-03 23544   0.185E-01
DAV:   6    -0.905501145240E+02   -0.27617E-05   -0.27616E-05 18792   0.204E-02
DAV:   7    -0.905501145617E+02   -0.37652E-07   -0.37701E-07 23064   0.234E-03
   1 F= -.92512411E+02 E0= -.92504435E+02  d E =-.159523E-01
 writing wavefunctions
