  14  14   0   0
  0.1024107E+02  0.5700988E-09  0.4050734E-09  0.6208543E-09  0.5000000E-15
  1.000000000000000E-004
  CAR 
 Convergence                             
     17.93908430    -14.18252396  301      1.87189327      1.00000000
    -14.183  0.0000E+00  0.0000E+00
    -14.075  0.0000E+00  0.0000E+00
    -13.968  0.0000E+00  0.0000E+00
    -13.861  0.0000E+00  0.0000E+00
    -13.754  0.0000E+00  0.0000E+00
    -13.647  0.0000E+00  0.0000E+00
    -13.540  0.0000E+00  0.0000E+00
    -13.433  0.0000E+00  0.0000E+00
    -13.326  0.0000E+00  0.0000E+00
    -13.219  0.0000E+00  0.0000E+00
    -13.112  0.0000E+00  0.0000E+00
    -13.005  0.4938E-16  0.5287E-17
    -12.898  0.3069E-07  0.3287E-08
    -12.791  0.3850E-02  0.4122E-03
    -12.684  0.5094E+00  0.5495E-01
    -12.576  0.2393E+01  0.3111E+00
    -12.469  0.3569E+01  0.6933E+00
    -12.362  0.4375E+01  0.1162E+01
    -12.255  0.3539E+01  0.1541E+01
    -12.148  0.2736E+01  0.1834E+01
    -12.041  0.2753E+01  0.2128E+01
    -11.934  0.2502E+01  0.2396E+01
    -11.827  0.2772E+01  0.2693E+01
    -11.720  0.3419E+01  0.3059E+01
    -11.613  0.3536E+01  0.3438E+01
    -11.506  0.3127E+01  0.3773E+01
    -11.399  0.1683E+01  0.3953E+01
    -11.292  0.4327E+00  0.3999E+01
    -11.185  0.7919E-02  0.4000E+01
    -11.077  0.2147E-06  0.4000E+01
    -10.970  0.1330E-14  0.4000E+01
    -10.863  0.0000E+00  0.4000E+01
    -10.756  0.0000E+00  0.4000E+01
    -10.649  0.0000E+00  0.4000E+01
    -10.542  0.0000E+00  0.4000E+01
    -10.435  0.0000E+00  0.4000E+01
    -10.328  0.0000E+00  0.4000E+01
    -10.221  0.0000E+00  0.4000E+01
    -10.114  0.0000E+00  0.4000E+01
    -10.007  0.0000E+00  0.4000E+01
     -9.900  0.0000E+00  0.4000E+01
     -9.793  0.0000E+00  0.4000E+01
     -9.685  0.0000E+00  0.4000E+01
     -9.578  0.0000E+00  0.4000E+01
     -9.471  0.0000E+00  0.4000E+01
     -9.364  0.0000E+00  0.4000E+01
     -9.257  0.0000E+00  0.4000E+01
     -9.150  0.0000E+00  0.4000E+01
     -9.043  0.1015E-08  0.4000E+01
     -8.936  0.6423E-03  0.4000E+01
     -8.829  0.2791E+00  0.4030E+01
     -8.722  0.2102E+01  0.4255E+01
     -8.615  0.5356E+01  0.4828E+01
     -8.508  0.7002E+01  0.5578E+01
     -8.401  0.6290E+01  0.6252E+01
     -8.294  0.5328E+01  0.6822E+01
     -8.186  0.4842E+01  0.7340E+01
     -8.079  0.3867E+01  0.7755E+01
     -7.972  0.1664E+01  0.7933E+01
     -7.865  0.5767E+00  0.7994E+01
     -7.758  0.5198E-01  0.8000E+01
     -7.651  0.2433E-04  0.8000E+01
     -7.544  0.2823E-11  0.8000E+01
     -7.437  0.0000E+00  0.8000E+01
     -7.330  0.0000E+00  0.8000E+01
     -7.223  0.0000E+00  0.8000E+01
     -7.116  0.4484E-09  0.8000E+01
     -7.009  0.3771E-03  0.8000E+01
     -6.902  0.1113E+00  0.8012E+01
     -6.795  0.2587E+00  0.8040E+01
     -6.687  0.4252E+00  0.8085E+01
     -6.580  0.7663E+00  0.8167E+01
     -6.473  0.8477E+00  0.8258E+01
     -6.366  0.1438E+01  0.8412E+01
     -6.259  0.1948E+01  0.8621E+01
     -6.152  0.3054E+01  0.8948E+01
     -6.045  0.3792E+01  0.9354E+01
     -5.938  0.4119E+01  0.9795E+01
     -5.831  0.4050E+01  0.1023E+02
     -5.724  0.3875E+01  0.1064E+02
     -5.617  0.4075E+01  0.1108E+02
     -5.510  0.4219E+01  0.1153E+02
     -5.403  0.4557E+01  0.1202E+02
     -5.296  0.4613E+01  0.1251E+02
     -5.188  0.4495E+01  0.1299E+02
     -5.081  0.3877E+01  0.1341E+02
     -4.974  0.3224E+01  0.1375E+02
     -4.867  0.2965E+01  0.1407E+02
     -4.760  0.2320E+01  0.1432E+02
     -4.653  0.2897E+01  0.1463E+02
     -4.546  0.3371E+01  0.1499E+02
     -4.439  0.3458E+01  0.1536E+02
     -4.332  0.3349E+01  0.1572E+02
     -4.225  0.2959E+01  0.1604E+02
     -4.118  0.2910E+01  0.1635E+02
     -4.011  0.2937E+01  0.1666E+02
     -3.904  0.2873E+01  0.1697E+02
     -3.797  0.3112E+01  0.1730E+02
     -3.689  0.2888E+01  0.1761E+02
     -3.582  0.2706E+01  0.1790E+02
     -3.475  0.3073E+01  0.1823E+02
     -3.368  0.2650E+01  0.1852E+02
     -3.261  0.2844E+01  0.1882E+02
     -3.154  0.2772E+01  0.1912E+02
     -3.047  0.2724E+01  0.1941E+02
     -2.940  0.3066E+01  0.1974E+02
     -2.833  0.2981E+01  0.2006E+02
     -2.726  0.2439E+01  0.2032E+02
     -2.619  0.2646E+01  0.2060E+02
     -2.512  0.3016E+01  0.2092E+02
     -2.405  0.2996E+01  0.2124E+02
     -2.298  0.3187E+01  0.2159E+02
     -2.190  0.4003E+01  0.2201E+02
     -2.083  0.3657E+01  0.2241E+02
     -1.976  0.3240E+01  0.2275E+02
     -1.869  0.5051E+01  0.2329E+02
     -1.762  0.5549E+01  0.2389E+02
     -1.655  0.5631E+01  0.2449E+02
     -1.548  0.6177E+01  0.2515E+02
     -1.441  0.6132E+01  0.2581E+02
     -1.334  0.5595E+01  0.2641E+02
     -1.227  0.4684E+01  0.2691E+02
     -1.120  0.6495E+01  0.2761E+02
     -1.013  0.4087E+01  0.2804E+02
     -0.906  0.2279E+01  0.2829E+02
     -0.799  0.2703E+01  0.2858E+02
     -0.691  0.2881E+01  0.2888E+02
     -0.584  0.4469E+01  0.2936E+02
     -0.477  0.6839E+01  0.3010E+02
     -0.370  0.5670E+01  0.3070E+02
     -0.263  0.6668E+01  0.3142E+02
     -0.156  0.6371E+01  0.3210E+02
     -0.049  0.6740E+01  0.3282E+02
      0.058  0.6802E+01  0.3355E+02
      0.165  0.6265E+01  0.3422E+02
      0.272  0.8823E+01  0.3516E+02
      0.379  0.8050E+01  0.3603E+02
      0.486  0.8687E+01  0.3696E+02
      0.593  0.5328E+01  0.3753E+02
      0.700  0.2979E+01  0.3785E+02
      0.808  0.3257E+01  0.3819E+02
      0.915  0.3590E+01  0.3858E+02
      1.022  0.3575E+01  0.3896E+02
      1.129  0.2800E+01  0.3926E+02
      1.236  0.3375E+01  0.3962E+02
      1.343  0.4486E+01  0.4010E+02
      1.450  0.3802E+01  0.4051E+02
      1.557  0.3709E+01  0.4091E+02
      1.664  0.4585E+01  0.4140E+02
      1.771  0.3300E+01  0.4175E+02
      1.878  0.2477E+01  0.4202E+02
      1.985  0.2672E+01  0.4230E+02
      2.092  0.2094E+01  0.4253E+02
      2.199  0.2650E+01  0.4281E+02
      2.307  0.2594E+01  0.4309E+02
      2.414  0.1960E+01  0.4330E+02
      2.521  0.8808E+00  0.4339E+02
      2.628  0.3788E+00  0.4343E+02
      2.735  0.5744E+00  0.4349E+02
      2.842  0.4204E+00  0.4354E+02
      2.949  0.3055E+00  0.4357E+02
      3.056  0.7448E+00  0.4365E+02
      3.163  0.1020E+01  0.4376E+02
      3.270  0.5553E+00  0.4382E+02
      3.377  0.1493E-01  0.4382E+02
      3.484  0.1250E+00  0.4384E+02
      3.591  0.3939E+00  0.4388E+02
      3.699  0.3354E+00  0.4391E+02
      3.806  0.3680E+00  0.4395E+02
      3.913  0.4083E+00  0.4400E+02
      4.020  0.2929E-01  0.4400E+02
      4.127  0.1505E-04  0.4400E+02
      4.234  0.2384E-01  0.4400E+02
      4.341  0.1695E+00  0.4402E+02
      4.448  0.3934E+00  0.4406E+02
      4.555  0.4584E+00  0.4411E+02
      4.662  0.6258E+00  0.4418E+02
      4.769  0.8796E+00  0.4427E+02
      4.876  0.8387E+00  0.4436E+02
      4.983  0.8613E+00  0.4446E+02
      5.090  0.1264E+01  0.4459E+02
      5.198  0.1167E+01  0.4472E+02
      5.305  0.1611E+01  0.4489E+02
      5.412  0.2164E+01  0.4512E+02
      5.519  0.2495E+01  0.4539E+02
      5.626  0.2793E+01  0.4569E+02
      5.733  0.3329E+01  0.4604E+02
      5.840  0.3243E+01  0.4639E+02
      5.947  0.4274E+01  0.4685E+02
      6.054  0.4788E+01  0.4736E+02
      6.161  0.4066E+01  0.4780E+02
      6.268  0.4613E+01  0.4829E+02
      6.375  0.4220E+01  0.4874E+02
      6.482  0.3986E+01  0.4917E+02
      6.589  0.4505E+01  0.4965E+02
      6.697  0.3242E+01  0.5000E+02
      6.804  0.3978E+01  0.5042E+02
      6.911  0.4609E+01  0.5092E+02
      7.018  0.4571E+01  0.5141E+02
      7.125  0.4340E+01  0.5187E+02
      7.232  0.5587E+01  0.5247E+02
      7.339  0.4962E+01  0.5300E+02
      7.446  0.4469E+01  0.5348E+02
      7.553  0.4214E+01  0.5393E+02
      7.660  0.3581E+01  0.5431E+02
      7.767  0.3114E+01  0.5465E+02
      7.874  0.3022E+01  0.5497E+02
      7.981  0.2972E+01  0.5529E+02
      8.088  0.4163E+01  0.5573E+02
      8.196  0.3908E+01  0.5615E+02
      8.303  0.3719E+01  0.5655E+02
      8.410  0.4002E+01  0.5698E+02
      8.517  0.4235E+01  0.5743E+02
      8.624  0.4478E+01  0.5791E+02
      8.731  0.4257E+01  0.5837E+02
      8.838  0.5309E+01  0.5894E+02
      8.945  0.4871E+01  0.5946E+02
      9.052  0.5288E+01  0.6002E+02
      9.159  0.5231E+01  0.6058E+02
      9.266  0.4994E+01  0.6112E+02
      9.373  0.4676E+01  0.6162E+02
      9.480  0.4388E+01  0.6209E+02
      9.587  0.5098E+01  0.6264E+02
      9.695  0.5033E+01  0.6317E+02
      9.802  0.5292E+01  0.6374E+02
      9.909  0.4489E+01  0.6422E+02
     10.016  0.3662E+01  0.6461E+02
     10.123  0.5185E+01  0.6517E+02
     10.230  0.4720E+01  0.6567E+02
     10.337  0.4141E+01  0.6612E+02
     10.444  0.5373E+01  0.6669E+02
     10.551  0.5823E+01  0.6732E+02
     10.658  0.4075E+01  0.6775E+02
     10.765  0.3900E+01  0.6817E+02
     10.872  0.3259E+01  0.6852E+02
     10.979  0.4679E+01  0.6902E+02
     11.086  0.5446E+01  0.6960E+02
     11.194  0.6242E+01  0.7027E+02
     11.301  0.6002E+01  0.7091E+02
     11.408  0.5237E+01  0.7148E+02
     11.515  0.4361E+01  0.7194E+02
     11.622  0.4475E+01  0.7242E+02
     11.729  0.4958E+01  0.7295E+02
     11.836  0.4816E+01  0.7347E+02
     11.943  0.6016E+01  0.7411E+02
     12.050  0.5987E+01  0.7475E+02
     12.157  0.6030E+01  0.7540E+02
     12.264  0.5582E+01  0.7600E+02
     12.371  0.4999E+01  0.7653E+02
     12.478  0.5707E+01  0.7714E+02
     12.585  0.5977E+01  0.7778E+02
     12.693  0.5981E+01  0.7842E+02
     12.800  0.5921E+01  0.7906E+02
     12.907  0.5877E+01  0.7969E+02
     13.014  0.5610E+01  0.8029E+02
     13.121  0.6348E+01  0.8097E+02
     13.228  0.6291E+01  0.8164E+02
     13.335  0.5424E+01  0.8222E+02
     13.442  0.6127E+01  0.8288E+02
     13.549  0.5390E+01  0.8345E+02
     13.656  0.4825E+01  0.8397E+02
     13.763  0.6159E+01  0.8463E+02
     13.870  0.5521E+01  0.8522E+02
     13.977  0.5358E+01  0.8580E+02
     14.084  0.5477E+01  0.8638E+02
     14.192  0.4680E+01  0.8688E+02
     14.299  0.4937E+01  0.8741E+02
     14.406  0.4989E+01  0.8795E+02
     14.513  0.4951E+01  0.8848E+02
     14.620  0.5274E+01  0.8904E+02
     14.727  0.5184E+01  0.8960E+02
     14.834  0.4096E+01  0.9003E+02
     14.941  0.5047E+01  0.9057E+02
     15.048  0.6164E+01  0.9123E+02
     15.155  0.5672E+01  0.9184E+02
     15.262  0.5700E+01  0.9245E+02
     15.369  0.6013E+01  0.9310E+02
     15.476  0.5753E+01  0.9371E+02
     15.583  0.5983E+01  0.9435E+02
     15.691  0.4610E+01  0.9485E+02
     15.798  0.2492E+01  0.9511E+02
     15.905  0.2708E+01  0.9540E+02
     16.012  0.1852E+01  0.9560E+02
     16.119  0.1139E+01  0.9572E+02
     16.226  0.8957E+00  0.9582E+02
     16.333  0.6951E+00  0.9589E+02
     16.440  0.8140E+00  0.9598E+02
     16.547  0.1784E+00  0.9600E+02
     16.654  0.1699E-02  0.9600E+02
     16.761  0.2140E-07  0.9600E+02
     16.868  0.3950E-16  0.9600E+02
     16.975  0.0000E+00  0.9600E+02
     17.083  0.0000E+00  0.9600E+02
     17.190  0.0000E+00  0.9600E+02
     17.297  0.0000E+00  0.9600E+02
     17.404  0.0000E+00  0.9600E+02
     17.511  0.0000E+00  0.9600E+02
     17.618  0.0000E+00  0.9600E+02
     17.725  0.0000E+00  0.9600E+02
     17.832  0.0000E+00  0.9600E+02
     17.939  0.0000E+00  0.9600E+02
