<?xml version="1.0" encoding="ISO-8859-1"?>
<modeling>
 <generator>
  <i name="program" type="string">vasp </i>
  <i name="version" type="string">6.4.3  </i>
  <i name="subversion" type="string">19Mar24 (build May 31 2024 16:31:43) complex                          parallel </i>
  <i name="platform" type="string">LinuxIFC </i>
  <i name="date" type="string">2024 11 05 </i>
  <i name="time" type="string">22:26:57 </i>
 </generator>
 <incar>
  <i type="string" name="SYSTEM">Convergence</i>
  <i type="int" name="ISTART">     0</i>
  <i type="string" name="PREC">Accurate</i>
  <i type="string" name="ALGO">Normal</i>
  <i type="int" name="ISPIN">     1</i>
  <i type="int" name="ICHARG">     2</i>
  <i type="int" name="NELM">   100</i>
  <i type="int" name="IBRION">    -1</i>
  <i name="EDIFF">      0.00000100</i>
  <i name="EDIFFG">     -0.00100000</i>
  <i type="int" name="NSW">     0</i>
  <i type="int" name="ISIF">     2</i>
  <i name="ENCUT">    600.00000000</i>
  <i name="POTIM">      0.50000000</i>
  <i type="int" name="ISMEAR">     0</i>
  <i name="SIGMA">      0.05000000</i>
  <i type="logical" name="LWAVE"> F  </i>
  <i type="logical" name="LCHARG"> F  </i>
  <i type="string" name="GGA">PE</i>
 </incar>
 <primitive_cell>
  <structure name="primitive_cell" >
   <crystal>
    <varray name="basis" >
     <v>       5.70098790       0.00000000       0.00000000 </v>
     <v>       0.00000000       4.05073353       0.00000000 </v>
     <v>       0.00000000       0.00000000       6.20854294 </v>
    </varray>
    <i name="volume">    143.37501729 </i>
    <varray name="rec_basis" >
     <v>       0.17540820       0.00000000       0.00000000 </v>
     <v>       0.00000000       0.24686887       0.00000000 </v>
     <v>       0.00000000       0.00000000       0.16106839 </v>
    </varray>
   </crystal>
   <varray name="positions" >
    <v>       0.52123000       0.50000000       0.63796000 </v>
    <v>       0.47877000       0.50000000       0.36204000 </v>
    <v>       0.97877000       0.50000000       0.63796000 </v>
    <v>       0.02123000       0.50000000       0.36204000 </v>
    <v>       0.60090000       0.50000000       0.89991000 </v>
    <v>       0.39910000       0.50000000       0.10009000 </v>
    <v>       0.89910000       0.50000000       0.89991000 </v>
    <v>       0.10090000       0.50000000       0.10009000 </v>
    <v>       0.75000000       0.79171000       0.72973000 </v>
    <v>       0.25000000       0.20829000       0.27027000 </v>
    <v>       0.75000000       0.20829000       0.72973000 </v>
    <v>       0.25000000       0.79171000       0.27027000 </v>
    <v>       0.25000000       0.50000000       0.52367000 </v>
    <v>       0.75000000       0.50000000       0.47633000 </v>
   </varray>
  </structure>
  <varray name="primitive_index" >
   <v type="int" >        1 </v>
   <v type="int" >        2 </v>
   <v type="int" >        3 </v>
   <v type="int" >        4 </v>
   <v type="int" >        5 </v>
   <v type="int" >        6 </v>
   <v type="int" >        7 </v>
   <v type="int" >        8 </v>
   <v type="int" >        9 </v>
   <v type="int" >       10 </v>
   <v type="int" >       11 </v>
   <v type="int" >       12 </v>
   <v type="int" >       13 </v>
   <v type="int" >       14 </v>
  </varray>
 </primitive_cell>
 <kpoints>
  <generation param="Monkhorst-Pack">
   <v type="int" name="divisions">      10       14        9 </v>
   <v name="usershift">      0.00000000       0.00000000       0.00000000 </v>
   <v name="genvec1">      0.10000000       0.00000000       0.00000000 </v>
   <v name="genvec2">      0.00000000       0.07142857       0.00000000 </v>
   <v name="genvec3">      0.00000000       0.00000000       0.11111111 </v>
   <v name="shift">      0.50000000       0.50000000       0.00000000 </v>
  </generation>
  <varray name="kpointlist" >
   <v>       0.05000000       0.03571429       0.00000000 </v>
   <v>       0.15000000       0.03571429       0.00000000 </v>
   <v>       0.25000000       0.03571429       0.00000000 </v>
   <v>       0.35000000       0.03571429       0.00000000 </v>
   <v>       0.45000000       0.03571429       0.00000000 </v>
   <v>       0.05000000       0.10714286       0.00000000 </v>
   <v>       0.15000000       0.10714286       0.00000000 </v>
   <v>       0.25000000       0.10714286       0.00000000 </v>
   <v>       0.35000000       0.10714286       0.00000000 </v>
   <v>       0.45000000       0.10714286       0.00000000 </v>
   <v>       0.05000000       0.17857143       0.00000000 </v>
   <v>       0.15000000       0.17857143       0.00000000 </v>
   <v>       0.25000000       0.17857143       0.00000000 </v>
   <v>       0.35000000       0.17857143       0.00000000 </v>
   <v>       0.45000000       0.17857143       0.00000000 </v>
   <v>       0.05000000       0.25000000       0.00000000 </v>
   <v>       0.15000000       0.25000000       0.00000000 </v>
   <v>       0.25000000       0.25000000       0.00000000 </v>
   <v>       0.35000000       0.25000000       0.00000000 </v>
   <v>       0.45000000       0.25000000       0.00000000 </v>
   <v>       0.05000000       0.32142857       0.00000000 </v>
   <v>       0.15000000       0.32142857       0.00000000 </v>
   <v>       0.25000000       0.32142857       0.00000000 </v>
   <v>       0.35000000       0.32142857       0.00000000 </v>
   <v>       0.45000000       0.32142857       0.00000000 </v>
   <v>       0.05000000       0.39285714       0.00000000 </v>
   <v>       0.15000000       0.39285714       0.00000000 </v>
   <v>       0.25000000       0.39285714       0.00000000 </v>
   <v>       0.35000000       0.39285714       0.00000000 </v>
   <v>       0.45000000       0.39285714       0.00000000 </v>
   <v>       0.05000000       0.46428571       0.00000000 </v>
   <v>       0.15000000       0.46428571       0.00000000 </v>
   <v>       0.25000000       0.46428571       0.00000000 </v>
   <v>       0.35000000       0.46428571       0.00000000 </v>
   <v>       0.45000000       0.46428571       0.00000000 </v>
   <v>       0.05000000       0.03571429       0.11111111 </v>
   <v>       0.15000000       0.03571429       0.11111111 </v>
   <v>       0.25000000       0.03571429       0.11111111 </v>
   <v>       0.35000000       0.03571429       0.11111111 </v>
   <v>       0.45000000       0.03571429       0.11111111 </v>
   <v>       0.05000000       0.10714286       0.11111111 </v>
   <v>       0.15000000       0.10714286       0.11111111 </v>
   <v>       0.25000000       0.10714286       0.11111111 </v>
   <v>       0.35000000       0.10714286       0.11111111 </v>
   <v>       0.45000000       0.10714286       0.11111111 </v>
   <v>       0.05000000       0.17857143       0.11111111 </v>
   <v>       0.15000000       0.17857143       0.11111111 </v>
   <v>       0.25000000       0.17857143       0.11111111 </v>
   <v>       0.35000000       0.17857143       0.11111111 </v>
   <v>       0.45000000       0.17857143       0.11111111 </v>
   <v>       0.05000000       0.25000000       0.11111111 </v>
   <v>       0.15000000       0.25000000       0.11111111 </v>
   <v>       0.25000000       0.25000000       0.11111111 </v>
   <v>       0.35000000       0.25000000       0.11111111 </v>
   <v>       0.45000000       0.25000000       0.11111111 </v>
   <v>       0.05000000       0.32142857       0.11111111 </v>
   <v>       0.15000000       0.32142857       0.11111111 </v>
   <v>       0.25000000       0.32142857       0.11111111 </v>
   <v>       0.35000000       0.32142857       0.11111111 </v>
   <v>       0.45000000       0.32142857       0.11111111 </v>
   <v>       0.05000000       0.39285714       0.11111111 </v>
   <v>       0.15000000       0.39285714       0.11111111 </v>
   <v>       0.25000000       0.39285714       0.11111111 </v>
   <v>       0.35000000       0.39285714       0.11111111 </v>
   <v>       0.45000000       0.39285714       0.11111111 </v>
   <v>       0.05000000       0.46428571       0.11111111 </v>
   <v>       0.15000000       0.46428571       0.11111111 </v>
   <v>       0.25000000       0.46428571       0.11111111 </v>
   <v>       0.35000000       0.46428571       0.11111111 </v>
   <v>       0.45000000       0.46428571       0.11111111 </v>
   <v>       0.05000000       0.03571429       0.22222222 </v>
   <v>       0.15000000       0.03571429       0.22222222 </v>
   <v>       0.25000000       0.03571429       0.22222222 </v>
   <v>       0.35000000       0.03571429       0.22222222 </v>
   <v>       0.45000000       0.03571429       0.22222222 </v>
   <v>       0.05000000       0.10714286       0.22222222 </v>
   <v>       0.15000000       0.10714286       0.22222222 </v>
   <v>       0.25000000       0.10714286       0.22222222 </v>
   <v>       0.35000000       0.10714286       0.22222222 </v>
   <v>       0.45000000       0.10714286       0.22222222 </v>
   <v>       0.05000000       0.17857143       0.22222222 </v>
   <v>       0.15000000       0.17857143       0.22222222 </v>
   <v>       0.25000000       0.17857143       0.22222222 </v>
   <v>       0.35000000       0.17857143       0.22222222 </v>
   <v>       0.45000000       0.17857143       0.22222222 </v>
   <v>       0.05000000       0.25000000       0.22222222 </v>
   <v>       0.15000000       0.25000000       0.22222222 </v>
   <v>       0.25000000       0.25000000       0.22222222 </v>
   <v>       0.35000000       0.25000000       0.22222222 </v>
   <v>       0.45000000       0.25000000       0.22222222 </v>
   <v>       0.05000000       0.32142857       0.22222222 </v>
   <v>       0.15000000       0.32142857       0.22222222 </v>
   <v>       0.25000000       0.32142857       0.22222222 </v>
   <v>       0.35000000       0.32142857       0.22222222 </v>
   <v>       0.45000000       0.32142857       0.22222222 </v>
   <v>       0.05000000       0.39285714       0.22222222 </v>
   <v>       0.15000000       0.39285714       0.22222222 </v>
   <v>       0.25000000       0.39285714       0.22222222 </v>
   <v>       0.35000000       0.39285714       0.22222222 </v>
   <v>       0.45000000       0.39285714       0.22222222 </v>
   <v>       0.05000000       0.46428571       0.22222222 </v>
   <v>       0.15000000       0.46428571       0.22222222 </v>
   <v>       0.25000000       0.46428571       0.22222222 </v>
   <v>       0.35000000       0.46428571       0.22222222 </v>
   <v>       0.45000000       0.46428571       0.22222222 </v>
   <v>       0.05000000       0.03571429       0.33333333 </v>
   <v>       0.15000000       0.03571429       0.33333333 </v>
   <v>       0.25000000       0.03571429       0.33333333 </v>
   <v>       0.35000000       0.03571429       0.33333333 </v>
   <v>       0.45000000       0.03571429       0.33333333 </v>
   <v>       0.05000000       0.10714286       0.33333333 </v>
   <v>       0.15000000       0.10714286       0.33333333 </v>
   <v>       0.25000000       0.10714286       0.33333333 </v>
   <v>       0.35000000       0.10714286       0.33333333 </v>
   <v>       0.45000000       0.10714286       0.33333333 </v>
   <v>       0.05000000       0.17857143       0.33333333 </v>
   <v>       0.15000000       0.17857143       0.33333333 </v>
   <v>       0.25000000       0.17857143       0.33333333 </v>
   <v>       0.35000000       0.17857143       0.33333333 </v>
   <v>       0.45000000       0.17857143       0.33333333 </v>
   <v>       0.05000000       0.25000000       0.33333333 </v>
   <v>       0.15000000       0.25000000       0.33333333 </v>
   <v>       0.25000000       0.25000000       0.33333333 </v>
   <v>       0.35000000       0.25000000       0.33333333 </v>
   <v>       0.45000000       0.25000000       0.33333333 </v>
   <v>       0.05000000       0.32142857       0.33333333 </v>
   <v>       0.15000000       0.32142857       0.33333333 </v>
   <v>       0.25000000       0.32142857       0.33333333 </v>
   <v>       0.35000000       0.32142857       0.33333333 </v>
   <v>       0.45000000       0.32142857       0.33333333 </v>
   <v>       0.05000000       0.39285714       0.33333333 </v>
   <v>       0.15000000       0.39285714       0.33333333 </v>
   <v>       0.25000000       0.39285714       0.33333333 </v>
   <v>       0.35000000       0.39285714       0.33333333 </v>
   <v>       0.45000000       0.39285714       0.33333333 </v>
   <v>       0.05000000       0.46428571       0.33333333 </v>
   <v>       0.15000000       0.46428571       0.33333333 </v>
   <v>       0.25000000       0.46428571       0.33333333 </v>
   <v>       0.35000000       0.46428571       0.33333333 </v>
   <v>       0.45000000       0.46428571       0.33333333 </v>
   <v>       0.05000000       0.03571429       0.44444444 </v>
   <v>       0.15000000       0.03571429       0.44444444 </v>
   <v>       0.25000000       0.03571429       0.44444444 </v>
   <v>       0.35000000       0.03571429       0.44444444 </v>
   <v>       0.45000000       0.03571429       0.44444444 </v>
   <v>       0.05000000       0.10714286       0.44444444 </v>
   <v>       0.15000000       0.10714286       0.44444444 </v>
   <v>       0.25000000       0.10714286       0.44444444 </v>
   <v>       0.35000000       0.10714286       0.44444444 </v>
   <v>       0.45000000       0.10714286       0.44444444 </v>
   <v>       0.05000000       0.17857143       0.44444444 </v>
   <v>       0.15000000       0.17857143       0.44444444 </v>
   <v>       0.25000000       0.17857143       0.44444444 </v>
   <v>       0.35000000       0.17857143       0.44444444 </v>
   <v>       0.45000000       0.17857143       0.44444444 </v>
   <v>       0.05000000       0.25000000       0.44444444 </v>
   <v>       0.15000000       0.25000000       0.44444444 </v>
   <v>       0.25000000       0.25000000       0.44444444 </v>
   <v>       0.35000000       0.25000000       0.44444444 </v>
   <v>       0.45000000       0.25000000       0.44444444 </v>
   <v>       0.05000000       0.32142857       0.44444444 </v>
   <v>       0.15000000       0.32142857       0.44444444 </v>
   <v>       0.25000000       0.32142857       0.44444444 </v>
   <v>       0.35000000       0.32142857       0.44444444 </v>
   <v>       0.45000000       0.32142857       0.44444444 </v>
   <v>       0.05000000       0.39285714       0.44444444 </v>
   <v>       0.15000000       0.39285714       0.44444444 </v>
   <v>       0.25000000       0.39285714       0.44444444 </v>
   <v>       0.35000000       0.39285714       0.44444444 </v>
   <v>       0.45000000       0.39285714       0.44444444 </v>
   <v>       0.05000000       0.46428571       0.44444444 </v>
   <v>       0.15000000       0.46428571       0.44444444 </v>
   <v>       0.25000000       0.46428571       0.44444444 </v>
   <v>       0.35000000       0.46428571       0.44444444 </v>
   <v>       0.45000000       0.46428571       0.44444444 </v>
  </varray>
  <varray name="weights" >
   <v>       0.00317460 </v>
   <v>       0.00317460 </v>
   <v>       0.00317460 </v>
   <v>       0.00317460 </v>
   <v>       0.00317460 </v>
   <v>       0.00317460 </v>
   <v>       0.00317460 </v>
   <v>       0.00317460 </v>
   <v>       0.00317460 </v>
   <v>       0.00317460 </v>
   <v>       0.00317460 </v>
   <v>       0.00317460 </v>
   <v>       0.00317460 </v>
   <v>       0.00317460 </v>
   <v>       0.00317460 </v>
   <v>       0.00317460 </v>
   <v>       0.00317460 </v>
   <v>       0.00317460 </v>
   <v>       0.00317460 </v>
   <v>       0.00317460 </v>
   <v>       0.00317460 </v>
   <v>       0.00317460 </v>
   <v>       0.00317460 </v>
   <v>       0.00317460 </v>
   <v>       0.00317460 </v>
   <v>       0.00317460 </v>
   <v>       0.00317460 </v>
   <v>       0.00317460 </v>
   <v>       0.00317460 </v>
   <v>       0.00317460 </v>
   <v>       0.00317460 </v>
   <v>       0.00317460 </v>
   <v>       0.00317460 </v>
   <v>       0.00317460 </v>
   <v>       0.00317460 </v>
   <v>       0.00634921 </v>
   <v>       0.00634921 </v>
   <v>       0.00634921 </v>
   <v>       0.00634921 </v>
   <v>       0.00634921 </v>
   <v>       0.00634921 </v>
   <v>       0.00634921 </v>
   <v>       0.00634921 </v>
   <v>       0.00634921 </v>
   <v>       0.00634921 </v>
   <v>       0.00634921 </v>
   <v>       0.00634921 </v>
   <v>       0.00634921 </v>
   <v>       0.00634921 </v>
   <v>       0.00634921 </v>
   <v>       0.00634921 </v>
   <v>       0.00634921 </v>
   <v>       0.00634921 </v>
   <v>       0.00634921 </v>
   <v>       0.00634921 </v>
   <v>       0.00634921 </v>
   <v>       0.00634921 </v>
   <v>       0.00634921 </v>
   <v>       0.00634921 </v>
   <v>       0.00634921 </v>
   <v>       0.00634921 </v>
   <v>       0.00634921 </v>
   <v>       0.00634921 </v>
   <v>       0.00634921 </v>
   <v>       0.00634921 </v>
   <v>       0.00634921 </v>
   <v>       0.00634921 </v>
   <v>       0.00634921 </v>
   <v>       0.00634921 </v>
   <v>       0.00634921 </v>
   <v>       0.00634921 </v>
   <v>       0.00634921 </v>
   <v>       0.00634921 </v>
   <v>       0.00634921 </v>
   <v>       0.00634921 </v>
   <v>       0.00634921 </v>
   <v>       0.00634921 </v>
   <v>       0.00634921 </v>
   <v>       0.00634921 </v>
   <v>       0.00634921 </v>
   <v>       0.00634921 </v>
   <v>       0.00634921 </v>
   <v>       0.00634921 </v>
   <v>       0.00634921 </v>
   <v>       0.00634921 </v>
   <v>       0.00634921 </v>
   <v>       0.00634921 </v>
   <v>       0.00634921 </v>
   <v>       0.00634921 </v>
   <v>       0.00634921 </v>
   <v>       0.00634921 </v>
   <v>       0.00634921 </v>
   <v>       0.00634921 </v>
   <v>       0.00634921 </v>
   <v>       0.00634921 </v>
   <v>       0.00634921 </v>
   <v>       0.00634921 </v>
   <v>       0.00634921 </v>
   <v>       0.00634921 </v>
   <v>       0.00634921 </v>
   <v>       0.00634921 </v>
   <v>       0.00634921 </v>
   <v>       0.00634921 </v>
   <v>       0.00634921 </v>
   <v>       0.00634921 </v>
   <v>       0.00634921 </v>
   <v>       0.00634921 </v>
   <v>       0.00634921 </v>
   <v>       0.00634921 </v>
   <v>       0.00634921 </v>
   <v>       0.00634921 </v>
   <v>       0.00634921 </v>
   <v>       0.00634921 </v>
   <v>       0.00634921 </v>
   <v>       0.00634921 </v>
   <v>       0.00634921 </v>
   <v>       0.00634921 </v>
   <v>       0.00634921 </v>
   <v>       0.00634921 </v>
   <v>       0.00634921 </v>
   <v>       0.00634921 </v>
   <v>       0.00634921 </v>
   <v>       0.00634921 </v>
   <v>       0.00634921 </v>
   <v>       0.00634921 </v>
   <v>       0.00634921 </v>
   <v>       0.00634921 </v>
   <v>       0.00634921 </v>
   <v>       0.00634921 </v>
   <v>       0.00634921 </v>
   <v>       0.00634921 </v>
   <v>       0.00634921 </v>
   <v>       0.00634921 </v>
   <v>       0.00634921 </v>
   <v>       0.00634921 </v>
   <v>       0.00634921 </v>
   <v>       0.00634921 </v>
   <v>       0.00634921 </v>
   <v>       0.00634921 </v>
   <v>       0.00634921 </v>
   <v>       0.00634921 </v>
   <v>       0.00634921 </v>
   <v>       0.00634921 </v>
   <v>       0.00634921 </v>
   <v>       0.00634921 </v>
   <v>       0.00634921 </v>
   <v>       0.00634921 </v>
   <v>       0.00634921 </v>
   <v>       0.00634921 </v>
   <v>       0.00634921 </v>
   <v>       0.00634921 </v>
   <v>       0.00634921 </v>
   <v>       0.00634921 </v>
   <v>       0.00634921 </v>
   <v>       0.00634921 </v>
   <v>       0.00634921 </v>
   <v>       0.00634921 </v>
   <v>       0.00634921 </v>
   <v>       0.00634921 </v>
   <v>       0.00634921 </v>
   <v>       0.00634921 </v>
   <v>       0.00634921 </v>
   <v>       0.00634921 </v>
   <v>       0.00634921 </v>
   <v>       0.00634921 </v>
   <v>       0.00634921 </v>
   <v>       0.00634921 </v>
   <v>       0.00634921 </v>
   <v>       0.00634921 </v>
   <v>       0.00634921 </v>
   <v>       0.00634921 </v>
   <v>       0.00634921 </v>
   <v>       0.00634921 </v>
   <v>       0.00634921 </v>
   <v>       0.00634921 </v>
  </varray>
 </kpoints>
 <parameters>
  <separator name="general" >
   <i type="string" name="SYSTEM">Convergence</i>
   <i type="logical" name="LCOMPAT"> F  </i>
  </separator>
  <separator name="electronic" >
   <i type="string" name="PREC">accura</i>
   <i name="ENMAX">    600.00000000</i>
   <i name="ENAUG">    535.51400000</i>
   <i name="EDIFF">      0.00000100</i>
   <i type="int" name="IALGO">    38</i>
   <i type="int" name="IWAVPR">    10</i>
   <i type="int" name="NBANDS">    48</i>
   <i type="int" name="NBANDSLOW">    -1</i>
   <i type="int" name="NBANDSHIGH">    -1</i>
   <i name="NELECT">     42.00000000</i>
   <i type="int" name="TURBO">     0</i>
   <i type="int" name="IRESTART">     0</i>
   <i type="int" name="NREBOOT">     0</i>
   <i type="int" name="NMIN">     0</i>
   <i name="EREF">      0.00000000</i>
   <separator name="electronic smearing" >
    <i type="int" name="ISMEAR">     0</i>
    <i name="SIGMA">      0.05000000</i>
    <i name="KSPACING">      0.50000000</i>
    <i type="logical" name="KGAMMA"> T  </i>
    <i type="logical" name="KBLOWUP"> T  </i>
   </separator>
   <separator name="electronic projectors" >
    <i type="logical" name="LREAL"> F  </i>
    <v name="ROPT">      0.00000000</v>
    <i type="int" name="LMAXPAW">  -100</i>
    <i type="int" name="LMAXMIX">     2</i>
    <i type="logical" name="NLSPLINE"> F  </i>
   </separator>
   <separator name="electronic startup" >
    <i type="int" name="ISTART">     0</i>
    <i type="int" name="ICHARG">     2</i>
    <i type="int" name="INIWAV">     1</i>
   </separator>
   <separator name="electronic spin" >
    <i type="int" name="ISPIN">     1</i>
    <i type="logical" name="LNONCOLLINEAR"> F  </i>
    <v name="MAGMOM">      1.00000000      1.00000000      1.00000000      1.00000000      1.00000000      1.00000000      1.00000000      1.00000000      1.00000000      1.00000000      1.00000000      1.00000000      1.00000000      1.00000000</v>
    <i name="NUPDOWN">     -1.00000000</i>
    <i type="logical" name="LSORBIT"> F  </i>
    <v name="SAXIS">      0.00000000      0.00000000      1.00000000</v>
    <i type="logical" name="LSPIRAL"> F  </i>
    <v name="QSPIRAL">      0.00000000      0.00000000      0.00000000</v>
    <i type="logical" name="LZEROZ"> F  </i>
   </separator>
   <separator name="electronic exchange-correlation" >
    <i type="logical" name="LASPH"> F  </i>
   </separator>
   <separator name="electronic convergence" >
    <i type="int" name="NELM">   100</i>
    <i type="int" name="NELMDL">    -5</i>
    <i type="int" name="NELMIN">     2</i>
    <i name="ENINI">    600.00000000</i>
    <separator name="electronic convergence detail" >
     <i type="logical" name="LDIAG"> T  </i>
     <i type="logical" name="LSUBROT"> F  </i>
     <i name="WEIMIN">      0.00000000</i>
     <i name="EBREAK">      0.00000001</i>
     <i name="DEPER">      0.30000000</i>
     <i type="int" name="NRMM">     4</i>
     <i name="TIME">      0.40000000</i>
    </separator>
   </separator>
   <separator name="electronic mixer" >
    <i name="AMIX">      0.40000000</i>
    <i name="BMIX">      1.00000000</i>
    <i name="AMIN">      0.10000000</i>
    <i name="AMIX_MAG">      1.60000000</i>
    <i name="BMIX_MAG">      1.00000000</i>
    <separator name="electronic mixer details" >
     <i type="int" name="IMIX">     4</i>
     <i type="logical" name="MIXFIRST"> F  </i>
     <i type="int" name="MAXMIX">   -45</i>
     <i name="WC">    100.00000000</i>
     <i type="int" name="INIMIX">     1</i>
     <i type="int" name="MIXPRE">     1</i>
     <i type="int" name="MREMOVE">     5</i>
    </separator>
   </separator>
   <separator name="electronic dipolcorrection" >
    <i type="logical" name="LDIPOL"> F  </i>
    <i type="logical" name="LMONO"> F  </i>
    <i type="int" name="IDIPOL">     0</i>
    <i name="EPSILON">      1.00000000</i>
    <v name="DIPOL">   -100.00000000   -100.00000000   -100.00000000</v>
    <i name="EFIELD">      0.00000000</i>
    <i type="logical" name="LVACPOTAV"> F  </i>
   </separator>
  </separator>
  <separator name="grids" >
   <i type="int" name="NGX">    48</i>
   <i type="int" name="NGY">    32</i>
   <i type="int" name="NGZ">    50</i>
   <i type="int" name="NGXF">    96</i>
   <i type="int" name="NGYF">    64</i>
   <i type="int" name="NGZF">   100</i>
   <i type="logical" name="ADDGRID"> F  </i>
  </separator>
  <separator name="ionic" >
   <i type="int" name="NSW">     0</i>
   <i type="int" name="IBRION">    -1</i>
   <i type="int" name="MDALGO">     0</i>
   <i type="int" name="ISIF">     2</i>
   <i name="PSTRESS">      0.00000000</i>
   <i name="EDIFFG">     -0.00100000</i>
   <i type="int" name="NFREE">     0</i>
   <i name="POTIM">      0.50000000</i>
   <i name="SMASS">     -3.00000000</i>
   <i name="SCALEE">      1.00000000</i>
  </separator>
  <separator name="ionic md" >
   <i name="TEBEG">      0.00010000</i>
   <i name="TEEND">      0.00010000</i>
   <i type="int" name="NBLOCK">     1</i>
   <i type="int" name="KBLOCK">     1</i>
   <i type="int" name="NPACO">   256</i>
   <i name="APACO">     10.00000000</i>
  </separator>
  <separator name="symmetry" >
   <i type="int" name="ISYM">     2</i>
   <i name="SYMPREC">      0.00001000</i>
  </separator>
  <separator name="dos" >
   <i type="int" name="LORBIT">     0</i>
   <v name="RWIGS">     -1.00000000</v>
   <i type="int" name="NEDOS">   301</i>
   <i name="EMIN">     10.00000000</i>
   <i name="EMAX">    -10.00000000</i>
   <i name="EFERMI">      0.00000000</i>
  </separator>
  <separator name="writing" >
   <i type="int" name="NWRITE">     2</i>
   <i type="logical" name="LWAVE"> F  </i>
   <i type="logical" name="LDOWNSAMPLE"> F  </i>
   <i type="logical" name="LCHARG"> F  </i>
   <i type="logical" name="LPARD"> F  </i>
   <i type="logical" name="LVTOT"> F  </i>
   <i type="logical" name="LVHAR"> F  </i>
   <i type="logical" name="LELF"> F  </i>
   <i type="logical" name="LOPTICS"> F  </i>
   <v name="STM">      0.00000000      0.00000000      0.00000000      0.00000000      0.00000000      0.00000000      0.00000000</v>
  </separator>
  <separator name="performance" >
   <i type="int" name="NPAR">    24</i>
   <i type="int" name="NSIM">     4</i>
   <i type="int" name="NBLK">    -1</i>
   <i type="logical" name="LPLANE"> T  </i>
   <i type="logical" name="LSCALAPACK"> T  </i>
   <i type="logical" name="LSCAAWARE"> F  </i>
   <i type="logical" name="LSCALU"> F  </i>
   <i type="logical" name="LASYNC"> F  </i>
   <i type="logical" name="LORBITALREAL"> F  </i>
  </separator>
  <separator name="miscellaneous" >
   <i type="int" name="IDIOT">     3</i>
   <i type="int" name="PHON_NSTRUCT">    -1</i>
   <i type="logical" name="LMUSIC"> F  </i>
   <v name="POMASS">     10.81100000</v>
   <v name="DARWINR">      0.00000000</v>
   <v name="DARWINV">      1.00000000</v>
   <i type="logical" name="LCORR"> T  </i>
  </separator>
  <i type="logical" name="GGA_COMPAT"> T  </i>
  <i type="logical" name="LBERRY"> F  </i>
  <i type="int" name="ICORELEVEL">     0</i>
  <i type="logical" name="LDAU"> F  </i>
  <i type="int" name="I_CONSTRAINED_M">     0</i>
  <separator name="electronic exchange-correlation" >
   <i type="string" name="GGA    ">PE</i>
   <i type="string" name="XC_C">1</i>
   <i type="int" name="VOSKOWN">     0</i>
   <i type="logical" name="LHFCALC"> F  </i>
   <i type="string" name="PRECFOCK"></i>
   <i type="logical" name="LSYMGRAD"> F  </i>
   <i type="logical" name="LHFONE"> F  </i>
   <i type="logical" name="LRHFCALC"> F  </i>
   <i type="logical" name="LTHOMAS"> F  </i>
   <i type="logical" name="LMODELHF"> F  </i>
   <i type="logical" name="LFOCKACE"> F  </i>
   <i name="ENCUT4O">     -1.00000000</i>
   <i type="int" name="EXXOEP">     0</i>
   <i type="int" name="FOURORBIT">     0</i>
   <i name="AEXX">      0.00000000</i>
   <i name="HFALPHA">      0.00000000</i>
   <i name="MCALPHA">      0.00000000</i>
   <i name="ALDAX">      1.00000000</i>
   <i name="AGGAX">      1.00000000</i>
   <i name="AMGGAX">      1.00000000</i>
   <i name="ALDAC">      1.00000000</i>
   <i name="AGGAC">      1.00000000</i>
   <i name="AMGGAC">      1.00000000</i>
   <i type="int" name="NKREDX">     1</i>
   <i type="int" name="NKREDY">     1</i>
   <i type="int" name="NKREDZ">     1</i>
   <i type="logical" name="SHIFTRED"> F  </i>
   <i type="logical" name="ODDONLY"> F  </i>
   <i type="logical" name="EVENONLY"> F  </i>
   <i type="int" name="LMAXFOCK">     0</i>
   <i type="int" name="NMAXFOCKAE">     0</i>
   <i type="logical" name="LFOCKAEDFT"> F  </i>
   <i name="HFSCREEN">      0.00000000</i>
   <i name="HFSCREENC">      0.00000000</i>
   <i type="int" name="NBANDSGWLOW">     0</i>
  </separator>
  <separator name="vdW DFT" >
   <i type="logical" name="LUSE_VDW"> F  </i>
   <i type="int" name="IVDW_NL">    -1</i>
   <i type="logical" name="LSPIN_VDW"> F  </i>
   <i name="ZAB_VDW">     -0.84910000</i>
   <i name="GAMMA_VDW">      1.39626340</i>
   <i name="ALPHA_VDW">      0.00000000</i>
   <i name="PARAM1">      0.12340000</i>
   <i name="PARAM2">      1.00000000</i>
   <i name="BPARAM">      6.30000000</i>
   <i name="CPARAM">      0.00930000</i>
  </separator>
  <separator name="model GW" >
   <i type="int" name="MODEL_GW">     0</i>
   <i name="MODEL_EPS0">      6.14464360</i>
   <i name="MODEL_ALPHA">      1.00000000</i>
  </separator>
  <separator name="linear response parameters" >
   <i type="logical" name="LEPSILON"> F  </i>
   <i type="logical" name="LRPA"> F  </i>
   <i type="logical" name="LNABLA"> F  </i>
   <i type="logical" name="LVEL"> F  </i>
   <i name="CSHIFT">      0.10000000</i>
   <i name="OMEGAMAX">     -1.00000000</i>
   <i name="DEG_THRESHOLD">      0.00200000</i>
   <i name="RTIME">     -0.10000000</i>
   <i name="WPLASMAI">      0.00000000</i>
   <v name="DFIELD">      0.00000000      0.00000000      0.00000000</v>
   <v name="WPLASMA">      0.00000000      0.00000000      0.00000000      0.00000000      0.00000000      0.00000000      0.00000000      0.00000000      0.00000000</v>
  </separator>
  <separator name="orbital magnetization" >
   <i type="logical" name="NUCIND"> F  </i>
   <v name="MAGPOS">      0.00000000      0.00000000      0.00000000</v>
   <i type="logical" name="LNICSALL"> T  </i>
   <i type="logical" name="ORBITALMAG"> F  </i>
   <i type="logical" name="LMAGBLOCH"> F  </i>
   <i type="logical" name="LCHIMAG"> F  </i>
   <i type="logical" name="LGAUGE"> T  </i>
   <i type="int" name="MAGATOM">     0</i>
   <v name="MAGDIPOL">      0.00000000      0.00000000      0.00000000</v>
   <v name="AVECCONST">      0.00000000      0.00000000      0.00000000</v>
  </separator>
  <separator name="response functions" >
   <i type="logical" name="LALL_IN_ONE"> F  </i>
   <i type="int" name="IALL_IN_ONE">    -1</i>
   <i type="int" name="NBANDS_WAVE">    -1</i>
   <i type="logical" name="LFINITE_TEMPERATURE"> F  </i>
   <i type="logical" name="LADDER"> F  </i>
   <i type="logical" name="LRPAFORCE"> F  </i>
   <i type="logical" name="LFXC"> F  </i>
   <i type="logical" name="LHARTREE"> T  </i>
   <i type="int" name="IBSE">     0</i>
   <v type="int" name="KPOINT">    -1     0     0     0</v>
   <i type="logical" name="LTCTC"> F  </i>
   <i type="logical" name="LTCTE"> F  </i>
   <i type="logical" name="LTETE"> F  </i>
   <i type="logical" name="LTRIPLET"> F  </i>
   <i type="logical" name="LFXCEPS"> F  </i>
   <i type="logical" name="LFXHEG"> F  </i>
   <i type="int" name="NATURALO">     2</i>
   <i type="logical" name="LHOLEGF"> F  </i>
   <i type="logical" name="L2ORDER"> F  </i>
   <i type="logical" name="LDMP1"> F  </i>
   <i type="logical" name="LMP2LT"> F  </i>
   <i type="logical" name="LSMP2LT"> F  </i>
   <i type="logical" name="LGWLF"> F  </i>
   <i name="ENCUTGW">     -1.60000002</i>
   <i name="ENCUTGWSOFT">     -1.60000002</i>
   <i name="ENCUTLF">     -1.00000000</i>
   <i type="logical" name="ESF_SPLINES"> F  </i>
   <i name="ESF_CONV">      0.01000000</i>
   <i type="int" name="ESF_NINTER">    15</i>
   <i type="int" name="LMAXMP2">    -1</i>
   <i name="SCISSOR">      0.00000000</i>
   <i type="int" name="NOMEGA">     0</i>
   <i type="int" name="NOMEGAR">     0</i>
   <i type="int" name="NBANDSGW">    -1</i>
   <i type="int" name="NBANDSO">    -1</i>
   <i type="int" name="NBANDSV">    -1</i>
   <i type="int" name="NELMGW">     1</i>
   <i type="int" name="NELMHF">     1</i>
   <i type="int" name="DIM">     3</i>
   <i type="int" name="IESPILON">     4</i>
   <i type="int" name="ANTIRES">     0</i>
   <i name="OMEGAMAX">    -30.00000000</i>
   <i name="OMEGAMIN">    -30.00000000</i>
   <i name="OMEGATL">   -200.00000000</i>
   <i type="int" name="OMEGAGRID">     0</i>
   <i name="CSHIFT">     -0.10000000</i>
   <i type="logical" name="LSELFENERGY"> F  </i>
   <i type="logical" name="LSPECTRAL"> F  </i>
   <i type="logical" name="LSPECTRALGW"> F  </i>
   <i type="logical" name="LSINGLES"> F  </i>
   <i type="logical" name="LFERMIGW"> F  </i>
   <i type="logical" name="ODDONLYGW"> F  </i>
   <i type="logical" name="EVENONLYGW"> F  </i>
   <i type="int" name="NKREDLFX">     1</i>
   <i type="int" name="NKREDLFY">     1</i>
   <i type="int" name="NKREDLFZ">     1</i>
   <i type="int" name="MAXMEM">  2800</i>
   <i type="int" name="TELESCOPE">     0</i>
   <i type="int" name="NTAUPAR">    -1</i>
   <i type="int" name="NOMEGAPAR">    -1</i>
   <i name="DAMP_NEWTON">      0.80000001</i>
   <i name="LAMBDA">      1.00000000</i>
  </separator>
  <separator name="External order field" >
   <i name="OFIELD_KAPPA">      0.00000000</i>
   <v name="OFIELD_K">      0.00000000      0.00000000      0.00000000</v>
   <i name="OFIELD_Q6_NEAR">      0.00000000</i>
   <i name="OFIELD_Q6_FAR">      0.00000000</i>
   <i name="OFIELD_A">      0.00000000</i>
  </separator>
  <separator name="optional k-points parameters" >
   <i type="int" name="KPOINTS_OPT_MODE">     1</i>
   <i type="logical" name="LKPOINTS_OPT"> F  </i>
  </separator>
 </parameters>
 <atominfo>
  <atoms>      14 </atoms>
  <types>       1 </types>
  <array name="atoms" >
   <dimension dim="1">ion</dimension>
   <field type="string">element</field>
   <field type="int">atomtype</field>
   <set>
    <rc><c>B </c><c>   1</c></rc>
    <rc><c>B </c><c>   1</c></rc>
    <rc><c>B </c><c>   1</c></rc>
    <rc><c>B </c><c>   1</c></rc>
    <rc><c>B </c><c>   1</c></rc>
    <rc><c>B </c><c>   1</c></rc>
    <rc><c>B </c><c>   1</c></rc>
    <rc><c>B </c><c>   1</c></rc>
    <rc><c>B </c><c>   1</c></rc>
    <rc><c>B </c><c>   1</c></rc>
    <rc><c>B </c><c>   1</c></rc>
    <rc><c>B </c><c>   1</c></rc>
    <rc><c>B </c><c>   1</c></rc>
    <rc><c>B </c><c>   1</c></rc>
   </set>
  </array>
  <array name="atomtypes" >
   <dimension dim="1">type</dimension>
   <field type="int">atomspertype</field>
   <field type="string">element</field>
   <field>mass</field>
   <field>valence</field>
   <field type="string">pseudopotential</field>
   <set>
    <rc><c>  14</c><c>B </c><c>     10.81100000</c><c>      3.00000000</c><c>  PAW_PBE B 06Sep2000                   </c></rc>
   </set>
  </array>
 </atominfo>
 <structure name="initialpos" >
  <crystal>
   <varray name="basis" >
    <v>       5.70098790       0.00000000       0.00000000 </v>
    <v>       0.00000000       4.05073353       0.00000000 </v>
    <v>       0.00000000       0.00000000       6.20854294 </v>
   </varray>
   <i name="volume">    143.37501729 </i>
   <varray name="rec_basis" >
    <v>       0.17540820       0.00000000       0.00000000 </v>
    <v>       0.00000000       0.24686887       0.00000000 </v>
    <v>       0.00000000       0.00000000       0.16106839 </v>
   </varray>
  </crystal>
  <varray name="positions" >
   <v>       0.52123000       0.50000000       0.63796000 </v>
   <v>       0.47877000       0.50000000       0.36204000 </v>
   <v>       0.97877000       0.50000000       0.63796000 </v>
   <v>       0.02123000       0.50000000       0.36204000 </v>
   <v>       0.60090000       0.50000000       0.89991000 </v>
   <v>       0.39910000       0.50000000       0.10009000 </v>
   <v>       0.89910000       0.50000000       0.89991000 </v>
   <v>       0.10090000       0.50000000       0.10009000 </v>
   <v>       0.75000000       0.79171000       0.72973000 </v>
   <v>       0.25000000       0.20829000       0.27027000 </v>
   <v>       0.75000000       0.20829000       0.72973000 </v>
   <v>       0.25000000       0.79171000       0.27027000 </v>
   <v>       0.25000000       0.50000000       0.52367000 </v>
   <v>       0.75000000       0.50000000       0.47633000 </v>
  </varray>
 </structure>
 <calculation>
  <scstep>
   <time name="dav">    5.43    5.76</time>
   <time name="total">    5.45    5.78</time>
   <energy>
    <i name="alphaZ">     94.04594515 </i>
    <i name="ewald">   -795.20993396 </i>
    <i name="hartreedc">   -271.54511944 </i>
    <i name="XCdc">     97.44800812 </i>
    <i name="pawpsdc">    608.99811708 </i>
    <i name="pawaedc">   -597.02363782 </i>
    <i name="eentropy">     -0.00313530 </i>
    <i name="bandstr">    -54.69058304 </i>
    <i name="atom">    996.37441054 </i>
    <i name="e_fr_energy">     78.39407133 </i>
    <i name="e_wo_entrp">     78.39720664 </i>
    <i name="e_0_energy">     78.39563898 </i>
   </energy>
  </scstep>
  <scstep>
   <time name="dav">    7.14    7.65</time>
   <time name="total">    7.14    7.65</time>
   <energy>
    <i name="e_fr_energy">    -91.81152850 </i>
    <i name="e_wo_entrp">    -91.80882766 </i>
    <i name="e_0_energy">    -91.81017808 </i>
   </energy>
  </scstep>
  <scstep>
   <time name="dav">    7.70    7.83</time>
   <time name="total">    7.70    7.83</time>
   <energy>
    <i name="e_fr_energy">    -97.56982847 </i>
    <i name="e_wo_entrp">    -97.56618023 </i>
    <i name="e_0_energy">    -97.56800435 </i>
   </energy>
  </scstep>
  <scstep>
   <time name="dav">    6.30    6.37</time>
   <time name="total">    6.30    6.37</time>
   <energy>
    <i name="e_fr_energy">    -97.60383136 </i>
    <i name="e_wo_entrp">    -97.60017268 </i>
    <i name="e_0_energy">    -97.60200202 </i>
   </energy>
  </scstep>
  <scstep>
   <time name="dav">    7.67    8.05</time>
   <time name="total">    7.77    8.15</time>
   <energy>
    <i name="e_fr_energy">    -97.60421311 </i>
    <i name="e_wo_entrp">    -97.60055424 </i>
    <i name="e_0_energy">    -97.60238368 </i>
   </energy>
  </scstep>
  <scstep>
   <time name="dav">    7.54    7.75</time>
   <time name="total">    7.65    7.85</time>
   <energy>
    <i name="e_fr_energy">    -92.21948985 </i>
    <i name="e_wo_entrp">    -92.21604748 </i>
    <i name="e_0_energy">    -92.21776867 </i>
   </energy>
  </scstep>
  <scstep>
   <time name="dav">    7.81    7.95</time>
   <time name="total">    7.91    8.06</time>
   <energy>
    <i name="e_fr_energy">    -90.57619600 </i>
    <i name="e_wo_entrp">    -90.57305530 </i>
    <i name="e_0_energy">    -90.57462565 </i>
   </energy>
  </scstep>
  <scstep>
   <time name="dav">    5.83    6.14</time>
   <time name="total">    5.94    6.26</time>
   <energy>
    <i name="e_fr_energy">    -90.58864029 </i>
    <i name="e_wo_entrp">    -90.58546063 </i>
    <i name="e_0_energy">    -90.58705046 </i>
   </energy>
  </scstep>
  <scstep>
   <time name="dav">    7.31    7.51</time>
   <time name="total">    7.41    7.62</time>
   <energy>
    <i name="e_fr_energy">    -90.60281660 </i>
    <i name="e_wo_entrp">    -90.59955215 </i>
    <i name="e_0_energy">    -90.60118438 </i>
   </energy>
  </scstep>
  <scstep>
   <time name="dav">    6.03    6.08</time>
   <time name="total">    6.13    6.18</time>
   <energy>
    <i name="e_fr_energy">    -90.60686103 </i>
    <i name="e_wo_entrp">    -90.60364226 </i>
    <i name="e_0_energy">    -90.60525164 </i>
   </energy>
  </scstep>
  <scstep>
   <time name="dav">    6.76    6.94</time>
   <time name="total">    6.86    7.04</time>
   <energy>
    <i name="e_fr_energy">    -90.60792857 </i>
    <i name="e_wo_entrp">    -90.60472045 </i>
    <i name="e_0_energy">    -90.60632451 </i>
   </energy>
  </scstep>
  <scstep>
   <time name="dav">    6.50    6.72</time>
   <time name="total">    6.60    6.82</time>
   <energy>
    <i name="e_fr_energy">    -90.60804346 </i>
    <i name="e_wo_entrp">    -90.60482920 </i>
    <i name="e_0_energy">    -90.60643633 </i>
   </energy>
  </scstep>
  <scstep>
   <time name="dav">    7.30    7.37</time>
   <time name="total">    7.40    7.47</time>
   <energy>
    <i name="e_fr_energy">    -90.60804832 </i>
    <i name="e_wo_entrp">    -90.60483381 </i>
    <i name="e_0_energy">    -90.60644107 </i>
   </energy>
  </scstep>
  <scstep>
   <time name="dav">    6.52    6.59</time>
   <time name="total">    6.53    6.60</time>
   <energy>
    <i name="alphaZ">     94.04594515 </i>
    <i name="ewald">   -795.20993396 </i>
    <i name="hartreedc">   -349.12591017 </i>
    <i name="XCdc">    101.53378196 </i>
    <i name="pawpsdc">   3724.00792323 </i>
    <i name="pawaedc">  -3713.18928257 </i>
    <i name="eentropy">     -0.00321463 </i>
    <i name="bandstr">   -149.04176854 </i>
    <i name="atom">    996.37441054 </i>
    <i name="e_fr_energy">    -90.60804901 </i>
    <i name="e_wo_entrp">    -90.60483437 </i>
    <i name="e_0_energy">    -90.60644169 </i>
   </energy>
  </scstep>
  <structure>
   <crystal>
    <varray name="basis" >
     <v>       5.70098790       0.00000000       0.00000000 </v>
     <v>       0.00000000       4.05073353       0.00000000 </v>
     <v>       0.00000000       0.00000000       6.20854294 </v>
    </varray>
    <i name="volume">    143.37501729 </i>
    <varray name="rec_basis" >
     <v>       0.17540820       0.00000000       0.00000000 </v>
     <v>       0.00000000       0.24686887       0.00000000 </v>
     <v>       0.00000000       0.00000000       0.16106839 </v>
    </varray>
   </crystal>
   <varray name="positions" >
    <v>       0.52123000       0.50000000       0.63796000 </v>
    <v>       0.47877000       0.50000000       0.36204000 </v>
    <v>       0.97877000       0.50000000       0.63796000 </v>
    <v>       0.02123000       0.50000000       0.36204000 </v>
    <v>       0.60090000       0.50000000       0.89991000 </v>
    <v>       0.39910000       0.50000000       0.10009000 </v>
    <v>       0.89910000       0.50000000       0.89991000 </v>
    <v>       0.10090000       0.50000000       0.10009000 </v>
    <v>       0.75000000       0.79171000       0.72973000 </v>
    <v>       0.25000000       0.20829000       0.27027000 </v>
    <v>       0.75000000       0.20829000       0.72973000 </v>
    <v>       0.25000000       0.79171000       0.27027000 </v>
    <v>       0.25000000       0.50000000       0.52367000 </v>
    <v>       0.75000000       0.50000000       0.47633000 </v>
   </varray>
  </structure>
  <varray name="forces" >
   <v>       0.00742961      -0.00000000       0.04669959 </v>
   <v>      -0.00742961      -0.00000000      -0.04669959 </v>
   <v>      -0.00742961      -0.00000000       0.04669959 </v>
   <v>       0.00742961      -0.00000000      -0.04669959 </v>
   <v>      -0.82363274       0.00000000       0.26497933 </v>
   <v>       0.82363274       0.00000000      -0.26497933 </v>
   <v>       0.82363274       0.00000000       0.26497933 </v>
   <v>      -0.82363274      -0.00000000      -0.26497933 </v>
   <v>      -0.00000000       0.06093358      -0.07575502 </v>
   <v>      -0.00000000      -0.06093358       0.07575502 </v>
   <v>      -0.00000000      -0.06093358      -0.07575502 </v>
   <v>      -0.00000000       0.06093358       0.07575502 </v>
   <v>      -0.00000000      -0.00000000       0.05880906 </v>
   <v>      -0.00000000       0.00000000      -0.05880906 </v>
  </varray>
  <varray name="stress" >
   <v>       9.91679864       0.00000000       0.00000000 </v>
   <v>       0.00000000      -1.58437740       0.00000000 </v>
   <v>       0.00000000       0.00000000     -10.71392645 </v>
  </varray>
  <energy>
   <i name="e_fr_energy">    -90.60804901 </i>
   <i name="e_wo_entrp">    -90.60483437 </i>
   <i name="e_0_energy">    -90.60644169 </i>
  </energy>
  <time name="totalsc">  101.52  104.45</time>
  <eigenvalues>
   <array>
    <dimension dim="1">band</dimension>
    <dimension dim="2">kpoint</dimension>
    <dimension dim="3">spin</dimension>
    <field>eigene</field>
    <field>occ</field>
    <set>
     <set comment="spin 1">
      <set comment="kpoint 1">
       <r>  -12.7225    1.0000 </r>
       <r>  -11.5808    1.0000 </r>
       <r>   -8.6609    1.0000 </r>
       <r>   -8.4245    1.0000 </r>
       <r>   -6.0695    1.0000 </r>
       <r>   -5.1360    1.0000 </r>
       <r>   -4.6724    1.0000 </r>
       <r>   -4.2785    1.0000 </r>
       <r>   -4.0384    1.0000 </r>
       <r>   -3.5501    1.0000 </r>
       <r>   -2.6028    1.0000 </r>
       <r>   -2.3339    1.0000 </r>
       <r>   -1.8434    1.0000 </r>
       <r>   -1.1048    1.0000 </r>
       <r>   -0.0779    1.0000 </r>
       <r>   -0.0476    1.0000 </r>
       <r>    0.1454    1.0000 </r>
       <r>    0.1662    1.0000 </r>
       <r>    0.5548    1.0000 </r>
       <r>    2.0075    0.0001 </r>
       <r>    2.0703    0.0000 </r>
       <r>    2.2038    0.0000 </r>
       <r>    5.4415    0.0000 </r>
       <r>    5.7325    0.0000 </r>
       <r>    5.8204    0.0000 </r>
       <r>    5.9427    0.0000 </r>
       <r>    6.7958    0.0000 </r>
       <r>    7.5298    0.0000 </r>
       <r>    7.8579    0.0000 </r>
       <r>    8.5112    0.0000 </r>
       <r>    8.7739    0.0000 </r>
       <r>    8.9244    0.0000 </r>
       <r>    9.0197    0.0000 </r>
       <r>   10.1027    0.0000 </r>
       <r>   11.1649    0.0000 </r>
       <r>   11.3072    0.0000 </r>
       <r>   11.6362    0.0000 </r>
       <r>   11.7556    0.0000 </r>
       <r>   11.9177    0.0000 </r>
       <r>   12.3817    0.0000 </r>
       <r>   12.8393    0.0000 </r>
       <r>   13.4224    0.0000 </r>
       <r>   13.4497    0.0000 </r>
       <r>   15.3443    0.0000 </r>
       <r>   15.5365    0.0000 </r>
       <r>   16.0249    0.0000 </r>
       <r>   16.3006    0.0000 </r>
       <r>   16.3224    0.0000 </r>
      </set>
      <set comment="kpoint 2">
       <r>  -12.6787    1.0000 </r>
       <r>  -11.6546    1.0000 </r>
       <r>   -8.6398    1.0000 </r>
       <r>   -8.4130    1.0000 </r>
       <r>   -6.0014    1.0000 </r>
       <r>   -5.4761    1.0000 </r>
       <r>   -4.7943    1.0000 </r>
       <r>   -4.0145    1.0000 </r>
       <r>   -3.7973    1.0000 </r>
       <r>   -3.2132    1.0000 </r>
       <r>   -2.6728    1.0000 </r>
       <r>   -2.3140    1.0000 </r>
       <r>   -1.9216    1.0000 </r>
       <r>   -1.4116    1.0000 </r>
       <r>   -0.0378    1.0000 </r>
       <r>   -0.0286    1.0000 </r>
       <r>    0.0842    1.0000 </r>
       <r>    0.1871    1.0000 </r>
       <r>    0.4597    1.0000 </r>
       <r>    1.9214    0.0808 </r>
       <r>    1.9924    0.0003 </r>
       <r>    2.0829    0.0000 </r>
       <r>    5.5306    0.0000 </r>
       <r>    5.7396    0.0000 </r>
       <r>    5.8497    0.0000 </r>
       <r>    6.2874    0.0000 </r>
       <r>    6.7105    0.0000 </r>
       <r>    7.1687    0.0000 </r>
       <r>    8.0663    0.0000 </r>
       <r>    8.6476    0.0000 </r>
       <r>    9.0283    0.0000 </r>
       <r>    9.1038    0.0000 </r>
       <r>    9.1791    0.0000 </r>
       <r>   10.2128    0.0000 </r>
       <r>   10.9157    0.0000 </r>
       <r>   11.1033    0.0000 </r>
       <r>   11.2376    0.0000 </r>
       <r>   11.6732    0.0000 </r>
       <r>   12.1348    0.0000 </r>
       <r>   12.4703    0.0000 </r>
       <r>   13.0910    0.0000 </r>
       <r>   13.0984    0.0000 </r>
       <r>   13.9797    0.0000 </r>
       <r>   14.8338    0.0000 </r>
       <r>   15.7176    0.0000 </r>
       <r>   15.7985    0.0000 </r>
       <r>   16.1917    0.0000 </r>
       <r>   16.4790    0.0000 </r>
      </set>
      <set comment="kpoint 3">
       <r>  -12.5931    1.0000 </r>
       <r>  -11.7875    1.0000 </r>
       <r>   -8.5961    1.0000 </r>
       <r>   -8.3983    1.0000 </r>
       <r>   -5.9797    1.0000 </r>
       <r>   -5.8023    1.0000 </r>
       <r>   -4.7482    1.0000 </r>
       <r>   -3.8876    1.0000 </r>
       <r>   -3.2866    1.0000 </r>
       <r>   -2.8410    1.0000 </r>
       <r>   -2.7218    1.0000 </r>
       <r>   -2.2738    1.0000 </r>
       <r>   -2.0316    1.0000 </r>
       <r>   -1.9155    1.0000 </r>
       <r>   -0.2309    1.0000 </r>
       <r>    0.0047    1.0000 </r>
       <r>    0.1333    1.0000 </r>
       <r>    0.1485    1.0000 </r>
       <r>    0.4295    1.0000 </r>
       <r>    1.7737    0.9973 </r>
       <r>    1.8539    0.6951 </r>
       <r>    1.8599    0.6332 </r>
       <r>    5.6516    0.0000 </r>
       <r>    5.6960    0.0000 </r>
       <r>    6.1587    0.0000 </r>
       <r>    6.5849    0.0000 </r>
       <r>    6.7452    0.0000 </r>
       <r>    6.9143    0.0000 </r>
       <r>    8.2162    0.0000 </r>
       <r>    8.7963    0.0000 </r>
       <r>    8.9725    0.0000 </r>
       <r>    9.5481    0.0000 </r>
       <r>    9.6235    0.0000 </r>
       <r>   10.2557    0.0000 </r>
       <r>   10.4592    0.0000 </r>
       <r>   10.5985    0.0000 </r>
       <r>   11.3567    0.0000 </r>
       <r>   11.8160    0.0000 </r>
       <r>   12.3695    0.0000 </r>
       <r>   12.5360    0.0000 </r>
       <r>   12.7690    0.0000 </r>
       <r>   12.8878    0.0000 </r>
       <r>   14.6045    0.0000 </r>
       <r>   14.8845    0.0000 </r>
       <r>   15.1973    0.0000 </r>
       <r>   15.9493    0.0000 </r>
       <r>   15.9694    0.0000 </r>
       <r>   16.2548    0.0000 </r>
      </set>
      <set comment="kpoint 4">
       <r>  -12.4697    1.0000 </r>
       <r>  -11.9569    1.0000 </r>
       <r>   -8.5343    1.0000 </r>
       <r>   -8.3950    1.0000 </r>
       <r>   -6.0600    1.0000 </r>
       <r>   -6.0352    1.0000 </r>
       <r>   -4.4210    1.0000 </r>
       <r>   -3.7191    1.0000 </r>
       <r>   -3.0346    1.0000 </r>
       <r>   -2.9027    1.0000 </r>
       <r>   -2.4512    1.0000 </r>
       <r>   -2.2610    1.0000 </r>
       <r>   -2.1560    1.0000 </r>
       <r>   -2.1320    1.0000 </r>
       <r>   -0.5300    1.0000 </r>
       <r>   -0.2563    1.0000 </r>
       <r>    0.1640    1.0000 </r>
       <r>    0.2393    1.0000 </r>
       <r>    0.6025    1.0000 </r>
       <r>    1.5182    1.0000 </r>
       <r>    1.6515    1.0000 </r>
       <r>    1.7118    1.0000 </r>
       <r>    5.6811    0.0000 </r>
       <r>    5.7368    0.0000 </r>
       <r>    6.4840    0.0000 </r>
       <r>    6.6561    0.0000 </r>
       <r>    6.6818    0.0000 </r>
       <r>    7.3935    0.0000 </r>
       <r>    8.3399    0.0000 </r>
       <r>    8.6667    0.0000 </r>
       <r>    8.7839    0.0000 </r>
       <r>    9.5115    0.0000 </r>
       <r>   10.0291    0.0000 </r>
       <r>   10.0943    0.0000 </r>
       <r>   10.3717    0.0000 </r>
       <r>   11.1183    0.0000 </r>
       <r>   11.3813    0.0000 </r>
       <r>   11.9166    0.0000 </r>
       <r>   12.1776    0.0000 </r>
       <r>   12.2470    0.0000 </r>
       <r>   12.4970    0.0000 </r>
       <r>   13.2321    0.0000 </r>
       <r>   14.6864    0.0000 </r>
       <r>   14.9466    0.0000 </r>
       <r>   15.2281    0.0000 </r>
       <r>   15.3438    0.0000 </r>
       <r>   15.5402    0.0000 </r>
       <r>   16.3442    0.0000 </r>
      </set>
      <set comment="kpoint 5">
       <r>  -12.3150    1.0000 </r>
       <r>  -12.1392    1.0000 </r>
       <r>   -8.4683    1.0000 </r>
       <r>   -8.4175    1.0000 </r>
       <r>   -6.1489    1.0000 </r>
       <r>   -6.1448    1.0000 </r>
       <r>   -3.9062    1.0000 </r>
       <r>   -3.5103    1.0000 </r>
       <r>   -3.3073    1.0000 </r>
       <r>   -3.2730    1.0000 </r>
       <r>   -2.3681    1.0000 </r>
       <r>   -2.2407    1.0000 </r>
       <r>   -1.9713    1.0000 </r>
       <r>   -1.9170    1.0000 </r>
       <r>   -0.7506    1.0000 </r>
       <r>   -0.6148    1.0000 </r>
       <r>    0.2471    1.0000 </r>
       <r>    0.2806    1.0000 </r>
       <r>    0.8629    1.0000 </r>
       <r>    1.1799    1.0000 </r>
       <r>    1.5710    1.0000 </r>
       <r>    1.5982    1.0000 </r>
       <r>    5.7095    0.0000 </r>
       <r>    5.7475    0.0000 </r>
       <r>    6.4630    0.0000 </r>
       <r>    6.5271    0.0000 </r>
       <r>    7.3497    0.0000 </r>
       <r>    8.0531    0.0000 </r>
       <r>    8.0756    0.0000 </r>
       <r>    8.4571    0.0000 </r>
       <r>    8.5950    0.0000 </r>
       <r>    8.7675    0.0000 </r>
       <r>   10.4773    0.0000 </r>
       <r>   10.4924    0.0000 </r>
       <r>   10.7338    0.0000 </r>
       <r>   11.1913    0.0000 </r>
       <r>   11.3756    0.0000 </r>
       <r>   11.5695    0.0000 </r>
       <r>   11.9024    0.0000 </r>
       <r>   12.4551    0.0000 </r>
       <r>   12.6920    0.0000 </r>
       <r>   13.2267    0.0000 </r>
       <r>   14.5644    0.0000 </r>
       <r>   14.7037    0.0000 </r>
       <r>   14.8410    0.0000 </r>
       <r>   14.9001    0.0000 </r>
       <r>   16.0666    0.0000 </r>
       <r>   16.4117    0.0000 </r>
      </set>
      <set comment="kpoint 6">
       <r>  -12.6985    1.0000 </r>
       <r>  -11.5592    1.0000 </r>
       <r>   -8.6422    1.0000 </r>
       <r>   -8.4014    1.0000 </r>
       <r>   -6.0428    1.0000 </r>
       <r>   -5.1023    1.0000 </r>
       <r>   -4.6504    1.0000 </r>
       <r>   -4.5770    1.0000 </r>
       <r>   -4.1821    1.0000 </r>
       <r>   -3.5273    1.0000 </r>
       <r>   -3.2954    1.0000 </r>
       <r>   -1.8030    1.0000 </r>
       <r>   -1.1003    1.0000 </r>
       <r>   -1.0452    1.0000 </r>
       <r>   -0.3113    1.0000 </r>
       <r>   -0.2833    1.0000 </r>
       <r>    0.1589    1.0000 </r>
       <r>    0.2365    1.0000 </r>
       <r>    0.6331    1.0000 </r>
       <r>    1.7403    0.9999 </r>
       <r>    1.8199    0.9294 </r>
       <r>    2.2559    0.0000 </r>
       <r>    5.5607    0.0000 </r>
       <r>    5.6908    0.0000 </r>
       <r>    5.7257    0.0000 </r>
       <r>    5.9882    0.0000 </r>
       <r>    7.0810    0.0000 </r>
       <r>    7.8152    0.0000 </r>
       <r>    8.0548    0.0000 </r>
       <r>    8.1674    0.0000 </r>
       <r>    8.7784    0.0000 </r>
       <r>    9.0692    0.0000 </r>
       <r>    9.1224    0.0000 </r>
       <r>   10.5534    0.0000 </r>
       <r>   11.2392    0.0000 </r>
       <r>   11.3788    0.0000 </r>
       <r>   11.5704    0.0000 </r>
       <r>   11.8582    0.0000 </r>
       <r>   12.0285    0.0000 </r>
       <r>   12.6610    0.0000 </r>
       <r>   12.8400    0.0000 </r>
       <r>   13.1604    0.0000 </r>
       <r>   13.1655    0.0000 </r>
       <r>   15.2965    0.0000 </r>
       <r>   15.3447    0.0000 </r>
       <r>   15.8252    0.0000 </r>
       <r>   15.8314    0.0000 </r>
       <r>   16.1853    0.0000 </r>
      </set>
      <set comment="kpoint 7">
       <r>  -12.6549    1.0000 </r>
       <r>  -11.6329    1.0000 </r>
       <r>   -8.6209    1.0000 </r>
       <r>   -8.3903    1.0000 </r>
       <r>   -5.9730    1.0000 </r>
       <r>   -5.4461    1.0000 </r>
       <r>   -4.7743    1.0000 </r>
       <r>   -4.4950    1.0000 </r>
       <r>   -3.7583    1.0000 </r>
       <r>   -3.3759    1.0000 </r>
       <r>   -3.1753    1.0000 </r>
       <r>   -1.7814    1.0000 </r>
       <r>   -1.4062    1.0000 </r>
       <r>   -1.1636    1.0000 </r>
       <r>   -0.2725    1.0000 </r>
       <r>   -0.2038    1.0000 </r>
       <r>    0.1262    1.0000 </r>
       <r>    0.2086    1.0000 </r>
       <r>    0.5303    1.0000 </r>
       <r>    1.6599    1.0000 </r>
       <r>    1.7435    0.9999 </r>
       <r>    2.1254    0.0000 </r>
       <r>    5.6367    0.0000 </r>
       <r>    5.7897    0.0000 </r>
       <r>    5.9165    0.0000 </r>
       <r>    6.0947    0.0000 </r>
       <r>    6.9978    0.0000 </r>
       <r>    7.4903    0.0000 </r>
       <r>    8.2006    0.0000 </r>
       <r>    8.3365    0.0000 </r>
       <r>    9.0992    0.0000 </r>
       <r>    9.1335    0.0000 </r>
       <r>    9.3900    0.0000 </r>
       <r>   10.4765    0.0000 </r>
       <r>   10.8474    0.0000 </r>
       <r>   11.0561    0.0000 </r>
       <r>   11.4332    0.0000 </r>
       <r>   11.8460    0.0000 </r>
       <r>   12.2479    0.0000 </r>
       <r>   12.7139    0.0000 </r>
       <r>   12.8391    0.0000 </r>
       <r>   13.1224    0.0000 </r>
       <r>   13.6980    0.0000 </r>
       <r>   14.9187    0.0000 </r>
       <r>   15.3644    0.0000 </r>
       <r>   15.7190    0.0000 </r>
       <r>   15.7609    0.0000 </r>
       <r>   16.3654    0.0000 </r>
      </set>
      <set comment="kpoint 8">
       <r>  -12.5695    1.0000 </r>
       <r>  -11.7656    1.0000 </r>
       <r>   -8.5771    1.0000 </r>
       <r>   -8.3763    1.0000 </r>
       <r>   -5.9485    1.0000 </r>
       <r>   -5.7719    1.0000 </r>
       <r>   -4.7316    1.0000 </r>
       <r>   -4.3868    1.0000 </r>
       <r>   -3.4975    1.0000 </r>
       <r>   -3.2330    1.0000 </r>
       <r>   -2.7094    1.0000 </r>
       <r>   -1.9109    1.0000 </r>
       <r>   -1.7372    1.0000 </r>
       <r>   -1.3261    1.0000 </r>
       <r>   -0.2331    1.0000 </r>
       <r>   -0.2259    1.0000 </r>
       <r>    0.0436    1.0000 </r>
       <r>    0.1958    1.0000 </r>
       <r>    0.4540    1.0000 </r>
       <r>    1.5251    1.0000 </r>
       <r>    1.6136    1.0000 </r>
       <r>    1.8775    0.4370 </r>
       <r>    5.8375    0.0000 </r>
       <r>    5.9176    0.0000 </r>
       <r>    5.9957    0.0000 </r>
       <r>    6.5426    0.0000 </r>
       <r>    6.8774    0.0000 </r>
       <r>    7.2628    0.0000 </r>
       <r>    8.4071    0.0000 </r>
       <r>    8.4688    0.0000 </r>
       <r>    9.0717    0.0000 </r>
       <r>    9.5861    0.0000 </r>
       <r>    9.8487    0.0000 </r>
       <r>   10.1001    0.0000 </r>
       <r>   10.3271    0.0000 </r>
       <r>   10.7951    0.0000 </r>
       <r>   11.4977    0.0000 </r>
       <r>   12.0808    0.0000 </r>
       <r>   12.2796    0.0000 </r>
       <r>   12.5312    0.0000 </r>
       <r>   12.9274    0.0000 </r>
       <r>   12.9983    0.0000 </r>
       <r>   14.2744    0.0000 </r>
       <r>   15.0513    0.0000 </r>
       <r>   15.1302    0.0000 </r>
       <r>   15.6120    0.0000 </r>
       <r>   15.6770    0.0000 </r>
       <r>   16.3857    0.0000 </r>
      </set>
      <set comment="kpoint 9">
       <r>  -12.4463    1.0000 </r>
       <r>  -11.9346    1.0000 </r>
       <r>   -8.5150    1.0000 </r>
       <r>   -8.3739    1.0000 </r>
       <r>   -6.0276    1.0000 </r>
       <r>   -6.0040    1.0000 </r>
       <r>   -4.4066    1.0000 </r>
       <r>   -4.2400    1.0000 </r>
       <r>   -3.6686    1.0000 </r>
       <r>   -2.8539    1.0000 </r>
       <r>   -2.3698    1.0000 </r>
       <r>   -2.2267    1.0000 </r>
       <r>   -1.6732    1.0000 </r>
       <r>   -1.4887    1.0000 </r>
       <r>   -0.4918    1.0000 </r>
       <r>   -0.3184    1.0000 </r>
       <r>    0.0752    1.0000 </r>
       <r>    0.1056    1.0000 </r>
       <r>    0.6131    1.0000 </r>
       <r>    1.3856    1.0000 </r>
       <r>    1.4684    1.0000 </r>
       <r>    1.5540    1.0000 </r>
       <r>    5.8553    0.0000 </r>
       <r>    5.9909    0.0000 </r>
       <r>    6.5006    0.0000 </r>
       <r>    6.7883    0.0000 </r>
       <r>    6.8615    0.0000 </r>
       <r>    7.3531    0.0000 </r>
       <r>    8.3967    0.0000 </r>
       <r>    8.5763    0.0000 </r>
       <r>    8.9134    0.0000 </r>
       <r>    9.3475    0.0000 </r>
       <r>   10.0463    0.0000 </r>
       <r>   10.0716    0.0000 </r>
       <r>   10.4165    0.0000 </r>
       <r>   11.1951    0.0000 </r>
       <r>   11.3387    0.0000 </r>
       <r>   11.8141    0.0000 </r>
       <r>   12.2613    0.0000 </r>
       <r>   12.5209    0.0000 </r>
       <r>   12.6965    0.0000 </r>
       <r>   13.4338    0.0000 </r>
       <r>   14.7347    0.0000 </r>
       <r>   14.7432    0.0000 </r>
       <r>   15.1209    0.0000 </r>
       <r>   15.2765    0.0000 </r>
       <r>   15.6177    0.0000 </r>
       <r>   16.3576    0.0000 </r>
      </set>
      <set comment="kpoint 10">
       <r>  -12.2919    1.0000 </r>
       <r>  -12.1165    1.0000 </r>
       <r>   -8.4487    1.0000 </r>
       <r>   -8.3972    1.0000 </r>
       <r>   -6.1169    1.0000 </r>
       <r>   -6.1124    1.0000 </r>
       <r>   -4.0614    1.0000 </r>
       <r>   -3.8988    1.0000 </r>
       <r>   -3.8580    1.0000 </r>
       <r>   -3.2945    1.0000 </r>
       <r>   -2.1152    1.0000 </r>
       <r>   -1.9222    1.0000 </r>
       <r>   -1.6050    1.0000 </r>
       <r>   -1.6012    1.0000 </r>
       <r>   -0.7125    1.0000 </r>
       <r>   -0.6109    1.0000 </r>
       <r>    0.1087    1.0000 </r>
       <r>    0.1398    1.0000 </r>
       <r>    0.8722    1.0000 </r>
       <r>    1.1863    1.0000 </r>
       <r>    1.3322    1.0000 </r>
       <r>    1.3562    1.0000 </r>
       <r>    5.9069    0.0000 </r>
       <r>    5.9732    0.0000 </r>
       <r>    6.7778    0.0000 </r>
       <r>    6.8284    0.0000 </r>
       <r>    7.1670    0.0000 </r>
       <r>    7.8780    0.0000 </r>
       <r>    7.9221    0.0000 </r>
       <r>    8.6031    0.0000 </r>
       <r>    8.6684    0.0000 </r>
       <r>    8.7807    0.0000 </r>
       <r>   10.2941    0.0000 </r>
       <r>   10.5429    0.0000 </r>
       <r>   10.7804    0.0000 </r>
       <r>   10.8822    0.0000 </r>
       <r>   11.5228    0.0000 </r>
       <r>   11.6285    0.0000 </r>
       <r>   11.9809    0.0000 </r>
       <r>   12.6233    0.0000 </r>
       <r>   12.9997    0.0000 </r>
       <r>   13.4573    0.0000 </r>
       <r>   14.5187    0.0000 </r>
       <r>   14.7037    0.0000 </r>
       <r>   14.8015    0.0000 </r>
       <r>   15.0192    0.0000 </r>
       <r>   16.0916    0.0000 </r>
       <r>   16.3862    0.0000 </r>
      </set>
      <set comment="kpoint 11">
       <r>  -12.6542    1.0000 </r>
       <r>  -11.5194    1.0000 </r>
       <r>   -8.6079    1.0000 </r>
       <r>   -8.3588    1.0000 </r>
       <r>   -5.9935    1.0000 </r>
       <r>   -5.1337    1.0000 </r>
       <r>   -5.0118    1.0000 </r>
       <r>   -4.6087    1.0000 </r>
       <r>   -4.1658    1.0000 </r>
       <r>   -3.9170    1.0000 </r>
       <r>   -3.4742    1.0000 </r>
       <r>   -1.2134    1.0000 </r>
       <r>   -1.0910    1.0000 </r>
       <r>   -0.6545    1.0000 </r>
       <r>   -0.5496    1.0000 </r>
       <r>   -0.1874    1.0000 </r>
       <r>    0.1800    1.0000 </r>
       <r>    0.2892    1.0000 </r>
       <r>    0.7113    1.0000 </r>
       <r>    1.3583    1.0000 </r>
       <r>    1.4216    1.0000 </r>
       <r>    2.2939    0.0000 </r>
       <r>    5.2726    0.0000 </r>
       <r>    5.4374    0.0000 </r>
       <r>    6.1046    0.0000 </r>
       <r>    6.1758    0.0000 </r>
       <r>    7.5150    0.0000 </r>
       <r>    7.6038    0.0000 </r>
       <r>    8.2967    0.0000 </r>
       <r>    8.7014    0.0000 </r>
       <r>    8.8580    0.0000 </r>
       <r>    9.2101    0.0000 </r>
       <r>    9.3441    0.0000 </r>
       <r>   10.8561    0.0000 </r>
       <r>   11.2920    0.0000 </r>
       <r>   11.5448    0.0000 </r>
       <r>   11.6784    0.0000 </r>
       <r>   12.0584    0.0000 </r>
       <r>   12.2446    0.0000 </r>
       <r>   12.7188    0.0000 </r>
       <r>   12.7318    0.0000 </r>
       <r>   12.9745    0.0000 </r>
       <r>   13.1993    0.0000 </r>
       <r>   14.6386    0.0000 </r>
       <r>   15.1267    0.0000 </r>
       <r>   15.3060    0.0000 </r>
       <r>   15.4004    0.0000 </r>
       <r>   15.9251    0.0000 </r>
      </set>
      <set comment="kpoint 12">
       <r>  -12.6108    1.0000 </r>
       <r>  -11.5928    1.0000 </r>
       <r>   -8.5863    1.0000 </r>
       <r>   -8.3484    1.0000 </r>
       <r>   -5.9202    1.0000 </r>
       <r>   -5.3978    1.0000 </r>
       <r>   -5.0359    1.0000 </r>
       <r>   -4.7367    1.0000 </r>
       <r>   -3.9829    1.0000 </r>
       <r>   -3.7164    1.0000 </r>
       <r>   -3.1359    1.0000 </r>
       <r>   -1.3979    1.0000 </r>
       <r>   -1.1872    1.0000 </r>
       <r>   -0.7620    1.0000 </r>
       <r>   -0.5116    1.0000 </r>
       <r>   -0.1061    1.0000 </r>
       <r>    0.1599    1.0000 </r>
       <r>    0.2337    1.0000 </r>
       <r>    0.5988    1.0000 </r>
       <r>    1.2793    1.0000 </r>
       <r>    1.3519    1.0000 </r>
       <r>    2.1583    0.0000 </r>
       <r>    5.3529    0.0000 </r>
       <r>    5.7825    0.0000 </r>
       <r>    6.1218    0.0000 </r>
       <r>    6.2194    0.0000 </r>
       <r>    7.4344    0.0000 </r>
       <r>    7.7603    0.0000 </r>
       <r>    8.0290    0.0000 </r>
       <r>    8.7929    0.0000 </r>
       <r>    9.2227    0.0000 </r>
       <r>    9.2608    0.0000 </r>
       <r>    9.6282    0.0000 </r>
       <r>   10.4916    0.0000 </r>
       <r>   10.7530    0.0000 </r>
       <r>   11.2492    0.0000 </r>
       <r>   11.6963    0.0000 </r>
       <r>   12.1712    0.0000 </r>
       <r>   12.4038    0.0000 </r>
       <r>   12.4752    0.0000 </r>
       <r>   13.1325    0.0000 </r>
       <r>   13.2468    0.0000 </r>
       <r>   13.4068    0.0000 </r>
       <r>   14.6499    0.0000 </r>
       <r>   14.7891    0.0000 </r>
       <r>   15.2440    0.0000 </r>
       <r>   15.4643    0.0000 </r>
       <r>   15.9540    0.0000 </r>
      </set>
      <set comment="kpoint 13">
       <r>  -12.5257    1.0000 </r>
       <r>  -11.7250    1.0000 </r>
       <r>   -8.5421    1.0000 </r>
       <r>   -8.3357    1.0000 </r>
       <r>   -5.8904    1.0000 </r>
       <r>   -5.7172    1.0000 </r>
       <r>   -4.9443    1.0000 </r>
       <r>   -4.7006    1.0000 </r>
       <r>   -4.1062    1.0000 </r>
       <r>   -3.1830    1.0000 </r>
       <r>   -2.6656    1.0000 </r>
       <r>   -1.8946    1.0000 </r>
       <r>   -1.1467    1.0000 </r>
       <r>   -0.9011    1.0000 </r>
       <r>   -0.4589    1.0000 </r>
       <r>   -0.0985    1.0000 </r>
       <r>    0.0037    1.0000 </r>
       <r>    0.2453    1.0000 </r>
       <r>    0.4838    1.0000 </r>
       <r>    1.1480    1.0000 </r>
       <r>    1.2337    1.0000 </r>
       <r>    1.9022    0.1960 </r>
       <r>    5.6737    0.0000 </r>
       <r>    6.0769    0.0000 </r>
       <r>    6.2577    0.0000 </r>
       <r>    6.3495    0.0000 </r>
       <r>    7.3324    0.0000 </r>
       <r>    7.8402    0.0000 </r>
       <r>    7.9943    0.0000 </r>
       <r>    8.9216    0.0000 </r>
       <r>    9.2182    0.0000 </r>
       <r>    9.6928    0.0000 </r>
       <r>    9.8276    0.0000 </r>
       <r>   10.1104    0.0000 </r>
       <r>   10.2285    0.0000 </r>
       <r>   11.0343    0.0000 </r>
       <r>   11.5620    0.0000 </r>
       <r>   12.0783    0.0000 </r>
       <r>   12.4817    0.0000 </r>
       <r>   12.7763    0.0000 </r>
       <r>   13.0139    0.0000 </r>
       <r>   13.4192    0.0000 </r>
       <r>   13.9289    0.0000 </r>
       <r>   14.5597    0.0000 </r>
       <r>   14.8384    0.0000 </r>
       <r>   15.2661    0.0000 </r>
       <r>   15.4824    0.0000 </r>
       <r>   16.1647    0.0000 </r>
      </set>
      <set comment="kpoint 14">
       <r>  -12.4030    1.0000 </r>
       <r>  -11.8934    1.0000 </r>
       <r>   -8.4796    1.0000 </r>
       <r>   -8.3350    1.0000 </r>
       <r>   -5.9672    1.0000 </r>
       <r>   -5.9464    1.0000 </r>
       <r>   -4.8088    1.0000 </r>
       <r>   -4.3799    1.0000 </r>
       <r>   -4.2703    1.0000 </r>
       <r>   -2.8156    1.0000 </r>
       <r>   -2.3290    1.0000 </r>
       <r>   -2.1856    1.0000 </r>
       <r>   -1.0903    1.0000 </r>
       <r>   -1.0381    1.0000 </r>
       <r>   -0.4650    1.0000 </r>
       <r>   -0.3839    1.0000 </r>
       <r>    0.0475    1.0000 </r>
       <r>    0.0506    1.0000 </r>
       <r>    0.6307    1.0000 </r>
       <r>    1.0185    1.0000 </r>
       <r>    1.1012    1.0000 </r>
       <r>    1.5677    1.0000 </r>
       <r>    6.0885    0.0000 </r>
       <r>    6.2079    0.0000 </r>
       <r>    6.3808    0.0000 </r>
       <r>    6.7837    0.0000 </r>
       <r>    7.2771    0.0000 </r>
       <r>    7.7618    0.0000 </r>
       <r>    8.0503    0.0000 </r>
       <r>    9.0212    0.0000 </r>
       <r>    9.0806    0.0000 </r>
       <r>    9.1514    0.0000 </r>
       <r>    9.8611    0.0000 </r>
       <r>   10.1598    0.0000 </r>
       <r>   10.6766    0.0000 </r>
       <r>   11.0517    0.0000 </r>
       <r>   11.2940    0.0000 </r>
       <r>   11.9243    0.0000 </r>
       <r>   12.3235    0.0000 </r>
       <r>   12.9594    0.0000 </r>
       <r>   13.0104    0.0000 </r>
       <r>   13.7621    0.0000 </r>
       <r>   14.3473    0.0000 </r>
       <r>   14.3645    0.0000 </r>
       <r>   14.9976    0.0000 </r>
       <r>   15.0916    0.0000 </r>
       <r>   15.5796    0.0000 </r>
       <r>   16.3427    0.0000 </r>
      </set>
      <set comment="kpoint 15">
       <r>  -12.2493    1.0000 </r>
       <r>  -12.0746    1.0000 </r>
       <r>   -8.4125    1.0000 </r>
       <r>   -8.3600    1.0000 </r>
       <r>   -6.0574    1.0000 </r>
       <r>   -6.0519    1.0000 </r>
       <r>   -4.6413    1.0000 </r>
       <r>   -4.4561    1.0000 </r>
       <r>   -3.8678    1.0000 </r>
       <r>   -3.2720    1.0000 </r>
       <r>   -2.0470    1.0000 </r>
       <r>   -1.8818    1.0000 </r>
       <r>   -1.1104    1.0000 </r>
       <r>   -1.0497    1.0000 </r>
       <r>   -0.6400    1.0000 </r>
       <r>   -0.6343    1.0000 </r>
       <r>   -0.0019    1.0000 </r>
       <r>    0.0416    1.0000 </r>
       <r>    0.8879    1.0000 </r>
       <r>    0.9562    1.0000 </r>
       <r>    0.9968    1.0000 </r>
       <r>    1.2147    1.0000 </r>
       <r>    6.1803    0.0000 </r>
       <r>    6.2989    0.0000 </r>
       <r>    6.8596    0.0000 </r>
       <r>    7.1973    0.0000 </r>
       <r>    7.2554    0.0000 </r>
       <r>    7.6030    0.0000 </r>
       <r>    7.9086    0.0000 </r>
       <r>    8.4187    0.0000 </r>
       <r>    9.0769    0.0000 </r>
       <r>    9.1088    0.0000 </r>
       <r>    9.9854    0.0000 </r>
       <r>   10.4577    0.0000 </r>
       <r>   10.6812    0.0000 </r>
       <r>   10.9537    0.0000 </r>
       <r>   11.7028    0.0000 </r>
       <r>   11.7186    0.0000 </r>
       <r>   12.1010    0.0000 </r>
       <r>   12.8791    0.0000 </r>
       <r>   13.3884    0.0000 </r>
       <r>   13.7346    0.0000 </r>
       <r>   14.1966    0.0000 </r>
       <r>   14.3509    0.0000 </r>
       <r>   14.9629    0.0000 </r>
       <r>   15.1023    0.0000 </r>
       <r>   15.9567    0.0000 </r>
       <r>   16.2600    0.0000 </r>
      </set>
      <set comment="kpoint 16">
       <r>  -12.5968    1.0000 </r>
       <r>  -11.4681    1.0000 </r>
       <r>   -8.5641    1.0000 </r>
       <r>   -8.3038    1.0000 </r>
       <r>   -5.9295    1.0000 </r>
       <r>   -5.6143    1.0000 </r>
       <r>   -4.9418    1.0000 </r>
       <r>   -4.5526    1.0000 </r>
       <r>   -4.4368    1.0000 </r>
       <r>   -4.1265    1.0000 </r>
       <r>   -3.4123    1.0000 </r>
       <r>   -1.2263    1.0000 </r>
       <r>   -1.0768    1.0000 </r>
       <r>   -1.0081    1.0000 </r>
       <r>   -0.2047    1.0000 </r>
       <r>    0.2082    1.0000 </r>
       <r>    0.3323    1.0000 </r>
       <r>    0.5829    1.0000 </r>
       <r>    0.7748    1.0000 </r>
       <r>    0.9737    1.0000 </r>
       <r>    0.9878    1.0000 </r>
       <r>    2.3280    0.0000 </r>
       <r>    4.9301    0.0000 </r>
       <r>    5.1445    0.0000 </r>
       <r>    6.3357    0.0000 </r>
       <r>    6.5653    0.0000 </r>
       <r>    7.2462    0.0000 </r>
       <r>    7.9440    0.0000 </r>
       <r>    8.6740    0.0000 </r>
       <r>    9.0363    0.0000 </r>
       <r>    9.4339    0.0000 </r>
       <r>    9.5557    0.0000 </r>
       <r>    9.6253    0.0000 </r>
       <r>   10.7175    0.0000 </r>
       <r>   11.2413    0.0000 </r>
       <r>   11.9400    0.0000 </r>
       <r>   11.9936    0.0000 </r>
       <r>   12.2660    0.0000 </r>
       <r>   12.3969    0.0000 </r>
       <r>   12.4224    0.0000 </r>
       <r>   12.5375    0.0000 </r>
       <r>   12.9596    0.0000 </r>
       <r>   13.7571    0.0000 </r>
       <r>   13.8520    0.0000 </r>
       <r>   14.3835    0.0000 </r>
       <r>   15.0721    0.0000 </r>
       <r>   15.3734    0.0000 </r>
       <r>   15.8205    0.0000 </r>
      </set>
      <set comment="kpoint 17">
       <r>  -12.5536    1.0000 </r>
       <r>  -11.5411    1.0000 </r>
       <r>   -8.5421    1.0000 </r>
       <r>   -8.2943    1.0000 </r>
       <r>   -5.8516    1.0000 </r>
       <r>   -5.5796    1.0000 </r>
       <r>   -5.2783    1.0000 </r>
       <r>   -4.6869    1.0000 </r>
       <r>   -4.5021    1.0000 </r>
       <r>   -3.6627    1.0000 </r>
       <r>   -3.0744    1.0000 </r>
       <r>   -1.3916    1.0000 </r>
       <r>   -1.1693    1.0000 </r>
       <r>   -1.0230    1.0000 </r>
       <r>   -0.2059    1.0000 </r>
       <r>    0.1925    1.0000 </r>
       <r>    0.2653    1.0000 </r>
       <r>    0.5625    1.0000 </r>
       <r>    0.6535    1.0000 </r>
       <r>    0.9083    1.0000 </r>
       <r>    0.9462    1.0000 </r>
       <r>    2.1904    0.0000 </r>
       <r>    5.0261    0.0000 </r>
       <r>    5.4754    0.0000 </r>
       <r>    6.2817    0.0000 </r>
       <r>    6.6975    0.0000 </r>
       <r>    7.3816    0.0000 </r>
       <r>    7.9017    0.0000 </r>
       <r>    8.6100    0.0000 </r>
       <r>    9.1498    0.0000 </r>
       <r>    9.3997    0.0000 </r>
       <r>    9.7653    0.0000 </r>
       <r>    9.8678    0.0000 </r>
       <r>   10.3102    0.0000 </r>
       <r>   10.6806    0.0000 </r>
       <r>   11.6780    0.0000 </r>
       <r>   11.8604    0.0000 </r>
       <r>   12.2190    0.0000 </r>
       <r>   12.4497    0.0000 </r>
       <r>   12.6164    0.0000 </r>
       <r>   12.9313    0.0000 </r>
       <r>   13.3607    0.0000 </r>
       <r>   13.7573    0.0000 </r>
       <r>   13.8931    0.0000 </r>
       <r>   14.2221    0.0000 </r>
       <r>   15.0406    0.0000 </r>
       <r>   15.4025    0.0000 </r>
       <r>   15.6959    0.0000 </r>
      </set>
      <set comment="kpoint 18">
       <r>  -12.4690    1.0000 </r>
       <r>  -11.6727    1.0000 </r>
       <r>   -8.4973    1.0000 </r>
       <r>   -8.2834    1.0000 </r>
       <r>   -5.8143    1.0000 </r>
       <r>   -5.6648    1.0000 </r>
       <r>   -5.4255    1.0000 </r>
       <r>   -4.6608    1.0000 </r>
       <r>   -4.6240    1.0000 </r>
       <r>   -3.1240    1.0000 </r>
       <r>   -2.6053    1.0000 </r>
       <r>   -1.8757    1.0000 </r>
       <r>   -1.1088    1.0000 </r>
       <r>   -1.0420    1.0000 </r>
       <r>   -0.2240    1.0000 </r>
       <r>   -0.0615    1.0000 </r>
       <r>    0.3033    1.0000 </r>
       <r>    0.4953    1.0000 </r>
       <r>    0.5112    1.0000 </r>
       <r>    0.8194    1.0000 </r>
       <r>    0.8791    1.0000 </r>
       <r>    1.9306    0.0484 </r>
       <r>    5.3513    0.0000 </r>
       <r>    5.9491    0.0000 </r>
       <r>    6.2544    0.0000 </r>
       <r>    6.8109    0.0000 </r>
       <r>    7.5487    0.0000 </r>
       <r>    7.9229    0.0000 </r>
       <r>    8.5373    0.0000 </r>
       <r>    9.3375    0.0000 </r>
       <r>    9.3684    0.0000 </r>
       <r>    9.5682    0.0000 </r>
       <r>   10.0175    0.0000 </r>
       <r>   10.0831    0.0000 </r>
       <r>   10.5320    0.0000 </r>
       <r>   11.3592    0.0000 </r>
       <r>   11.3715    0.0000 </r>
       <r>   12.2128    0.0000 </r>
       <r>   12.7098    0.0000 </r>
       <r>   12.9297    0.0000 </r>
       <r>   13.1508    0.0000 </r>
       <r>   13.4902    0.0000 </r>
       <r>   13.7305    0.0000 </r>
       <r>   13.9851    0.0000 </r>
       <r>   14.3577    0.0000 </r>
       <r>   15.1321    0.0000 </r>
       <r>   15.3274    0.0000 </r>
       <r>   15.9583    0.0000 </r>
      </set>
      <set comment="kpoint 19">
       <r>  -12.3470    1.0000 </r>
       <r>  -11.8401    1.0000 </r>
       <r>   -8.4341    1.0000 </r>
       <r>   -8.2850    1.0000 </r>
       <r>   -5.8878    1.0000 </r>
       <r>   -5.8739    1.0000 </r>
       <r>   -5.3122    1.0000 </r>
       <r>   -4.7878    1.0000 </r>
       <r>   -4.3443    1.0000 </r>
       <r>   -2.7710    1.0000 </r>
       <r>   -2.2867    1.0000 </r>
       <r>   -2.1300    1.0000 </r>
       <r>   -1.0507    1.0000 </r>
       <r>   -1.0245    1.0000 </r>
       <r>   -0.3852    1.0000 </r>
       <r>   -0.3394    1.0000 </r>
       <r>    0.1408    1.0000 </r>
       <r>    0.3656    1.0000 </r>
       <r>    0.6506    1.0000 </r>
       <r>    0.7630    1.0000 </r>
       <r>    0.8126    1.0000 </r>
       <r>    1.5923    1.0000 </r>
       <r>    5.8779    0.0000 </r>
       <r>    6.2870    0.0000 </r>
       <r>    6.5265    0.0000 </r>
       <r>    6.7627    0.0000 </r>
       <r>    7.5487    0.0000 </r>
       <r>    7.9827    0.0000 </r>
       <r>    8.4920    0.0000 </r>
       <r>    8.8927    0.0000 </r>
       <r>    9.2474    0.0000 </r>
       <r>    9.5565    0.0000 </r>
       <r>    9.8755    0.0000 </r>
       <r>   10.3180    0.0000 </r>
       <r>   10.7685    0.0000 </r>
       <r>   11.0674    0.0000 </r>
       <r>   11.4113    0.0000 </r>
       <r>   12.1404    0.0000 </r>
       <r>   12.3891    0.0000 </r>
       <r>   13.1300    0.0000 </r>
       <r>   13.2524    0.0000 </r>
       <r>   13.6251    0.0000 </r>
       <r>   13.8675    0.0000 </r>
       <r>   14.1199    0.0000 </r>
       <r>   14.7260    0.0000 </r>
       <r>   14.9597    0.0000 </r>
       <r>   15.3995    0.0000 </r>
       <r>   16.2915    0.0000 </r>
      </set>
      <set comment="kpoint 20">
       <r>  -12.1942    1.0000 </r>
       <r>  -12.0204    1.0000 </r>
       <r>   -8.3662    1.0000 </r>
       <r>   -8.3121    1.0000 </r>
       <r>   -5.9802    1.0000 </r>
       <r>   -5.9727    1.0000 </r>
       <r>   -5.1513    1.0000 </r>
       <r>   -4.9702    1.0000 </r>
       <r>   -3.8358    1.0000 </r>
       <r>   -3.2420    1.0000 </r>
       <r>   -1.9902    1.0000 </r>
       <r>   -1.8358    1.0000 </r>
       <r>   -0.9886    1.0000 </r>
       <r>   -0.9291    1.0000 </r>
       <r>   -0.6822    1.0000 </r>
       <r>   -0.6392    1.0000 </r>
       <r>    0.1174    1.0000 </r>
       <r>    0.2181    1.0000 </r>
       <r>    0.7474    1.0000 </r>
       <r>    0.7635    1.0000 </r>
       <r>    0.9135    1.0000 </r>
       <r>    1.2362    1.0000 </r>
       <r>    6.4201    0.0000 </r>
       <r>    6.5374    0.0000 </r>
       <r>    6.5994    0.0000 </r>
       <r>    7.1156    0.0000 </r>
       <r>    7.1869    0.0000 </r>
       <r>    7.6720    0.0000 </r>
       <r>    8.4811    0.0000 </r>
       <r>    8.5451    0.0000 </r>
       <r>    9.4416    0.0000 </r>
       <r>    9.6126    0.0000 </r>
       <r>    9.8162    0.0000 </r>
       <r>   10.1152    0.0000 </r>
       <r>   10.8319    0.0000 </r>
       <r>   11.2081    0.0000 </r>
       <r>   11.8378    0.0000 </r>
       <r>   11.9149    0.0000 </r>
       <r>   12.2219    0.0000 </r>
       <r>   13.1136    0.0000 </r>
       <r>   13.4064    0.0000 </r>
       <r>   13.5901    0.0000 </r>
       <r>   13.8092    0.0000 </r>
       <r>   13.9157    0.0000 </r>
       <r>   15.0688    0.0000 </r>
       <r>   15.0860    0.0000 </r>
       <r>   15.6336    0.0000 </r>
       <r>   15.9352    0.0000 </r>
      </set>
      <set comment="kpoint 21">
       <r>  -12.5368    1.0000 </r>
[...]
       <r>   -2.3269    1.0000 </r>
       <r>   -2.1505    1.0000 </r>
       <r>   -1.9875    1.0000 </r>
       <r>   -1.5018    1.0000 </r>
       <r>   -0.7466    1.0000 </r>
       <r>   -0.2128    1.0000 </r>
       <r>    0.1575    1.0000 </r>
       <r>    0.3765    1.0000 </r>
       <r>    0.5002    1.0000 </r>
       <r>    1.5763    1.0000 </r>
       <r>    1.6031    1.0000 </r>
       <r>    1.8582    0.6505 </r>
       <r>    5.4965    0.0000 </r>
       <r>    6.1292    0.0000 </r>
       <r>    6.6495    0.0000 </r>
       <r>    7.1935    0.0000 </r>
       <r>    7.7559    0.0000 </r>
       <r>    8.2049    0.0000 </r>
       <r>    8.9689    0.0000 </r>
       <r>    9.1255    0.0000 </r>
       <r>    9.6963    0.0000 </r>
       <r>    9.9309    0.0000 </r>
       <r>   10.5599    0.0000 </r>
       <r>   11.0090    0.0000 </r>
       <r>   11.1737    0.0000 </r>
       <r>   11.4433    0.0000 </r>
       <r>   11.5380    0.0000 </r>
       <r>   11.9232    0.0000 </r>
       <r>   12.8075    0.0000 </r>
       <r>   13.1060    0.0000 </r>
       <r>   13.3372    0.0000 </r>
       <r>   13.7155    0.0000 </r>
       <r>   13.8349    0.0000 </r>
       <r>   14.1232    0.0000 </r>
       <r>   14.4409    0.0000 </r>
       <r>   14.9369    0.0000 </r>
       <r>   15.0595    0.0000 </r>
       <r>   15.3595    0.0000 </r>
      </set>
      <set comment="kpoint 175">
       <r>  -12.0190    1.0000 </r>
       <r>  -11.8798    1.0000 </r>
       <r>   -8.5506    1.0000 </r>
       <r>   -8.4383    1.0000 </r>
       <r>   -5.9310    1.0000 </r>
       <r>   -5.8253    1.0000 </r>
       <r>   -4.8989    1.0000 </r>
       <r>   -4.5762    1.0000 </r>
       <r>   -4.4199    1.0000 </r>
       <r>   -3.9827    1.0000 </r>
       <r>   -2.2028    1.0000 </r>
       <r>   -2.1414    1.0000 </r>
       <r>   -2.0692    1.0000 </r>
       <r>   -1.7849    1.0000 </r>
       <r>   -0.2297    1.0000 </r>
       <r>   -0.0172    1.0000 </r>
       <r>    0.3794    1.0000 </r>
       <r>    0.4672    1.0000 </r>
       <r>    0.5362    1.0000 </r>
       <r>    0.8629    1.0000 </r>
       <r>    1.6171    1.0000 </r>
       <r>    1.7167    1.0000 </r>
       <r>    5.8422    0.0000 </r>
       <r>    6.0271    0.0000 </r>
       <r>    6.8520    0.0000 </r>
       <r>    7.3813    0.0000 </r>
       <r>    7.4545    0.0000 </r>
       <r>    7.5506    0.0000 </r>
       <r>    9.3736    0.0000 </r>
       <r>    9.5559    0.0000 </r>
       <r>    9.7641    0.0000 </r>
       <r>    9.9416    0.0000 </r>
       <r>   10.4352    0.0000 </r>
       <r>   10.7832    0.0000 </r>
       <r>   11.2138    0.0000 </r>
       <r>   11.4805    0.0000 </r>
       <r>   11.4855    0.0000 </r>
       <r>   11.5847    0.0000 </r>
       <r>   13.0507    0.0000 </r>
       <r>   13.1558    0.0000 </r>
       <r>   13.6813    0.0000 </r>
       <r>   14.0198    0.0000 </r>
       <r>   14.1528    0.0000 </r>
       <r>   14.2533    0.0000 </r>
       <r>   14.5590    0.0000 </r>
       <r>   14.7061    0.0000 </r>
       <r>   14.8558    0.0000 </r>
       <r>   15.0087    0.0000 </r>
      </set>
     </set>
    </set>
   </array>
  </eigenvalues>
  <separator name="orbital magnetization" >
   <v name="MAGDIPOLOUT">      0.00000000      0.00000000      0.00000000</v>
  </separator>
  <dos>
   <i name="efermi">      1.87189327 </i>
   <total>
    <array>
     <dimension dim="1">gridpoints</dimension>
     <dimension dim="2">spin</dimension>
     <field>energy</field>
     <field>total</field>
     <field>integrated</field>
     <set>
      <set comment="spin 1">
       <r>   -14.1825     0.0000     0.0000 </r>
       <r>   -14.0755     0.0000     0.0000 </r>
       <r>   -13.9684     0.0000     0.0000 </r>
       <r>   -13.8613     0.0000     0.0000 </r>
       <r>   -13.7542     0.0000     0.0000 </r>
       <r>   -13.6472     0.0000     0.0000 </r>
       <r>   -13.5401     0.0000     0.0000 </r>
       <r>   -13.4330     0.0000     0.0000 </r>
       <r>   -13.3259     0.0000     0.0000 </r>
       <r>   -13.2189     0.0000     0.0000 </r>
       <r>   -13.1118     0.0000     0.0000 </r>
       <r>   -13.0047     0.0000     0.0000 </r>
       <r>   -12.8977     0.0000     0.0000 </r>
       <r>   -12.7906     0.0038     0.0004 </r>
       <r>   -12.6835     0.5094     0.0550 </r>
       <r>   -12.5764     2.3927     0.3111 </r>
       <r>   -12.4694     3.5690     0.6933 </r>
       <r>   -12.3623     4.3751     1.1617 </r>
       <r>   -12.2552     3.5391     1.5407 </r>
       <r>   -12.1482     2.7362     1.8336 </r>
       <r>   -12.0411     2.7533     2.1284 </r>
       <r>   -11.9340     2.5019     2.3963 </r>
       <r>   -11.8269     2.7715     2.6931 </r>
       <r>   -11.7199     3.4191     3.0592 </r>
       <r>   -11.6128     3.5362     3.4378 </r>
       <r>   -11.5057     3.1269     3.7726 </r>
       <r>   -11.3987     1.6831     3.9528 </r>
       <r>   -11.2916     0.4327     3.9992 </r>
       <r>   -11.1845     0.0079     4.0000 </r>
       <r>   -11.0774     0.0000     4.0000 </r>
       <r>   -10.9704     0.0000     4.0000 </r>
       <r>   -10.8633     0.0000     4.0000 </r>
       <r>   -10.7562     0.0000     4.0000 </r>
       <r>   -10.6491     0.0000     4.0000 </r>
       <r>   -10.5421     0.0000     4.0000 </r>
       <r>   -10.4350     0.0000     4.0000 </r>
       <r>   -10.3279     0.0000     4.0000 </r>
       <r>   -10.2209     0.0000     4.0000 </r>
       <r>   -10.1138     0.0000     4.0000 </r>
       <r>   -10.0067     0.0000     4.0000 </r>
       <r>    -9.8996     0.0000     4.0000 </r>
       <r>    -9.7926     0.0000     4.0000 </r>
       <r>    -9.6855     0.0000     4.0000 </r>
       <r>    -9.5784     0.0000     4.0000 </r>
       <r>    -9.4714     0.0000     4.0000 </r>
       <r>    -9.3643     0.0000     4.0000 </r>
       <r>    -9.2572     0.0000     4.0000 </r>
       <r>    -9.1501     0.0000     4.0000 </r>
       <r>    -9.0431     0.0000     4.0000 </r>
       <r>    -8.9360     0.0006     4.0001 </r>
       <r>    -8.8289     0.2791     4.0300 </r>
       <r>    -8.7219     2.1015     4.2550 </r>
       <r>    -8.6148     5.3556     4.8284 </r>
       <r>    -8.5077     7.0024     5.5782 </r>
       <r>    -8.4006     6.2900     6.2517 </r>
       <r>    -8.2936     5.3275     6.8221 </r>
       <r>    -8.1865     4.8416     7.3405 </r>
       <r>    -8.0794     3.8674     7.7546 </r>
       <r>    -7.9723     1.6635     7.9327 </r>
       <r>    -7.8653     0.5767     7.9944 </r>
       <r>    -7.7582     0.0520     8.0000 </r>
       <r>    -7.6511     0.0000     8.0000 </r>
       <r>    -7.5441     0.0000     8.0000 </r>
       <r>    -7.4370     0.0000     8.0000 </r>
       <r>    -7.3299     0.0000     8.0000 </r>
       <r>    -7.2228     0.0000     8.0000 </r>
       <r>    -7.1158     0.0000     8.0000 </r>
       <r>    -7.0087     0.0004     8.0000 </r>
       <r>    -6.9016     0.1113     8.0120 </r>
       <r>    -6.7946     0.2587     8.0397 </r>
       <r>    -6.6875     0.4252     8.0852 </r>
       <r>    -6.5804     0.7663     8.1672 </r>
       <r>    -6.4733     0.8477     8.2580 </r>
       <r>    -6.3663     1.4384     8.4120 </r>
       <r>    -6.2592     1.9485     8.6206 </r>
       <r>    -6.1521     3.0537     8.9476 </r>
       <r>    -6.0450     3.7923     9.3536 </r>
       <r>    -5.9380     4.1194     9.7947 </r>
       <r>    -5.8309     4.0495    10.2283 </r>
       <r>    -5.7238     3.8750    10.6432 </r>
       <r>    -5.6168     4.0746    11.0795 </r>
       <r>    -5.5097     4.2186    11.5312 </r>
       <r>    -5.4026     4.5573    12.0191 </r>
       <r>    -5.2955     4.6128    12.5131 </r>
       <r>    -5.1885     4.4949    12.9943 </r>
       <r>    -5.0814     3.8774    13.4095 </r>
       <r>    -4.9743     3.2245    13.7547 </r>
       <r>    -4.8673     2.9652    14.0722 </r>
       <r>    -4.7602     2.3204    14.3207 </r>
       <r>    -4.6531     2.8970    14.6309 </r>
       <r>    -4.5460     3.3713    14.9918 </r>
       <r>    -4.4390     3.4575    15.3620 </r>
       <r>    -4.3319     3.3494    15.7207 </r>
       <r>    -4.2248     2.9591    16.0375 </r>
       <r>    -4.1178     2.9098    16.3491 </r>
       <r>    -4.0107     2.9374    16.6636 </r>
       <r>    -3.9036     2.8732    16.9712 </r>
       <r>    -3.7965     3.1122    17.3045 </r>
       <r>    -3.6895     2.8878    17.6137 </r>
       <r>    -3.5824     2.7064    17.9034 </r>
       <r>    -3.4753     3.0727    18.2324 </r>
       <r>    -3.3682     2.6503    18.5162 </r>
       <r>    -3.2612     2.8442    18.8208 </r>
       <r>    -3.1541     2.7716    19.1175 </r>
       <r>    -3.0470     2.7236    19.4091 </r>
       <r>    -2.9400     3.0665    19.7375 </r>
       <r>    -2.8329     2.9811    20.0567 </r>
       <r>    -2.7258     2.4392    20.3178 </r>
       <r>    -2.6187     2.6455    20.6011 </r>
       <r>    -2.5117     3.0156    20.9240 </r>
       <r>    -2.4046     2.9959    21.2448 </r>
       <r>    -2.2975     3.1868    21.5860 </r>
       <r>    -2.1905     4.0032    22.0146 </r>
       <r>    -2.0834     3.6571    22.4062 </r>
       <r>    -1.9763     3.2395    22.7530 </r>
       <r>    -1.8692     5.0512    23.2939 </r>
       <r>    -1.7622     5.5491    23.8880 </r>
       <r>    -1.6551     5.6310    24.4909 </r>
       <r>    -1.5480     6.1774    25.1524 </r>
       <r>    -1.4410     6.1321    25.8089 </r>
       <r>    -1.3339     5.5947    26.4080 </r>
       <r>    -1.2268     4.6843    26.9095 </r>
       <r>    -1.1197     6.4955    27.6050 </r>
       <r>    -1.0127     4.0865    28.0426 </r>
       <r>    -0.9056     2.2790    28.2866 </r>
       <r>    -0.7985     2.7029    28.5760 </r>
       <r>    -0.6914     2.8813    28.8845 </r>
       <r>    -0.5844     4.4690    29.3630 </r>
       <r>    -0.4773     6.8388    30.0953 </r>
       <r>    -0.3702     5.6701    30.7024 </r>
       <r>    -0.2632     6.6681    31.4163 </r>
       <r>    -0.1561     6.3710    32.0985 </r>
       <r>    -0.0490     6.7404    32.8202 </r>
       <r>     0.0581     6.8023    33.5485 </r>
       <r>     0.1651     6.2645    34.2193 </r>
       <r>     0.2722     8.8234    35.1640 </r>
       <r>     0.3793     8.0499    36.0260 </r>
       <r>     0.4863     8.6866    36.9560 </r>
       <r>     0.5934     5.3283    37.5266 </r>
       <r>     0.7005     2.9790    37.8455 </r>
       <r>     0.8076     3.2573    38.1943 </r>
       <r>     0.9146     3.5897    38.5786 </r>
       <r>     1.0217     3.5749    38.9614 </r>
       <r>     1.1288     2.7997    39.2612 </r>
       <r>     1.2358     3.3746    39.6225 </r>
       <r>     1.3429     4.4855    40.1028 </r>
       <r>     1.4500     3.8025    40.5099 </r>
       <r>     1.5571     3.7091    40.9071 </r>
       <r>     1.6641     4.5851    41.3980 </r>
       <r>     1.7712     3.2996    41.7513 </r>
       <r>     1.8783     2.4765    42.0165 </r>
       <r>     1.9854     2.6719    42.3025 </r>
       <r>     2.0924     2.0941    42.5268 </r>
       <r>     2.1995     2.6503    42.8105 </r>
       <r>     2.3066     2.5937    43.0882 </r>
       <r>     2.4136     1.9605    43.2982 </r>
       <r>     2.5207     0.8808    43.3925 </r>
       <r>     2.6278     0.3788    43.4330 </r>
       <r>     2.7349     0.5744    43.4945 </r>
       <r>     2.8419     0.4204    43.5395 </r>
       <r>     2.9490     0.3055    43.5723 </r>
       <r>     3.0561     0.7448    43.6520 </r>
       <r>     3.1631     1.0201    43.7612 </r>
       <r>     3.2702     0.5553    43.8207 </r>
       <r>     3.3773     0.0149    43.8223 </r>
       <r>     3.4844     0.1250    43.8357 </r>
       <r>     3.5914     0.3939    43.8778 </r>
       <r>     3.6985     0.3354    43.9138 </r>
       <r>     3.8056     0.3680    43.9532 </r>
       <r>     3.9126     0.4083    43.9969 </r>
       <r>     4.0197     0.0293    44.0000 </r>
       <r>     4.1268     0.0000    44.0000 </r>
       <r>     4.2339     0.0238    44.0026 </r>
       <r>     4.3409     0.1695    44.0207 </r>
       <r>     4.4480     0.3934    44.0628 </r>
       <r>     4.5551     0.4584    44.1119 </r>
       <r>     4.6622     0.6258    44.1789 </r>
       <r>     4.7692     0.8796    44.2731 </r>
       <r>     4.8763     0.8387    44.3629 </r>
       <r>     4.9834     0.8613    44.4551 </r>
       <r>     5.0904     1.2645    44.5905 </r>
       <r>     5.1975     1.1670    44.7155 </r>
       <r>     5.3046     1.6112    44.8880 </r>
       <r>     5.4117     2.1644    45.1197 </r>
       <r>     5.5187     2.4948    45.3868 </r>
       <r>     5.6258     2.7935    45.6859 </r>
       <r>     5.7329     3.3289    46.0424 </r>
       <r>     5.8399     3.2425    46.3896 </r>
       <r>     5.9470     4.2739    46.8472 </r>
       <r>     6.0541     4.7878    47.3598 </r>
       <r>     6.1612     4.0661    47.7952 </r>
       <r>     6.2682     4.6126    48.2891 </r>
       <r>     6.3753     4.2202    48.7409 </r>
       <r>     6.4824     3.9861    49.1677 </r>
       <r>     6.5894     4.5053    49.6501 </r>
       <r>     6.6965     3.2421    49.9973 </r>
       <r>     6.8036     3.9779    50.4232 </r>
       <r>     6.9107     4.6092    50.9167 </r>
       <r>     7.0177     4.5714    51.4062 </r>
       <r>     7.1248     4.3402    51.8709 </r>
       <r>     7.2319     5.5872    52.4691 </r>
       <r>     7.3390     4.9625    53.0005 </r>
       <r>     7.4460     4.4690    53.4790 </r>
       <r>     7.5531     4.2137    53.9301 </r>
       <r>     7.6602     3.5812    54.3136 </r>
       <r>     7.7672     3.1142    54.6470 </r>
       <r>     7.8743     3.0217    54.9706 </r>
       <r>     7.9814     2.9722    55.2888 </r>
       <r>     8.0885     4.1633    55.7346 </r>
       <r>     8.1955     3.9083    56.1530 </r>
       <r>     8.3026     3.7188    56.5512 </r>
       <r>     8.4097     4.0015    56.9797 </r>
       <r>     8.5167     4.2353    57.4332 </r>
       <r>     8.6238     4.4776    57.9126 </r>
       <r>     8.7309     4.2568    58.3684 </r>
       <r>     8.8380     5.3094    58.9368 </r>
       <r>     8.9450     4.8710    59.4584 </r>
       <r>     9.0521     5.2879    60.0246 </r>
       <r>     9.1592     5.2313    60.5847 </r>
       <r>     9.2663     4.9945    61.1195 </r>
       <r>     9.3733     4.6763    61.6202 </r>
       <r>     9.4804     4.3882    62.0900 </r>
       <r>     9.5875     5.0976    62.6358 </r>
       <r>     9.6945     5.0332    63.1748 </r>
       <r>     9.8016     5.2916    63.7413 </r>
       <r>     9.9087     4.4890    64.2220 </r>
       <r>    10.0158     3.6624    64.6141 </r>
       <r>    10.1228     5.1850    65.1693 </r>
       <r>    10.2299     4.7196    65.6746 </r>
       <r>    10.3370     4.1408    66.1180 </r>
       <r>    10.4440     5.3734    66.6933 </r>
       <r>    10.5511     5.8232    67.3168 </r>
       <r>    10.6582     4.0752    67.7532 </r>
       <r>    10.7653     3.8999    68.1708 </r>
       <r>    10.8723     3.2585    68.5196 </r>
       <r>    10.9794     4.6787    69.0206 </r>
       <r>    11.0865     5.4460    69.6037 </r>
       <r>    11.1935     6.2420    70.2721 </r>
       <r>    11.3006     6.0021    70.9147 </r>
       <r>    11.4077     5.2366    71.4754 </r>
       <r>    11.5148     4.3607    71.9423 </r>
       <r>    11.6218     4.4755    72.4215 </r>
       <r>    11.7289     4.9584    72.9524 </r>
       <r>    11.8360     4.8159    73.4681 </r>
       <r>    11.9431     6.0157    74.1122 </r>
       <r>    12.0501     5.9867    74.7532 </r>
       <r>    12.1572     6.0300    75.3988 </r>
       <r>    12.2643     5.5819    75.9965 </r>
       <r>    12.3713     4.9993    76.5318 </r>
       <r>    12.4784     5.7074    77.1429 </r>
       <r>    12.5855     5.9771    77.7829 </r>
       <r>    12.6926     5.9811    78.4233 </r>
       <r>    12.7996     5.9210    79.0573 </r>
       <r>    12.9067     5.8774    79.6866 </r>
       <r>    13.0138     5.6104    80.2873 </r>
       <r>    13.1208     6.3485    80.9670 </r>
       <r>    13.2279     6.2913    81.6406 </r>
       <r>    13.3350     5.4239    82.2214 </r>
       <r>    13.4421     6.1265    82.8774 </r>
       <r>    13.5491     5.3900    83.4545 </r>
       <r>    13.6562     4.8248    83.9711 </r>
       <r>    13.7633     6.1594    84.6306 </r>
       <r>    13.8703     5.5211    85.2218 </r>
       <r>    13.9774     5.3576    85.7954 </r>
       <r>    14.0845     5.4773    86.3819 </r>
       <r>    14.1916     4.6801    86.8830 </r>
       <r>    14.2986     4.9366    87.4116 </r>
       <r>    14.4057     4.9888    87.9457 </r>
       <r>    14.5128     4.9510    88.4758 </r>
       <r>    14.6199     5.2740    89.0405 </r>
       <r>    14.7269     5.1843    89.5956 </r>
       <r>    14.8340     4.0964    90.0342 </r>
       <r>    14.9411     5.0466    90.5746 </r>
       <r>    15.0481     6.1642    91.2346 </r>
       <r>    15.1552     5.6721    91.8419 </r>
       <r>    15.2623     5.7003    92.4523 </r>
       <r>    15.3694     6.0125    93.0960 </r>
       <r>    15.4764     5.7534    93.7121 </r>
       <r>    15.5835     5.9826    94.3526 </r>
       <r>    15.6906     4.6104    94.8463 </r>
       <r>    15.7976     2.4922    95.1131 </r>
       <r>    15.9047     2.7078    95.4031 </r>
       <r>    16.0118     1.8516    95.6013 </r>
       <r>    16.1189     1.1386    95.7232 </r>
       <r>    16.2259     0.8957    95.8191 </r>
       <r>    16.3330     0.6951    95.8936 </r>
       <r>    16.4401     0.8140    95.9807 </r>
       <r>    16.5471     0.1784    95.9998 </r>
       <r>    16.6542     0.0017    96.0000 </r>
       <r>    16.7613     0.0000    96.0000 </r>
       <r>    16.8684     0.0000    96.0000 </r>
       <r>    16.9754     0.0000    96.0000 </r>
       <r>    17.0825     0.0000    96.0000 </r>
       <r>    17.1896     0.0000    96.0000 </r>
       <r>    17.2967     0.0000    96.0000 </r>
       <r>    17.4037     0.0000    96.0000 </r>
       <r>    17.5108     0.0000    96.0000 </r>
       <r>    17.6179     0.0000    96.0000 </r>
       <r>    17.7249     0.0000    96.0000 </r>
       <r>    17.8320     0.0000    96.0000 </r>
       <r>    17.9391     0.0000    96.0000 </r>
      </set>
     </set>
    </array>
   </total>
  </dos>
 </calculation>
 <structure name="finalpos" >
  <crystal>
   <varray name="basis" >
    <v>       5.70098790       0.00000000       0.00000000 </v>
    <v>       0.00000000       4.05073353       0.00000000 </v>
    <v>       0.00000000       0.00000000       6.20854294 </v>
   </varray>
   <i name="volume">    143.37501729 </i>
   <varray name="rec_basis" >
    <v>       0.17540820       0.00000000       0.00000000 </v>
    <v>       0.00000000       0.24686887       0.00000000 </v>
    <v>       0.00000000       0.00000000       0.16106839 </v>
   </varray>
  </crystal>
  <varray name="positions" >
   <v>       0.52123000       0.50000000       0.63796000 </v>
   <v>       0.47877000       0.50000000       0.36204000 </v>
   <v>       0.97877000       0.50000000       0.63796000 </v>
   <v>       0.02123000       0.50000000       0.36204000 </v>
   <v>       0.60090000       0.50000000       0.89991000 </v>
   <v>       0.39910000       0.50000000       0.10009000 </v>
   <v>       0.89910000       0.50000000       0.89991000 </v>
   <v>       0.10090000       0.50000000       0.10009000 </v>
   <v>       0.75000000       0.79171000       0.72973000 </v>
   <v>       0.25000000       0.20829000       0.27027000 </v>
   <v>       0.75000000       0.20829000       0.72973000 </v>
   <v>       0.25000000       0.79171000       0.27027000 </v>
   <v>       0.25000000       0.50000000       0.52367000 </v>
   <v>       0.75000000       0.50000000       0.47633000 </v>
  </varray>
 </structure>
</modeling>
