   14   14    1    1
  0.1021960E+02  0.5697000E-09  0.4047900E-09  0.6204200E-09  0.5000000E-15
  1.000000000000000E-004
  CAR 
 Kpoints                                 
     42      1     48
 
  0.0000000E+00  0.0000000E+00  0.0000000E+00  0.1000000E+01
      1        -12.400464   1.000000
      2        -11.272353   1.000000
      3         -8.269412   1.000000
      4         -8.158238   1.000000
      5         -5.793792   1.000000
      6         -4.852407   1.000000
      7         -4.470020   1.000000
      8         -4.205535   1.000000
      9         -3.701184   1.000000
     10         -3.495401   1.000000
     11         -2.537172   1.000000
     12         -2.371453   1.000000
     13         -1.929809   1.000000
     14         -0.678712   1.000000
     15          0.136826   1.000000
     16          0.232652   1.000000
     17          0.288869   1.000000
     18          0.307208   1.000000
     19          0.715623   1.000000
     20          2.334885   0.795694
     21          2.337225   0.776417
     22          2.370526   0.427889
     23          5.552583   0.000000
     24          5.918487   0.000000
     25          5.950112   0.000000
     26          6.103594   0.000000
     27          6.851691   0.000000
     28          7.807610   0.000000
     29          7.921076   0.000000
     30          8.826698   0.000000
     31          8.915679   0.000000
     32          9.050031   0.000000
     33          9.292881   0.000000
     34         10.076573   0.000000
     35         11.110696   0.000000
     36         11.711829   0.000000
     37         11.870483   0.000000
     38         11.951542   0.000000
     39         12.042424   0.000000
     40         12.520072   0.000000
     41         12.913285   0.000000
     42         13.511697   0.000000
     43         13.728753   0.000000
     44         15.679293   0.000000
     45         15.725165   0.000000
     46         16.168579   0.000000
     47         16.506930   0.000000
     48         16.732981   0.000000
