  14  14   1   0
  0.1021318E+02  0.5700971E-09  0.4044058E-09  0.6201871E-09  0.5000000E-15
  1.000000000000000E-004
  CAR 
 BS                                      
     18.00020403    -14.16186220  301      2.15080979      1.00000000
    -14.162  0.0000E+00  0.0000E+00
    -14.055  0.0000E+00  0.0000E+00
    -13.947  0.0000E+00  0.0000E+00
    -13.840  0.0000E+00  0.0000E+00
    -13.733  0.0000E+00  0.0000E+00
    -13.626  0.0000E+00  0.0000E+00
    -13.519  0.0000E+00  0.0000E+00
    -13.411  0.0000E+00  0.0000E+00
    -13.304  0.0000E+00  0.0000E+00
    -13.197  0.5728E-12  0.6141E-13
    -13.090  0.1076E-07  0.1153E-08
    -12.983  0.2232E-04  0.2394E-05
    -12.875  0.5475E-02  0.5893E-03
    -12.768  0.1831E+00  0.2022E-01
    -12.661  0.1105E+01  0.1386E+00
    -12.554  0.1787E+01  0.3302E+00
    -12.447  0.1845E+01  0.5280E+00
    -12.339  0.2859E+01  0.8344E+00
    -12.232  0.3471E+01  0.1207E+01
    -12.125  0.5942E+01  0.1844E+01
    -12.018  0.4706E+01  0.2348E+01
    -11.911  0.3379E+01  0.2710E+01
    -11.803  0.1783E+01  0.2901E+01
    -11.696  0.1363E+01  0.3048E+01
    -11.589  0.2090E+01  0.3272E+01
    -11.482  0.2181E+01  0.3505E+01
    -11.374  0.2090E+01  0.3730E+01
    -11.267  0.1724E+01  0.3914E+01
    -11.160  0.7277E+00  0.3992E+01
    -11.053  0.6957E-01  0.4000E+01
    -10.946  0.9975E-03  0.4000E+01
    -10.838  0.1781E-05  0.4000E+01
    -10.731  0.3611E-09  0.4000E+01
    -10.624  0.7952E-14  0.4000E+01
    -10.517  0.0000E+00  0.4000E+01
    -10.410  0.0000E+00  0.4000E+01
    -10.302  0.0000E+00  0.4000E+01
    -10.195  0.0000E+00  0.4000E+01
    -10.088  0.0000E+00  0.4000E+01
     -9.981  0.0000E+00  0.4000E+01
     -9.874  0.0000E+00  0.4000E+01
     -9.766  0.0000E+00  0.4000E+01
     -9.659  0.0000E+00  0.4000E+01
     -9.552  0.0000E+00  0.4000E+01
     -9.445  0.0000E+00  0.4000E+01
     -9.338  0.0000E+00  0.4000E+01
     -9.230  0.7581E-12  0.4000E+01
     -9.123  0.1614E-07  0.4000E+01
     -9.016  0.3781E-04  0.4000E+01
     -8.909  0.1042E-01  0.4001E+01
     -8.802  0.3901E+00  0.4043E+01
     -8.694  0.2633E+01  0.4325E+01
     -8.587  0.4964E+01  0.4857E+01
     -8.480  0.5482E+01  0.5445E+01
     -8.373  0.6521E+01  0.6144E+01
     -8.265  0.4599E+01  0.6637E+01
     -8.158  0.3509E+01  0.7013E+01
     -8.051  0.3473E+01  0.7386E+01
     -7.944  0.2440E+01  0.7647E+01
     -7.837  0.1681E+01  0.7828E+01
     -7.729  0.1243E+01  0.7961E+01
     -7.622  0.3475E+00  0.7998E+01
     -7.515  0.1795E-01  0.8000E+01
     -7.408  0.1282E-03  0.8000E+01
     -7.301  0.1311E-05  0.8000E+01
     -7.193  0.6881E-03  0.8000E+01
     -7.086  0.4867E-01  0.8005E+01
     -6.979  0.5031E+00  0.8059E+01
     -6.872  0.1045E+01  0.8171E+01
     -6.765  0.9149E+00  0.8269E+01
     -6.657  0.1014E+01  0.8378E+01
     -6.550  0.1097E+01  0.8496E+01
     -6.443  0.1548E+01  0.8662E+01
     -6.336  0.2085E+01  0.8885E+01
     -6.229  0.2328E+01  0.9135E+01
     -6.121  0.3203E+01  0.9478E+01
     -6.014  0.3009E+01  0.9801E+01
     -5.907  0.3153E+01  0.1014E+02
     -5.800  0.4768E+01  0.1065E+02
     -5.693  0.5070E+01  0.1119E+02
     -5.585  0.4231E+01  0.1165E+02
     -5.478  0.3609E+01  0.1203E+02
     -5.371  0.3332E+01  0.1239E+02
     -5.264  0.3122E+01  0.1273E+02
     -5.156  0.2290E+01  0.1297E+02
     -5.049  0.1755E+01  0.1316E+02
     -4.942  0.2106E+01  0.1339E+02
     -4.835  0.2233E+01  0.1362E+02
     -4.728  0.1841E+01  0.1382E+02
     -4.620  0.3053E+01  0.1415E+02
     -4.513  0.4507E+01  0.1463E+02
     -4.406  0.4183E+01  0.1508E+02
     -4.299  0.2861E+01  0.1539E+02
     -4.192  0.1734E+01  0.1557E+02
     -4.084  0.1975E+01  0.1579E+02
     -3.977  0.2044E+01  0.1600E+02
     -3.870  0.2484E+01  0.1627E+02
     -3.763  0.2986E+01  0.1659E+02
     -3.656  0.3457E+01  0.1696E+02
     -3.548  0.4843E+01  0.1748E+02
     -3.441  0.4620E+01  0.1798E+02
     -3.334  0.2706E+01  0.1827E+02
     -3.227  0.3555E+01  0.1865E+02
     -3.120  0.4958E+01  0.1918E+02
     -3.012  0.2752E+01  0.1947E+02
     -2.905  0.1568E+01  0.1964E+02
     -2.798  0.1833E+01  0.1984E+02
     -2.691  0.2087E+01  0.2006E+02
     -2.584  0.2130E+01  0.2029E+02
     -2.476  0.2228E+01  0.2053E+02
     -2.369  0.5129E+01  0.2108E+02
     -2.262  0.5448E+01  0.2166E+02
     -2.155  0.4631E+01  0.2216E+02
     -2.047  0.6575E+01  0.2286E+02
     -1.940  0.6944E+01  0.2361E+02
     -1.833  0.6363E+01  0.2429E+02
     -1.726  0.6119E+01  0.2495E+02
     -1.619  0.6685E+01  0.2566E+02
     -1.511  0.6935E+01  0.2641E+02
     -1.404  0.5305E+01  0.2698E+02
     -1.297  0.3694E+01  0.2737E+02
     -1.190  0.3525E+01  0.2775E+02
     -1.083  0.3967E+01  0.2818E+02
     -0.975  0.3314E+01  0.2853E+02
     -0.868  0.2194E+01  0.2877E+02
     -0.761  0.3214E+01  0.2911E+02
     -0.654  0.5080E+01  0.2966E+02
     -0.547  0.4752E+01  0.3016E+02
     -0.439  0.4480E+01  0.3065E+02
     -0.332  0.4617E+01  0.3114E+02
     -0.225  0.5145E+01  0.3169E+02
     -0.118  0.6124E+01  0.3235E+02
     -0.011  0.7032E+01  0.3310E+02
      0.097  0.7499E+01  0.3391E+02
      0.204  0.8404E+01  0.3481E+02
      0.311  0.8968E+01  0.3577E+02
      0.418  0.6610E+01  0.3648E+02
      0.525  0.3867E+01  0.3689E+02
      0.633  0.3461E+01  0.3726E+02
      0.740  0.3037E+01  0.3759E+02
      0.847  0.2982E+01  0.3791E+02
      0.954  0.3415E+01  0.3827E+02
      1.062  0.5128E+01  0.3882E+02
      1.169  0.4411E+01  0.3930E+02
      1.276  0.2677E+01  0.3958E+02
      1.383  0.2854E+01  0.3989E+02
      1.490  0.2731E+01  0.4018E+02
      1.598  0.2837E+01  0.4049E+02
      1.705  0.3112E+01  0.4082E+02
      1.812  0.2844E+01  0.4113E+02
      1.919  0.2602E+01  0.4140E+02
      2.026  0.2557E+01  0.4168E+02
      2.134  0.2589E+01  0.4196E+02
      2.241  0.2540E+01  0.4223E+02
      2.348  0.2692E+01  0.4252E+02
      2.455  0.3207E+01  0.4286E+02
      2.562  0.2614E+01  0.4314E+02
      2.670  0.1187E+01  0.4327E+02
      2.777  0.3425E+00  0.4330E+02
      2.884  0.2211E+00  0.4333E+02
      2.991  0.2004E+00  0.4335E+02
      3.098  0.2102E+00  0.4337E+02
      3.206  0.2045E+00  0.4339E+02
      3.313  0.2065E+00  0.4342E+02
      3.420  0.2203E+00  0.4344E+02
      3.527  0.2217E+00  0.4346E+02
      3.634  0.2392E+00  0.4349E+02
      3.742  0.2611E+00  0.4352E+02
      3.849  0.2975E+00  0.4355E+02
      3.956  0.4621E+00  0.4360E+02
      4.063  0.1238E+01  0.4373E+02
      4.171  0.1847E+01  0.4393E+02
      4.278  0.1372E+01  0.4408E+02
      4.385  0.1182E+01  0.4420E+02
      4.492  0.1159E+01  0.4433E+02
      4.599  0.1457E+01  0.4448E+02
      4.707  0.1304E+01  0.4462E+02
      4.814  0.1173E+01  0.4475E+02
      4.921  0.1325E+01  0.4489E+02
      5.028  0.1082E+01  0.4501E+02
      5.135  0.9507E+00  0.4511E+02
      5.243  0.1205E+01  0.4524E+02
      5.350  0.1722E+01  0.4542E+02
      5.457  0.2011E+01  0.4564E+02
      5.564  0.2213E+01  0.4588E+02
      5.671  0.2193E+01  0.4611E+02
      5.779  0.2946E+01  0.4643E+02
      5.886  0.4125E+01  0.4687E+02
      5.993  0.5737E+01  0.4748E+02
      6.100  0.3267E+01  0.4783E+02
      6.207  0.1801E+01  0.4803E+02
      6.315  0.2151E+01  0.4826E+02
      6.422  0.2779E+01  0.4856E+02
      6.529  0.4417E+01  0.4903E+02
      6.636  0.3710E+01  0.4943E+02
      6.743  0.2941E+01  0.4974E+02
      6.851  0.4482E+01  0.5022E+02
      6.958  0.6241E+01  0.5089E+02
      7.065  0.6745E+01  0.5162E+02
      7.172  0.6192E+01  0.5228E+02
      7.280  0.5644E+01  0.5288E+02
      7.387  0.5214E+01  0.5344E+02
      7.494  0.4713E+01  0.5395E+02
      7.601  0.4640E+01  0.5445E+02
      7.708  0.4868E+01  0.5497E+02
      7.816  0.4508E+01  0.5545E+02
      7.923  0.3191E+01  0.5579E+02
      8.030  0.2109E+01  0.5602E+02
      8.137  0.2380E+01  0.5627E+02
      8.244  0.3153E+01  0.5661E+02
      8.352  0.4784E+01  0.5713E+02
      8.459  0.5761E+01  0.5774E+02
      8.566  0.4878E+01  0.5827E+02
      8.673  0.3595E+01  0.5865E+02
      8.780  0.2969E+01  0.5897E+02
      8.888  0.3156E+01  0.5931E+02
      8.995  0.3529E+01  0.5969E+02
      9.102  0.3930E+01  0.6011E+02
      9.209  0.3510E+01  0.6048E+02
      9.316  0.3429E+01  0.6085E+02
      9.424  0.4517E+01  0.6134E+02
      9.531  0.4603E+01  0.6183E+02
      9.638  0.4335E+01  0.6229E+02
      9.745  0.4148E+01  0.6274E+02
      9.852  0.4481E+01  0.6322E+02
      9.960  0.4574E+01  0.6371E+02
     10.067  0.4201E+01  0.6416E+02
     10.174  0.4709E+01  0.6466E+02
     10.281  0.4667E+01  0.6516E+02
     10.389  0.4742E+01  0.6567E+02
     10.496  0.4802E+01  0.6619E+02
     10.603  0.5781E+01  0.6681E+02
     10.710  0.4304E+01  0.6727E+02
     10.817  0.2357E+01  0.6752E+02
     10.925  0.2670E+01  0.6781E+02
     11.032  0.4525E+01  0.6829E+02
     11.139  0.6114E+01  0.6895E+02
     11.246  0.7373E+01  0.6974E+02
     11.353  0.6565E+01  0.7044E+02
     11.461  0.4868E+01  0.7096E+02
     11.568  0.4120E+01  0.7141E+02
     11.675  0.4103E+01  0.7185E+02
     11.782  0.5079E+01  0.7239E+02
     11.889  0.7405E+01  0.7318E+02
     11.997  0.8666E+01  0.7411E+02
     12.104  0.8809E+01  0.7506E+02
     12.211  0.8200E+01  0.7594E+02
     12.318  0.6455E+01  0.7663E+02
     12.425  0.5494E+01  0.7722E+02
     12.533  0.6841E+01  0.7795E+02
     12.640  0.6855E+01  0.7869E+02
     12.747  0.4824E+01  0.7920E+02
     12.854  0.3689E+01  0.7960E+02
     12.961  0.4047E+01  0.8003E+02
     13.069  0.5610E+01  0.8063E+02
     13.176  0.6681E+01  0.8135E+02
     13.283  0.6215E+01  0.8202E+02
     13.390  0.5551E+01  0.8261E+02
     13.498  0.5183E+01  0.8317E+02
     13.605  0.4603E+01  0.8366E+02
     13.712  0.4518E+01  0.8415E+02
     13.819  0.4117E+01  0.8459E+02
     13.926  0.5071E+01  0.8513E+02
     14.034  0.6695E+01  0.8585E+02
     14.141  0.6682E+01  0.8656E+02
     14.248  0.5304E+01  0.8713E+02
     14.355  0.5206E+01  0.8769E+02
     14.462  0.5985E+01  0.8833E+02
     14.570  0.4835E+01  0.8885E+02
     14.677  0.4763E+01  0.8936E+02
     14.784  0.5440E+01  0.8995E+02
     14.891  0.4602E+01  0.9044E+02
     14.998  0.4553E+01  0.9093E+02
     15.106  0.4887E+01  0.9145E+02
     15.213  0.5029E+01  0.9199E+02
     15.320  0.6767E+01  0.9272E+02
     15.427  0.7858E+01  0.9356E+02
     15.534  0.6104E+01  0.9421E+02
     15.642  0.3991E+01  0.9464E+02
     15.749  0.2391E+01  0.9490E+02
     15.856  0.1729E+01  0.9508E+02
     15.963  0.1572E+01  0.9525E+02
     16.070  0.1080E+01  0.9537E+02
     16.178  0.8426E+00  0.9546E+02
     16.285  0.1391E+01  0.9561E+02
     16.392  0.2180E+01  0.9584E+02
     16.499  0.1133E+01  0.9596E+02
     16.607  0.3216E+00  0.9599E+02
     16.714  0.4819E-01  0.9600E+02
     16.821  0.1485E-02  0.9600E+02
     16.928  0.6345E-05  0.9600E+02
     17.035  0.3231E-08  0.9600E+02
     17.143  0.1824E-12  0.9600E+02
     17.250  0.0000E+00  0.9600E+02
     17.357  0.0000E+00  0.9600E+02
     17.464  0.0000E+00  0.9600E+02
     17.571  0.0000E+00  0.9600E+02
     17.679  0.0000E+00  0.9600E+02
     17.786  0.0000E+00  0.9600E+02
     17.893  0.0000E+00  0.9600E+02
     18.000  0.0000E+00  0.9600E+02
     18.00020403    -14.16186220  301      2.15080979      1.00000000
    -14.162  0.0000E+00  0.0000E+00  0.0000E+00  0.0000E+00  0.0000E+00  0.0000E+00  0.0000E+00  0.0000E+00  0.0000E+00
    -14.055  0.0000E+00  0.0000E+00  0.0000E+00  0.0000E+00  0.0000E+00  0.0000E+00  0.0000E+00  0.0000E+00  0.0000E+00
    -13.947  0.0000E+00  0.0000E+00  0.0000E+00  0.0000E+00  0.0000E+00  0.0000E+00  0.0000E+00  0.0000E+00  0.0000E+00
    -13.840  0.0000E+00  0.0000E+00  0.0000E+00  0.0000E+00  0.0000E+00  0.0000E+00  0.0000E+00  0.0000E+00  0.0000E+00
    -13.733  0.0000E+00  0.0000E+00  0.0000E+00  0.0000E+00  0.0000E+00  0.0000E+00  0.0000E+00  0.0000E+00  0.0000E+00
    -13.626  0.0000E+00  0.0000E+00  0.0000E+00  0.0000E+00  0.0000E+00  0.0000E+00  0.0000E+00  0.0000E+00  0.0000E+00
    -13.519  0.0000E+00  0.0000E+00  0.0000E+00  0.0000E+00  0.0000E+00  0.0000E+00  0.0000E+00  0.0000E+00  0.0000E+00
    -13.411  0.0000E+00  0.0000E+00  0.0000E+00  0.0000E+00  0.0000E+00  0.0000E+00  0.0000E+00  0.0000E+00  0.0000E+00
    -13.304  0.0000E+00  0.0000E+00  0.0000E+00  0.0000E+00  0.0000E+00  0.0000E+00  0.0000E+00  0.0000E+00  0.0000E+00
    -13.197  0.3621E-13  0.1684E-27  0.7509E-15  0.2789E-14  0.0000E+00  0.0000E+00  0.0000E+00  0.0000E+00  0.0000E+00
    -13.090  0.6802E-09  0.5137E-18  0.1416E-10  0.5241E-10  0.0000E+00  0.0000E+00  0.0000E+00  0.0000E+00  0.0000E+00
    -12.983  0.1412E-05  0.1179E-13  0.2960E-07  0.1089E-06  0.0000E+00  0.0000E+00  0.0000E+00  0.0000E+00  0.0000E+00
    -12.875  0.3469E-03  0.3131E-10  0.7367E-05  0.2677E-04  0.0000E+00  0.0000E+00  0.0000E+00  0.0000E+00  0.0000E+00
    -12.768  0.1165E-01  0.1045E-07  0.2548E-03  0.9003E-03  0.0000E+00  0.0000E+00  0.0000E+00  0.0000E+00  0.0000E+00
    -12.661  0.7087E-01  0.5076E-06  0.1651E-02  0.5496E-02  0.0000E+00  0.0000E+00  0.0000E+00  0.0000E+00  0.0000E+00
    -12.554  0.1164E+00  0.4612E-05  0.2937E-02  0.9071E-02  0.0000E+00  0.0000E+00  0.0000E+00  0.0000E+00  0.0000E+00
    -12.447  0.1231E+00  0.1118E-04  0.3103E-02  0.9749E-02  0.0000E+00  0.0000E+00  0.0000E+00  0.0000E+00  0.0000E+00
    -12.339  0.1915E+00  0.9915E-05  0.4825E-02  0.1622E-01  0.0000E+00  0.0000E+00  0.0000E+00  0.0000E+00  0.0000E+00
    -12.232  0.2062E+00  0.5431E-05  0.6521E-02  0.2947E-01  0.0000E+00  0.0000E+00  0.0000E+00  0.0000E+00  0.0000E+00
    -12.125  0.3140E+00  0.1791E-04  0.1209E-01  0.6425E-01  0.0000E+00  0.0000E+00  0.0000E+00  0.0000E+00  0.0000E+00
    -12.018  0.2487E+00  0.3679E-04  0.9888E-02  0.5276E-01  0.0000E+00  0.0000E+00  0.0000E+00  0.0000E+00  0.0000E+00
    -11.911  0.1819E+00  0.2832E-04  0.7383E-02  0.3941E-01  0.0000E+00  0.0000E+00  0.0000E+00  0.0000E+00  0.0000E+00
    -11.803  0.9273E-01  0.7342E-05  0.4222E-02  0.2205E-01  0.0000E+00  0.0000E+00  0.0000E+00  0.0000E+00  0.0000E+00
    -11.696  0.4641E-01  0.1944E-05  0.4863E-02  0.2215E-01  0.0000E+00  0.0000E+00  0.0000E+00  0.0000E+00  0.0000E+00
    -11.589  0.6122E-01  0.4981E-05  0.8125E-02  0.3704E-01  0.0000E+00  0.0000E+00  0.0000E+00  0.0000E+00  0.0000E+00
    -11.482  0.6346E-01  0.5672E-05  0.8593E-02  0.4071E-01  0.0000E+00  0.0000E+00  0.0000E+00  0.0000E+00  0.0000E+00
    -11.374  0.6088E-01  0.2362E-05  0.8501E-02  0.4044E-01  0.0000E+00  0.0000E+00  0.0000E+00  0.0000E+00  0.0000E+00
    -11.267  0.4994E-01  0.2630E-06  0.6972E-02  0.3539E-01  0.0000E+00  0.0000E+00  0.0000E+00  0.0000E+00  0.0000E+00
    -11.160  0.2084E-01  0.5486E-08  0.2913E-02  0.1546E-01  0.0000E+00  0.0000E+00  0.0000E+00  0.0000E+00  0.0000E+00
    -11.053  0.1979E-02  0.1667E-10  0.2778E-03  0.1495E-02  0.0000E+00  0.0000E+00  0.0000E+00  0.0000E+00  0.0000E+00
    -10.946  0.2828E-04  0.6366E-14  0.3981E-05  0.2152E-04  0.0000E+00  0.0000E+00  0.0000E+00  0.0000E+00  0.0000E+00
    -10.838  0.5040E-07  0.2825E-18  0.7105E-08  0.3850E-07  0.0000E+00  0.0000E+00  0.0000E+00  0.0000E+00  0.0000E+00
    -10.731  0.1021E-10  0.2019E-24  0.1441E-11  0.7817E-11  0.0000E+00  0.0000E+00  0.0000E+00  0.0000E+00  0.0000E+00
    -10.624  0.2247E-15  0.4475E-29  0.3172E-16  0.1723E-15  0.0000E+00  0.0000E+00  0.0000E+00  0.0000E+00  0.0000E+00
    -10.517  0.0000E+00  0.0000E+00  0.0000E+00  0.0000E+00  0.0000E+00  0.0000E+00  0.0000E+00  0.0000E+00  0.0000E+00
    -10.410  0.0000E+00  0.0000E+00  0.0000E+00  0.0000E+00  0.0000E+00  0.0000E+00  0.0000E+00  0.0000E+00  0.0000E+00
    -10.302  0.0000E+00  0.0000E+00  0.0000E+00  0.0000E+00  0.0000E+00  0.0000E+00  0.0000E+00  0.0000E+00  0.0000E+00
    -10.195  0.0000E+00  0.0000E+00  0.0000E+00  0.0000E+00  0.0000E+00  0.0000E+00  0.0000E+00  0.0000E+00  0.0000E+00
    -10.088  0.0000E+00  0.0000E+00  0.0000E+00  0.0000E+00  0.0000E+00  0.0000E+00  0.0000E+00  0.0000E+00  0.0000E+00
     -9.981  0.0000E+00  0.0000E+00  0.0000E+00  0.0000E+00  0.0000E+00  0.0000E+00  0.0000E+00  0.0000E+00  0.0000E+00
     -9.874  0.0000E+00  0.0000E+00  0.0000E+00  0.0000E+00  0.0000E+00  0.0000E+00  0.0000E+00  0.0000E+00  0.0000E+00
     -9.766  0.0000E+00  0.0000E+00  0.0000E+00  0.0000E+00  0.0000E+00  0.0000E+00  0.0000E+00  0.0000E+00  0.0000E+00
     -9.659  0.0000E+00  0.0000E+00  0.0000E+00  0.0000E+00  0.0000E+00  0.0000E+00  0.0000E+00  0.0000E+00  0.0000E+00
     -9.552  0.0000E+00  0.0000E+00  0.0000E+00  0.0000E+00  0.0000E+00  0.0000E+00  0.0000E+00  0.0000E+00  0.0000E+00
     -9.445  0.0000E+00  0.0000E+00  0.0000E+00  0.0000E+00  0.0000E+00  0.0000E+00  0.0000E+00  0.0000E+00  0.0000E+00
     -9.338  0.0000E+00  0.0000E+00  0.0000E+00  0.0000E+00  0.0000E+00  0.0000E+00  0.0000E+00  0.0000E+00  0.0000E+00
     -9.230  0.3875E-13  0.2982E-18  0.1824E-13  0.1196E-14  0.0000E+00  0.0000E+00  0.0000E+00  0.0000E+00  0.0000E+00
     -9.123  0.8259E-09  0.7987E-14  0.3883E-09  0.2547E-10  0.0000E+00  0.0000E+00  0.0000E+00  0.0000E+00  0.0000E+00
     -9.016  0.1945E-05  0.2467E-10  0.9094E-06  0.5956E-07  0.0000E+00  0.0000E+00  0.0000E+00  0.0000E+00  0.0000E+00
     -8.909  0.5461E-03  0.9500E-08  0.2499E-03  0.1621E-04  0.0000E+00  0.0000E+00  0.0000E+00  0.0000E+00  0.0000E+00
     -8.802  0.2174E-01  0.5297E-06  0.9228E-02  0.5765E-03  0.0000E+00  0.0000E+00  0.0000E+00  0.0000E+00  0.0000E+00
     -8.694  0.1695E+00  0.5705E-05  0.6019E-01  0.3350E-02  0.0000E+00  0.0000E+00  0.0000E+00  0.0000E+00  0.0000E+00
     -8.587  0.3753E+00  0.1889E-04  0.1102E+00  0.5144E-02  0.0000E+00  0.0000E+00  0.0000E+00  0.0000E+00  0.0000E+00
     -8.480  0.4373E+00  0.2687E-04  0.1284E+00  0.5941E-02  0.0000E+00  0.0000E+00  0.0000E+00  0.0000E+00  0.0000E+00
     -8.373  0.5106E+00  0.1812E-04  0.1673E+00  0.8419E-02  0.0000E+00  0.0000E+00  0.0000E+00  0.0000E+00  0.0000E+00
     -8.265  0.2885E+00  0.1337E-04  0.1374E+00  0.9465E-02  0.0000E+00  0.0000E+00  0.0000E+00  0.0000E+00  0.0000E+00
     -8.158  0.1575E+00  0.9312E-05  0.1220E+00  0.1101E-01  0.0000E+00  0.0000E+00  0.0000E+00  0.0000E+00  0.0000E+00
     -8.051  0.1019E+00  0.2185E-05  0.1343E+00  0.1370E-01  0.0000E+00  0.0000E+00  0.0000E+00  0.0000E+00  0.0000E+00
     -7.944  0.4423E-01  0.1216E-06  0.9866E-01  0.1302E-01  0.0000E+00  0.0000E+00  0.0000E+00  0.0000E+00  0.0000E+00
     -7.837  0.2480E-01  0.4304E-07  0.6916E-01  0.1133E-01  0.0000E+00  0.0000E+00  0.0000E+00  0.0000E+00  0.0000E+00
     -7.729  0.1816E-01  0.6069E-07  0.5216E-01  0.9083E-02  0.0000E+00  0.0000E+00  0.0000E+00  0.0000E+00  0.0000E+00
     -7.622  0.5084E-02  0.1680E-07  0.1468E-01  0.2589E-02  0.0000E+00  0.0000E+00  0.0000E+00  0.0000E+00  0.0000E+00
     -7.515  0.2627E-03  0.7285E-09  0.7602E-03  0.1345E-03  0.0000E+00  0.0000E+00  0.0000E+00  0.0000E+00  0.0000E+00
     -7.408  0.1877E-05  0.4251E-11  0.5434E-05  0.9628E-06  0.0000E+00  0.0000E+00  0.0000E+00  0.0000E+00  0.0000E+00
     -7.301  0.1771E-08  0.2745E-12  0.1042E-07  0.4091E-07  0.0000E+00  0.0000E+00  0.0000E+00  0.0000E+00  0.0000E+00
     -7.193  0.9795E-07  0.2261E-09  0.3315E-05  0.2296E-04  0.0000E+00  0.0000E+00  0.0000E+00  0.0000E+00  0.0000E+00
     -7.086  0.7320E-05  0.2631E-07  0.2357E-03  0.1624E-02  0.0000E+00  0.0000E+00  0.0000E+00  0.0000E+00  0.0000E+00
     -6.979  0.8493E-04  0.5435E-06  0.2465E-02  0.1681E-01  0.0000E+00  0.0000E+00  0.0000E+00  0.0000E+00  0.0000E+00
     -6.872  0.2295E-03  0.2967E-05  0.5280E-02  0.3502E-01  0.0000E+00  0.0000E+00  0.0000E+00  0.0000E+00  0.0000E+00
     -6.765  0.3189E-03  0.7119E-05  0.4962E-02  0.3098E-01  0.0000E+00  0.0000E+00  0.0000E+00  0.0000E+00  0.0000E+00
     -6.657  0.4949E-03  0.7463E-04  0.5848E-02  0.3484E-01  0.0000E+00  0.0000E+00  0.0000E+00  0.0000E+00  0.0000E+00
     -6.550  0.6166E-03  0.3079E-02  0.5886E-02  0.3327E-01  0.0000E+00  0.0000E+00  0.0000E+00  0.0000E+00  0.0000E+00
     -6.443  0.5862E-03  0.2201E-01  0.3942E-02  0.1958E-01  0.0000E+00  0.0000E+00  0.0000E+00  0.0000E+00  0.0000E+00
     -6.336  0.1153E-02  0.3658E-01  0.3644E-02  0.1558E-01  0.0000E+00  0.0000E+00  0.0000E+00  0.0000E+00  0.0000E+00
     -6.229  0.1226E-01  0.3307E-01  0.9018E-02  0.1975E-01  0.0000E+00  0.0000E+00  0.0000E+00  0.0000E+00  0.0000E+00
     -6.121  0.4527E-01  0.2181E-01  0.2555E-01  0.3484E-01  0.0000E+00  0.0000E+00  0.0000E+00  0.0000E+00  0.0000E+00
     -6.014  0.4885E-01  0.1311E-01  0.2805E-01  0.3730E-01  0.0000E+00  0.0000E+00  0.0000E+00  0.0000E+00  0.0000E+00
     -5.907  0.4893E-01  0.2106E-01  0.2639E-01  0.2855E-01  0.0000E+00  0.0000E+00  0.0000E+00  0.0000E+00  0.0000E+00
     -5.800  0.8905E-01  0.2990E-01  0.4330E-01  0.3824E-01  0.0000E+00  0.0000E+00  0.0000E+00  0.0000E+00  0.0000E+00
     -5.693  0.9909E-01  0.2398E-01  0.5050E-01  0.5259E-01  0.0000E+00  0.0000E+00  0.0000E+00  0.0000E+00  0.0000E+00
     -5.585  0.6787E-01  0.2460E-01  0.3619E-01  0.4012E-01  0.0000E+00  0.0000E+00  0.0000E+00  0.0000E+00  0.0000E+00
     -5.478  0.6112E-01  0.2542E-01  0.2888E-01  0.2046E-01  0.0000E+00  0.0000E+00  0.0000E+00  0.0000E+00  0.0000E+00
     -5.371  0.6813E-01  0.2366E-01  0.2960E-01  0.1153E-01  0.0000E+00  0.0000E+00  0.0000E+00  0.0000E+00  0.0000E+00
     -5.264  0.5200E-01  0.2551E-01  0.2410E-01  0.9871E-02  0.0000E+00  0.0000E+00  0.0000E+00  0.0000E+00  0.0000E+00
     -5.156  0.4333E-01  0.1780E-01  0.2113E-01  0.9909E-02  0.0000E+00  0.0000E+00  0.0000E+00  0.0000E+00  0.0000E+00
     -5.049  0.4493E-01  0.1131E-01  0.2290E-01  0.1266E-01  0.0000E+00  0.0000E+00  0.0000E+00  0.0000E+00  0.0000E+00
     -4.942  0.5365E-01  0.9398E-02  0.3348E-01  0.2358E-01  0.0000E+00  0.0000E+00  0.0000E+00  0.0000E+00  0.0000E+00
     -4.835  0.5543E-01  0.9659E-02  0.3648E-01  0.2665E-01  0.0000E+00  0.0000E+00  0.0000E+00  0.0000E+00  0.0000E+00
     -4.728  0.4688E-01  0.8520E-02  0.3646E-01  0.1900E-01  0.0000E+00  0.0000E+00  0.0000E+00  0.0000E+00  0.0000E+00
     -4.620  0.6254E-01  0.9580E-02  0.8235E-01  0.4152E-01  0.0000E+00  0.0000E+00  0.0000E+00  0.0000E+00  0.0000E+00
     -4.513  0.6798E-01  0.8134E-02  0.1383E+00  0.8723E-01  0.0000E+00  0.0000E+00  0.0000E+00  0.0000E+00  0.0000E+00
     -4.406  0.4469E-01  0.9491E-02  0.1255E+00  0.9279E-01  0.0000E+00  0.0000E+00  0.0000E+00  0.0000E+00  0.0000E+00
     -4.299  0.2351E-01  0.9694E-02  0.7712E-01  0.6143E-01  0.0000E+00  0.0000E+00  0.0000E+00  0.0000E+00  0.0000E+00
     -4.192  0.1494E-01  0.8268E-02  0.4001E-01  0.3610E-01  0.0000E+00  0.0000E+00  0.0000E+00  0.0000E+00  0.0000E+00
     -4.084  0.1604E-01  0.1115E-01  0.3535E-01  0.4154E-01  0.0000E+00  0.0000E+00  0.0000E+00  0.0000E+00  0.0000E+00
     -3.977  0.1744E-01  0.1950E-01  0.3683E-01  0.4046E-01  0.0000E+00  0.0000E+00  0.0000E+00  0.0000E+00  0.0000E+00
     -3.870  0.1832E-01  0.4496E-01  0.3946E-01  0.3892E-01  0.0000E+00  0.0000E+00  0.0000E+00  0.0000E+00  0.0000E+00
     -3.763  0.2206E-01  0.5820E-01  0.4668E-01  0.4665E-01  0.0000E+00  0.0000E+00  0.0000E+00  0.0000E+00  0.0000E+00
     -3.656  0.3769E-01  0.4244E-01  0.7634E-01  0.8899E-01  0.0000E+00  0.0000E+00  0.0000E+00  0.0000E+00  0.0000E+00
     -3.548  0.6663E-01  0.1804E-01  0.1428E+00  0.1559E+00  0.0000E+00  0.0000E+00  0.0000E+00  0.0000E+00  0.0000E+00
     -3.441  0.6489E-01  0.1081E-01  0.1479E+00  0.1344E+00  0.0000E+00  0.0000E+00  0.0000E+00  0.0000E+00  0.0000E+00
     -3.334  0.3392E-01  0.1251E-01  0.9418E-01  0.5427E-01  0.0000E+00  0.0000E+00  0.0000E+00  0.0000E+00  0.0000E+00
     -3.227  0.2846E-01  0.6349E-01  0.8549E-01  0.2298E-01  0.0000E+00  0.0000E+00  0.0000E+00  0.0000E+00  0.0000E+00
     -3.120  0.3543E-01  0.1295E+00  0.4931E-01  0.1716E-01  0.0000E+00  0.0000E+00  0.0000E+00  0.0000E+00  0.0000E+00
     -3.012  0.3161E-01  0.6167E-01  0.1315E-01  0.1632E-01  0.0000E+00  0.0000E+00  0.0000E+00  0.0000E+00  0.0000E+00
     -2.905  0.4047E-01  0.6489E-02  0.9549E-02  0.1787E-01  0.0000E+00  0.0000E+00  0.0000E+00  0.0000E+00  0.0000E+00
     -2.798  0.5295E-01  0.1891E-02  0.1172E-01  0.2290E-01  0.0000E+00  0.0000E+00  0.0000E+00  0.0000E+00  0.0000E+00
     -2.691  0.5265E-01  0.6114E-02  0.1318E-01  0.2479E-01  0.0000E+00  0.0000E+00  0.0000E+00  0.0000E+00  0.0000E+00
     -2.584  0.3414E-01  0.1209E-01  0.1090E-01  0.2611E-01  0.0000E+00  0.0000E+00  0.0000E+00  0.0000E+00  0.0000E+00
     -2.476  0.1603E-01  0.9843E-02  0.5784E-02  0.2268E-01  0.0000E+00  0.0000E+00  0.0000E+00  0.0000E+00  0.0000E+00
     -2.369  0.2954E-01  0.8996E-02  0.8681E-02  0.3107E-01  0.0000E+00  0.0000E+00  0.0000E+00  0.0000E+00  0.0000E+00
     -2.262  0.2876E-01  0.1445E-01  0.1048E-01  0.4224E-01  0.0000E+00  0.0000E+00  0.0000E+00  0.0000E+00  0.0000E+00
     -2.155  0.3130E-01  0.3062E-01  0.1403E-01  0.7324E-01  0.0000E+00  0.0000E+00  0.0000E+00  0.0000E+00  0.0000E+00
     -2.047  0.8242E-01  0.3274E-01  0.3383E-01  0.1643E+00  0.0000E+00  0.0000E+00  0.0000E+00  0.0000E+00  0.0000E+00
     -1.940  0.9163E-01  0.2165E-01  0.5842E-01  0.1860E+00  0.0000E+00  0.0000E+00  0.0000E+00  0.0000E+00  0.0000E+00
     -1.833  0.4498E-01  0.4949E-01  0.7145E-01  0.1334E+00  0.0000E+00  0.0000E+00  0.0000E+00  0.0000E+00  0.0000E+00
     -1.726  0.1421E-01  0.1210E+00  0.5825E-01  0.7360E-01  0.0000E+00  0.0000E+00  0.0000E+00  0.0000E+00  0.0000E+00
     -1.619  0.9235E-02  0.1357E+00  0.7460E-01  0.8957E-01  0.0000E+00  0.0000E+00  0.0000E+00  0.0000E+00  0.0000E+00
     -1.511  0.1296E-01  0.9805E-01  0.7991E-01  0.1775E+00  0.0000E+00  0.0000E+00  0.0000E+00  0.0000E+00  0.0000E+00
     -1.404  0.1087E-01  0.7357E-01  0.5506E-01  0.1661E+00  0.0000E+00  0.0000E+00  0.0000E+00  0.0000E+00  0.0000E+00
     -1.297  0.7222E-02  0.5758E-01  0.2846E-01  0.1003E+00  0.0000E+00  0.0000E+00  0.0000E+00  0.0000E+00  0.0000E+00
     -1.190  0.9493E-02  0.4867E-01  0.1788E-01  0.9013E-01  0.0000E+00  0.0000E+00  0.0000E+00  0.0000E+00  0.0000E+00
     -1.083  0.1535E-01  0.4091E-01  0.1880E-01  0.1221E+00  0.0000E+00  0.0000E+00  0.0000E+00  0.0000E+00  0.0000E+00
     -0.975  0.1491E-01  0.3117E-01  0.1731E-01  0.1111E+00  0.0000E+00  0.0000E+00  0.0000E+00  0.0000E+00  0.0000E+00
     -0.868  0.1102E-01  0.3344E-01  0.1298E-01  0.3332E-01  0.0000E+00  0.0000E+00  0.0000E+00  0.0000E+00  0.0000E+00
     -0.761  0.3465E-01  0.2845E-01  0.1623E-01  0.7712E-02  0.0000E+00  0.0000E+00  0.0000E+00  0.0000E+00  0.0000E+00
     -0.654  0.6551E-01  0.2472E-01  0.2414E-01  0.7344E-02  0.0000E+00  0.0000E+00  0.0000E+00  0.0000E+00  0.0000E+00
     -0.547  0.4533E-01  0.3930E-01  0.2491E-01  0.9134E-02  0.0000E+00  0.0000E+00  0.0000E+00  0.0000E+00  0.0000E+00
     -0.439  0.2034E-01  0.6076E-01  0.2277E-01  0.1025E-01  0.0000E+00  0.0000E+00  0.0000E+00  0.0000E+00  0.0000E+00
     -0.332  0.1337E-01  0.7470E-01  0.2680E-01  0.1163E-01  0.0000E+00  0.0000E+00  0.0000E+00  0.0000E+00  0.0000E+00
     -0.225  0.1361E-01  0.8742E-01  0.4337E-01  0.1325E-01  0.0000E+00  0.0000E+00  0.0000E+00  0.0000E+00  0.0000E+00
     -0.118  0.1896E-01  0.7786E-01  0.9201E-01  0.1577E-01  0.0000E+00  0.0000E+00  0.0000E+00  0.0000E+00  0.0000E+00
     -0.011  0.2414E-01  0.1002E+00  0.1139E+00  0.2358E-01  0.0000E+00  0.0000E+00  0.0000E+00  0.0000E+00  0.0000E+00
      0.097  0.3189E-01  0.1377E+00  0.7702E-01  0.4457E-01  0.0000E+00  0.0000E+00  0.0000E+00  0.0000E+00  0.0000E+00
      0.204  0.5669E-01  0.1325E+00  0.6562E-01  0.8291E-01  0.0000E+00  0.0000E+00  0.0000E+00  0.0000E+00  0.0000E+00
      0.311  0.7475E-01  0.1252E+00  0.8907E-01  0.1337E+00  0.0000E+00  0.0000E+00  0.0000E+00  0.0000E+00  0.0000E+00
      0.418  0.5095E-01  0.8747E-01  0.6483E-01  0.1148E+00  0.0000E+00  0.0000E+00  0.0000E+00  0.0000E+00  0.0000E+00
      0.525  0.1779E-01  0.3282E-01  0.4211E-01  0.8061E-01  0.0000E+00  0.0000E+00  0.0000E+00  0.0000E+00  0.0000E+00
      0.633  0.1423E-01  0.1818E-01  0.5634E-01  0.6850E-01  0.0000E+00  0.0000E+00  0.0000E+00  0.0000E+00  0.0000E+00
      0.740  0.1156E-01  0.2101E-01  0.5782E-01  0.3203E-01  0.0000E+00  0.0000E+00  0.0000E+00  0.0000E+00  0.0000E+00
      0.847  0.8940E-02  0.3086E-01  0.4711E-01  0.2030E-01  0.0000E+00  0.0000E+00  0.0000E+00  0.0000E+00  0.0000E+00
      0.954  0.1054E-01  0.2694E-01  0.7087E-01  0.3251E-01  0.0000E+00  0.0000E+00  0.0000E+00  0.0000E+00  0.0000E+00
      1.062  0.1819E-01  0.2793E-01  0.1299E+00  0.7103E-01  0.0000E+00  0.0000E+00  0.0000E+00  0.0000E+00  0.0000E+00
      1.169  0.1554E-01  0.2922E-01  0.1036E+00  0.6447E-01  0.0000E+00  0.0000E+00  0.0000E+00  0.0000E+00  0.0000E+00
      1.276  0.4724E-02  0.4216E-01  0.2723E-01  0.1819E-01  0.0000E+00  0.0000E+00  0.0000E+00  0.0000E+00  0.0000E+00
      1.383  0.1463E-02  0.6334E-01  0.5993E-02  0.4533E-02  0.0000E+00  0.0000E+00  0.0000E+00  0.0000E+00  0.0000E+00
      1.490  0.1060E-02  0.6104E-01  0.4614E-02  0.3784E-02  0.0000E+00  0.0000E+00  0.0000E+00  0.0000E+00  0.0000E+00
      1.598  0.9582E-03  0.6760E-01  0.4292E-02  0.3665E-02  0.0000E+00  0.0000E+00  0.0000E+00  0.0000E+00  0.0000E+00
      1.705  0.7837E-03  0.7495E-01  0.4034E-02  0.3519E-02  0.0000E+00  0.0000E+00  0.0000E+00  0.0000E+00  0.0000E+00
      1.812  0.7461E-03  0.6483E-01  0.3895E-02  0.3405E-02  0.0000E+00  0.0000E+00  0.0000E+00  0.0000E+00  0.0000E+00
      1.919  0.6758E-03  0.5858E-01  0.3810E-02  0.3254E-02  0.0000E+00  0.0000E+00  0.0000E+00  0.0000E+00  0.0000E+00
      2.026  0.7153E-03  0.6114E-01  0.3842E-02  0.3118E-02  0.0000E+00  0.0000E+00  0.0000E+00  0.0000E+00  0.0000E+00
      2.134  0.8680E-03  0.6154E-01  0.4208E-02  0.2977E-02  0.0000E+00  0.0000E+00  0.0000E+00  0.0000E+00  0.0000E+00
      2.241  0.1794E-02  0.5023E-01  0.6516E-02  0.3123E-02  0.0000E+00  0.0000E+00  0.0000E+00  0.0000E+00  0.0000E+00
      2.348  0.3088E-02  0.4926E-01  0.9971E-02  0.3211E-02  0.0000E+00  0.0000E+00  0.0000E+00  0.0000E+00  0.0000E+00
      2.455  0.4440E-02  0.6000E-01  0.1338E-01  0.2804E-02  0.0000E+00  0.0000E+00  0.0000E+00  0.0000E+00  0.0000E+00
      2.562  0.3713E-02  0.5483E-01  0.1169E-01  0.1710E-02  0.0000E+00  0.0000E+00  0.0000E+00  0.0000E+00  0.0000E+00