   14   14    1    1
  0.1021318E+02  0.5700971E-09  0.4044058E-09  0.6201871E-09  0.5000000E-15
  1.000000000000000E-004
  CAR 
 BS                                      
     42    112     48
 
  0.0000000E+00  0.0000000E+00  0.0000000E+00  0.8928571E-02
      1        -12.699950   1.000000
      2        -11.518346   1.000000
      3         -8.660135   1.000000
      4         -8.367278   1.000000
      5         -6.054603   1.000000
      6         -5.092527   1.000000
      7         -4.680678   1.000000
      8         -4.377659   1.000000
      9         -3.934770   1.000000
     10         -3.527811   1.000000
     11         -2.404617   1.000000
     12         -2.222150   1.000000
     13         -2.104353   1.000000
     14         -1.066377   1.000000
     15         -0.020288   1.000000
     16          0.013726   1.000000
     17          0.041243   1.000000
     18          0.089670   1.000000
     19          0.673131   1.000000
     20          2.119581   0.670624
     21          2.153503   0.484808
     22          2.242288   0.097886
     23          5.505245   0.000000
     24          5.726872   0.000000
     25          5.735025   0.000000
     26          5.971549   0.000000
     27          6.724574   0.000000
     28          7.698182   0.000000
     29          7.719112   0.000000
     30          8.621927   0.000000
     31          8.850213   0.000000
     32          8.854967   0.000000
     33          9.051268   0.000000
     34         10.026572   0.000000
     35         11.191961   0.000000
     36         11.406495   0.000000
     37         11.517886   0.000000
     38         11.781960   0.000000
     39         11.958571   0.000000
     40         12.294829   0.000000
     41         12.921479   0.000000
     42         13.342195   0.000000
     43         13.527732   0.000000
     44         15.523711   0.000000
     45         15.581655   0.000000
     46         15.920853   0.000000
     47         16.310251   0.000000
     48         16.538292   0.000000
 
  0.0000000E+00  0.0000000E+00  0.3333333E-01  0.8928571E-02
      1        -12.698953   1.000000
      2        -11.520299   1.000000
      3         -8.659568   1.000000
      4         -8.364232   1.000000
      5         -6.067104   1.000000
      6         -5.117701   1.000000
      7         -4.652347   1.000000
      8         -4.364077   1.000000
      9         -3.932862   1.000000
     10         -3.517357   1.000000
     11         -2.403800   1.000000
     12         -2.222799   1.000000
     13         -2.111064   1.000000
     14         -1.071544   1.000000
     15         -0.017745   1.000000
     16          0.015729   1.000000
     17          0.050069   1.000000
     18          0.069495   1.000000
     19          0.646951   1.000000
     20          2.110845   0.714028
     21          2.148883   0.510871
     22          2.275344   0.039105
     23          5.503971   0.000000
     24          5.717482   0.000000
     25          5.742422   0.000000
     26          5.970665   0.000000
     27          6.736938   0.000000
     28          7.686269   0.000000
     29          7.721214   0.000000
     30          8.632476   0.000000
     31          8.803587   0.000000
     32          8.923582   0.000000
     33          9.056294   0.000000
     34         10.035674   0.000000
     35         11.193307   0.000000
     36         11.402279   0.000000
     37         11.522954   0.000000
     38         11.734978   0.000000
     39         11.950369   0.000000
     40         12.300485   0.000000
     41         12.939013   0.000000
     42         13.323138   0.000000
     43         13.569021   0.000000
     44         15.531977   0.000000
     45         15.555597   0.000000
     46         15.874555   0.000000
     47         16.315297   0.000000
     48         16.510308   0.000000
 
  0.0000000E+00  0.0000000E+00  0.6666667E-01  0.8928571E-02
      1        -12.695981   1.000000
      2        -11.526086   1.000000
      3         -8.657890   1.000000
      4         -8.355163   1.000000
      5         -6.103202   1.000000
      6         -5.178714   1.000000
      7         -4.581939   1.000000
      8         -4.324652   1.000000
      9         -3.927165   1.000000
     10         -3.486172   1.000000
     11         -2.401344   1.000000
     12         -2.224741   1.000000
     13         -2.130747   1.000000
     14         -1.086826   1.000000
     15         -0.010168   1.000000
     16          0.009166   1.000000
     17          0.021592   1.000000
     18          0.076090   1.000000
     19          0.575865   1.000000
     20          2.085162   0.823398
     21          2.135087   0.587979
     22          2.366915   0.001121
     23          5.500053   0.000000
     24          5.668354   0.000000
     25          5.788524   0.000000
     26          5.968147   0.000000
     27          6.770686   0.000000
     28          7.652293   0.000000
     29          7.727267   0.000000
     30          8.663814   0.000000
     31          8.775963   0.000000
     32          9.014883   0.000000
     33          9.071288   0.000000
     34         10.063112   0.000000
     35         11.196281   0.000000
     36         11.389734   0.000000
     37         11.538029   0.000000
     38         11.605890   0.000000
     39         11.929748   0.000000
     40         12.317390   0.000000
     41         12.988007   0.000000
     42         13.267480   0.000000
     43         13.680865   0.000000
     44         15.484715   0.000000
     45         15.554104   0.000000
     46         15.749290   0.000000
     47         16.303159   0.000000
     48         16.339615   0.000000
 
  0.0000000E+00  0.0000000E+00  0.1000000E+00  0.8928571E-02
      1        -12.691127   1.000000
      2        -11.535479   1.000000
      3         -8.655160   1.000000
      4         -8.340231   1.000000
      5         -6.159217   1.000000
      6         -5.254905   1.000000
      7         -4.490291   1.000000
      8         -4.262781   1.000000
      9         -3.917822   1.000000
     10         -3.434832   1.000000
     11         -2.397237   1.000000
     12         -2.227944   1.000000
     13         -2.162162   1.000000
     14         -1.111659   1.000000
     15         -0.089731   1.000000
     16          0.002330   1.000000
     17          0.030847   1.000000
     18          0.118091   1.000000
     19          0.475508   1.000000
     20          2.044083   0.934395
     21          2.112180   0.707574
     22          2.500451   0.000000
     23          5.493410   0.000000
     24          5.595787   0.000000
     25          5.863668   0.000000
     26          5.964397   0.000000
     27          6.818257   0.000000
     28          7.600879   0.000000
     29          7.736571   0.000000
     30          8.714991   0.000000
     31          8.766814   0.000000
     32          9.095959   0.000000
     33          9.123516   0.000000
     34         10.109208   0.000000
     35         11.197843   0.000000
     36         11.369395   0.000000
     37         11.418949   0.000000
     38         11.562828   0.000000
     39         11.906600   0.000000
     40         12.345385   0.000000
     41         13.059991   0.000000
     42         13.179493   0.000000
     43         13.838516   0.000000
     44         15.384554   0.000000
     45         15.571003   0.000000
     46         15.582750   0.000000
     47         16.107522   0.000000
     48         16.329300   0.000000
 
  0.0000000E+00  0.0000000E+00  0.1333333E+00  0.8928571E-02
      1        -12.684522   1.000000
      2        -11.548122   1.000000
      3         -8.651484   1.000000
      4         -8.319736   1.000000
      5         -6.230409   1.000000
      6         -5.335194   1.000000
      7         -4.388756   1.000000
      8         -4.182660   1.000000
      9         -3.904992   1.000000
     10         -3.364397   1.000000
     11         -2.391422   1.000000
     12         -2.232313   1.000000
     13         -2.203432   1.000000
     14         -1.145072   1.000000
     15         -0.222820   1.000000
     16          0.019578   1.000000
     17          0.042858   1.000000
     18          0.174285   1.000000
     19          0.358780   1.000000
     20          1.989907   0.988562
     21          2.080391   0.840343
     22          2.659702   0.000000
     23          5.483902   0.000000
     24          5.508618   0.000000
     25          5.959990   0.000000
     26          5.965659   0.000000
     27          6.871975   0.000000
     28          7.537695   0.000000
     29          7.748119   0.000000
     30          8.772091   0.000000
     31          8.784595   0.000000
     32          9.129764   0.000000
     33          9.245965   0.000000
     34         10.174298   0.000000
     35         11.193703   0.000000
     36         11.195409   0.000000
     37         11.342146   0.000000
     38         11.596562   0.000000
     39         11.892181   0.000000
     40         12.384450   0.000000
     41         13.064761   0.000000
     42         13.145254   0.000000
     43         14.019970   0.000000
     44         15.269507   0.000000
     45         15.361013   0.000000
     46         15.607303   0.000000
     47         15.900528   0.000000
     48         16.344320   0.000000
 
  0.0000000E+00  0.0000000E+00  0.1666667E+00  0.8928571E-02
      1        -12.676369   1.000000
      2        -11.563535   1.000000
      3         -8.647008   1.000000
      4         -8.294099   1.000000
      5         -6.312046   1.000000
      6         -5.414503   1.000000
      7         -4.282872   1.000000
      8         -4.088158   1.000000
      9         -3.888953   1.000000
     10         -3.276526   1.000000
     11         -2.383830   1.000000
     12         -2.252348   1.000000
     13         -2.237714   1.000000
     14         -1.185893   1.000000
     15         -0.382846   1.000000
     16          0.041261   1.000000
     17          0.056843   1.000000
     18          0.231956   1.000000
     19          0.242626   1.000000
     20          1.925369   0.999284
     21          2.039997   0.941458
     22          2.832402   0.000000
     23          5.414127   0.000000
     24          5.471346   0.000000
     25          5.955519   0.000000
     26          6.091905   0.000000
     27          6.926142   0.000000
     28          7.468078   0.000000
     29          7.760506   0.000000
     30          8.787507   0.000000
     31          8.870703   0.000000
     32          9.171727   0.000000
     33          9.378839   0.000000
     34         10.258412   0.000000
     35         10.949336   0.000000
     36         11.180024   0.000000
     37         11.309237   0.000000
     38         11.637742   0.000000
     39         11.895343   0.000000
     40         12.434872   0.000000
     41         12.929020   0.000000
     42         13.234839   0.000000
     43         14.210121   0.000000
     44         15.132428   0.000000
     45         15.149837   0.000000
     46         15.616521   0.000000
     47         15.686314   0.000000
     48         16.361775   0.000000
 
  0.0000000E+00  0.0000000E+00  0.2000000E+00  0.8928571E-02
      1        -12.666928   1.000000
      2        -11.581102   1.000000
      3         -8.641908   1.000000
      4         -8.263847   1.000000
      5         -6.399931   1.000000
      6         -5.490203   1.000000
      7         -4.175853   1.000000
      8         -3.982284   1.000000
      9         -3.870077   1.000000
     10         -3.173557   1.000000
     11         -2.374355   1.000000
     12         -2.306597   1.000000
     13         -2.243845   1.000000
     14         -1.232720   1.000000
     15         -0.561397   1.000000
     16          0.066987   1.000000
     17          0.072046   1.000000
     18          0.096833   1.000000
     19          0.320949   1.000000
     20          1.853390   0.999987
     21          1.991399   0.987915
     22          3.009985   0.000000
     23          5.317866   0.000000
     24          5.455576   0.000000
     25          5.951566   0.000000
     26          6.239684   0.000000
     27          6.977323   0.000000
     28          7.396397   0.000000
     29          7.772406   0.000000
     30          8.809236   0.000000
     31          8.971066   0.000000
     32          9.220453   0.000000
     33          9.519229   0.000000
     34         10.360996   0.000000
     35         10.689483   0.000000
     36         11.155589   0.000000
     37         11.272316   0.000000
     38         11.683994   0.000000
     39         11.920152   0.000000
     40         12.497457   0.000000
     41         12.777522   0.000000
     42         13.320840   0.000000
     43         14.398969   0.000000
     44         14.893988   0.000000
     45         15.032290   0.000000
     46         15.469322   0.000000
     47         15.602964   0.000000
     48         16.385024   0.000000
 
  0.0000000E+00  0.0000000E+00  0.2333333E+00  0.8928571E-02
      1        -12.656526   1.000000
      2        -11.600128   1.000000
      3         -8.636390   1.000000
      4         -8.229683   1.000000
      5         -6.490508   1.000000
      6         -5.560738   1.000000
      7         -4.070068   1.000000
      8         -3.867165   1.000000
      9         -3.848859   1.000000
     10         -3.058711   1.000000
     11         -2.363857   1.000000
     12         -2.362919   1.000000
     13         -2.250073   1.000000
     14         -1.283968   1.000000
     15         -0.750729   1.000000
     16         -0.046276   1.000000
     17          0.087701   1.000000
     18          0.096218   1.000000
     19          0.407211   1.000000
     20          1.776921   1.000000
     21          1.935063   0.998860
     22          3.186307   0.000000
     23          5.223933   0.000000
     24          5.436457   0.000000
     25          5.948538   0.000000
     26          6.406382   0.000000
     27          7.023766   0.000000
     28          7.326044   0.000000
     29          7.782667   0.000000
     30          8.834144   0.000000
     31          9.083039   0.000000
     32          9.274020   0.000000
     33          9.664455   0.000000
     34         10.421338   0.000000
     35         10.480591   0.000000
     36         11.122590   0.000000
     37         11.233386   0.000000
     38         11.731982   0.000000
     39         11.965475   0.000000
     40         12.573527   0.000000
     41         12.614873   0.000000
     42         13.395929   0.000000
     43         14.579593   0.000000
     44         14.652854   0.000000
     45         14.921016   0.000000
     46         15.253378   0.000000
     47         15.567026   0.000000
     48         16.412609   0.000000
 
  0.0000000E+00  0.0000000E+00  0.2666667E+00  0.8928571E-02
      1        -12.645549   1.000000
      2        -11.619833   1.000000
      3         -8.630687   1.000000
      4         -8.192499   1.000000
      5         -6.580760   1.000000
      6         -5.625030   1.000000
      7         -3.967672   1.000000
      8         -3.825936   1.000000
      9         -3.744264   1.000000
     10         -2.936430   1.000000
     11         -2.421889   1.000000
     12         -2.349802   1.000000
     13         -2.254795   1.000000
     14         -1.337875   1.000000
     15         -0.944236   1.000000
     16         -0.196913   1.000000
     17          0.103115   1.000000
     18          0.128202   1.000000
     19          0.499491   1.000000
     20          1.698805   1.000000
     21          1.871593   0.999961
     22          3.356698   0.000000
     23          5.135425   0.000000
     24          5.414007   0.000000
     25          5.946689   0.000000
     26          6.589539   0.000000
     27          7.064830   0.000000
     28          7.259565   0.000000
     29          7.790521   0.000000
     30          8.859810   0.000000
     31          9.203586   0.000000
     32          9.330140   0.000000
     33          9.811852   0.000000
     34         10.148585   0.000000
     35         10.614258   0.000000
     36         11.085786   0.000000
     37         11.194854   0.000000
     38         11.777875   0.000000
     39         12.026391   0.000000
     40         12.445147   0.000000
     41         12.664471   0.000000
     42         13.452954   0.000000
     43         14.416674   0.000000
     44         14.746861   0.000000
     45         14.818216   0.000000
     46         15.042072   0.000000
     47         15.515920   0.000000
     48         16.440902   0.000000
 
  0.0000000E+00  0.0000000E+00  0.3000000E+00  0.8928571E-02
      1        -12.634449   1.000000
      2        -11.639398   1.000000
      3         -8.625049   1.000000
      4         -8.153443   1.000000
      5         -6.667997   1.000000
      6         -5.682268   1.000000
      7         -3.870855   1.000000
      8         -3.802137   1.000000
      9         -3.614776   1.000000
     10         -2.813246   1.000000
     11         -2.478536   1.000000
     12         -2.336903   1.000000
     13         -2.253600   1.000000
     14         -1.392461   1.000000
     15         -1.136006   1.000000
     16         -0.353974   1.000000
     17          0.117659   1.000000
     18          0.161920   1.000000
     19          0.596026   1.000000
     20          1.621827   1.000000
     21          1.801663   1.000000
     22          3.517097   0.000000
     23          5.054705   0.000000
     24          5.388512   0.000000
     25          5.946006   0.000000
     26          6.786849   0.000000
     27          7.100390   0.000000
     28          7.198909   0.000000
     29          7.795640   0.000000
     30          8.884486   0.000000
     31          9.329051   0.000000
     32          9.386241   0.000000
     33          9.873887   0.000000
     34          9.958473   0.000000
     35         10.755007   0.000000
     36         11.053351   0.000000
     37         11.159432   0.000000
     38         11.818091   0.000000
     39         12.095596   0.000000
     40         12.272247   0.000000
     41         12.770846   0.000000
     42         13.484145   0.000000
     43         14.195432   0.000000
     44         14.724424   0.000000
     45         14.839295   0.000000
     46         14.896809   0.000000
     47         15.458702   0.000000
     48         16.472236   0.000000
 
  0.0000000E+00  0.0000000E+00  0.3333333E+00  0.8928571E-02
      1        -12.623729   1.000000
      2        -11.657956   1.000000
      3         -8.619733   1.000000
      4         -8.114016   1.000000
      5         -6.749612   1.000000
      6         -5.731788   1.000000
      7         -3.781971   1.000000
      8         -3.778465   1.000000
      9         -3.480005   1.000000
     10         -2.699146   1.000000
     11         -2.531682   1.000000
     12         -2.329681   1.000000
     13         -2.236556   1.000000
     14         -1.445477   1.000000
     15         -1.319498   1.000000
     16         -0.515531   1.000000
     17          0.130822   1.000000
     18          0.196068   1.000000
     19          0.695031   1.000000
     20          1.548826   1.000000
     21          1.726205   1.000000
     22          3.663836   0.000000
     23          4.983615   0.000000
     24          5.360668   0.000000
     25          5.946355   0.000000
     26          6.996223   0.000000
     27          7.130529   0.000000
     28          7.145540   0.000000
     29          7.798185   0.000000
     30          8.906917   0.000000
     31          9.439685   0.000000
     32          9.455019   0.000000
     33          9.599419   0.000000
     34         10.100837   0.000000
     35         10.873480   0.000000
     36         11.054388   0.000000
     37         11.130251   0.000000
     38         11.850263   0.000000
     39         12.100221   0.000000
     40         12.163373   0.000000
     41         12.891335   0.000000
     42         13.481228   0.000000
     43         14.002928   0.000000
     44         14.638773   0.000000
     45         14.650070   0.000000
     46         15.026486   0.000000
     47         15.402762   0.000000
     48         16.314545   0.000000
 
  0.0000000E+00  0.0000000E+00  0.3666667E+00  0.8928571E-02
      1        -12.613926   1.000000
      2        -11.674652   1.000000
      3         -8.614980   1.000000
      4         -8.076101   1.000000
      5         -6.822915   1.000000
      6         -5.773056   1.000000
      7         -3.756145   1.000000
      8         -3.703577   1.000000
      9         -3.341882   1.000000
     10         -2.608495   1.000000
     11         -2.579224   1.000000
     12         -2.331180   1.000000
     13         -2.195227   1.000000
     14         -1.494415   1.000000
     15         -1.485459   1.000000
     16         -0.678722   1.000000
     17          0.142200   1.000000
     18          0.228940   1.000000
     19          0.794694   1.000000
     20          1.482669   1.000000
     21          1.646446   1.000000
     22          3.793167   0.000000
     23          4.923645   0.000000
     24          5.331834   0.000000
     25          5.947419   0.000000
     26          7.100589   0.000000
     27          7.155374   0.000000
     28          7.215351   0.000000
     29          7.798677   0.000000
     30          8.926230   0.000000
     31          9.327332   0.000000
     32          9.487809   0.000000
     33          9.575865   0.000000
     34         10.234820   0.000000
     35         10.898906   0.000000
     36         11.110623   0.000000
     37         11.157758   0.000000
     38         11.873644   0.000000
     39         11.933813   0.000000
     40         12.216118   0.000000
     41         13.021593   0.000000
     42         13.441715   0.000000
     43         13.852090   0.000000
     44         14.481375   0.000000
     45         14.559530   0.000000
     46         15.133809   0.000000
     47         15.352968   0.000000
     48         16.181990   0.000000
 
  0.0000000E+00  0.0000000E+00  0.4000000E+00  0.8928571E-02
      1        -12.605582   1.000000
      2        -11.688661   1.000000
      3         -8.611017   1.000000
      4         -8.042054   1.000000
      5         -6.884988   1.000000
      6         -5.805627   1.000000
      7         -3.736557   1.000000
      8         -3.638441   1.000000
      9         -3.203810   1.000000
     10         -2.619098   1.000000
     11         -2.555631   1.000000
     12         -2.335946   1.000000
     13         -2.137744   1.000000
     14         -1.617039   1.000000
     15         -1.536582   1.000000
     16         -0.838957   1.000000
     17          0.151395   1.000000
     18          0.258429   1.000000
     19          0.892637   1.000000
     20          1.426389   1.000000
     21          1.564339   1.000000
     22          3.901006   0.000000
     23          4.875890   0.000000
     24          5.304120   0.000000
     25          5.948813   0.000000
     26          7.064862   0.000000
     27          7.174899   0.000000
     28          7.441420   0.000000
     29          7.797845   0.000000
     30          8.941810   0.000000
     31          9.060287   0.000000
     32          9.528194   0.000000
     33          9.684447   0.000000
     34         10.355597   0.000000
     35         10.872914   0.000000
     36         11.103570   0.000000
     37         11.317799   0.000000
     38         11.779204   0.000000
     39         11.889016   0.000000
     40         12.235835   0.000000
     41         13.153364   0.000000
     42         13.386950   0.000000
     43         13.738002   0.000000
     44         14.342242   0.000000
     45         14.485441   0.000000
     46         15.217597   0.000000
     47         15.312278   0.000000
     48         16.075686   0.000000
 
  0.0000000E+00  0.0000000E+00  0.4333333E+00  0.8928571E-02
      1        -12.599195   1.000000
      2        -11.699259   1.000000
      3         -8.608036   1.000000
      4         -8.014640   1.000000
      5         -6.932664   1.000000
      6         -5.829148   1.000000
      7         -3.721153   1.000000
      8         -3.589331   1.000000
      9         -3.072656   1.000000
     10         -2.649332   1.000000
     11         -2.546145   1.000000
     12         -2.337192   1.000000
     13         -2.095485   1.000000
     14         -1.684930   1.000000
     15         -1.569249   1.000000
     16         -0.987652   1.000000
     17          0.158158   1.000000
     18          0.282124   1.000000
     19          0.984682   1.000000
     20          1.383106   1.000000
     21          1.483804   1.000000
     22          3.982912   0.000000
     23          4.841204   0.000000
     24          5.280495   0.000000
     25          5.950158   0.000000
     26          7.038987   0.000000
     27          7.189025   0.000000
     28          7.669079   0.000000
     29          7.796504   0.000000
     30          8.803491   0.000000
     31          8.953221   0.000000
     32          9.558746   0.000000
     33          9.772141   0.000000
     34         10.457425   0.000000
     35         10.837851   0.000000
     36         11.110302   0.000000
     37         11.484889   0.000000
     38         11.645574   0.000000
     39         11.898041   0.000000
     40         12.207532   0.000000
     41         13.273148   0.000000
     42         13.358428   0.000000
     43         13.638041   0.000000
     44         14.241280   0.000000
     45         14.418532   0.000000
     46         15.277403   0.000000
     47         15.282368   0.000000
     48         15.997019   0.000000
 
  0.0000000E+00  0.0000000E+00  0.4666667E+00  0.8928571E-02
      1        -12.595183   1.000000
      2        -11.705871   1.000000
      3         -8.606184   1.000000
      4         -7.996691   1.000000
      5         -6.962880   1.000000
      6         -5.843367   1.000000
      7         -3.711267   1.000000
      8         -3.558708   1.000000
      9         -2.964532   1.000000
     10         -2.668255   1.000000
     11         -2.569638   1.000000
     12         -2.333940   1.000000
     13         -2.092359   1.000000
     14         -1.678729   1.000000
     15         -1.590004   1.000000
     16         -1.106069   1.000000
     17          0.162290   1.000000
     18          0.297603   1.000000
     19          1.060655   1.000000
     20          1.355689   1.000000
     21          1.414808   1.000000
     22          4.034424   0.000000
     23          4.820165   0.000000
     24          5.264365   0.000000
     25          5.951115   0.000000
     26          7.023321   0.000000
     27          7.197594   0.000000
     28          7.795382   0.000000
     29          7.881583   0.000000
     30          8.573549   0.000000
     31          8.960167   0.000000
     32          9.577771   0.000000
     33          9.829771   0.000000
     34         10.531454   0.000000
     35         10.805187   0.000000
     36         11.126052   0.000000
     37         11.548120   0.000000
     38         11.632181   0.000000
     39         11.902546   0.000000
     40         12.140507   0.000000
     41         13.361014   0.000000
     42         13.379907   0.000000
     43         13.539739   0.000000
     44         14.182058   0.000000
     45         14.367675   0.000000
     46         15.264131   0.000000
     47         15.313165   0.000000
     48         15.947863   0.000000
 
  0.0000000E+00  0.0000000E+00  0.5000000E+00  0.8928571E-02
      1        -12.593813   1.000000
      2        -11.708117   1.000000
      3         -8.605554   1.000000
      4         -7.990409   1.000000
      5         -6.973254   1.000000
      6         -5.848123   1.000000
      7         -3.707851   1.000000
      8         -3.548301   1.000000
      9         -2.917274   1.000000
     10         -2.674700   1.000000
     11         -2.588893   1.000000
     12         -2.331674   1.000000
     13         -2.099021   1.000000
     14         -1.659960   1.000000
     15         -1.597121   1.000000
     16         -1.155553   1.000000
     17          0.163689   1.000000
     18          0.302999   1.000000
     19          1.094172   1.000000
     20          1.346285   1.000000
     21          1.383640   1.000000
     22          4.052060   0.000000
     23          4.813127   0.000000
     24          5.258608   0.000000
     25          5.951459   0.000000
     26          7.018078   0.000000
     27          7.200467   0.000000
     28          7.794945   0.000000
     29          7.996538   0.000000
     30          8.452802   0.000000
     31          8.962509   0.000000
     32          9.584270   0.000000
     33          9.849962   0.000000
     34         10.560750   0.000000
     35         10.789973   0.000000
     36         11.135384   0.000000
     37         11.510497   0.000000
     38         11.701750   0.000000
     39         11.903874   0.000000
     40         12.096207   0.000000
     41         13.394105   0.000000
     42         13.433557   0.000000
     43         13.461115   0.000000
     44         14.162861   0.000000
     45         14.347862   0.000000
     46         15.258014   0.000000
     47         15.325060   0.000000
     48         15.930651   0.000000
 
  0.0000000E+00  0.0000000E+00  0.5000000E+00  0.8928571E-02
      1        -12.593813   1.000000
      2        -11.708117   1.000000
      3         -8.605554   1.000000
      4         -7.990409   1.000000
      5         -6.973254   1.000000
      6         -5.848123   1.000000
      7         -3.707851   1.000000
      8         -3.548301   1.000000