       N       E                     dE             d eps       ncg     rms          rms(c)
DAV:   1     0.940692168550E+02    0.94069E+02   -0.21434E+04 16800   0.950E+02
DAV:   2    -0.911404413027E+02   -0.18521E+03   -0.17309E+03 22968   0.177E+02
DAV:   3    -0.976135713892E+02   -0.64731E+01   -0.64285E+01 24720   0.294E+01
DAV:   4    -0.976519976409E+02   -0.38426E-01   -0.38424E-01 19704   0.262E+00
DAV:   5    -0.976524193751E+02   -0.42173E-03   -0.42173E-03 24768   0.262E-01    0.123E+01
DAV:   6    -0.922365542677E+02    0.54159E+01   -0.39488E+00 24240   0.659E+00    0.680E+00
DAV:   7    -0.905849866798E+02    0.16516E+01   -0.32207E+00 25152   0.586E+00    0.171E+00
DAV:   8    -0.905974261359E+02   -0.12439E-01   -0.23537E-01 18504   0.168E+00    0.704E-01
DAV:   9    -0.906115920159E+02   -0.14166E-01   -0.16929E-02 23472   0.440E-01    0.198E-01
DAV:  10    -0.906156453740E+02   -0.40534E-02   -0.21010E-03 19080   0.162E-01    0.610E-02
DAV:  11    -0.906167159508E+02   -0.10706E-02   -0.63041E-04 21768   0.877E-02    0.321E-02
DAV:  12    -0.906168317683E+02   -0.11582E-03   -0.93031E-05 20664   0.375E-02    0.429E-03
DAV:  13    -0.906168366339E+02   -0.48656E-05   -0.41197E-06 23616   0.894E-03    0.182E-03
DAV:  14    -0.906168373168E+02   -0.68290E-06   -0.28652E-07 20400   0.234E-03
   1 F= -.90616837E+02 E0= -.90615231E+02  d E =-.321338E-02
