   14   14    1    1
  0.1021960E+02  0.5697000E-09  0.4047900E-09  0.6204200E-09  0.5000000E-15
  1.000000000000000E-004
  CAR 
 Kpoints                                 
     42    140     48
 
  0.0000000E+00  0.0000000E+00  0.6250000E-01  0.2136752E-02
      1        -12.729952   1.000000
      2        -11.585917   1.000000
      3         -8.654003   1.000000
      4         -8.410745   1.000000
      5         -6.112190   1.000000
      6         -5.131964   1.000000
      7         -4.544359   1.000000
      8         -4.291506   1.000000
      9         -3.971288   1.000000
     10         -3.551831   1.000000
     11         -2.440108   1.000000
     12         -2.267540   1.000000
     13         -2.213983   1.000000
     14         -1.054575   1.000000
     15         -0.010106   1.000000
     16          0.002553   1.000000
     17          0.091005   1.000000
     18          0.185654   1.000000
     19          0.491725   1.000000
     20          2.059405   0.000000
     21          2.091925   0.000000
     22          2.333723   0.000000
     23          5.405433   0.000000
     24          5.750565   0.000000
     25          5.873098   0.000000
     26          5.915157   0.000000
     27          6.819928   0.000000
     28          7.623339   0.000000
     29          7.709968   0.000000
     30          8.668863   0.000000
     31          8.734766   0.000000
     32          8.959725   0.000000
     33          9.064017   0.000000
     34         10.058586   0.000000
     35         11.147319   0.000000
     36         11.388639   0.000000
     37         11.621776   0.000000
     38         11.825514   0.000000
     39         11.882537   0.000000
     40         12.371191   0.000000
     41         12.876193   0.000000
     42         13.321896   0.000000
     43         13.695865   0.000000
     44         15.485177   0.000000
     45         15.595757   0.000000
     46         15.773622   0.000000
     47         16.360985   0.000000
     48         16.363201   0.000000
 
  0.1111111E+00  0.0000000E+00  0.6250000E-01  0.4273504E-02
      1        -12.702957   1.000000
      2        -11.631441   1.000000
      3         -8.648457   1.000000
      4         -8.399086   1.000000
      5         -6.072891   1.000000
      6         -5.322557   1.000000
      7         -4.709127   1.000000
      8         -3.972810   1.000000
      9         -3.933421   1.000000
     10         -3.312718   1.000000
     11         -2.427877   1.000000
     12         -2.295723   1.000000
     13         -2.274948   1.000000
     14         -1.252491   1.000000
     15         -0.053036   1.000000
     16          0.064597   1.000000
     17          0.109486   1.000000
     18          0.162193   1.000000
     19          0.438043   1.000000
     20          1.930440   0.005486
     21          2.125387   0.000000
     22          2.247858   0.000000
     23          5.444052   0.000000
     24          5.753523   0.000000
     25          5.854466   0.000000
     26          6.190582   0.000000
     27          6.757408   0.000000
     28          7.257437   0.000000
     29          7.968369   0.000000
     30          8.758812   0.000000
     31          8.891159   0.000000
     32          9.053897   0.000000
     33          9.205802   0.000000
     34         10.134659   0.000000
     35         11.131672   0.000000
     36         11.186214   0.000000
     37         11.257885   0.000000
     38         11.712918   0.000000
     39         12.013413   0.000000
     40         12.427188   0.000000
     41         13.130532   0.000000
     42         13.392754   0.000000
     43         13.773456   0.000000
     44         14.953935   0.000000
     45         15.695632   0.000000
     46         15.952673   0.000000
     47         16.162303   0.000000
     48         16.449716   0.000000
 
  0.2222222E+00  0.0000000E+00  0.6250000E-01  0.4273504E-02
      1        -12.623403   1.000000
      2        -11.757029   1.000000
      3         -8.621721   1.000000
      4         -8.378946   1.000000
      5         -6.052045   1.000000
      6         -5.610035   1.000000
      7         -4.778754   1.000000
      8         -3.821326   1.000000
      9         -3.436043   1.000000
     10         -2.828585   1.000000
     11         -2.512018   1.000000
     12         -2.388239   1.000000
     13         -2.296254   1.000000
     14         -1.751460   1.000000
     15         -0.166653   1.000000
     16         -0.022328   1.000000
     17          0.182129   1.000000
     18          0.240363   1.000000
     19          0.337802   1.000000
     20          1.751157   0.994253
     21          1.997402   0.000005
     22          2.056655   0.000000
     23          5.514095   0.000000
     24          5.789148   0.000000
     25          6.112249   0.000000
     26          6.602540   0.000000
     27          6.674386   0.000000
     28          6.904550   0.000000
     29          8.160621   0.000000
     30          8.948710   0.000000
     31          8.976365   0.000000
     32          9.326514   0.000000
     33          9.691280   0.000000
     34         10.419616   0.000000
     35         10.463804   0.000000
     36         10.652653   0.000000
     37         11.290437   0.000000
     38         11.735478   0.000000
     39         12.255884   0.000000
     40         12.661683   0.000000
     41         12.850406   0.000000
     42         13.218351   0.000000
     43         14.489265   0.000000
     44         14.667462   0.000000
     45         15.388041   0.000000
     46         15.923458   0.000000
     47         16.105089   0.000000
     48         16.278462   0.000000
 
  0.3333333E+00  0.0000000E+00  0.6250000E-01  0.4273504E-02
      1        -12.495808   1.000000
      2        -11.935456   1.000000
      3         -8.564191   1.000000
      4         -8.378185   1.000000
      5         -6.124859   1.000000
      6         -5.862911   1.000000
      7         -4.487505   1.000000
      8         -3.639741   1.000000
      9         -2.954718   1.000000
     10         -2.802067   1.000000
     11         -2.454119   1.000000
     12         -2.388541   1.000000
     13         -2.315374   1.000000
     14         -2.135446   1.000000
     15         -0.495691   1.000000
     16         -0.129690   1.000000
     17          0.074277   1.000000
     18          0.325722   1.000000
     19          0.525715   1.000000
     20          1.618146   1.000000
     21          1.625061   1.000000
     22          1.902579   0.039580
     23          5.585131   0.000000
     24          5.834112   0.000000
     25          6.452172   0.000000
     26          6.640286   0.000000
     27          6.666918   0.000000
     28          7.286208   0.000000
     29          8.313674   0.000000
     30          8.822612   0.000000
     31          8.857642   0.000000
     32          9.628633   0.000000
     33          9.751739   0.000000
     34         10.302564   0.000000
     35         10.401740   0.000000
     36         11.014961   0.000000
     37         11.323387   0.000000
     38         12.051292   0.000000
     39         12.154246   0.000000
     40         12.305750   0.000000
     41         12.747676   0.000000
     42         13.193931   0.000000
     43         14.586328   0.000000
     44         15.099186   0.000000
     45         15.258974   0.000000
     46         15.386294   0.000000
     47         15.570672   0.000000
     48         16.198891   0.000000
 
  0.4444444E+00  0.0000000E+00  0.6250000E-01  0.4273504E-02
      1        -12.328532   1.000000
      2        -12.135056   1.000000
      3         -8.486476   1.000000
      4         -8.415700   1.000000
      5         -6.152401   1.000000
      6         -6.060025   1.000000
      7         -3.935094   1.000000
      8         -3.397642   1.000000
      9         -3.275599   1.000000
     10         -3.110201   1.000000
     11         -2.494604   1.000000
     12         -2.402028   1.000000
     13         -2.041451   1.000000
     14         -1.888514   1.000000
     15         -0.725289   1.000000
     16         -0.528816   1.000000
     17          0.203391   1.000000
     18          0.309454   1.000000
     19          0.830151   1.000000
     20          1.210984   1.000000
     21          1.609675   1.000000
     22          1.727734   0.999288
     23          5.683320   0.000000
     24          5.791286   0.000000
     25          6.424120   0.000000
     26          6.511239   0.000000
     27          7.358901   0.000000
     28          7.918009   0.000000
     29          8.279941   0.000000
     30          8.453969   0.000000
     31          8.621210   0.000000
     32          8.805194   0.000000
     33         10.224632   0.000000
     34         10.592809   0.000000
     35         10.784795   0.000000
     36         11.344197   0.000000
     37         11.433862   0.000000
     38         11.837533   0.000000
     39         11.903740   0.000000
     40         12.416025   0.000000
     41         12.732036   0.000000
     42         13.249464   0.000000
     43         14.432930   0.000000
     44         14.593825   0.000000
     45         15.014727   0.000000
     46         15.064331   0.000000
     47         15.932221   0.000000
     48         16.307563   0.000000
 
  0.0000000E+00  0.7692308E-01  0.6250000E-01  0.4273504E-02
      1        -12.715746   1.000000
      2        -11.573114   1.000000
      3         -8.642889   1.000000
      4         -8.397054   1.000000
      5         -6.096500   1.000000
      6         -5.110851   1.000000
      7         -4.530352   1.000000
      8         -4.406424   1.000000
      9         -4.172349   1.000000
     10         -3.536766   1.000000
     11         -3.023812   1.000000
     12         -2.072550   1.000000
     13         -1.396231   1.000000
     14         -1.051875   1.000000
     15         -0.166463   1.000000
     16         -0.163278   1.000000
     17          0.098421   1.000000
     18          0.246843   1.000000
     19          0.553353   1.000000
     20          1.885771   0.100242
     21          1.938017   0.002908
     22          2.376218   0.000000
     23          5.556325   0.000000
     24          5.710280   0.000000
     25          5.781167   0.000000
     26          5.915604   0.000000
     27          7.000867   0.000000
     28          7.832994   0.000000
     29          7.851107   0.000000
     30          8.304453   0.000000
     31          8.771348   0.000000
     32          9.081204   0.000000
     33          9.097890   0.000000
     34         10.385022   0.000000
     35         11.247752   0.000000
     36         11.368262   0.000000
     37         11.575765   0.000000
     38         11.880242   0.000000
     39         11.951140   0.000000
     40         12.539395   0.000000
     41         12.869354   0.000000
     42         13.159099   0.000000
     43         13.512354   0.000000
     44         15.450303   0.000000
     45         15.476010   0.000000
     46         15.784671   0.000000
     47         16.156940   0.000000
     48         16.249939   0.000000
 
  0.1111111E+00  0.7692308E-01  0.6250000E-01  0.8547009E-02
      1        -12.688785   1.000000
      2        -11.618589   1.000000
      3         -8.637167   1.000000
      4         -8.385644   1.000000
      5         -6.056523   1.000000
      6         -5.303852   1.000000
      7         -4.697732   1.000000
      8         -4.302630   1.000000
      9         -3.917472   1.000000
     10         -3.301010   1.000000
     11         -3.059994   1.000000
     12         -2.059179   1.000000
     13         -1.455027   1.000000
     14         -1.248593   1.000000
     15         -0.212231   1.000000
     16         -0.069629   1.000000
     17          0.116167   1.000000
     18          0.202878   1.000000
     19          0.499402   1.000000
     20          1.768955   0.978508
     21          1.960960   0.000329
     22          2.286818   0.000000
     23          5.588329   0.000000
     24          5.720210   0.000000
     25          5.875160   0.000000
     26          6.078347   0.000000
     27          6.938775   0.000000
     28          7.450583   0.000000
     29          8.123441   0.000000
     30          8.401724   0.000000
     31          8.923342   0.000000
     32          9.182178   0.000000
     33          9.264246   0.000000
     34         10.396273   0.000000
     35         11.066850   0.000000
     36         11.218871   0.000000
     37         11.314621   0.000000
     38         11.790480   0.000000
     39         12.083671   0.000000
     40         12.589475   0.000000
     41         13.132855   0.000000
     42         13.211225   0.000000
     43         13.603783   0.000000
     44         15.015609   0.000000
     45         15.503779   0.000000
     46         15.884110   0.000000
     47         16.025851   0.000000
     48         16.386025   0.000000
 
  0.2222222E+00  0.7692308E-01  0.6250000E-01  0.8547009E-02
      1        -12.609336   1.000000
      2        -11.744037   1.000000
      3         -8.610122   1.000000
      4         -8.366017   1.000000
      5         -6.033953   1.000000
      6         -5.591924   1.000000
      7         -4.768504   1.000000
      8         -4.187808   1.000000
      9         -3.387823   1.000000
     10         -3.192864   1.000000
     11         -2.797228   1.000000
     12         -2.019747   1.000000
     13         -1.750772   1.000000
     14         -1.588867   1.000000
     15         -0.197455   1.000000
     16         -0.155856   1.000000
     17          0.143941   1.000000
     18          0.236164   1.000000
     19          0.373028   1.000000
     20          1.594221   1.000000
     21          1.889673   0.082180
     22          2.030555   0.000000
     23          5.649730   0.000000
     24          5.903723   0.000000
     25          6.015671   0.000000
     26          6.521500   0.000000
     27          6.790149   0.000000
     28          7.134375   0.000000
     29          8.306779   0.000000
     30          8.614261   0.000000
     31          9.038273   0.000000
     32          9.467419   0.000000
     33          9.768240   0.000000
     34         10.337845   0.000000
     35         10.450752   0.000000
     36         10.741540   0.000000
     37         11.386755   0.000000
     38         11.875454   0.000000
     39         12.342165   0.000000
     40         12.663846   0.000000
     41         12.824490   0.000000
     42         13.241364   0.000000
     43         14.207002   0.000000
     44         14.863853   0.000000
     45         15.354272   0.000000
     46         15.683026   0.000000
     47         16.009876   0.000000
     48         16.376086   0.000000
 
  0.3333333E+00  0.7692308E-01  0.6250000E-01  0.8547009E-02
      1        -12.481901   1.000000
      2        -11.922253   1.000000
      3         -8.552394   1.000000
      4         -8.365782   1.000000
      5         -6.105893   1.000000
      6         -5.844340   1.000000
      7         -4.478714   1.000000
      8         -4.027262   1.000000
      9         -3.374204   1.000000
     10         -2.892525   1.000000
     11         -2.410564   1.000000
     12         -2.206772   1.000000
     13         -1.933554   1.000000
     14         -1.751128   1.000000
     15         -0.478609   1.000000
     16         -0.204639   1.000000
     17          0.052501   1.000000
     18          0.237399   1.000000
     19          0.532774   1.000000
     20          1.461100   1.000000
     21          1.639432   1.000000
     22          1.751712   0.993990
     23          5.717015   0.000000
     24          5.974651   0.000000
     25          6.529900   0.000000
     26          6.634462   0.000000
     27          6.804410   0.000000
     28          7.244409   0.000000
     29          8.450816   0.000000
     30          8.647256   0.000000
     31          8.910553   0.000000
     32          9.525601   0.000000
     33          9.820678   0.000000
     34         10.228746   0.000000
     35         10.437814   0.000000
     36         11.082877   0.000000
     37         11.365272   0.000000
     38         11.971115   0.000000
     39         12.247452   0.000000
     40         12.429431   0.000000
     41         12.823514   0.000000
     42         13.306948   0.000000
     43         14.577056   0.000000
     44         15.007347   0.000000
     45         15.217108   0.000000
     46         15.351219   0.000000
     47         15.611441   0.000000
     48         16.252175   0.000000
 
  0.4444444E+00  0.7692308E-01  0.6250000E-01  0.8547009E-02
      1        -12.314838   1.000000
      2        -12.121602   1.000000
      3         -8.474579   1.000000
      4         -8.403646   1.000000
      5         -6.133306   1.000000
      6         -6.041093   1.000000
      7         -3.927878   1.000000
      8         -3.823731   1.000000
      9         -3.595697   1.000000
     10         -3.264862   1.000000
     11         -2.211459   1.000000
     12         -1.957795   1.000000
     13         -1.865540   1.000000
     14         -1.804303   1.000000
     15         -0.706845   1.000000
     16         -0.528517   1.000000
     17          0.116529   1.000000
     18          0.216693   1.000000
     19          0.835871   1.000000
     20          1.216364   1.000000
     21          1.461308   1.000000
     22          1.576190   1.000000
     23          5.818317   0.000000
     24          5.931288   0.000000
     25          6.613771   0.000000
     26          6.693589   0.000000
     27          7.246683   0.000000
     28          7.820194   0.000000
     29          8.168038   0.000000
     30          8.574145   0.000000
     31          8.687620   0.000000
     32          8.739396   0.000000
     33         10.242585   0.000000
     34         10.547692   0.000000
     35         10.731543   0.000000
     36         11.178552   0.000000
     37         11.473253   0.000000
     38         11.910760   0.000000
     39         11.966808   0.000000
     40         12.550967   0.000000
     41         12.897057   0.000000
     42         13.394836   0.000000
     43         14.456373   0.000000
     44         14.583871   0.000000
     45         14.982814   0.000000
     46         15.108350   0.000000
     47         15.954284   0.000000
     48         16.291156   0.000000
 
  0.0000000E+00  0.1538462E+00  0.6250000E-01  0.4273504E-02
      1        -12.675572   1.000000
      2        -11.536978   1.000000
      3         -8.611666   1.000000
      4         -8.358415   1.000000
      5         -6.052161   1.000000
      6         -5.050600   1.000000
      7         -4.937957   1.000000
      8         -4.489805   1.000000
      9         -4.198531   1.000000
     10         -3.728128   1.000000
     11         -3.488258   1.000000
     12         -1.400780   1.000000
     13         -1.044602   1.000000
     14         -0.596848   1.000000
     15         -0.497677   1.000000
     16         -0.382819   1.000000
     17          0.117178   1.000000
     18          0.310877   1.000000
     19          0.643831   1.000000
     20          1.506372   1.000000
     21          1.554882   1.000000
     22          2.426962   0.000000
     23          5.453122   0.000000
     24          5.500227   0.000000
     25          5.948928   0.000000
     26          6.096987   0.000000
     27          7.444150   0.000000
     28          7.780770   0.000000
     29          8.218641   0.000000
     30          8.468308   0.000000
     31          8.783621   0.000000
     32          9.208041   0.000000
     33          9.276303   0.000000
     34         10.883066   0.000000
     35         11.312959   0.000000
     36         11.451411   0.000000
     37         11.582910   0.000000
     38         12.044489   0.000000
     39         12.162733   0.000000
     40         12.702872   0.000000
     41         12.981166   0.000000
     42         12.992955   0.000000
     43         13.141297   0.000000
     44         14.916287   0.000000
     45         15.384218   0.000000
     46         15.478620   0.000000
     47         15.529824   0.000000
     48         16.053837   0.000000
 
  0.1111111E+00  0.1538462E+00  0.6250000E-01  0.8547009E-02
      1        -12.648717   1.000000
      2        -11.582318   1.000000
      3         -8.605459   1.000000
      4         -8.347693   1.000000
      5         -6.010237   1.000000
      6         -5.254893   1.000000
      7         -4.888136   1.000000
      8         -4.654670   1.000000
      9         -3.884652   1.000000
     10         -3.767294   1.000000
     11         -3.248409   1.000000
     12         -1.388184   1.000000
     13         -1.241563   1.000000
     14         -0.719654   1.000000
     15         -0.509603   1.000000
     16         -0.241664   1.000000
     17          0.136594   1.000000
     18          0.248788   1.000000
     19          0.585635   1.000000
     20          1.393865   1.000000
     21          1.578361   1.000000
     22          2.331376   0.000000
     23          5.441763   0.000000
     24          5.762155   0.000000
     25          5.969168   0.000000
     26          6.133616   0.000000
     27          7.381695   0.000000
     28          7.881794   0.000000
     29          7.945594   0.000000
     30          8.589509   0.000000
     31          9.006095   0.000000
     32          9.286362   0.000000
     33          9.462270   0.000000
     34         10.703025   0.000000
     35         10.933506   0.000000
     36         11.285524   0.000000
     37         11.580920   0.000000
     38         12.024178   0.000000
     39         12.293045   0.000000
     40         12.780214   0.000000
     41         13.050182   0.000000
     42         13.108174   0.000000
     43         13.349810   0.000000
     44         14.904154   0.000000
     45         15.031734   0.000000
     46         15.473614   0.000000
     47         15.561153   0.000000
     48         16.078673   0.000000
 
  0.2222222E+00  0.1538462E+00  0.6250000E-01  0.8547009E-02
      1        -12.569558   1.000000
      2        -11.707355   1.000000
      3         -8.577553   1.000000
      4         -8.329552   1.000000
      5         -5.982676   1.000000
      6         -5.541843   1.000000
      7         -4.793607   1.000000
      8         -4.732970   1.000000
      9         -3.881222   1.000000
     10         -3.337775   1.000000
     11         -2.757998   1.000000
     12         -1.737118   1.000000
     13         -1.349110   1.000000
     14         -0.926691   1.000000
     15         -0.452510   1.000000
     16         -0.147761   1.000000
     17          0.030092   1.000000
     18          0.280349   1.000000
     19          0.425997   1.000000
     20          1.226234   1.000000
     21          1.514718   1.000000
     22          2.059168   0.000000
     23          5.701128   0.000000
     24          5.966188   0.000000
     25          6.232183   0.000000
     26          6.262008   0.000000
     27          7.237015   0.000000
     28          7.669247   0.000000
     29          8.135007   0.000000
     30          8.723657   0.000000
     31          9.153819   0.000000
     32          9.617651   0.000000
     33          9.940523   0.000000
     34         10.136397   0.000000
     35         10.344876   0.000000
     36         11.010227   0.000000
     37         11.577730   0.000000
     38         12.191220   0.000000
     39         12.352575   0.000000
     40         12.609735   0.000000
     41         13.202768   0.000000
     42         13.320268   0.000000
     43         13.849059   0.000000
     44         14.797051   0.000000
     45         14.922391   0.000000
     46         15.392633   0.000000
     47         15.638811   0.000000
     48         16.276773   0.000000
 
  0.3333333E+00  0.1538462E+00  0.6250000E-01  0.8547009E-02
      1        -12.442588   1.000000
      2        -11.884964   1.000000
      3         -8.519246   1.000000
      4         -8.330821   1.000000
      5         -6.052040   1.000000
      6         -5.791870   1.000000
      7         -4.645109   1.000000
      8         -4.452909   1.000000
      9         -4.052276   1.000000
     10         -2.841894   1.000000
     11         -2.377800   1.000000
     12         -2.152824   1.000000
     13         -1.289218   1.000000
     14         -1.117319   1.000000
     15         -0.453095   1.000000
     16         -0.346339   1.000000
     17          0.014415   1.000000
     18          0.122866   1.000000
     19          0.549081   1.000000
     20          1.101169   1.000000
     21          1.373314   1.000000
     22          1.666669   1.000000
     23          5.996793   0.000000
     24          6.251241   0.000000
     25          6.333499   0.000000
     26          6.762811   0.000000
     27          7.120830   0.000000
     28          7.548745   0.000000
     29          8.272580   0.000000
     30          8.844551   0.000000
     31          9.083745   0.000000
     32          9.286741   0.000000
     33          9.857541   0.000000
     34         10.123158   0.000000
     35         10.635885   0.000000
     36         11.202263   0.000000
     37         11.308886   0.000000
     38         11.798853   0.000000
     39         12.576817   0.000000
     40         12.754453   0.000000
     41         13.033125   0.000000
     42         13.618885   0.000000
     43         14.333455   0.000000
     44         14.626334   0.000000
     45         15.074656   0.000000
     46         15.323789   0.000000
     47         15.530420   0.000000
     48         16.268936   0.000000
 
  0.4444444E+00  0.1538462E+00  0.6250000E-01  0.8547009E-02
      1        -12.276140   1.000000
      2        -12.083599   1.000000
      3         -8.441121   1.000000
      4         -8.369710   1.000000
      5         -6.079058   1.000000
      6         -5.987356   1.000000
      7         -4.461054   1.000000
      8         -4.255589   1.000000
      9         -3.903180   1.000000
     10         -3.243897   1.000000
     11         -2.105798   1.000000
     12         -1.873906   1.000000
     13         -1.252593   1.000000
     14         -1.215437   1.000000
     15         -0.656196   1.000000
     16         -0.538316   1.000000
     17         -0.031327   1.000000
     18          0.047686   1.000000
     19          0.850262   1.000000
     20          1.092512   1.000000
     21          1.211868   1.000000
     22          1.244780   1.000000
     23          6.117473   0.000000
     24          6.259802   0.000000
     25          6.942934   0.000000
     26          7.096467   0.000000
     27          7.109100   0.000000
     28          7.655027   0.000000
     29          7.942235   0.000000
     30          8.487289   0.000000
     31          8.933953   0.000000
     32          9.004161   0.000000
     33         10.090706   0.000000
     34         10.512822   0.000000
     35         10.665397   0.000000
     36         10.958997   0.000000
     37         11.613560   0.000000
     38         12.030465   0.000000
     39         12.113175   0.000000
     40         12.837965   0.000000
     41         13.283985   0.000000
     42         13.697955   0.000000
     43         14.271934   0.000000
     44         14.444010   0.000000
     45         14.981872   0.000000
     46         15.172852   0.000000
     47         15.882202   0.000000
     48         16.276060   0.000000
 
  0.0000000E+00  0.2307692E+00  0.6250000E-01  0.4273504E-02
      1        -12.616799   1.000000
      2        -11.484246   1.000000
      3         -8.566601   1.000000
      4         -8.301978   1.000000
      5         -5.987352   1.000000
      6         -5.495001   1.000000
      7         -4.960808   1.000000
      8         -4.427611   1.000000
      9         -4.321321   1.000000
     10         -4.166311   1.000000
     11         -3.426833   1.000000
     12         -1.156068   1.000000
     13         -1.038027   1.000000
     14         -0.889583   1.000000
     15         -0.364022   1.000000
     16          0.141392   1.000000
     17          0.361201   1.000000
     18          0.385700   1.000000
     19          0.718271   1.000000
     20          1.072081   1.000000
     21          1.085693   1.000000
     22          2.468919   0.000000
     23          5.059430   0.000000
     24          5.217172   0.000000
     25          6.281884   0.000000
     26          6.442309   0.000000
     27          7.360689   0.000000
     28          7.941662   0.000000
     29          8.762551   0.000000
     30          8.854831   0.000000
     31          9.288017   0.000000
     32          9.417886   0.000000
     33          9.559624   0.000000
     34         10.803456   0.000000
     35         11.284851   0.000000
     36         11.729501   0.000000
     37         11.893245   0.000000
     38         12.312645   0.000000
     39         12.402582   0.000000
     40         12.513497   0.000000
     41         12.735257   0.000000
     42         12.952686   0.000000
     43         13.675419   0.000000
     44         13.997669   0.000000
     45         14.651010   0.000000
     46         15.156837   0.000000
     47         15.342580   0.000000
     48         15.976411   0.000000
 
  0.1111111E+00  0.2307692E+00  0.6250000E-01  0.8547009E-02
      1        -12.590092   1.000000
      2        -11.529374   1.000000
      3         -8.559669   1.000000
      4         -8.292279   1.000000
      5         -5.942604   1.000000
      6         -5.472092   1.000000
      7         -5.149118   1.000000
      8         -4.603424   1.000000