Automatically generated mesh
     140
Reciprocal lattice
    0.00000000000000    0.00000000000000    0.06250000000000             2
    0.11111111111111    0.00000000000000    0.06250000000000             4
    0.22222222222222    0.00000000000000    0.06250000000000             4
    0.33333333333334    0.00000000000000    0.06250000000000             4
    0.44444444444444    0.00000000000000    0.06250000000000             4
    0.00000000000000    0.07692307692308    0.06250000000000             4
    0.11111111111111    0.07692307692308    0.06250000000000             8
    0.22222222222222    0.07692307692308    0.06250000000000             8
    0.33333333333334    0.07692307692308    0.06250000000000             8
    0.44444444444444    0.07692307692308    0.06250000000000             8
    0.00000000000000    0.15384615384615    0.06250000000000             4
    0.11111111111111    0.15384615384615    0.06250000000000             8
    0.22222222222222    0.15384615384615    0.06250000000000             8
    0.33333333333334    0.15384615384615    0.06250000000000             8
    0.44444444444444    0.15384615384615    0.06250000000000             8
    0.00000000000000    0.23076923076923    0.06250000000000             4
    0.11111111111111    0.23076923076923    0.06250000000000             8
    0.22222222222222    0.23076923076923    0.06250000000000             8
    0.33333333333334    0.23076923076923    0.06250000000000             8
    0.44444444444444    0.23076923076923    0.06250000000000             8
    0.00000000000000    0.30769230769231    0.06250000000000             4
    0.11111111111111    0.30769230769231    0.06250000000000             8
    0.22222222222222    0.30769230769231    0.06250000000000             8
    0.33333333333334    0.30769230769231    0.06250000000000             8
    0.44444444444444    0.30769230769231    0.06250000000000             8
    0.00000000000000    0.38461538461539    0.06250000000000             4
    0.11111111111111    0.38461538461539    0.06250000000000             8
    0.22222222222222    0.38461538461539    0.06250000000000             8
    0.33333333333334    0.38461538461539    0.06250000000000             8
    0.44444444444444    0.38461538461539    0.06250000000000             8
    0.00000000000000    0.46153846153846    0.06250000000000             4
    0.11111111111111    0.46153846153846    0.06250000000000             8
    0.22222222222222    0.46153846153846    0.06250000000000             8
    0.33333333333334    0.46153846153846    0.06250000000000             8
    0.44444444444444    0.46153846153846    0.06250000000000             8
    0.00000000000000    0.00000000000000    0.18750000000000             2
    0.11111111111111    0.00000000000000    0.18750000000000             4
    0.22222222222222    0.00000000000000    0.18750000000000             4
    0.33333333333334    0.00000000000000    0.18750000000000             4
    0.44444444444444    0.00000000000000    0.18750000000000             4
    0.00000000000000    0.07692307692308    0.18750000000000             4
    0.11111111111111    0.07692307692308    0.18750000000000             8
    0.22222222222222    0.07692307692308    0.18750000000000             8
    0.33333333333334    0.07692307692308    0.18750000000000             8
    0.44444444444444    0.07692307692308    0.18750000000000             8
    0.00000000000000    0.15384615384615    0.18750000000000             4
    0.11111111111111    0.15384615384615    0.18750000000000             8
    0.22222222222222    0.15384615384615    0.18750000000000             8
    0.33333333333334    0.15384615384615    0.18750000000000             8
    0.44444444444444    0.15384615384615    0.18750000000000             8
    0.00000000000000    0.23076923076923    0.18750000000000             4
    0.11111111111111    0.23076923076923    0.18750000000000             8
    0.22222222222222    0.23076923076923    0.18750000000000             8
    0.33333333333334    0.23076923076923    0.18750000000000             8
    0.44444444444444    0.23076923076923    0.18750000000000             8
    0.00000000000000    0.30769230769231    0.18750000000000             4
    0.11111111111111    0.30769230769231    0.18750000000000             8
    0.22222222222222    0.30769230769231    0.18750000000000             8
    0.33333333333334    0.30769230769231    0.18750000000000             8
    0.44444444444444    0.30769230769231    0.18750000000000             8
    0.00000000000000    0.38461538461539    0.18750000000000             4
    0.11111111111111    0.38461538461539    0.18750000000000             8
    0.22222222222222    0.38461538461539    0.18750000000000             8
    0.33333333333334    0.38461538461539    0.18750000000000             8
    0.44444444444444    0.38461538461539    0.18750000000000             8
    0.00000000000000    0.46153846153846    0.18750000000000             4
    0.11111111111111    0.46153846153846    0.18750000000000             8
    0.22222222222222    0.46153846153846    0.18750000000000             8
    0.33333333333334    0.46153846153846    0.18750000000000             8
    0.44444444444444    0.46153846153846    0.18750000000000             8
    0.00000000000000    0.00000000000000    0.31250000000000             2
    0.11111111111111    0.00000000000000    0.31250000000000             4
    0.22222222222222    0.00000000000000    0.31250000000000             4
    0.33333333333334    0.00000000000000    0.31250000000000             4
    0.44444444444444    0.00000000000000    0.31250000000000             4
    0.00000000000000    0.07692307692308    0.31250000000000             4
    0.11111111111111    0.07692307692308    0.31250000000000             8
    0.22222222222222    0.07692307692308    0.31250000000000             8
    0.33333333333334    0.07692307692308    0.31250000000000             8
    0.44444444444444    0.07692307692308    0.31250000000000             8
    0.00000000000000    0.15384615384615    0.31250000000000             4
    0.11111111111111    0.15384615384615    0.31250000000000             8
    0.22222222222222    0.15384615384615    0.31250000000000             8
    0.33333333333334    0.15384615384615    0.31250000000000             8
    0.44444444444444    0.15384615384615    0.31250000000000             8
    0.00000000000000    0.23076923076923    0.31250000000000             4
    0.11111111111111    0.23076923076923    0.31250000000000             8
    0.22222222222222    0.23076923076923    0.31250000000000             8
    0.33333333333334    0.23076923076923    0.31250000000000             8
    0.44444444444444    0.23076923076923    0.31250000000000             8
    0.00000000000000    0.30769230769231    0.31250000000000             4
    0.11111111111111    0.30769230769231    0.31250000000000             8
    0.22222222222222    0.30769230769231    0.31250000000000             8
    0.33333333333334    0.30769230769231    0.31250000000000             8
    0.44444444444444    0.30769230769231    0.31250000000000             8
    0.00000000000000    0.38461538461539    0.31250000000000             4
    0.11111111111111    0.38461538461539    0.31250000000000             8
    0.22222222222222    0.38461538461539    0.31250000000000             8
    0.33333333333334    0.38461538461539    0.31250000000000             8
    0.44444444444444    0.38461538461539    0.31250000000000             8
    0.00000000000000    0.46153846153846    0.31250000000000             4
    0.11111111111111    0.46153846153846    0.31250000000000             8
    0.22222222222222    0.46153846153846    0.31250000000000             8
    0.33333333333334    0.46153846153846    0.31250000000000             8
    0.44444444444444    0.46153846153846    0.31250000000000             8
    0.00000000000000    0.00000000000000    0.43750000000000             2
    0.11111111111111    0.00000000000000    0.43750000000000             4
    0.22222222222222    0.00000000000000    0.43750000000000             4
    0.33333333333334    0.00000000000000    0.43750000000000             4
    0.44444444444444    0.00000000000000    0.43750000000000             4
    0.00000000000000    0.07692307692308    0.43750000000000             4
    0.11111111111111    0.07692307692308    0.43750000000000             8
    0.22222222222222    0.07692307692308    0.43750000000000             8
    0.33333333333334    0.07692307692308    0.43750000000000             8
    0.44444444444444    0.07692307692308    0.43750000000000             8
    0.00000000000000    0.15384615384615    0.43750000000000             4
    0.11111111111111    0.15384615384615    0.43750000000000             8
    0.22222222222222    0.15384615384615    0.43750000000000             8
    0.33333333333334    0.15384615384615    0.43750000000000             8
    0.44444444444444    0.15384615384615    0.43750000000000             8
    0.00000000000000    0.23076923076923    0.43750000000000             4
    0.11111111111111    0.23076923076923    0.43750000000000             8
    0.22222222222222    0.23076923076923    0.43750000000000             8
    0.33333333333334    0.23076923076923    0.43750000000000             8
    0.44444444444444    0.23076923076923    0.43750000000000             8
    0.00000000000000    0.30769230769231    0.43750000000000             4
    0.11111111111111    0.30769230769231    0.43750000000000             8
    0.22222222222222    0.30769230769231    0.43750000000000             8
    0.33333333333334    0.30769230769231    0.43750000000000             8
    0.44444444444444    0.30769230769231    0.43750000000000             8
    0.00000000000000    0.38461538461539    0.43750000000000             4
    0.11111111111111    0.38461538461539    0.43750000000000             8
    0.22222222222222    0.38461538461539    0.43750000000000             8
    0.33333333333334    0.38461538461539    0.43750000000000             8
    0.44444444444444    0.38461538461539    0.43750000000000             8
    0.00000000000000    0.46153846153846    0.43750000000000             4
    0.11111111111111    0.46153846153846    0.43750000000000             8
    0.22222222222222    0.46153846153846    0.43750000000000             8
    0.33333333333334    0.46153846153846    0.43750000000000             8
    0.44444444444444    0.46153846153846    0.43750000000000             8
