<?xml version="1.0" encoding="ISO-8859-1"?>
<modeling>
 <generator>
  <i name="program" type="string">vasp </i>
  <i name="version" type="string">6.4.3  </i>
  <i name="subversion" type="string">19Mar24 (build May 31 2024 16:31:43) complex                          parallel </i>
  <i name="platform" type="string">LinuxIFC </i>
  <i name="date" type="string">2024 10 31 </i>
  <i name="time" type="string">00:22:30 </i>
 </generator>
 <incar>
  <i type="string" name="SYSTEM">Kpoints</i>
  <i type="int" name="ISTART">     0</i>
  <i type="string" name="PREC">Accurate</i>
  <i type="string" name="ALGO">Normal</i>
  <i type="int" name="ISPIN">     1</i>
  <i type="int" name="ICHARG">     2</i>
  <i type="int" name="NELM">   100</i>
  <i type="int" name="IBRION">    -1</i>
  <i name="EDIFF">      0.00000100</i>
  <i name="EDIFFG">     -0.00100000</i>
  <i type="int" name="NSW">     0</i>
  <i type="int" name="ISIF">     2</i>
  <i name="ENCUT">    480.00000000</i>
  <i name="POTIM">      0.50000000</i>
  <i type="int" name="ISMEAR">     0</i>
  <i name="SIGMA">      0.05000000</i>
  <i type="logical" name="LWAVE"> F  </i>
  <i type="logical" name="LCHARG"> F  </i>
  <i type="string" name="GGA">PE</i>
 </incar>
 <primitive_cell>
  <structure name="primitive_cell" >
   <crystal>
    <varray name="basis" >
     <v>       5.69700000       0.00000000       0.00000000 </v>
     <v>       0.00000000       4.04790000       0.00000000 </v>
     <v>       0.00000000       0.00000000       6.20420000 </v>
    </varray>
    <i name="volume">    143.07435078 </i>
    <varray name="rec_basis" >
     <v>       0.17553098       0.00000000       0.00000000 </v>
     <v>       0.00000000       0.24704168       0.00000000 </v>
     <v>       0.00000000       0.00000000       0.16118114 </v>
    </varray>
   </crystal>
   <varray name="positions" >
    <v>       0.52123000       0.50000000       0.63796000 </v>
    <v>       0.47877000       0.50000000       0.36204000 </v>
    <v>       0.97877000       0.50000000       0.63796000 </v>
    <v>       0.02123000       0.50000000       0.36204000 </v>
    <v>       0.60090000       0.50000000       0.89991000 </v>
    <v>       0.39910000       0.50000000       0.10009000 </v>
    <v>       0.89910000       0.50000000       0.89991000 </v>
    <v>       0.10090000       0.50000000       0.10009000 </v>
    <v>       0.75000000       0.79171000       0.72973000 </v>
    <v>       0.25000000       0.20829000       0.27027000 </v>
    <v>       0.75000000       0.20829000       0.72973000 </v>
    <v>       0.25000000       0.79171000       0.27027000 </v>
    <v>       0.25000000       0.50000000       0.52367000 </v>
    <v>       0.75000000       0.50000000       0.47633000 </v>
   </varray>
  </structure>
  <varray name="primitive_index" >
   <v type="int" >        1 </v>
   <v type="int" >        2 </v>
   <v type="int" >        3 </v>
   <v type="int" >        4 </v>
   <v type="int" >        5 </v>
   <v type="int" >        6 </v>
   <v type="int" >        7 </v>
   <v type="int" >        8 </v>
   <v type="int" >        9 </v>
   <v type="int" >       10 </v>
   <v type="int" >       11 </v>
   <v type="int" >       12 </v>
   <v type="int" >       13 </v>
   <v type="int" >       14 </v>
  </varray>
 </primitive_cell>
 <kpoints>
  <generation param="Monkhorst-Pack">
   <v type="int" name="divisions">       9       13        8 </v>
   <v name="usershift">      0.00000000       0.00000000       0.00000000 </v>
   <v name="genvec1">      0.11111111       0.00000000       0.00000000 </v>
   <v name="genvec2">      0.00000000       0.07692308       0.00000000 </v>
   <v name="genvec3">      0.00000000       0.00000000       0.12500000 </v>
   <v name="shift">      0.00000000       0.00000000       0.50000000 </v>
  </generation>
  <varray name="kpointlist" >
   <v>       0.00000000       0.00000000       0.06250000 </v>
   <v>       0.11111111       0.00000000       0.06250000 </v>
   <v>       0.22222222       0.00000000       0.06250000 </v>
   <v>       0.33333333       0.00000000       0.06250000 </v>
   <v>       0.44444444       0.00000000       0.06250000 </v>
   <v>       0.00000000       0.07692308       0.06250000 </v>
   <v>       0.11111111       0.07692308       0.06250000 </v>
   <v>       0.22222222       0.07692308       0.06250000 </v>
   <v>       0.33333333       0.07692308       0.06250000 </v>
   <v>       0.44444444       0.07692308       0.06250000 </v>
   <v>       0.00000000       0.15384615       0.06250000 </v>
   <v>       0.11111111       0.15384615       0.06250000 </v>
   <v>       0.22222222       0.15384615       0.06250000 </v>
   <v>       0.33333333       0.15384615       0.06250000 </v>
   <v>       0.44444444       0.15384615       0.06250000 </v>
   <v>       0.00000000       0.23076923       0.06250000 </v>
   <v>       0.11111111       0.23076923       0.06250000 </v>
   <v>       0.22222222       0.23076923       0.06250000 </v>
   <v>       0.33333333       0.23076923       0.06250000 </v>
   <v>       0.44444444       0.23076923       0.06250000 </v>
   <v>       0.00000000       0.30769231       0.06250000 </v>
   <v>       0.11111111       0.30769231       0.06250000 </v>
   <v>       0.22222222       0.30769231       0.06250000 </v>
   <v>       0.33333333       0.30769231       0.06250000 </v>
   <v>       0.44444444       0.30769231       0.06250000 </v>
   <v>       0.00000000       0.38461538       0.06250000 </v>
   <v>       0.11111111       0.38461538       0.06250000 </v>
   <v>       0.22222222       0.38461538       0.06250000 </v>
   <v>       0.33333333       0.38461538       0.06250000 </v>
   <v>       0.44444444       0.38461538       0.06250000 </v>
   <v>       0.00000000       0.46153846       0.06250000 </v>
   <v>       0.11111111       0.46153846       0.06250000 </v>
   <v>       0.22222222       0.46153846       0.06250000 </v>
   <v>       0.33333333       0.46153846       0.06250000 </v>
   <v>       0.44444444       0.46153846       0.06250000 </v>
   <v>       0.00000000       0.00000000       0.18750000 </v>
   <v>       0.11111111       0.00000000       0.18750000 </v>
   <v>       0.22222222       0.00000000       0.18750000 </v>
   <v>       0.33333333       0.00000000       0.18750000 </v>
   <v>       0.44444444       0.00000000       0.18750000 </v>
   <v>       0.00000000       0.07692308       0.18750000 </v>
   <v>       0.11111111       0.07692308       0.18750000 </v>
   <v>       0.22222222       0.07692308       0.18750000 </v>
   <v>       0.33333333       0.07692308       0.18750000 </v>
   <v>       0.44444444       0.07692308       0.18750000 </v>
   <v>       0.00000000       0.15384615       0.18750000 </v>
   <v>       0.11111111       0.15384615       0.18750000 </v>
   <v>       0.22222222       0.15384615       0.18750000 </v>
   <v>       0.33333333       0.15384615       0.18750000 </v>
   <v>       0.44444444       0.15384615       0.18750000 </v>
   <v>       0.00000000       0.23076923       0.18750000 </v>
   <v>       0.11111111       0.23076923       0.18750000 </v>
   <v>       0.22222222       0.23076923       0.18750000 </v>
   <v>       0.33333333       0.23076923       0.18750000 </v>
   <v>       0.44444444       0.23076923       0.18750000 </v>
   <v>       0.00000000       0.30769231       0.18750000 </v>
   <v>       0.11111111       0.30769231       0.18750000 </v>
   <v>       0.22222222       0.30769231       0.18750000 </v>
   <v>       0.33333333       0.30769231       0.18750000 </v>
   <v>       0.44444444       0.30769231       0.18750000 </v>
   <v>       0.00000000       0.38461538       0.18750000 </v>
   <v>       0.11111111       0.38461538       0.18750000 </v>
   <v>       0.22222222       0.38461538       0.18750000 </v>
   <v>       0.33333333       0.38461538       0.18750000 </v>
   <v>       0.44444444       0.38461538       0.18750000 </v>
   <v>       0.00000000       0.46153846       0.18750000 </v>
   <v>       0.11111111       0.46153846       0.18750000 </v>
   <v>       0.22222222       0.46153846       0.18750000 </v>
   <v>       0.33333333       0.46153846       0.18750000 </v>
   <v>       0.44444444       0.46153846       0.18750000 </v>
   <v>       0.00000000       0.00000000       0.31250000 </v>
   <v>       0.11111111       0.00000000       0.31250000 </v>
   <v>       0.22222222       0.00000000       0.31250000 </v>
   <v>       0.33333333       0.00000000       0.31250000 </v>
   <v>       0.44444444       0.00000000       0.31250000 </v>
   <v>       0.00000000       0.07692308       0.31250000 </v>
   <v>       0.11111111       0.07692308       0.31250000 </v>
   <v>       0.22222222       0.07692308       0.31250000 </v>
   <v>       0.33333333       0.07692308       0.31250000 </v>
   <v>       0.44444444       0.07692308       0.31250000 </v>
   <v>       0.00000000       0.15384615       0.31250000 </v>
   <v>       0.11111111       0.15384615       0.31250000 </v>
   <v>       0.22222222       0.15384615       0.31250000 </v>
   <v>       0.33333333       0.15384615       0.31250000 </v>
   <v>       0.44444444       0.15384615       0.31250000 </v>
   <v>       0.00000000       0.23076923       0.31250000 </v>
   <v>       0.11111111       0.23076923       0.31250000 </v>
   <v>       0.22222222       0.23076923       0.31250000 </v>
   <v>       0.33333333       0.23076923       0.31250000 </v>
   <v>       0.44444444       0.23076923       0.31250000 </v>
   <v>       0.00000000       0.30769231       0.31250000 </v>
   <v>       0.11111111       0.30769231       0.31250000 </v>
   <v>       0.22222222       0.30769231       0.31250000 </v>
   <v>       0.33333333       0.30769231       0.31250000 </v>
   <v>       0.44444444       0.30769231       0.31250000 </v>
   <v>       0.00000000       0.38461538       0.31250000 </v>
   <v>       0.11111111       0.38461538       0.31250000 </v>
   <v>       0.22222222       0.38461538       0.31250000 </v>
   <v>       0.33333333       0.38461538       0.31250000 </v>
   <v>       0.44444444       0.38461538       0.31250000 </v>
   <v>       0.00000000       0.46153846       0.31250000 </v>
   <v>       0.11111111       0.46153846       0.31250000 </v>
   <v>       0.22222222       0.46153846       0.31250000 </v>
   <v>       0.33333333       0.46153846       0.31250000 </v>
   <v>       0.44444444       0.46153846       0.31250000 </v>
   <v>       0.00000000       0.00000000       0.43750000 </v>
   <v>       0.11111111       0.00000000       0.43750000 </v>
   <v>       0.22222222       0.00000000       0.43750000 </v>
   <v>       0.33333333       0.00000000       0.43750000 </v>
   <v>       0.44444444       0.00000000       0.43750000 </v>
   <v>       0.00000000       0.07692308       0.43750000 </v>
   <v>       0.11111111       0.07692308       0.43750000 </v>
   <v>       0.22222222       0.07692308       0.43750000 </v>
   <v>       0.33333333       0.07692308       0.43750000 </v>
   <v>       0.44444444       0.07692308       0.43750000 </v>
   <v>       0.00000000       0.15384615       0.43750000 </v>
   <v>       0.11111111       0.15384615       0.43750000 </v>
   <v>       0.22222222       0.15384615       0.43750000 </v>
   <v>       0.33333333       0.15384615       0.43750000 </v>
   <v>       0.44444444       0.15384615       0.43750000 </v>
   <v>       0.00000000       0.23076923       0.43750000 </v>
   <v>       0.11111111       0.23076923       0.43750000 </v>
   <v>       0.22222222       0.23076923       0.43750000 </v>
   <v>       0.33333333       0.23076923       0.43750000 </v>
   <v>       0.44444444       0.23076923       0.43750000 </v>
   <v>       0.00000000       0.30769231       0.43750000 </v>
   <v>       0.11111111       0.30769231       0.43750000 </v>
   <v>       0.22222222       0.30769231       0.43750000 </v>
   <v>       0.33333333       0.30769231       0.43750000 </v>
   <v>       0.44444444       0.30769231       0.43750000 </v>
   <v>       0.00000000       0.38461538       0.43750000 </v>
   <v>       0.11111111       0.38461538       0.43750000 </v>
   <v>       0.22222222       0.38461538       0.43750000 </v>
   <v>       0.33333333       0.38461538       0.43750000 </v>
   <v>       0.44444444       0.38461538       0.43750000 </v>
   <v>       0.00000000       0.46153846       0.43750000 </v>
   <v>       0.11111111       0.46153846       0.43750000 </v>
   <v>       0.22222222       0.46153846       0.43750000 </v>
   <v>       0.33333333       0.46153846       0.43750000 </v>
   <v>       0.44444444       0.46153846       0.43750000 </v>
  </varray>
  <varray name="weights" >
   <v>       0.00213675 </v>
   <v>       0.00427350 </v>
   <v>       0.00427350 </v>
   <v>       0.00427350 </v>
   <v>       0.00427350 </v>
   <v>       0.00427350 </v>
   <v>       0.00854701 </v>
   <v>       0.00854701 </v>
   <v>       0.00854701 </v>
   <v>       0.00854701 </v>
   <v>       0.00427350 </v>
   <v>       0.00854701 </v>
   <v>       0.00854701 </v>
   <v>       0.00854701 </v>
   <v>       0.00854701 </v>
   <v>       0.00427350 </v>
   <v>       0.00854701 </v>
   <v>       0.00854701 </v>
   <v>       0.00854701 </v>
   <v>       0.00854701 </v>
   <v>       0.00427350 </v>
   <v>       0.00854701 </v>
   <v>       0.00854701 </v>
   <v>       0.00854701 </v>
   <v>       0.00854701 </v>
   <v>       0.00427350 </v>
   <v>       0.00854701 </v>
   <v>       0.00854701 </v>
   <v>       0.00854701 </v>
   <v>       0.00854701 </v>
   <v>       0.00427350 </v>
   <v>       0.00854701 </v>
   <v>       0.00854701 </v>
   <v>       0.00854701 </v>
   <v>       0.00854701 </v>
   <v>       0.00213675 </v>
   <v>       0.00427350 </v>
   <v>       0.00427350 </v>
   <v>       0.00427350 </v>
   <v>       0.00427350 </v>
   <v>       0.00427350 </v>
   <v>       0.00854701 </v>
   <v>       0.00854701 </v>
   <v>       0.00854701 </v>
   <v>       0.00854701 </v>
   <v>       0.00427350 </v>
   <v>       0.00854701 </v>
   <v>       0.00854701 </v>
   <v>       0.00854701 </v>
   <v>       0.00854701 </v>
   <v>       0.00427350 </v>
   <v>       0.00854701 </v>
   <v>       0.00854701 </v>
   <v>       0.00854701 </v>
   <v>       0.00854701 </v>
   <v>       0.00427350 </v>
   <v>       0.00854701 </v>
   <v>       0.00854701 </v>
   <v>       0.00854701 </v>
   <v>       0.00854701 </v>
   <v>       0.00427350 </v>
   <v>       0.00854701 </v>
   <v>       0.00854701 </v>
   <v>       0.00854701 </v>
   <v>       0.00854701 </v>
   <v>       0.00427350 </v>
   <v>       0.00854701 </v>
   <v>       0.00854701 </v>
   <v>       0.00854701 </v>
   <v>       0.00854701 </v>
   <v>       0.00213675 </v>
   <v>       0.00427350 </v>
   <v>       0.00427350 </v>
   <v>       0.00427350 </v>
   <v>       0.00427350 </v>
   <v>       0.00427350 </v>
   <v>       0.00854701 </v>
   <v>       0.00854701 </v>
   <v>       0.00854701 </v>
   <v>       0.00854701 </v>
   <v>       0.00427350 </v>
   <v>       0.00854701 </v>
   <v>       0.00854701 </v>
   <v>       0.00854701 </v>
   <v>       0.00854701 </v>
   <v>       0.00427350 </v>
   <v>       0.00854701 </v>
   <v>       0.00854701 </v>
   <v>       0.00854701 </v>
   <v>       0.00854701 </v>
   <v>       0.00427350 </v>
   <v>       0.00854701 </v>
   <v>       0.00854701 </v>
   <v>       0.00854701 </v>
   <v>       0.00854701 </v>
   <v>       0.00427350 </v>
   <v>       0.00854701 </v>
   <v>       0.00854701 </v>
   <v>       0.00854701 </v>
   <v>       0.00854701 </v>
   <v>       0.00427350 </v>
   <v>       0.00854701 </v>
   <v>       0.00854701 </v>
   <v>       0.00854701 </v>
   <v>       0.00854701 </v>
   <v>       0.00213675 </v>
   <v>       0.00427350 </v>
   <v>       0.00427350 </v>
   <v>       0.00427350 </v>
   <v>       0.00427350 </v>
   <v>       0.00427350 </v>
   <v>       0.00854701 </v>
   <v>       0.00854701 </v>
   <v>       0.00854701 </v>
   <v>       0.00854701 </v>
   <v>       0.00427350 </v>
   <v>       0.00854701 </v>
   <v>       0.00854701 </v>
   <v>       0.00854701 </v>
   <v>       0.00854701 </v>
   <v>       0.00427350 </v>
   <v>       0.00854701 </v>
   <v>       0.00854701 </v>
   <v>       0.00854701 </v>
   <v>       0.00854701 </v>
   <v>       0.00427350 </v>
   <v>       0.00854701 </v>
   <v>       0.00854701 </v>
   <v>       0.00854701 </v>
   <v>       0.00854701 </v>
   <v>       0.00427350 </v>
   <v>       0.00854701 </v>
   <v>       0.00854701 </v>
   <v>       0.00854701 </v>
   <v>       0.00854701 </v>
   <v>       0.00427350 </v>
   <v>       0.00854701 </v>
   <v>       0.00854701 </v>
   <v>       0.00854701 </v>
   <v>       0.00854701 </v>
  </varray>
 </kpoints>
 <parameters>
  <separator name="general" >
   <i type="string" name="SYSTEM">Kpoints</i>
   <i type="logical" name="LCOMPAT"> F  </i>
  </separator>
  <separator name="electronic" >
   <i type="string" name="PREC">accura</i>
   <i name="ENMAX">    480.00000000</i>
   <i name="ENAUG">    535.51400000</i>
   <i name="EDIFF">      0.00000100</i>
   <i type="int" name="IALGO">    38</i>
   <i type="int" name="IWAVPR">    10</i>
   <i type="int" name="NBANDS">    48</i>
   <i type="int" name="NBANDSLOW">    -1</i>
   <i type="int" name="NBANDSHIGH">    -1</i>
   <i name="NELECT">     42.00000000</i>
   <i type="int" name="TURBO">     0</i>
   <i type="int" name="IRESTART">     0</i>
   <i type="int" name="NREBOOT">     0</i>
   <i type="int" name="NMIN">     0</i>
   <i name="EREF">      0.00000000</i>
   <separator name="electronic smearing" >
    <i type="int" name="ISMEAR">     0</i>
    <i name="SIGMA">      0.05000000</i>
    <i name="KSPACING">      0.50000000</i>
    <i type="logical" name="KGAMMA"> T  </i>
    <i type="logical" name="KBLOWUP"> T  </i>
   </separator>
   <separator name="electronic projectors" >
    <i type="logical" name="LREAL"> F  </i>
    <v name="ROPT">      0.00000000</v>
    <i type="int" name="LMAXPAW">  -100</i>
    <i type="int" name="LMAXMIX">     2</i>
    <i type="logical" name="NLSPLINE"> F  </i>
   </separator>
   <separator name="electronic startup" >
    <i type="int" name="ISTART">     0</i>
    <i type="int" name="ICHARG">     2</i>
    <i type="int" name="INIWAV">     1</i>
   </separator>
   <separator name="electronic spin" >
    <i type="int" name="ISPIN">     1</i>
    <i type="logical" name="LNONCOLLINEAR"> F  </i>
    <v name="MAGMOM">      1.00000000      1.00000000      1.00000000      1.00000000      1.00000000      1.00000000      1.00000000      1.00000000      1.00000000      1.00000000      1.00000000      1.00000000      1.00000000      1.00000000</v>
    <i name="NUPDOWN">     -1.00000000</i>
    <i type="logical" name="LSORBIT"> F  </i>
    <v name="SAXIS">      0.00000000      0.00000000      1.00000000</v>
    <i type="logical" name="LSPIRAL"> F  </i>
    <v name="QSPIRAL">      0.00000000      0.00000000      0.00000000</v>
    <i type="logical" name="LZEROZ"> F  </i>
   </separator>
   <separator name="electronic exchange-correlation" >
    <i type="logical" name="LASPH"> F  </i>
   </separator>
   <separator name="electronic convergence" >
    <i type="int" name="NELM">   100</i>
    <i type="int" name="NELMDL">    -5</i>
    <i type="int" name="NELMIN">     2</i>
    <i name="ENINI">    480.00000000</i>
    <separator name="electronic convergence detail" >
     <i type="logical" name="LDIAG"> T  </i>
     <i type="logical" name="LSUBROT"> F  </i>
     <i name="WEIMIN">      0.00000000</i>
     <i name="EBREAK">      0.00000001</i>
     <i name="DEPER">      0.30000000</i>
     <i type="int" name="NRMM">     4</i>
     <i name="TIME">      0.40000000</i>
    </separator>
   </separator>
   <separator name="electronic mixer" >
    <i name="AMIX">      0.40000000</i>
    <i name="BMIX">      1.00000000</i>
    <i name="AMIN">      0.10000000</i>
    <i name="AMIX_MAG">      1.60000000</i>
    <i name="BMIX_MAG">      1.00000000</i>
    <separator name="electronic mixer details" >
     <i type="int" name="IMIX">     4</i>
     <i type="logical" name="MIXFIRST"> F  </i>
     <i type="int" name="MAXMIX">   -45</i>
     <i name="WC">    100.00000000</i>
     <i type="int" name="INIMIX">     1</i>
     <i type="int" name="MIXPRE">     1</i>
     <i type="int" name="MREMOVE">     5</i>
    </separator>
   </separator>
   <separator name="electronic dipolcorrection" >
    <i type="logical" name="LDIPOL"> F  </i>
    <i type="logical" name="LMONO"> F  </i>
    <i type="int" name="IDIPOL">     0</i>
    <i name="EPSILON">      1.00000000</i>
    <v name="DIPOL">   -100.00000000   -100.00000000   -100.00000000</v>
    <i name="EFIELD">      0.00000000</i>
    <i type="logical" name="LVACPOTAV"> F  </i>
   </separator>
  </separator>
  <separator name="grids" >
   <i type="int" name="NGX">    42</i>
   <i type="int" name="NGY">    30</i>
   <i type="int" name="NGZ">    48</i>
   <i type="int" name="NGXF">    84</i>
   <i type="int" name="NGYF">    60</i>
   <i type="int" name="NGZF">    96</i>
   <i type="logical" name="ADDGRID"> F  </i>
  </separator>
  <separator name="ionic" >
   <i type="int" name="NSW">     0</i>
   <i type="int" name="IBRION">    -1</i>
   <i type="int" name="MDALGO">     0</i>
   <i type="int" name="ISIF">     2</i>
   <i name="PSTRESS">      0.00000000</i>
   <i name="EDIFFG">     -0.00100000</i>
   <i type="int" name="NFREE">     0</i>
   <i name="POTIM">      0.50000000</i>
   <i name="SMASS">     -3.00000000</i>
   <i name="SCALEE">      1.00000000</i>
  </separator>
  <separator name="ionic md" >
   <i name="TEBEG">      0.00010000</i>
   <i name="TEEND">      0.00010000</i>
   <i type="int" name="NBLOCK">     1</i>
   <i type="int" name="KBLOCK">     1</i>
   <i type="int" name="NPACO">   256</i>
   <i name="APACO">     10.00000000</i>
  </separator>
  <separator name="symmetry" >
   <i type="int" name="ISYM">     2</i>
   <i name="SYMPREC">      0.00001000</i>
  </separator>
  <separator name="dos" >
   <i type="int" name="LORBIT">     0</i>
   <v name="RWIGS">     -1.00000000</v>
   <i type="int" name="NEDOS">   301</i>
   <i name="EMIN">     10.00000000</i>
   <i name="EMAX">    -10.00000000</i>
   <i name="EFERMI">      0.00000000</i>
  </separator>
  <separator name="writing" >
   <i type="int" name="NWRITE">     2</i>
   <i type="logical" name="LWAVE"> F  </i>
   <i type="logical" name="LDOWNSAMPLE"> F  </i>
   <i type="logical" name="LCHARG"> F  </i>
   <i type="logical" name="LPARD"> F  </i>
   <i type="logical" name="LVTOT"> F  </i>
   <i type="logical" name="LVHAR"> F  </i>
   <i type="logical" name="LELF"> F  </i>
   <i type="logical" name="LOPTICS"> F  </i>
   <v name="STM">      0.00000000      0.00000000      0.00000000      0.00000000      0.00000000      0.00000000      0.00000000</v>
  </separator>
  <separator name="performance" >
   <i type="int" name="NPAR">    24</i>
   <i type="int" name="NSIM">     4</i>
   <i type="int" name="NBLK">    -1</i>
   <i type="logical" name="LPLANE"> T  </i>
   <i type="logical" name="LSCALAPACK"> T  </i>
   <i type="logical" name="LSCAAWARE"> F  </i>
   <i type="logical" name="LSCALU"> F  </i>
   <i type="logical" name="LASYNC"> F  </i>
   <i type="logical" name="LORBITALREAL"> F  </i>
  </separator>
  <separator name="miscellaneous" >
   <i type="int" name="IDIOT">     3</i>
   <i type="int" name="PHON_NSTRUCT">    -1</i>
   <i type="logical" name="LMUSIC"> F  </i>
   <v name="POMASS">     10.81100000</v>
   <v name="DARWINR">      0.00000000</v>
   <v name="DARWINV">      1.00000000</v>
   <i type="logical" name="LCORR"> T  </i>
  </separator>
  <i type="logical" name="GGA_COMPAT"> T  </i>
  <i type="logical" name="LBERRY"> F  </i>
  <i type="int" name="ICORELEVEL">     0</i>
  <i type="logical" name="LDAU"> F  </i>
  <i type="int" name="I_CONSTRAINED_M">     0</i>
  <separator name="electronic exchange-correlation" >
   <i type="string" name="GGA    ">PE</i>
   <i type="string" name="XC_C">1</i>
   <i type="int" name="VOSKOWN">     0</i>
   <i type="logical" name="LHFCALC"> F  </i>
   <i type="string" name="PRECFOCK"></i>
   <i type="logical" name="LSYMGRAD"> F  </i>
   <i type="logical" name="LHFONE"> F  </i>
   <i type="logical" name="LRHFCALC"> F  </i>
   <i type="logical" name="LTHOMAS"> F  </i>
   <i type="logical" name="LMODELHF"> F  </i>
   <i type="logical" name="LFOCKACE"> F  </i>
   <i name="ENCUT4O">     -1.00000000</i>
   <i type="int" name="EXXOEP">     0</i>
   <i type="int" name="FOURORBIT">     0</i>
   <i name="AEXX">      0.00000000</i>
   <i name="HFALPHA">      0.00000000</i>
   <i name="MCALPHA">      0.00000000</i>
   <i name="ALDAX">      1.00000000</i>
   <i name="AGGAX">      1.00000000</i>
   <i name="AMGGAX">      1.00000000</i>
   <i name="ALDAC">      1.00000000</i>
   <i name="AGGAC">      1.00000000</i>
   <i name="AMGGAC">      1.00000000</i>
   <i type="int" name="NKREDX">     1</i>
   <i type="int" name="NKREDY">     1</i>
   <i type="int" name="NKREDZ">     1</i>
   <i type="logical" name="SHIFTRED"> F  </i>
   <i type="logical" name="ODDONLY"> F  </i>
   <i type="logical" name="EVENONLY"> F  </i>
   <i type="int" name="LMAXFOCK">     0</i>
   <i type="int" name="NMAXFOCKAE">     0</i>
   <i type="logical" name="LFOCKAEDFT"> F  </i>
   <i name="HFSCREEN">      0.00000000</i>
   <i name="HFSCREENC">      0.00000000</i>
   <i type="int" name="NBANDSGWLOW">     0</i>
  </separator>
  <separator name="vdW DFT" >
   <i type="logical" name="LUSE_VDW"> F  </i>
   <i type="int" name="IVDW_NL">    -1</i>
   <i type="logical" name="LSPIN_VDW"> F  </i>
   <i name="ZAB_VDW">     -0.84910000</i>
   <i name="GAMMA_VDW">      1.39626340</i>
   <i name="ALPHA_VDW">      0.00000000</i>
   <i name="PARAM1">      0.12340000</i>
   <i name="PARAM2">      1.00000000</i>
   <i name="BPARAM">      6.30000000</i>
   <i name="CPARAM">      0.00930000</i>
  </separator>
  <separator name="model GW" >
   <i type="int" name="MODEL_GW">     0</i>
   <i name="MODEL_EPS0">      6.13175789</i>
   <i name="MODEL_ALPHA">      1.00000000</i>
  </separator>
  <separator name="linear response parameters" >
   <i type="logical" name="LEPSILON"> F  </i>
   <i type="logical" name="LRPA"> F  </i>
   <i type="logical" name="LNABLA"> F  </i>
   <i type="logical" name="LVEL"> F  </i>
   <i name="CSHIFT">      0.10000000</i>
   <i name="OMEGAMAX">     -1.00000000</i>
   <i name="DEG_THRESHOLD">      0.00200000</i>
   <i name="RTIME">     -0.10000000</i>
   <i name="WPLASMAI">      0.00000000</i>
   <v name="DFIELD">      0.00000000      0.00000000      0.00000000</v>
   <v name="WPLASMA">      0.00000000      0.00000000      0.00000000      0.00000000      0.00000000      0.00000000      0.00000000      0.00000000      0.00000000</v>
  </separator>
  <separator name="orbital magnetization" >
   <i type="logical" name="NUCIND"> F  </i>
   <v name="MAGPOS">      0.00000000      0.00000000      0.00000000</v>
   <i type="logical" name="LNICSALL"> T  </i>
   <i type="logical" name="ORBITALMAG"> F  </i>
   <i type="logical" name="LMAGBLOCH"> F  </i>
   <i type="logical" name="LCHIMAG"> F  </i>
   <i type="logical" name="LGAUGE"> T  </i>
   <i type="int" name="MAGATOM">     0</i>
   <v name="MAGDIPOL">      0.00000000      0.00000000      0.00000000</v>
   <v name="AVECCONST">      0.00000000      0.00000000      0.00000000</v>
  </separator>
  <separator name="response functions" >
   <i type="logical" name="LALL_IN_ONE"> F  </i>
   <i type="int" name="IALL_IN_ONE">    -1</i>
   <i type="int" name="NBANDS_WAVE">    -1</i>
   <i type="logical" name="LFINITE_TEMPERATURE"> F  </i>
   <i type="logical" name="LADDER"> F  </i>
   <i type="logical" name="LRPAFORCE"> F  </i>
   <i type="logical" name="LFXC"> F  </i>
   <i type="logical" name="LHARTREE"> T  </i>
   <i type="int" name="IBSE">     0</i>
   <v type="int" name="KPOINT">    -1     0     0     0</v>
   <i type="logical" name="LTCTC"> F  </i>
   <i type="logical" name="LTCTE"> F  </i>
   <i type="logical" name="LTETE"> F  </i>
   <i type="logical" name="LTRIPLET"> F  </i>
   <i type="logical" name="LFXCEPS"> F  </i>
   <i type="logical" name="LFXHEG"> F  </i>
   <i type="int" name="NATURALO">     2</i>
   <i type="logical" name="LHOLEGF"> F  </i>
   <i type="logical" name="L2ORDER"> F  </i>
   <i type="logical" name="LDMP1"> F  </i>
   <i type="logical" name="LMP2LT"> F  </i>
   <i type="logical" name="LSMP2LT"> F  </i>
   <i type="logical" name="LGWLF"> F  </i>
   <i name="ENCUTGW">     -1.60000002</i>
   <i name="ENCUTGWSOFT">     -1.60000002</i>
   <i name="ENCUTLF">     -1.00000000</i>
   <i type="logical" name="ESF_SPLINES"> F  </i>
   <i name="ESF_CONV">      0.01000000</i>
   <i type="int" name="ESF_NINTER">    15</i>
   <i type="int" name="LMAXMP2">    -1</i>
   <i name="SCISSOR">      0.00000000</i>
   <i type="int" name="NOMEGA">     0</i>
   <i type="int" name="NOMEGAR">     0</i>
   <i type="int" name="NBANDSGW">    -1</i>
   <i type="int" name="NBANDSO">    -1</i>
   <i type="int" name="NBANDSV">    -1</i>
   <i type="int" name="NELMGW">     1</i>
   <i type="int" name="NELMHF">     1</i>
   <i type="int" name="DIM">     3</i>
   <i type="int" name="IESPILON">     4</i>
   <i type="int" name="ANTIRES">     0</i>
   <i name="OMEGAMAX">    -30.00000000</i>
   <i name="OMEGAMIN">    -30.00000000</i>
   <i name="OMEGATL">   -200.00000000</i>
   <i type="int" name="OMEGAGRID">     0</i>
   <i name="CSHIFT">     -0.10000000</i>
   <i type="logical" name="LSELFENERGY"> F  </i>
   <i type="logical" name="LSPECTRAL"> F  </i>
   <i type="logical" name="LSPECTRALGW"> F  </i>
   <i type="logical" name="LSINGLES"> F  </i>
   <i type="logical" name="LFERMIGW"> F  </i>
   <i type="logical" name="ODDONLYGW"> F  </i>
   <i type="logical" name="EVENONLYGW"> F  </i>
   <i type="int" name="NKREDLFX">     1</i>
   <i type="int" name="NKREDLFY">     1</i>
   <i type="int" name="NKREDLFZ">     1</i>
   <i type="int" name="MAXMEM">  2800</i>
   <i type="int" name="TELESCOPE">     0</i>
   <i type="int" name="NTAUPAR">    -1</i>
   <i type="int" name="NOMEGAPAR">    -1</i>
   <i name="DAMP_NEWTON">      0.80000001</i>
   <i name="LAMBDA">      1.00000000</i>
  </separator>
  <separator name="External order field" >
   <i name="OFIELD_KAPPA">      0.00000000</i>
   <v name="OFIELD_K">      0.00000000      0.00000000      0.00000000</v>
   <i name="OFIELD_Q6_NEAR">      0.00000000</i>
   <i name="OFIELD_Q6_FAR">      0.00000000</i>
   <i name="OFIELD_A">      0.00000000</i>
  </separator>
  <separator name="optional k-points parameters" >
   <i type="int" name="KPOINTS_OPT_MODE">     1</i>
   <i type="logical" name="LKPOINTS_OPT"> F  </i>
  </separator>
 </parameters>
 <atominfo>
  <atoms>      14 </atoms>
  <types>       1 </types>
  <array name="atoms" >
   <dimension dim="1">ion</dimension>
   <field type="string">element</field>
   <field type="int">atomtype</field>
   <set>
    <rc><c>B </c><c>   1</c></rc>
    <rc><c>B </c><c>   1</c></rc>
    <rc><c>B </c><c>   1</c></rc>
    <rc><c>B </c><c>   1</c></rc>
    <rc><c>B </c><c>   1</c></rc>
    <rc><c>B </c><c>   1</c></rc>
    <rc><c>B </c><c>   1</c></rc>
    <rc><c>B </c><c>   1</c></rc>
    <rc><c>B </c><c>   1</c></rc>
    <rc><c>B </c><c>   1</c></rc>
    <rc><c>B </c><c>   1</c></rc>
    <rc><c>B </c><c>   1</c></rc>
    <rc><c>B </c><c>   1</c></rc>
    <rc><c>B </c><c>   1</c></rc>
   </set>
  </array>
  <array name="atomtypes" >
   <dimension dim="1">type</dimension>
   <field type="int">atomspertype</field>
   <field type="string">element</field>
   <field>mass</field>
   <field>valence</field>
   <field type="string">pseudopotential</field>
   <set>
    <rc><c>  14</c><c>B </c><c>     10.81100000</c><c>      3.00000000</c><c>  PAW_PBE B 06Sep2000                   </c></rc>
   </set>
  </array>
 </atominfo>
 <structure name="initialpos" >
  <crystal>
   <varray name="basis" >
    <v>       5.69700000       0.00000000       0.00000000 </v>
    <v>       0.00000000       4.04790000       0.00000000 </v>
    <v>       0.00000000       0.00000000       6.20420000 </v>
   </varray>
   <i name="volume">    143.07435078 </i>
   <varray name="rec_basis" >
    <v>       0.17553098       0.00000000       0.00000000 </v>
    <v>       0.00000000       0.24704168       0.00000000 </v>
    <v>       0.00000000       0.00000000       0.16118114 </v>
   </varray>
  </crystal>
  <varray name="positions" >
   <v>       0.52123000       0.50000000       0.63796000 </v>
   <v>       0.47877000       0.50000000       0.36204000 </v>
   <v>       0.97877000       0.50000000       0.63796000 </v>
   <v>       0.02123000       0.50000000       0.36204000 </v>
   <v>       0.60090000       0.50000000       0.89991000 </v>
   <v>       0.39910000       0.50000000       0.10009000 </v>
   <v>       0.89910000       0.50000000       0.89991000 </v>
   <v>       0.10090000       0.50000000       0.10009000 </v>
   <v>       0.75000000       0.79171000       0.72973000 </v>
   <v>       0.25000000       0.20829000       0.27027000 </v>
   <v>       0.75000000       0.20829000       0.72973000 </v>
   <v>       0.25000000       0.79171000       0.27027000 </v>
   <v>       0.25000000       0.50000000       0.52367000 </v>
   <v>       0.75000000       0.50000000       0.47633000 </v>
  </varray>
 </structure>
 <calculation>
  <scstep>
   <time name="dav">    3.80    3.92</time>
   <time name="total">    3.83    3.95</time>
   <energy>
    <i name="alphaZ">     94.24357992 </i>
    <i name="ewald">   -795.76658092 </i>
    <i name="hartreedc">   -271.33601302 </i>
    <i name="XCdc">     97.50108136 </i>
    <i name="pawpsdc">    608.99811708 </i>
    <i name="pawaedc">   -597.02363782 </i>
    <i name="eentropy">     -0.00253207 </i>
    <i name="bandstr">    -79.65921152 </i>
    <i name="atom">    996.36613177 </i>
    <i name="e_fr_energy">     53.32093478 </i>
    <i name="e_wo_entrp">     53.32346685 </i>
    <i name="e_0_energy">     53.32220082 </i>
   </energy>
  </scstep>
  <scstep>
   <time name="dav">    4.91    4.95</time>
   <time name="total">    4.91    4.95</time>
   <energy>
    <i name="e_fr_energy">    -92.92626016 </i>
    <i name="e_wo_entrp">    -92.92212390 </i>
    <i name="e_0_energy">    -92.92419203 </i>
   </energy>
  </scstep>
  <scstep>
   <time name="dav">    5.16    5.19</time>
   <time name="total">    5.16    5.20</time>
   <energy>
    <i name="e_fr_energy">    -97.59047695 </i>
    <i name="e_wo_entrp">    -97.58642374 </i>
    <i name="e_0_energy">    -97.58845034 </i>
   </energy>
  </scstep>
  <scstep>
   <time name="dav">    4.34    4.37</time>
   <time name="total">    4.34    4.37</time>
   <energy>
    <i name="e_fr_energy">    -97.61753860 </i>
    <i name="e_wo_entrp">    -97.61347871 </i>
    <i name="e_0_energy">    -97.61550865 </i>
   </energy>
  </scstep>
  <scstep>
   <time name="dav">    5.14    5.18</time>
   <time name="total">    5.22    5.26</time>
   <energy>
    <i name="e_fr_energy">    -97.61784862 </i>
    <i name="e_wo_entrp">    -97.61378864 </i>
    <i name="e_0_energy">    -97.61581863 </i>
   </energy>
  </scstep>
  <scstep>
   <time name="dav">    5.09    5.12</time>
   <time name="total">    5.17    5.22</time>
   <energy>
    <i name="e_fr_energy">    -92.20756472 </i>
    <i name="e_wo_entrp">    -92.20492361 </i>
    <i name="e_0_energy">    -92.20624416 </i>
   </energy>
  </scstep>
  <scstep>
   <time name="dav">    5.28    5.31</time>
   <time name="total">    5.36    5.39</time>
   <energy>
    <i name="e_fr_energy">    -90.54796462 </i>
    <i name="e_wo_entrp">    -90.54472859 </i>
    <i name="e_0_energy">    -90.54634661 </i>
   </energy>
  </scstep>
  <scstep>
   <time name="dav">    3.97    3.99</time>
   <time name="total">    4.05    4.08</time>
   <energy>
    <i name="e_fr_energy">    -90.56237577 </i>
    <i name="e_wo_entrp">    -90.55832486 </i>
    <i name="e_0_energy">    -90.56035031 </i>
   </energy>
  </scstep>
  <scstep>
   <time name="dav">    4.99    5.02</time>
   <time name="total">    5.07    5.10</time>
   <energy>
    <i name="e_fr_energy">    -90.57538149 </i>
    <i name="e_wo_entrp">    -90.57139633 </i>
    <i name="e_0_energy">    -90.57338891 </i>
   </energy>
  </scstep>
  <scstep>
   <time name="dav">    4.03    4.05</time>
   <time name="total">    4.11    4.14</time>
   <energy>
    <i name="e_fr_energy">    -90.57934729 </i>
    <i name="e_wo_entrp">    -90.57538743 </i>
    <i name="e_0_energy">    -90.57736736 </i>
   </energy>
  </scstep>
  <scstep>
   <time name="dav">    4.72    4.76</time>
   <time name="total">    4.80    4.84</time>
   <energy>
    <i name="e_fr_energy">    -90.58038641 </i>
    <i name="e_wo_entrp">    -90.57644026 </i>
    <i name="e_0_energy">    -90.57841334 </i>
   </energy>
  </scstep>
  <scstep>
   <time name="dav">    4.27    4.29</time>
   <time name="total">    4.35    4.38</time>
   <energy>
    <i name="e_fr_energy">    -90.58055816 </i>
    <i name="e_wo_entrp">    -90.57660357 </i>
    <i name="e_0_energy">    -90.57858086 </i>
   </energy>
  </scstep>
  <scstep>
   <time name="dav">    4.97    5.00</time>
   <time name="total">    5.05    5.08</time>
   <energy>
    <i name="e_fr_energy">    -90.58056400 </i>
    <i name="e_wo_entrp">    -90.57660639 </i>
    <i name="e_0_energy">    -90.57858519 </i>
   </energy>
  </scstep>
  <scstep>
   <time name="dav">    4.30    4.32</time>
   <time name="total">    4.31    4.33</time>
   <energy>
    <i name="alphaZ">     94.24357992 </i>
    <i name="ewald">   -795.76658092 </i>
    <i name="hartreedc">   -349.13936620 </i>
    <i name="XCdc">    101.59238289 </i>
    <i name="pawpsdc">   3723.62760539 </i>
    <i name="pawaedc">  -3712.82001547 </i>
    <i name="eentropy">     -0.00395683 </i>
    <i name="bandstr">   -148.68034526 </i>
    <i name="atom">    996.36613177 </i>
    <i name="e_fr_energy">    -90.58056471 </i>
    <i name="e_wo_entrp">    -90.57660788 </i>
    <i name="e_0_energy">    -90.57858630 </i>
   </energy>
  </scstep>
  <structure>
   <crystal>
    <varray name="basis" >
     <v>       5.69700000       0.00000000       0.00000000 </v>
     <v>       0.00000000       4.04790000       0.00000000 </v>
     <v>       0.00000000       0.00000000       6.20420000 </v>
    </varray>
    <i name="volume">    143.07435078 </i>
    <varray name="rec_basis" >
     <v>       0.17553098       0.00000000       0.00000000 </v>
     <v>       0.00000000       0.24704168       0.00000000 </v>
     <v>       0.00000000       0.00000000       0.16118114 </v>
    </varray>
   </crystal>
   <varray name="positions" >
    <v>       0.52123000       0.50000000       0.63796000 </v>
    <v>       0.47877000       0.50000000       0.36204000 </v>
    <v>       0.97877000       0.50000000       0.63796000 </v>
    <v>       0.02123000       0.50000000       0.36204000 </v>
    <v>       0.60090000       0.50000000       0.89991000 </v>
    <v>       0.39910000       0.50000000       0.10009000 </v>
    <v>       0.89910000       0.50000000       0.89991000 </v>
    <v>       0.10090000       0.50000000       0.10009000 </v>
    <v>       0.75000000       0.79171000       0.72973000 </v>
    <v>       0.25000000       0.20829000       0.27027000 </v>
    <v>       0.75000000       0.20829000       0.72973000 </v>
    <v>       0.25000000       0.79171000       0.27027000 </v>
    <v>       0.25000000       0.50000000       0.52367000 </v>
    <v>       0.75000000       0.50000000       0.47633000 </v>
   </varray>
  </structure>
  <varray name="forces" >
   <v>      -0.05920568      -0.00000000       0.09240640 </v>
   <v>       0.05920568      -0.00000000      -0.09240640 </v>
   <v>       0.05920568      -0.00000000       0.09240640 </v>
   <v>      -0.05920568      -0.00000000      -0.09240640 </v>
   <v>      -0.84496899      -0.00000000       0.30851625 </v>
   <v>       0.84496899      -0.00000000      -0.30851625 </v>
   <v>       0.84496899      -0.00000000       0.30851625 </v>
   <v>      -0.84496899      -0.00000000      -0.30851625 </v>
   <v>       0.00000000       0.02230349      -0.08946898 </v>
   <v>      -0.00000000      -0.02230349       0.08946898 </v>
   <v>      -0.00000000      -0.02230349      -0.08946898 </v>
   <v>       0.00000000       0.02230349       0.08946898 </v>
   <v>       0.00000000      -0.00000000       0.13331106 </v>
   <v>      -0.00000000      -0.00000000      -0.13331106 </v>
  </varray>
  <varray name="stress" >
   <v>      16.10096003       0.00000000       0.00000000 </v>
   <v>       0.00000000      -2.40365837       0.00000000 </v>
   <v>       0.00000000       0.00000000      -2.96701648 </v>
  </varray>
  <energy>
   <i name="e_fr_energy">    -90.58056471 </i>
   <i name="e_wo_entrp">    -90.57660788 </i>
   <i name="e_0_energy">    -90.57858630 </i>
  </energy>
  <time name="totalsc">   68.60   69.17</time>
  <eigenvalues>
   <array>
    <dimension dim="1">band</dimension>
    <dimension dim="2">kpoint</dimension>
    <dimension dim="3">spin</dimension>
    <field>eigene</field>
    <field>occ</field>
    <set>
     <set comment="spin 1">
      <set comment="kpoint 1">
       <r>  -12.7300    1.0000 </r>
       <r>  -11.5859    1.0000 </r>
       <r>   -8.6540    1.0000 </r>
       <r>   -8.4107    1.0000 </r>
       <r>   -6.1122    1.0000 </r>
       <r>   -5.1320    1.0000 </r>
       <r>   -4.5444    1.0000 </r>
       <r>   -4.2915    1.0000 </r>
       <r>   -3.9713    1.0000 </r>
       <r>   -3.5518    1.0000 </r>
       <r>   -2.4401    1.0000 </r>
       <r>   -2.2675    1.0000 </r>
       <r>   -2.2140    1.0000 </r>
       <r>   -1.0546    1.0000 </r>
       <r>   -0.0101    1.0000 </r>
       <r>    0.0026    1.0000 </r>
       <r>    0.0910    1.0000 </r>
       <r>    0.1857    1.0000 </r>
       <r>    0.4917    1.0000 </r>
       <r>    2.0594    0.0000 </r>
       <r>    2.0919    0.0000 </r>
       <r>    2.3337    0.0000 </r>
       <r>    5.4054    0.0000 </r>
       <r>    5.7506    0.0000 </r>
       <r>    5.8731    0.0000 </r>
       <r>    5.9152    0.0000 </r>
       <r>    6.8199    0.0000 </r>
       <r>    7.6233    0.0000 </r>
       <r>    7.7100    0.0000 </r>
       <r>    8.6689    0.0000 </r>
       <r>    8.7348    0.0000 </r>
       <r>    8.9597    0.0000 </r>
       <r>    9.0640    0.0000 </r>
       <r>   10.0586    0.0000 </r>
       <r>   11.1473    0.0000 </r>
       <r>   11.3886    0.0000 </r>
       <r>   11.6218    0.0000 </r>
       <r>   11.8255    0.0000 </r>
       <r>   11.8825    0.0000 </r>
       <r>   12.3712    0.0000 </r>
       <r>   12.8762    0.0000 </r>
       <r>   13.3219    0.0000 </r>
       <r>   13.6959    0.0000 </r>
       <r>   15.4852    0.0000 </r>
       <r>   15.5958    0.0000 </r>
       <r>   15.7736    0.0000 </r>
       <r>   16.3610    0.0000 </r>
       <r>   16.3632    0.0000 </r>
      </set>
      <set comment="kpoint 2">
       <r>  -12.7030    1.0000 </r>
       <r>  -11.6314    1.0000 </r>
       <r>   -8.6485    1.0000 </r>
       <r>   -8.3991    1.0000 </r>
       <r>   -6.0729    1.0000 </r>
       <r>   -5.3226    1.0000 </r>
       <r>   -4.7091    1.0000 </r>
       <r>   -3.9728    1.0000 </r>
       <r>   -3.9334    1.0000 </r>
       <r>   -3.3127    1.0000 </r>
       <r>   -2.4279    1.0000 </r>
       <r>   -2.2957    1.0000 </r>
       <r>   -2.2749    1.0000 </r>
       <r>   -1.2525    1.0000 </r>
       <r>   -0.0530    1.0000 </r>
       <r>    0.0646    1.0000 </r>
       <r>    0.1095    1.0000 </r>
       <r>    0.1622    1.0000 </r>
       <r>    0.4380    1.0000 </r>
       <r>    1.9304    0.0055 </r>
       <r>    2.1254    0.0000 </r>
       <r>    2.2479    0.0000 </r>
       <r>    5.4441    0.0000 </r>
       <r>    5.7535    0.0000 </r>
       <r>    5.8545    0.0000 </r>
       <r>    6.1906    0.0000 </r>
       <r>    6.7574    0.0000 </r>
       <r>    7.2574    0.0000 </r>
       <r>    7.9684    0.0000 </r>
       <r>    8.7588    0.0000 </r>
       <r>    8.8912    0.0000 </r>
       <r>    9.0539    0.0000 </r>
       <r>    9.2058    0.0000 </r>
       <r>   10.1347    0.0000 </r>
       <r>   11.1317    0.0000 </r>
       <r>   11.1862    0.0000 </r>
       <r>   11.2579    0.0000 </r>
       <r>   11.7129    0.0000 </r>
       <r>   12.0134    0.0000 </r>
       <r>   12.4272    0.0000 </r>
       <r>   13.1305    0.0000 </r>
       <r>   13.3928    0.0000 </r>
       <r>   13.7735    0.0000 </r>
       <r>   14.9539    0.0000 </r>
       <r>   15.6956    0.0000 </r>
       <r>   15.9527    0.0000 </r>
       <r>   16.1623    0.0000 </r>
       <r>   16.4497    0.0000 </r>
      </set>
      <set comment="kpoint 3">
       <r>  -12.6234    1.0000 </r>
       <r>  -11.7570    1.0000 </r>
       <r>   -8.6217    1.0000 </r>
       <r>   -8.3789    1.0000 </r>
       <r>   -6.0520    1.0000 </r>
       <r>   -5.6100    1.0000 </r>
       <r>   -4.7788    1.0000 </r>
       <r>   -3.8213    1.0000 </r>
       <r>   -3.4360    1.0000 </r>
       <r>   -2.8286    1.0000 </r>
       <r>   -2.5120    1.0000 </r>
       <r>   -2.3882    1.0000 </r>
       <r>   -2.2963    1.0000 </r>
       <r>   -1.7515    1.0000 </r>
       <r>   -0.1667    1.0000 </r>
       <r>   -0.0223    1.0000 </r>
       <r>    0.1821    1.0000 </r>
       <r>    0.2404    1.0000 </r>
       <r>    0.3378    1.0000 </r>
       <r>    1.7512    0.9943 </r>
       <r>    1.9974    0.0000 </r>
       <r>    2.0567    0.0000 </r>
       <r>    5.5141    0.0000 </r>
       <r>    5.7891    0.0000 </r>
       <r>    6.1122    0.0000 </r>
       <r>    6.6025    0.0000 </r>
       <r>    6.6744    0.0000 </r>
       <r>    6.9046    0.0000 </r>
       <r>    8.1606    0.0000 </r>
       <r>    8.9487    0.0000 </r>
       <r>    8.9764    0.0000 </r>
       <r>    9.3265    0.0000 </r>
       <r>    9.6913    0.0000 </r>
       <r>   10.4196    0.0000 </r>
       <r>   10.4638    0.0000 </r>
       <r>   10.6527    0.0000 </r>
       <r>   11.2904    0.0000 </r>
       <r>   11.7355    0.0000 </r>
       <r>   12.2559    0.0000 </r>
       <r>   12.6617    0.0000 </r>
       <r>   12.8504    0.0000 </r>
       <r>   13.2184    0.0000 </r>
       <r>   14.4893    0.0000 </r>
       <r>   14.6675    0.0000 </r>
       <r>   15.3880    0.0000 </r>
       <r>   15.9235    0.0000 </r>
       <r>   16.1051    0.0000 </r>
       <r>   16.2785    0.0000 </r>
      </set>
      <set comment="kpoint 4">
       <r>  -12.4958    1.0000 </r>
       <r>  -11.9355    1.0000 </r>
       <r>   -8.5642    1.0000 </r>
       <r>   -8.3782    1.0000 </r>
       <r>   -6.1249    1.0000 </r>
       <r>   -5.8629    1.0000 </r>
       <r>   -4.4875    1.0000 </r>
       <r>   -3.6397    1.0000 </r>
       <r>   -2.9547    1.0000 </r>
       <r>   -2.8021    1.0000 </r>
       <r>   -2.4541    1.0000 </r>
       <r>   -2.3885    1.0000 </r>
       <r>   -2.3154    1.0000 </r>
       <r>   -2.1354    1.0000 </r>
       <r>   -0.4957    1.0000 </r>
       <r>   -0.1297    1.0000 </r>
       <r>    0.0743    1.0000 </r>
       <r>    0.3257    1.0000 </r>
       <r>    0.5257    1.0000 </r>
       <r>    1.6181    1.0000 </r>
       <r>    1.6251    1.0000 </r>
       <r>    1.9026    0.0396 </r>
       <r>    5.5851    0.0000 </r>
       <r>    5.8341    0.0000 </r>
       <r>    6.4522    0.0000 </r>
       <r>    6.6403    0.0000 </r>
       <r>    6.6669    0.0000 </r>
       <r>    7.2862    0.0000 </r>
       <r>    8.3137    0.0000 </r>
       <r>    8.8226    0.0000 </r>
       <r>    8.8576    0.0000 </r>
       <r>    9.6286    0.0000 </r>
       <r>    9.7517    0.0000 </r>
       <r>   10.3026    0.0000 </r>
       <r>   10.4017    0.0000 </r>
       <r>   11.0150    0.0000 </r>
       <r>   11.3234    0.0000 </r>
       <r>   12.0513    0.0000 </r>
       <r>   12.1542    0.0000 </r>
       <r>   12.3058    0.0000 </r>
       <r>   12.7477    0.0000 </r>
       <r>   13.1939    0.0000 </r>
       <r>   14.5863    0.0000 </r>
       <r>   15.0992    0.0000 </r>
       <r>   15.2590    0.0000 </r>
       <r>   15.3863    0.0000 </r>
       <r>   15.5707    0.0000 </r>
       <r>   16.1989    0.0000 </r>
      </set>
      <set comment="kpoint 5">
       <r>  -12.3285    1.0000 </r>
       <r>  -12.1351    1.0000 </r>
       <r>   -8.4865    1.0000 </r>
       <r>   -8.4157    1.0000 </r>
       <r>   -6.1524    1.0000 </r>
       <r>   -6.0600    1.0000 </r>
       <r>   -3.9351    1.0000 </r>
       <r>   -3.3976    1.0000 </r>
       <r>   -3.2756    1.0000 </r>
       <r>   -3.1102    1.0000 </r>
       <r>   -2.4946    1.0000 </r>
       <r>   -2.4020    1.0000 </r>
       <r>   -2.0415    1.0000 </r>
       <r>   -1.8885    1.0000 </r>
       <r>   -0.7253    1.0000 </r>
       <r>   -0.5288    1.0000 </r>
       <r>    0.2034    1.0000 </r>
       <r>    0.3095    1.0000 </r>
       <r>    0.8302    1.0000 </r>
       <r>    1.2110    1.0000 </r>
       <r>    1.6097    1.0000 </r>
       <r>    1.7277    0.9993 </r>
       <r>    5.6833    0.0000 </r>
       <r>    5.7913    0.0000 </r>
       <r>    6.4241    0.0000 </r>
       <r>    6.5112    0.0000 </r>
       <r>    7.3589    0.0000 </r>
       <r>    7.9180    0.0000 </r>
       <r>    8.2799    0.0000 </r>
       <r>    8.4540    0.0000 </r>
       <r>    8.6212    0.0000 </r>
       <r>    8.8052    0.0000 </r>
       <r>   10.2246    0.0000 </r>
       <r>   10.5928    0.0000 </r>
       <r>   10.7848    0.0000 </r>
       <r>   11.3442    0.0000 </r>
       <r>   11.4339    0.0000 </r>
       <r>   11.8375    0.0000 </r>
       <r>   11.9037    0.0000 </r>
       <r>   12.4160    0.0000 </r>
       <r>   12.7320    0.0000 </r>
       <r>   13.2495    0.0000 </r>
       <r>   14.4329    0.0000 </r>
       <r>   14.5938    0.0000 </r>
       <r>   15.0147    0.0000 </r>
       <r>   15.0643    0.0000 </r>
       <r>   15.9322    0.0000 </r>
       <r>   16.3076    0.0000 </r>
      </set>
      <set comment="kpoint 6">
       <r>  -12.7157    1.0000 </r>
       <r>  -11.5731    1.0000 </r>
       <r>   -8.6429    1.0000 </r>
       <r>   -8.3971    1.0000 </r>
       <r>   -6.0965    1.0000 </r>
       <r>   -5.1109    1.0000 </r>
       <r>   -4.5304    1.0000 </r>
       <r>   -4.4064    1.0000 </r>
       <r>   -4.1723    1.0000 </r>
       <r>   -3.5368    1.0000 </r>
       <r>   -3.0238    1.0000 </r>
       <r>   -2.0725    1.0000 </r>
       <r>   -1.3962    1.0000 </r>
       <r>   -1.0519    1.0000 </r>
       <r>   -0.1665    1.0000 </r>
       <r>   -0.1633    1.0000 </r>
       <r>    0.0984    1.0000 </r>
       <r>    0.2468    1.0000 </r>
       <r>    0.5534    1.0000 </r>
       <r>    1.8858    0.1002 </r>
       <r>    1.9380    0.0029 </r>
       <r>    2.3762    0.0000 </r>
       <r>    5.5563    0.0000 </r>
       <r>    5.7103    0.0000 </r>
       <r>    5.7812    0.0000 </r>
       <r>    5.9156    0.0000 </r>
       <r>    7.0009    0.0000 </r>
       <r>    7.8330    0.0000 </r>
       <r>    7.8511    0.0000 </r>
       <r>    8.3045    0.0000 </r>
       <r>    8.7713    0.0000 </r>
       <r>    9.0812    0.0000 </r>
       <r>    9.0979    0.0000 </r>
       <r>   10.3850    0.0000 </r>
       <r>   11.2478    0.0000 </r>
       <r>   11.3683    0.0000 </r>
       <r>   11.5758    0.0000 </r>
       <r>   11.8802    0.0000 </r>
       <r>   11.9511    0.0000 </r>
       <r>   12.5394    0.0000 </r>
       <r>   12.8694    0.0000 </r>
       <r>   13.1591    0.0000 </r>
       <r>   13.5124    0.0000 </r>
       <r>   15.4503    0.0000 </r>
       <r>   15.4760    0.0000 </r>
       <r>   15.7847    0.0000 </r>
       <r>   16.1569    0.0000 </r>
       <r>   16.2499    0.0000 </r>
      </set>
      <set comment="kpoint 7">
       <r>  -12.6888    1.0000 </r>
       <r>  -11.6186    1.0000 </r>
       <r>   -8.6372    1.0000 </r>
       <r>   -8.3856    1.0000 </r>
       <r>   -6.0565    1.0000 </r>
       <r>   -5.3039    1.0000 </r>
       <r>   -4.6977    1.0000 </r>
       <r>   -4.3026    1.0000 </r>
       <r>   -3.9175    1.0000 </r>
       <r>   -3.3010    1.0000 </r>
       <r>   -3.0600    1.0000 </r>
       <r>   -2.0592    1.0000 </r>
       <r>   -1.4550    1.0000 </r>
       <r>   -1.2486    1.0000 </r>
       <r>   -0.2122    1.0000 </r>
       <r>   -0.0696    1.0000 </r>
       <r>    0.1162    1.0000 </r>
       <r>    0.2029    1.0000 </r>
       <r>    0.4994    1.0000 </r>
       <r>    1.7690    0.9785 </r>
       <r>    1.9610    0.0003 </r>
       <r>    2.2868    0.0000 </r>
       <r>    5.5883    0.0000 </r>
       <r>    5.7202    0.0000 </r>
       <r>    5.8752    0.0000 </r>
       <r>    6.0783    0.0000 </r>
       <r>    6.9388    0.0000 </r>
       <r>    7.4506    0.0000 </r>
       <r>    8.1234    0.0000 </r>
       <r>    8.4017    0.0000 </r>
       <r>    8.9233    0.0000 </r>
       <r>    9.1822    0.0000 </r>
       <r>    9.2642    0.0000 </r>
       <r>   10.3963    0.0000 </r>
       <r>   11.0669    0.0000 </r>
       <r>   11.2189    0.0000 </r>
       <r>   11.3146    0.0000 </r>
       <r>   11.7905    0.0000 </r>
       <r>   12.0837    0.0000 </r>
       <r>   12.5895    0.0000 </r>
       <r>   13.1329    0.0000 </r>
       <r>   13.2112    0.0000 </r>
       <r>   13.6038    0.0000 </r>
       <r>   15.0156    0.0000 </r>
       <r>   15.5038    0.0000 </r>
       <r>   15.8841    0.0000 </r>
       <r>   16.0259    0.0000 </r>
       <r>   16.3860    0.0000 </r>
      </set>
      <set comment="kpoint 8">
       <r>  -12.6093    1.0000 </r>
       <r>  -11.7440    1.0000 </r>
       <r>   -8.6101    1.0000 </r>
       <r>   -8.3660    1.0000 </r>
       <r>   -6.0340    1.0000 </r>
       <r>   -5.5919    1.0000 </r>
       <r>   -4.7685    1.0000 </r>
       <r>   -4.1878    1.0000 </r>
       <r>   -3.3878    1.0000 </r>
       <r>   -3.1929    1.0000 </r>
       <r>   -2.7972    1.0000 </r>
       <r>   -2.0197    1.0000 </r>
       <r>   -1.7508    1.0000 </r>
       <r>   -1.5889    1.0000 </r>
       <r>   -0.1975    1.0000 </r>
       <r>   -0.1559    1.0000 </r>
       <r>    0.1439    1.0000 </r>
       <r>    0.2362    1.0000 </r>
       <r>    0.3730    1.0000 </r>
       <r>    1.5942    1.0000 </r>
       <r>    1.8897    0.0822 </r>
       <r>    2.0306    0.0000 </r>
       <r>    5.6497    0.0000 </r>
       <r>    5.9037    0.0000 </r>
       <r>    6.0157    0.0000 </r>
       <r>    6.5215    0.0000 </r>
       <r>    6.7901    0.0000 </r>
       <r>    7.1344    0.0000 </r>
       <r>    8.3068    0.0000 </r>
       <r>    8.6143    0.0000 </r>
       <r>    9.0383    0.0000 </r>
       <r>    9.4674    0.0000 </r>
       <r>    9.7682    0.0000 </r>
       <r>   10.3378    0.0000 </r>
       <r>   10.4508    0.0000 </r>
       <r>   10.7415    0.0000 </r>
       <r>   11.3868    0.0000 </r>
       <r>   11.8755    0.0000 </r>
       <r>   12.3422    0.0000 </r>
       <r>   12.6638    0.0000 </r>
       <r>   12.8245    0.0000 </r>
       <r>   13.2414    0.0000 </r>
       <r>   14.2070    0.0000 </r>
       <r>   14.8639    0.0000 </r>
       <r>   15.3543    0.0000 </r>
       <r>   15.6830    0.0000 </r>
       <r>   16.0099    0.0000 </r>
       <r>   16.3761    0.0000 </r>
      </set>
      <set comment="kpoint 9">
       <r>  -12.4819    1.0000 </r>
       <r>  -11.9223    1.0000 </r>
       <r>   -8.5524    1.0000 </r>
       <r>   -8.3658    1.0000 </r>
       <r>   -6.1059    1.0000 </r>
       <r>   -5.8443    1.0000 </r>
       <r>   -4.4787    1.0000 </r>
       <r>   -4.0273    1.0000 </r>
       <r>   -3.3742    1.0000 </r>
       <r>   -2.8925    1.0000 </r>
       <r>   -2.4106    1.0000 </r>
       <r>   -2.2068    1.0000 </r>
       <r>   -1.9336    1.0000 </r>
       <r>   -1.7511    1.0000 </r>
       <r>   -0.4786    1.0000 </r>
       <r>   -0.2046    1.0000 </r>
       <r>    0.0525    1.0000 </r>
       <r>    0.2374    1.0000 </r>
       <r>    0.5328    1.0000 </r>
       <r>    1.4611    1.0000 </r>
       <r>    1.6394    1.0000 </r>
       <r>    1.7517    0.9940 </r>
       <r>    5.7170    0.0000 </r>
       <r>    5.9747    0.0000 </r>
       <r>    6.5299    0.0000 </r>
       <r>    6.6345    0.0000 </r>
       <r>    6.8044    0.0000 </r>
       <r>    7.2444    0.0000 </r>
       <r>    8.4508    0.0000 </r>
       <r>    8.6473    0.0000 </r>
       <r>    8.9106    0.0000 </r>
       <r>    9.5256    0.0000 </r>
       <r>    9.8207    0.0000 </r>
       <r>   10.2287    0.0000 </r>
       <r>   10.4378    0.0000 </r>
       <r>   11.0829    0.0000 </r>
       <r>   11.3653    0.0000 </r>
       <r>   11.9711    0.0000 </r>
       <r>   12.2475    0.0000 </r>
       <r>   12.4294    0.0000 </r>
       <r>   12.8235    0.0000 </r>
       <r>   13.3069    0.0000 </r>
       <r>   14.5771    0.0000 </r>
       <r>   15.0073    0.0000 </r>
       <r>   15.2171    0.0000 </r>
       <r>   15.3512    0.0000 </r>
       <r>   15.6114    0.0000 </r>
       <r>   16.2522    0.0000 </r>
      </set>
      <set comment="kpoint 10">
       <r>  -12.3148    1.0000 </r>
       <r>  -12.1216    1.0000 </r>
       <r>   -8.4746    1.0000 </r>
       <r>   -8.4036    1.0000 </r>
       <r>   -6.1333    1.0000 </r>
       <r>   -6.0411    1.0000 </r>
       <r>   -3.9279    1.0000 </r>
       <r>   -3.8237    1.0000 </r>
       <r>   -3.5957    1.0000 </r>
       <r>   -3.2649    1.0000 </r>
       <r>   -2.2115    1.0000 </r>
       <r>   -1.9578    1.0000 </r>
       <r>   -1.8655    1.0000 </r>
       <r>   -1.8043    1.0000 </r>
       <r>   -0.7068    1.0000 </r>
       <r>   -0.5285    1.0000 </r>
       <r>    0.1165    1.0000 </r>
       <r>    0.2167    1.0000 </r>
       <r>    0.8359    1.0000 </r>
       <r>    1.2164    1.0000 </r>
       <r>    1.4613    1.0000 </r>
       <r>    1.5762    1.0000 </r>
       <r>    5.8183    0.0000 </r>
       <r>    5.9313    0.0000 </r>
       <r>    6.6138    0.0000 </r>
       <r>    6.6936    0.0000 </r>
       <r>    7.2467    0.0000 </r>
       <r>    7.8202    0.0000 </r>
       <r>    8.1680    0.0000 </r>
       <r>    8.5741    0.0000 </r>
       <r>    8.6876    0.0000 </r>
       <r>    8.7394    0.0000 </r>
       <r>   10.2426    0.0000 </r>
       <r>   10.5477    0.0000 </r>
       <r>   10.7315    0.0000 </r>
       <r>   11.1786    0.0000 </r>
       <r>   11.4733    0.0000 </r>
       <r>   11.9108    0.0000 </r>
       <r>   11.9668    0.0000 </r>
       <r>   12.5510    0.0000 </r>
       <r>   12.8971    0.0000 </r>
       <r>   13.3948    0.0000 </r>
       <r>   14.4564    0.0000 </r>
       <r>   14.5839    0.0000 </r>
       <r>   14.9828    0.0000 </r>
       <r>   15.1083    0.0000 </r>
       <r>   15.9543    0.0000 </r>
       <r>   16.2912    0.0000 </r>
      </set>
      <set comment="kpoint 11">
       <r>  -12.6756    1.0000 </r>
       <r>  -11.5370    1.0000 </r>
       <r>   -8.6117    1.0000 </r>
       <r>   -8.3584    1.0000 </r>
       <r>   -6.0522    1.0000 </r>
       <r>   -5.0506    1.0000 </r>
       <r>   -4.9380    1.0000 </r>
       <r>   -4.4898    1.0000 </r>
       <r>   -4.1985    1.0000 </r>
       <r>   -3.7281    1.0000 </r>
       <r>   -3.4883    1.0000 </r>
       <r>   -1.4008    1.0000 </r>
       <r>   -1.0446    1.0000 </r>
       <r>   -0.5968    1.0000 </r>
       <r>   -0.4977    1.0000 </r>
       <r>   -0.3828    1.0000 </r>
       <r>    0.1172    1.0000 </r>
       <r>    0.3109    1.0000 </r>
       <r>    0.6438    1.0000 </r>
       <r>    1.5064    1.0000 </r>
       <r>    1.5549    1.0000 </r>
       <r>    2.4270    0.0000 </r>
       <r>    5.4531    0.0000 </r>
       <r>    5.5002    0.0000 </r>
       <r>    5.9489    0.0000 </r>
       <r>    6.0970    0.0000 </r>
       <r>    7.4441    0.0000 </r>
       <r>    7.7808    0.0000 </r>
       <r>    8.2186    0.0000 </r>
       <r>    8.4683    0.0000 </r>
       <r>    8.7836    0.0000 </r>
       <r>    9.2080    0.0000 </r>
       <r>    9.2763    0.0000 </r>
       <r>   10.8831    0.0000 </r>
       <r>   11.3130    0.0000 </r>
       <r>   11.4514    0.0000 </r>
       <r>   11.5829    0.0000 </r>
       <r>   12.0445    0.0000 </r>
       <r>   12.1627    0.0000 </r>
       <r>   12.7029    0.0000 </r>
       <r>   12.9812    0.0000 </r>
       <r>   12.9930    0.0000 </r>
       <r>   13.1413    0.0000 </r>
       <r>   14.9163    0.0000 </r>
       <r>   15.3842    0.0000 </r>
       <r>   15.4786    0.0000 </r>
       <r>   15.5298    0.0000 </r>
       <r>   16.0538    0.0000 </r>
      </set>
      <set comment="kpoint 12">
       <r>  -12.6487    1.0000 </r>
       <r>  -11.5823    1.0000 </r>
       <r>   -8.6055    1.0000 </r>
       <r>   -8.3477    1.0000 </r>
       <r>   -6.0102    1.0000 </r>
       <r>   -5.2549    1.0000 </r>
       <r>   -4.8881    1.0000 </r>
       <r>   -4.6547    1.0000 </r>
       <r>   -3.8847    1.0000 </r>
       <r>   -3.7673    1.0000 </r>
       <r>   -3.2484    1.0000 </r>
       <r>   -1.3882    1.0000 </r>
       <r>   -1.2416    1.0000 </r>
       <r>   -0.7197    1.0000 </r>
       <r>   -0.5096    1.0000 </r>
       <r>   -0.2417    1.0000 </r>
       <r>    0.1366    1.0000 </r>
       <r>    0.2488    1.0000 </r>
       <r>    0.5856    1.0000 </r>
       <r>    1.3939    1.0000 </r>
       <r>    1.5784    1.0000 </r>
       <r>    2.3314    0.0000 </r>
       <r>    5.4418    0.0000 </r>
       <r>    5.7622    0.0000 </r>
       <r>    5.9692    0.0000 </r>
       <r>    6.1336    0.0000 </r>
       <r>    7.3817    0.0000 </r>
       <r>    7.8818    0.0000 </r>
       <r>    7.9456    0.0000 </r>
       <r>    8.5895    0.0000 </r>
       <r>    9.0061    0.0000 </r>
       <r>    9.2864    0.0000 </r>
       <r>    9.4623    0.0000 </r>
       <r>   10.7030    0.0000 </r>
       <r>   10.9335    0.0000 </r>
       <r>   11.2855    0.0000 </r>
       <r>   11.5809    0.0000 </r>
       <r>   12.0242    0.0000 </r>
       <r>   12.2930    0.0000 </r>
       <r>   12.7802    0.0000 </r>
       <r>   13.0502    0.0000 </r>
       <r>   13.1082    0.0000 </r>
       <r>   13.3498    0.0000 </r>
       <r>   14.9042    0.0000 </r>
       <r>   15.0317    0.0000 </r>
       <r>   15.4736    0.0000 </r>
       <r>   15.5612    0.0000 </r>
       <r>   16.0787    0.0000 </r>
      </set>
      <set comment="kpoint 13">
       <r>  -12.5696    1.0000 </r>
       <r>  -11.7074    1.0000 </r>
       <r>   -8.5776    1.0000 </r>
       <r>   -8.3296    1.0000 </r>
       <r>   -5.9827    1.0000 </r>
       <r>   -5.5418    1.0000 </r>
       <r>   -4.7936    1.0000 </r>
       <r>   -4.7330    1.0000 </r>
       <r>   -3.8812    1.0000 </r>
       <r>   -3.3378    1.0000 </r>
       <r>   -2.7580    1.0000 </r>
       <r>   -1.7371    1.0000 </r>
       <r>   -1.3491    1.0000 </r>
       <r>   -0.9267    1.0000 </r>
       <r>   -0.4525    1.0000 </r>
       <r>   -0.1478    1.0000 </r>
       <r>    0.0301    1.0000 </r>
       <r>    0.2803    1.0000 </r>
       <r>    0.4260    1.0000 </r>
       <r>    1.2262    1.0000 </r>
       <r>    1.5147    1.0000 </r>
       <r>    2.0592    0.0000 </r>
       <r>    5.7011    0.0000 </r>
       <r>    5.9662    0.0000 </r>
       <r>    6.2322    0.0000 </r>
       <r>    6.2620    0.0000 </r>
       <r>    7.2370    0.0000 </r>
       <r>    7.6692    0.0000 </r>
       <r>    8.1350    0.0000 </r>
       <r>    8.7237    0.0000 </r>
       <r>    9.1538    0.0000 </r>
       <r>    9.6177    0.0000 </r>
       <r>    9.9405    0.0000 </r>
       <r>   10.1364    0.0000 </r>
       <r>   10.3449    0.0000 </r>
       <r>   11.0102    0.0000 </r>
       <r>   11.5777    0.0000 </r>
       <r>   12.1912    0.0000 </r>
       <r>   12.3526    0.0000 </r>
       <r>   12.6097    0.0000 </r>
       <r>   13.2028    0.0000 </r>
       <r>   13.3203    0.0000 </r>
       <r>   13.8491    0.0000 </r>
       <r>   14.7971    0.0000 </r>
       <r>   14.9224    0.0000 </r>
       <r>   15.3926    0.0000 </r>
       <r>   15.6388    0.0000 </r>
       <r>   16.2768    0.0000 </r>
      </set>
      <set comment="kpoint 14">
       <r>  -12.4426    1.0000 </r>
       <r>  -11.8850    1.0000 </r>
       <r>   -8.5192    1.0000 </r>
       <r>   -8.3308    1.0000 </r>
       <r>   -6.0520    1.0000 </r>
       <r>   -5.7919    1.0000 </r>
       <r>   -4.6451    1.0000 </r>
       <r>   -4.4529    1.0000 </r>
       <r>   -4.0523    1.0000 </r>
       <r>   -2.8419    1.0000 </r>
       <r>   -2.3778    1.0000 </r>
       <r>   -2.1528    1.0000 </r>
       <r>   -1.2892    1.0000 </r>
       <r>   -1.1173    1.0000 </r>
       <r>   -0.4531    1.0000 </r>
       <r>   -0.3463    1.0000 </r>
       <r>    0.0144    1.0000 </r>
       <r>    0.1229    1.0000 </r>
       <r>    0.5491    1.0000 </r>
       <r>    1.1012    1.0000 </r>
       <r>    1.3733    1.0000 </r>
       <r>    1.6667    1.0000 </r>
       <r>    5.9968    0.0000 </r>
       <r>    6.2512    0.0000 </r>
       <r>    6.3335    0.0000 </r>
       <r>    6.7628    0.0000 </r>
       <r>    7.1208    0.0000 </r>
       <r>    7.5487    0.0000 </r>
       <r>    8.2726    0.0000 </r>
       <r>    8.8446    0.0000 </r>
       <r>    9.0837    0.0000 </r>
       <r>    9.2867    0.0000 </r>
       <r>    9.8575    0.0000 </r>
       <r>   10.1232    0.0000 </r>
       <r>   10.6359    0.0000 </r>
       <r>   11.2023    0.0000 </r>
       <r>   11.3089    0.0000 </r>
       <r>   11.7989    0.0000 </r>
       <r>   12.5768    0.0000 </r>
       <r>   12.7545    0.0000 </r>
       <r>   13.0331    0.0000 </r>
       <r>   13.6189    0.0000 </r>
       <r>   14.3335    0.0000 </r>
       <r>   14.6263    0.0000 </r>
       <r>   15.0747    0.0000 </r>
       <r>   15.3238    0.0000 </r>
       <r>   15.5304    0.0000 </r>
       <r>   16.2689    0.0000 </r>
      </set>
      <set comment="kpoint 15">
       <r>  -12.2761    1.0000 </r>
       <r>  -12.0836    1.0000 </r>
       <r>   -8.4411    1.0000 </r>
       <r>   -8.3697    1.0000 </r>
       <r>   -6.0791    1.0000 </r>
       <r>   -5.9874    1.0000 </r>
       <r>   -4.4611    1.0000 </r>
       <r>   -4.2556    1.0000 </r>
       <r>   -3.9032    1.0000 </r>
       <r>   -3.2439    1.0000 </r>
       <r>   -2.1058    1.0000 </r>
       <r>   -1.8739    1.0000 </r>
       <r>   -1.2526    1.0000 </r>
       <r>   -1.2154    1.0000 </r>
       <r>   -0.6562    1.0000 </r>
       <r>   -0.5383    1.0000 </r>
       <r>   -0.0313    1.0000 </r>
       <r>    0.0477    1.0000 </r>
       <r>    0.8503    1.0000 </r>
       <r>    1.0925    1.0000 </r>
       <r>    1.2119    1.0000 </r>
       <r>    1.2448    1.0000 </r>
       <r>    6.1175    0.0000 </r>
       <r>    6.2598    0.0000 </r>
       <r>    6.9429    0.0000 </r>
       <r>    7.0965    0.0000 </r>
       <r>    7.1091    0.0000 </r>
       <r>    7.6550    0.0000 </r>
       <r>    7.9422    0.0000 </r>
       <r>    8.4873    0.0000 </r>
       <r>    8.9340    0.0000 </r>
       <r>    9.0042    0.0000 </r>
       <r>   10.0907    0.0000 </r>
       <r>   10.5128    0.0000 </r>
       <r>   10.6654    0.0000 </r>
       <r>   10.9590    0.0000 </r>
       <r>   11.6136    0.0000 </r>
       <r>   12.0305    0.0000 </r>
       <r>   12.1132    0.0000 </r>
       <r>   12.8380    0.0000 </r>
       <r>   13.2840    0.0000 </r>
       <r>   13.6980    0.0000 </r>
       <r>   14.2719    0.0000 </r>
       <r>   14.4440    0.0000 </r>
       <r>   14.9819    0.0000 </r>
       <r>   15.1729    0.0000 </r>
       <r>   15.8822    0.0000 </r>
       <r>   16.2761    0.0000 </r>
      </set>
      <set comment="kpoint 16">
       <r>  -12.6168    1.0000 </r>
       <r>  -11.4842    1.0000 </r>
       <r>   -8.5666    1.0000 </r>
       <r>   -8.3020    1.0000 </r>
       <r>   -5.9874    1.0000 </r>
       <r>   -5.4950    1.0000 </r>
       <r>   -4.9608    1.0000 </r>
       <r>   -4.4276    1.0000 </r>
       <r>   -4.3213    1.0000 </r>
       <r>   -4.1663    1.0000 </r>
       <r>   -3.4268    1.0000 </r>
       <r>   -1.1561    1.0000 </r>
       <r>   -1.0380    1.0000 </r>
       <r>   -0.8896    1.0000 </r>
       <r>   -0.3640    1.0000 </r>
       <r>    0.1414    1.0000 </r>
       <r>    0.3612    1.0000 </r>
       <r>    0.3857    1.0000 </r>
       <r>    0.7183    1.0000 </r>
       <r>    1.0721    1.0000 </r>
       <r>    1.0857    1.0000 </r>
       <r>    2.4689    0.0000 </r>
       <r>    5.0594    0.0000 </r>
       <r>    5.2172    0.0000 </r>
       <r>    6.2819    0.0000 </r>
       <r>    6.4423    0.0000 </r>
       <r>    7.3607    0.0000 </r>
       <r>    7.9417    0.0000 </r>
       <r>    8.7626    0.0000 </r>
       <r>    8.8548    0.0000 </r>
       <r>    9.2880    0.0000 </r>
       <r>    9.4179    0.0000 </r>
       <r>    9.5596    0.0000 </r>
       <r>   10.8035    0.0000 </r>
       <r>   11.2849    0.0000 </r>
       <r>   11.7295    0.0000 </r>
       <r>   11.8932    0.0000 </r>
       <r>   12.3126    0.0000 </r>
       <r>   12.4026    0.0000 </r>
       <r>   12.5135    0.0000 </r>
       <r>   12.7353    0.0000 </r>
       <r>   12.9527    0.0000 </r>
       <r>   13.6754    0.0000 </r>
       <r>   13.9977    0.0000 </r>
       <r>   14.6510    0.0000 </r>
       <r>   15.1568    0.0000 </r>
       <r>   15.3426    0.0000 </r>
       <r>   15.9764    0.0000 </r>
      </set>
      <set comment="kpoint 17">
       <r>  -12.5901    1.0000 </r>
       <r>  -11.5294    1.0000 </r>
       <r>   -8.5597    1.0000 </r>
       <r>   -8.2923    1.0000 </r>
       <r>   -5.9426    1.0000 </r>
       <r>   -5.4721    1.0000 </r>
       <r>   -5.1491    1.0000 </r>
       <r>   -4.6034    1.0000 </r>
       <r>   -4.3606    1.0000 </r>
       <r>   -3.8344    1.0000 </r>
       <r>   -3.1865    1.0000 </r>
       <r>   -1.2420    1.0000 </r>
       <r>   -1.1279    1.0000 </r>
       <r>   -0.9053    1.0000 </r>
       <r>   -0.3554    1.0000 </r>
       <r>    0.1636    1.0000 </r>
       <r>    0.2885    1.0000 </r>
       <r>    0.3877    1.0000 </r>
       <r>    0.6561    1.0000 </r>
       <r>    0.9621    1.0000 </r>
       <r>    1.1211    1.0000 </r>
       <r>    2.3706    0.0000 </r>
       <r>    5.0890    0.0000 </r>
       <r>    5.4436    0.0000 </r>
       <r>    6.2336    0.0000 </r>
       <r>    6.5580    0.0000 </r>
       <r>    7.4537    0.0000 </r>
       <r>    7.8936    0.0000 </r>
       <r>    8.5635    0.0000 </r>
       <r>    8.9941    0.0000 </r>
       <r>    9.3960    0.0000 </r>
       <r>    9.5016    0.0000 </r>
       <r>    9.7468    0.0000 </r>
       <r>   10.5461    0.0000 </r>
       <r>   10.8239    0.0000 </r>
       <r>   11.7317    0.0000 </r>
       <r>   11.8598    0.0000 </r>
       <r>   12.2255    0.0000 </r>
       <r>   12.4748    0.0000 </r>
       <r>   12.5651    0.0000 </r>
       <r>   12.8534    0.0000 </r>
       <r>   13.3184    0.0000 </r>
       <r>   13.6808    0.0000 </r>
       <r>   14.0274    0.0000 </r>
       <r>   14.5129    0.0000 </r>
       <r>   15.0945    0.0000 </r>
       <r>   15.4081    0.0000 </r>
       <r>   15.7776    0.0000 </r>
      </set>
      <set comment="kpoint 18">
       <r>  -12.5114    1.0000 </r>
       <r>  -11.6538    1.0000 </r>
       <r>   -8.5305    1.0000 </r>
       <r>   -8.2764    1.0000 </r>
       <r>   -5.9077    1.0000 </r>
       <r>   -5.4971    1.0000 </r>
       <r>   -5.3231    1.0000 </r>
       <r>   -4.6933    1.0000 </r>
       <r>   -4.4736    1.0000 </r>
       <r>   -3.2789    1.0000 </r>
       <r>   -2.6969    1.0000 </r>
       <r>   -1.7193    1.0000 </r>
       <r>   -1.1022    1.0000 </r>
       <r>   -0.9328    1.0000 </r>
       <r>   -0.3474    1.0000 </r>
       <r>    0.0082    1.0000 </r>
       <r>    0.3174    1.0000 </r>
       <r>    0.3677    1.0000 </r>
       <r>    0.4804    1.0000 </r>
       <r>    0.8259    1.0000 </r>
       <r>    1.0724    1.0000 </r>
       <r>    2.0923    0.0000 </r>
       <r>    5.3614    0.0000 </r>
       <r>    5.9036    0.0000 </r>
       <r>    6.2009    0.0000 </r>
       <r>    6.7409    0.0000 </r>
       <r>    7.6164    0.0000 </r>
       <r>    7.8711    0.0000 </r>
       <r>    8.3834    0.0000 </r>
       <r>    9.1634    0.0000 </r>
       <r>    9.4081    0.0000 </r>
       <r>    9.7341    0.0000 </r>
       <r>    9.8986    0.0000 </r>
       <r>   10.1737    0.0000 </r>
       <r>   10.3957    0.0000 </r>
       <r>   11.3677    0.0000 </r>
       <r>   11.6179    0.0000 </r>
       <r>   12.0899    0.0000 </r>
       <r>   12.6421    0.0000 </r>
       <r>   12.8583    0.0000 </r>
       <r>   13.3475    0.0000 </r>
       <r>   13.5035    0.0000 </r>
       <r>   13.7665    0.0000 </r>
       <r>   14.0315    0.0000 </r>
       <r>   14.4222    0.0000 </r>
       <r>   15.1237    0.0000 </r>
       <r>   15.4330    0.0000 </r>
       <r>   15.9790    0.0000 </r>
      </set>
      <set comment="kpoint 19">
       <r>  -12.3851    1.0000 </r>
       <r>  -11.8305    1.0000 </r>
       <r>   -8.4713    1.0000 </r>
       <r>   -8.2799    1.0000 </r>
       <r>   -5.9730    1.0000 </r>
       <r>   -5.7169    1.0000 </r>
       <r>   -5.2137    1.0000 </r>
       <r>   -4.6422    1.0000 </r>
       <r>   -4.4157    1.0000 </r>
       <r>   -2.7887    1.0000 </r>
       <r>   -2.3351    1.0000 </r>
       <r>   -2.1030    1.0000 </r>
       <r>   -1.0672    1.0000 </r>
       <r>   -0.9396    1.0000 </r>
       <r>   -0.4596    1.0000 </r>
       <r>   -0.2369    1.0000 </r>
       <r>    0.1569    1.0000 </r>
       <r>    0.3050    1.0000 </r>
       <r>    0.5678    1.0000 </r>
       <r>    0.7496    1.0000 </r>
       <r>    0.9632    1.0000 </r>
       <r>    1.6941    1.0000 </r>
       <r>    5.8961    0.0000 </r>
       <r>    6.2521    0.0000 </r>
       <r>    6.4833    0.0000 </r>
       <r>    6.7702    0.0000 </r>
       <r>    7.5977    0.0000 </r>
       <r>    7.9885    0.0000 </r>
       <r>    8.2933    0.0000 </r>
       <r>    9.0031    0.0000 </r>
       <r>    9.2409    0.0000 </r>
       <r>    9.4320    0.0000 </r>
       <r>    9.7966    0.0000 </r>
       <r>   10.3167    0.0000 </r>
       <r>   10.9286    0.0000 </r>
       <r>   11.0353    0.0000 </r>
       <r>   11.3534    0.0000 </r>
       <r>   11.9062    0.0000 </r>
       <r>   12.7638    0.0000 </r>
       <r>   13.1033    0.0000 </r>
       <r>   13.2583    0.0000 </r>
       <r>   13.8049    0.0000 </r>
       <r>   13.9487    0.0000 </r>
       <r>   14.0675    0.0000 </r>
       <r>   14.7061    0.0000 </r>
       <r>   15.0854    0.0000 </r>
       <r>   15.4236    0.0000 </r>
       <r>   16.2567    0.0000 </r>
      </set>
      <set comment="kpoint 20">
       <r>  -12.2196    1.0000 </r>
       <r>  -12.0281    1.0000 </r>
       <r>   -8.3926    1.0000 </r>
       <r>   -8.3204    1.0000 </r>
       <r>   -5.9991    1.0000 </r>
       <r>   -5.9084    1.0000 </r>
       <r>   -5.0392    1.0000 </r>
       <r>   -4.8401    1.0000 </r>
       <r>   -3.8698    1.0000 </r>
       <r>   -3.2126    1.0000 </r>
       <r>   -2.0455    1.0000 </r>
       <r>   -1.8276    1.0000 </r>
       <r>   -1.0134    1.0000 </r>
       <r>   -0.8890    1.0000 </r>
       <r>   -0.7097    1.0000 </r>
       <r>   -0.5207    1.0000 </r>
       <r>    0.0816    1.0000 </r>
       <r>    0.1786    1.0000 </r>
       <r>    0.7532    1.0000 </r>
       <r>    0.8320    1.0000 </r>
       <r>    0.8936    1.0000 </r>
       <r>    1.2657    1.0000 </r>
       <r>    6.4070    0.0000 </r>
       <r>    6.5944    0.0000 </r>
       <r>    6.6191    0.0000 </r>
       <r>    7.0529    0.0000 </r>
       <r>    7.3855    0.0000 </r>
       <r>    7.6958    0.0000 </r>
       <r>    8.2733    0.0000 </r>
       <r>    8.4325    0.0000 </r>
       <r>    9.3927    0.0000 </r>
       <r>    9.4830    0.0000 </r>
       <r>    9.8309    0.0000 </r>
       <r>   10.3006    0.0000 </r>
       <r>   10.7074    0.0000 </r>
       <r>   11.1228    0.0000 </r>
       <r>   11.7949    0.0000 </r>
       <r>   12.1622    0.0000 </r>
       <r>   12.2750    0.0000 </r>
       <r>   13.1363    0.0000 </r>
       <r>   13.4967    0.0000 </r>
       <r>   13.7380    0.0000 </r>
       <r>   13.8495    0.0000 </r>
       <r>   14.0075    0.0000 </r>
       <r>   14.9744    0.0000 </r>
       <r>   15.1137    0.0000 </r>
       <r>   15.6599    0.0000 </r>
       <r>   16.0852    0.0000 </r>
      </set>
      <set comment="kpoint 21">
       <r>  -12.5514    1.0000 </r>
       <r>  -11.4258    1.0000 </r>
       <r>   -8.5173    1.0000 </r>
       <r>   -8.2392    1.0000 </r>
       <r>   -5.9654    1.0000 </r>
       <r>   -5.9089    1.0000 </r>
       <r>   -4.8582    1.0000 </r>
       <r>   -4.7932    1.0000 </r>
       <r>   -4.3534    1.0000 </r>
       <r>   -4.1244    1.0000 </r>
       <r>   -3.3539    1.0000 </r>
       <r>   -1.4542    1.0000 </r>
       <r>   -1.2786    1.0000 </r>
       <r>   -1.0165    1.0000 </r>
       <r>    0.1554    1.0000 </r>
       <r>    0.2546    1.0000 </r>
       <r>    0.4035    1.0000 </r>
       <r>    0.6323    1.0000 </r>
       <r>    0.6425    1.0000 </r>
       <r>    0.7855    1.0000 </r>
       <r>    1.2568    1.0000 </r>
       <r>    2.5053    0.0000 </r>
       <r>    4.6939    0.0000 </r>
       <r>    4.9433    0.0000 </r>
       <r>    6.4168    0.0000 </r>
       <r>    6.9006    0.0000 </r>
       <r>    7.0912    0.0000 </r>
       <r>    8.3197    0.0000 </r>
       <r>    8.7257    0.0000 </r>
       <r>    9.5869    0.0000 </r>
       <r>    9.7342    0.0000 </r>
       <r>    9.8083    0.0000 </r>
       <r>   10.1578    0.0000 </r>
       <r>   10.6299    0.0000 </r>
       <r>   11.1493    0.0000 </r>
       <r>   11.8562    0.0000 </r>
       <r>   12.1856    0.0000 </r>
       <r>   12.3313    0.0000 </r>
       <r>   12.4377    0.0000 </r>
       <r>   12.5277    0.0000 </r>
       <r>   12.7646    0.0000 </r>
       <r>   13.0046    0.0000 </r>
       <r>   13.1643    0.0000 </r>
       <r>   14.1869    0.0000 </r>
       <r>   14.3996    0.0000 </r>
       <r>   14.9659    0.0000 </r>
       <r>   15.6084    0.0000 </r>
       <r>   15.9071    0.0000 </r>
      </set>
      <set comment="kpoint 22">
       <r>  -12.5248    1.0000 </r>
       <r>  -11.4706    1.0000 </r>
       <r>   -8.5096    1.0000 </r>
       <r>   -8.2307    1.0000 </r>
       <r>   -5.9373    1.0000 </r>
       <r>   -5.8594    1.0000 </r>
       <r>   -5.0637    1.0000 </r>
       <r>   -4.8337    1.0000 </r>
       <r>   -4.5384    1.0000 </r>
       <r>   -3.7751    1.0000 </r>
       <r>   -3.1131    1.0000 </r>
       <r>   -1.4512    1.0000 </r>
       <r>   -1.2765    1.0000 </r>
       <r>   -1.1857    1.0000 </r>
       <r>    0.1390    1.0000 </r>
       <r>    0.2205    1.0000 </r>
       <r>    0.3292    1.0000 </r>
       <r>    0.5696    1.0000 </r>
       <r>    0.6525    1.0000 </r>
       <r>    0.7710    1.0000 </r>
       <r>    1.2455    1.0000 </r>
       <r>    2.4061    0.0000 </r>
       <r>    4.7473    0.0000 </r>
       <r>    5.1469    0.0000 </r>
       <r>    6.3802    0.0000 </r>
       <r>    7.0218    0.0000 </r>
       <r>    7.1800    0.0000 </r>
       <r>    8.2818    0.0000 </r>
       <r>    8.8012    0.0000 </r>
       <r>    9.5663    0.0000 </r>
       <r>    9.6203    0.0000 </r>
       <r>    9.9297    0.0000 </r>
       <r>   10.2646    0.0000 </r>
       <r>   10.3968    0.0000 </r>
       <r>   10.8538    0.0000 </r>
       <r>   12.0289    0.0000 </r>
       <r>   12.1873    0.0000 </r>
       <r>   12.2788    0.0000 </r>
       <r>   12.3886    0.0000 </r>
       <r>   12.4690    0.0000 </r>
       <r>   12.6524    0.0000 </r>
[...]
       <r>   -2.3402    1.0000 </r>
       <r>   -2.1333    1.0000 </r>
       <r>   -1.9482    1.0000 </r>
       <r>   -1.4325    1.0000 </r>
       <r>   -0.7916    1.0000 </r>
       <r>   -0.2458    1.0000 </r>
       <r>    0.0957    1.0000 </r>
       <r>    0.3529    1.0000 </r>
       <r>    0.5176    1.0000 </r>
       <r>    1.5938    1.0000 </r>
       <r>    1.7395    0.9979 </r>
       <r>    1.8768    0.1522 </r>
       <r>    5.4455    0.0000 </r>
       <r>    6.1415    0.0000 </r>
       <r>    6.6934    0.0000 </r>
       <r>    7.1705    0.0000 </r>
       <r>    7.8429    0.0000 </r>
       <r>    8.3389    0.0000 </r>
       <r>    8.9069    0.0000 </r>
       <r>    9.0529    0.0000 </r>
       <r>    9.7162    0.0000 </r>
       <r>    9.9637    0.0000 </r>
       <r>   10.6121    0.0000 </r>
       <r>   11.0237    0.0000 </r>
       <r>   11.2374    0.0000 </r>
       <r>   11.4682    0.0000 </r>
       <r>   11.5670    0.0000 </r>
       <r>   12.0238    0.0000 </r>
       <r>   12.7859    0.0000 </r>
       <r>   13.0455    0.0000 </r>
       <r>   13.4059    0.0000 </r>
       <r>   13.6486    0.0000 </r>
       <r>   13.7845    0.0000 </r>
       <r>   14.1147    0.0000 </r>
       <r>   14.4627    0.0000 </r>
       <r>   15.0084    0.0000 </r>
       <r>   15.0973    0.0000 </r>
       <r>   15.4341    0.0000 </r>
      </set>
      <set comment="kpoint 140">
       <r>  -12.0291    1.0000 </r>
       <r>  -11.8747    1.0000 </r>
       <r>   -8.5424    1.0000 </r>
       <r>   -8.4182    1.0000 </r>
       <r>   -5.9476    1.0000 </r>
       <r>   -5.8293    1.0000 </r>
       <r>   -4.9325    1.0000 </r>
       <r>   -4.5703    1.0000 </r>
       <r>   -4.4045    1.0000 </r>
       <r>   -3.9128    1.0000 </r>
       <r>   -2.2015    1.0000 </r>
       <r>   -2.1310    1.0000 </r>
       <r>   -2.0555    1.0000 </r>
       <r>   -1.7383    1.0000 </r>
       <r>   -0.2241    1.0000 </r>
       <r>   -0.0045    1.0000 </r>
       <r>    0.3577    1.0000 </r>
       <r>    0.4643    1.0000 </r>
       <r>    0.5521    1.0000 </r>
       <r>    0.9244    1.0000 </r>
       <r>    1.6050    1.0000 </r>
       <r>    1.7188    0.9997 </r>
       <r>    5.8477    0.0000 </r>
       <r>    6.0513    0.0000 </r>
       <r>    6.8487    0.0000 </r>
       <r>    7.4028    0.0000 </r>
       <r>    7.5112    0.0000 </r>
       <r>    7.6047    0.0000 </r>
       <r>    9.3628    0.0000 </r>
       <r>    9.5486    0.0000 </r>
       <r>    9.7782    0.0000 </r>
       <r>    9.9664    0.0000 </r>
       <r>   10.4654    0.0000 </r>
       <r>   10.8454    0.0000 </r>
       <r>   11.2284    0.0000 </r>
       <r>   11.5094    0.0000 </r>
       <r>   11.5148    0.0000 </r>
       <r>   11.6371    0.0000 </r>
       <r>   13.0649    0.0000 </r>
       <r>   13.1842    0.0000 </r>
       <r>   13.6773    0.0000 </r>
       <r>   14.0165    0.0000 </r>
       <r>   14.1624    0.0000 </r>
       <r>   14.3061    0.0000 </r>
       <r>   14.5591    0.0000 </r>
       <r>   14.7394    0.0000 </r>
       <r>   14.9028    0.0000 </r>
       <r>   15.0582    0.0000 </r>
      </set>
     </set>
    </set>
   </array>
  </eigenvalues>
  <separator name="orbital magnetization" >
   <v name="MAGDIPOLOUT">      0.00000000      0.00000000      0.00000000</v>
  </separator>
  <dos>
   <i name="efermi">      1.84050987 </i>
   <total>
    <array>
     <dimension dim="1">gridpoints</dimension>
     <dimension dim="2">spin</dimension>
     <field>energy</field>
     <field>total</field>
     <field>integrated</field>
     <set>
      <set comment="spin 1">
       <r>   -14.1915     0.0000     0.0000 </r>
       <r>   -14.0843     0.0000     0.0000 </r>
       <r>   -13.9771     0.0000     0.0000 </r>
       <r>   -13.8699     0.0000     0.0000 </r>
       <r>   -13.7627     0.0000     0.0000 </r>
       <r>   -13.6556     0.0000     0.0000 </r>
       <r>   -13.5484     0.0000     0.0000 </r>
       <r>   -13.4412     0.0000     0.0000 </r>
       <r>   -13.3340     0.0000     0.0000 </r>
       <r>   -13.2269     0.0000     0.0000 </r>
       <r>   -13.1197     0.0000     0.0000 </r>
       <r>   -13.0125     0.0000     0.0000 </r>
       <r>   -12.9053     0.0000     0.0000 </r>
       <r>   -12.7982     0.0026     0.0003 </r>
       <r>   -12.6910     0.4477     0.0483 </r>
       <r>   -12.5838     2.3128     0.2961 </r>
       <r>   -12.4766     3.4933     0.6705 </r>
       <r>   -12.3694     4.3567     1.1375 </r>
       <r>   -12.2623     3.6332     1.5269 </r>
       <r>   -12.1551     2.6965     1.8159 </r>
       <r>   -12.0479     2.9093     2.1277 </r>
       <r>   -11.9407     2.3114     2.3754 </r>
       <r>   -11.8336     2.9713     2.6939 </r>
       <r>   -11.7264     3.2552     3.0428 </r>
       <r>   -11.6192     3.6075     3.4294 </r>
       <r>   -11.5120     3.1604     3.7681 </r>
       <r>   -11.4049     1.6906     3.9493 </r>
       <r>   -11.2977     0.4637     3.9990 </r>
       <r>   -11.1905     0.0094     4.0000 </r>
       <r>   -11.0833     0.0000     4.0000 </r>
       <r>   -10.9762     0.0000     4.0000 </r>
       <r>   -10.8690     0.0000     4.0000 </r>
       <r>   -10.7618     0.0000     4.0000 </r>
       <r>   -10.6546     0.0000     4.0000 </r>
       <r>   -10.5474     0.0000     4.0000 </r>
       <r>   -10.4403     0.0000     4.0000 </r>
       <r>   -10.3331     0.0000     4.0000 </r>
       <r>   -10.2259     0.0000     4.0000 </r>
       <r>   -10.1187     0.0000     4.0000 </r>
       <r>   -10.0116     0.0000     4.0000 </r>
       <r>    -9.9044     0.0000     4.0000 </r>
       <r>    -9.7972     0.0000     4.0000 </r>
       <r>    -9.6900     0.0000     4.0000 </r>
       <r>    -9.5829     0.0000     4.0000 </r>
       <r>    -9.4757     0.0000     4.0000 </r>
       <r>    -9.3685     0.0000     4.0000 </r>
       <r>    -9.2613     0.0000     4.0000 </r>
       <r>    -9.1541     0.0000     4.0000 </r>
       <r>    -9.0470     0.0000     4.0000 </r>
       <r>    -8.9398     0.0002     4.0000 </r>
       <r>    -8.8326     0.1703     4.0183 </r>
       <r>    -8.7254     1.8112     4.2124 </r>
       <r>    -8.6183     4.8618     4.7335 </r>
       <r>    -8.5111     6.9436     5.4777 </r>
       <r>    -8.4039     6.5742     6.1823 </r>
       <r>    -8.2967     5.2969     6.7500 </r>
       <r>    -8.1896     5.0216     7.2882 </r>
       <r>    -8.0824     4.0122     7.7182 </r>
       <r>    -7.9752     1.8750     7.9191 </r>
       <r>    -7.8680     0.6803     7.9920 </r>
       <r>    -7.7608     0.0742     8.0000 </r>
       <r>    -7.6537     0.0001     8.0000 </r>
       <r>    -7.5465     0.0000     8.0000 </r>
       <r>    -7.4393     0.0000     8.0000 </r>
       <r>    -7.3321     0.0000     8.0000 </r>
       <r>    -7.2250     0.0000     8.0000 </r>
       <r>    -7.1178     0.0000     8.0000 </r>
       <r>    -7.0106     0.0007     8.0001 </r>
       <r>    -6.9034     0.0925     8.0100 </r>
       <r>    -6.7963     0.1764     8.0289 </r>
       <r>    -6.6891     0.5006     8.0826 </r>
       <r>    -6.5819     0.7379     8.1616 </r>
       <r>    -6.4747     0.7676     8.2439 </r>
       <r>    -6.3676     1.2285     8.3756 </r>
       <r>    -6.2604     2.4238     8.6354 </r>
       <r>    -6.1532     2.7054     8.9253 </r>
       <r>    -6.0460     3.7899     9.3315 </r>
       <r>    -5.9388     4.1949     9.7811 </r>
       <r>    -5.8317     3.5726    10.1640 </r>
       <r>    -5.7245     4.4656    10.6426 </r>
       <r>    -5.6173     4.3485    11.1087 </r>
       <r>    -5.5101     3.7211    11.5075 </r>
       <r>    -5.4030     4.3202    11.9705 </r>
       <r>    -5.2958     4.9836    12.5046 </r>
       <r>    -5.1886     4.4980    12.9867 </r>
       <r>    -5.0814     3.8643    13.4009 </r>
       <r>    -4.9743     3.3843    13.7636 </r>
       <r>    -4.8671     2.5499    14.0369 </r>
       <r>    -4.7599     2.2278    14.2757 </r>
       <r>    -4.6527     3.1234    14.6104 </r>
       <r>    -4.5455     3.5481    14.9907 </r>
       <r>    -4.4384     3.4919    15.3650 </r>
       <r>    -4.3312     3.1048    15.6977 </r>
       <r>    -4.2240     2.5722    15.9734 </r>
       <r>    -4.1168     2.9228    16.2867 </r>
       <r>    -4.0097     3.1690    16.6263 </r>
       <r>    -3.9025     3.3753    16.9880 </r>
       <r>    -3.7953     3.0721    17.3173 </r>
       <r>    -3.6881     3.0090    17.6398 </r>
       <r>    -3.5810     2.1562    17.8709 </r>
       <r>    -3.4738     2.2170    18.1085 </r>
       <r>    -3.3666     2.9391    18.4235 </r>
       <r>    -3.2594     3.6089    18.8103 </r>
       <r>    -3.1523     3.0918    19.1417 </r>
       <r>    -3.0451     2.6844    19.4294 </r>
       <r>    -2.9379     2.3761    19.6840 </r>
       <r>    -2.8307     2.5438    19.9567 </r>
       <r>    -2.7235     2.7237    20.2486 </r>
       <r>    -2.6164     2.6565    20.5333 </r>
       <r>    -2.5092     3.1714    20.8732 </r>
       <r>    -2.4020     3.5010    21.2484 </r>
       <r>    -2.2948     3.9029    21.6667 </r>
       <r>    -2.1877     2.9758    21.9857 </r>
       <r>    -2.0805     2.9448    22.3013 </r>
       <r>    -1.9733     4.1460    22.7456 </r>
       <r>    -1.8661     4.4346    23.2209 </r>
       <r>    -1.7590     5.9029    23.8536 </r>
       <r>    -1.6518     6.6301    24.5642 </r>
       <r>    -1.5446     5.4247    25.1456 </r>
       <r>    -1.4374     5.2274    25.7058 </r>
       <r>    -1.3302     5.9791    26.3467 </r>
       <r>    -1.2231     6.0125    26.9911 </r>
       <r>    -1.1159     4.8943    27.5156 </r>
       <r>    -1.0087     4.0895    27.9539 </r>
       <r>    -0.9015     3.0067    28.2762 </r>
       <r>    -0.7944     3.3635    28.6367 </r>
       <r>    -0.6872     2.6886    28.9248 </r>
       <r>    -0.5800     3.5328    29.3034 </r>
       <r>    -0.4728     5.5992    29.9036 </r>
       <r>    -0.3657     6.8202    30.6345 </r>
       <r>    -0.2585     7.1675    31.4027 </r>
       <r>    -0.1513     6.6077    32.1109 </r>
       <r>    -0.0441     6.2000    32.7754 </r>
       <r>     0.0631     6.5554    33.4780 </r>
       <r>     0.1702     7.2318    34.2531 </r>
       <r>     0.2774     7.2595    35.0311 </r>
       <r>     0.3846     8.4192    35.9335 </r>
       <r>     0.4918     9.0531    36.9037 </r>
       <r>     0.5989     5.3410    37.4762 </r>
       <r>     0.7061     3.6208    37.8642 </r>
       <r>     0.8133     2.9918    38.1849 </r>
       <r>     0.9205     3.2989    38.5385 </r>
       <r>     1.0276     3.3049    38.8927 </r>
       <r>     1.1348     3.4596    39.2635 </r>
       <r>     1.2420     4.6403    39.7608 </r>
       <r>     1.3492     3.7205    40.1595 </r>
       <r>     1.4563     3.0766    40.4893 </r>
       <r>     1.5635     2.9825    40.8089 </r>
       <r>     1.6707     4.2698    41.2665 </r>
       <r>     1.7779     4.7925    41.7802 </r>
       <r>     1.8851     3.2838    42.1321 </r>
       <r>     1.9922     2.0900    42.3561 </r>
       <r>     2.0994     2.0041    42.5709 </r>
       <r>     2.2066     1.9903    42.7843 </r>
       <r>     2.3138     1.8989    42.9878 </r>
       <r>     2.4209     1.7700    43.1775 </r>
       <r>     2.5281     1.6803    43.3576 </r>
       <r>     2.6353     1.0371    43.4687 </r>
       <r>     2.7425     0.4276    43.5145 </r>
       <r>     2.8496     0.4274    43.5604 </r>
       <r>     2.9568     0.5752    43.6220 </r>
       <r>     3.0640     0.2447    43.6482 </r>
       <r>     3.1712     0.3224    43.6828 </r>
       <r>     3.2784     0.4548    43.7315 </r>
       <r>     3.3855     0.6425    43.8004 </r>
       <r>     3.4927     0.4987    43.8538 </r>
       <r>     3.5999     0.5635    43.9142 </r>
       <r>     3.7071     0.2611    43.9422 </r>
       <r>     3.8142     0.0220    43.9446 </r>
       <r>     3.9214     0.1394    43.9595 </r>
       <r>     4.0286     0.3221    43.9940 </r>
       <r>     4.1358     0.0557    44.0000 </r>
       <r>     4.2429     0.0173    44.0018 </r>
       <r>     4.3501     0.1872    44.0219 </r>
       <r>     4.4573     0.3264    44.0569 </r>
       <r>     4.5645     0.4203    44.1019 </r>
       <r>     4.6716     0.6535    44.1720 </r>
       <r>     4.7788     0.9477    44.2736 </r>
       <r>     4.8860     0.8014    44.3594 </r>
       <r>     4.9932     0.8781    44.4536 </r>
       <r>     5.1004     1.0931    44.5707 </r>
       <r>     5.2075     1.3112    44.7112 </r>
       <r>     5.3147     1.4529    44.8670 </r>
       <r>     5.4219     2.2045    45.1032 </r>
       <r>     5.5291     2.4863    45.3697 </r>
       <r>     5.6362     2.6905    45.6581 </r>
       <r>     5.7434     3.1811    45.9990 </r>
       <r>     5.8506     3.0943    46.3306 </r>
       <r>     5.9578     4.6131    46.8251 </r>
       <r>     6.0649     4.6351    47.3218 </r>
       <r>     6.1721     4.0910    47.7603 </r>
       <r>     6.2793     4.3854    48.2303 </r>
       <r>     6.3865     4.1941    48.6798 </r>
       <r>     6.4937     3.8928    49.0970 </r>
       <r>     6.6008     4.7669    49.6079 </r>
       <r>     6.7080     3.6310    49.9971 </r>
       <r>     6.8152     3.6267    50.3858 </r>
       <r>     6.9224     4.7187    50.8915 </r>
       <r>     7.0295     3.8692    51.3062 </r>
       <r>     7.1367     5.4196    51.8871 </r>
       <r>     7.2439     5.2342    52.4480 </r>
       <r>     7.3511     4.2315    52.9016 </r>
       <r>     7.4582     5.2106    53.4600 </r>
       <r>     7.5654     3.8051    53.8678 </r>
       <r>     7.6726     3.8081    54.2760 </r>
       <r>     7.7798     3.2494    54.6242 </r>
       <r>     7.8870     3.3411    54.9823 </r>
       <r>     7.9941     3.2433    55.3299 </r>
       <r>     8.1013     2.9448    55.6456 </r>
       <r>     8.2085     3.9814    56.0723 </r>
       <r>     8.3157     4.1062    56.5123 </r>
       <r>     8.4228     4.0478    56.9462 </r>
       <r>     8.5300     4.1429    57.3902 </r>
       <r>     8.6372     4.3369    57.8550 </r>
       <r>     8.7444     4.7820    58.3675 </r>
       <r>     8.8515     4.3483    58.8336 </r>
       <r>     8.9587     5.1706    59.3877 </r>
       <r>     9.0659     5.6595    59.9943 </r>
       <r>     9.1731     4.8781    60.5171 </r>
       <r>     9.2802     4.7192    61.0229 </r>
       <r>     9.3874     4.7997    61.5373 </r>
       <r>     9.4946     5.1452    62.0888 </r>
       <r>     9.6018     4.7042    62.5930 </r>
       <r>     9.7090     4.8012    63.1075 </r>
       <r>     9.8161     5.2177    63.6668 </r>
       <r>     9.9233     4.7755    64.1786 </r>
       <r>    10.0305     4.4993    64.6608 </r>
       <r>    10.1377     4.3644    65.1286 </r>
       <r>    10.2448     3.4586    65.4992 </r>
       <r>    10.3520     5.2611    66.0631 </r>
       <r>    10.4592     5.5926    66.6625 </r>
       <r>    10.5664     5.1752    67.2172 </r>
       <r>    10.6735     4.4036    67.6891 </r>
       <r>    10.7807     4.0436    68.1225 </r>
       <r>    10.8879     3.1352    68.4585 </r>
       <r>    10.9951     4.8350    68.9767 </r>
       <r>    11.1023     5.2463    69.5390 </r>
       <r>    11.2094     6.6251    70.2491 </r>
       <r>    11.3166     5.5799    70.8471 </r>
       <r>    11.4238     5.2041    71.4049 </r>
       <r>    11.5310     4.1381    71.8484 </r>
       <r>    11.6381     4.7674    72.3593 </r>
       <r>    11.7453     4.8783    72.8822 </r>
       <r>    11.8525     4.7526    73.3915 </r>
       <r>    11.9597     6.4035    74.0778 </r>
       <r>    12.0668     6.1704    74.7391 </r>
       <r>    12.1740     5.8409    75.3652 </r>
       <r>    12.2812     4.6227    75.8606 </r>
       <r>    12.3884     5.9825    76.5018 </r>
       <r>    12.4955     5.2443    77.0638 </r>
       <r>    12.6027     6.2713    77.7360 </r>
       <r>    12.7099     5.5920    78.3353 </r>
       <r>    12.8171     6.3985    79.0211 </r>
       <r>    12.9243     5.6388    79.6254 </r>
       <r>    13.0314     5.9064    80.2585 </r>
       <r>    13.1386     5.7319    80.8728 </r>
       <r>    13.2458     6.4204    81.5609 </r>
       <r>    13.3530     6.2133    82.2268 </r>
       <r>    13.4601     4.8953    82.7515 </r>
       <r>    13.5673     5.6549    83.3576 </r>
       <r>    13.6745     5.0754    83.9015 </r>
       <r>    13.7817     6.4410    84.5918 </r>
       <r>    13.8888     5.0446    85.1325 </r>
       <r>    13.9960     5.4814    85.7200 </r>
       <r>    14.1032     5.5263    86.3123 </r>
       <r>    14.2104     4.5518    86.8001 </r>
       <r>    14.3176     5.4558    87.3849 </r>
       <r>    14.4247     4.6042    87.8783 </r>
       <r>    14.5319     4.8810    88.4015 </r>
       <r>    14.6391     5.2165    88.9605 </r>
       <r>    14.7463     5.2953    89.5281 </r>
       <r>    14.8534     4.2678    89.9855 </r>
       <r>    14.9606     4.4205    90.4593 </r>
       <r>    15.0678     6.8583    91.1943 </r>
       <r>    15.1750     5.9716    91.8343 </r>
       <r>    15.2821     4.9729    92.3673 </r>
       <r>    15.3893     5.7871    92.9875 </r>
       <r>    15.4965     6.1539    93.6471 </r>
       <r>    15.6037     6.0145    94.2917 </r>
       <r>    15.7109     4.7365    94.7994 </r>
       <r>    15.8180     2.7785    95.0971 </r>
       <r>    15.9252     1.9267    95.3036 </r>
       <r>    16.0324     2.0256    95.5207 </r>
       <r>    16.1396     1.6743    95.7002 </r>
       <r>    16.2467     0.9091    95.7976 </r>
       <r>    16.3539     1.1643    95.9224 </r>
       <r>    16.4611     0.4830    95.9742 </r>
       <r>    16.5683     0.2357    95.9994 </r>
       <r>    16.6754     0.0053    96.0000 </r>
       <r>    16.7826     0.0000    96.0000 </r>
       <r>    16.8898     0.0000    96.0000 </r>
       <r>    16.9970     0.0000    96.0000 </r>
       <r>    17.1041     0.0000    96.0000 </r>
       <r>    17.2113     0.0000    96.0000 </r>
       <r>    17.3185     0.0000    96.0000 </r>
       <r>    17.4257     0.0000    96.0000 </r>
       <r>    17.5329     0.0000    96.0000 </r>
       <r>    17.6400     0.0000    96.0000 </r>
       <r>    17.7472     0.0000    96.0000 </r>
       <r>    17.8544     0.0000    96.0000 </r>
       <r>    17.9616     0.0000    96.0000 </r>
      </set>
     </set>
    </array>
   </total>
  </dos>
 </calculation>
 <structure name="finalpos" >
  <crystal>
   <varray name="basis" >
    <v>       5.69700000       0.00000000       0.00000000 </v>
    <v>       0.00000000       4.04790000       0.00000000 </v>
    <v>       0.00000000       0.00000000       6.20420000 </v>
   </varray>
   <i name="volume">    143.07435078 </i>
   <varray name="rec_basis" >
    <v>       0.17553098       0.00000000       0.00000000 </v>
    <v>       0.00000000       0.24704168       0.00000000 </v>
    <v>       0.00000000       0.00000000       0.16118114 </v>
   </varray>
  </crystal>
  <varray name="positions" >
   <v>       0.52123000       0.50000000       0.63796000 </v>
   <v>       0.47877000       0.50000000       0.36204000 </v>
   <v>       0.97877000       0.50000000       0.63796000 </v>
   <v>       0.02123000       0.50000000       0.36204000 </v>
   <v>       0.60090000       0.50000000       0.89991000 </v>
   <v>       0.39910000       0.50000000       0.10009000 </v>
   <v>       0.89910000       0.50000000       0.89991000 </v>
   <v>       0.10090000       0.50000000       0.10009000 </v>
   <v>       0.75000000       0.79171000       0.72973000 </v>
   <v>       0.25000000       0.20829000       0.27027000 </v>
   <v>       0.75000000       0.20829000       0.72973000 </v>
   <v>       0.25000000       0.79171000       0.27027000 </v>
   <v>       0.25000000       0.50000000       0.52367000 </v>
   <v>       0.75000000       0.50000000       0.47633000 </v>
  </varray>
 </structure>
</modeling>
