   14   14    1    1
  0.1021960E+02  0.5697000E-09  0.4047900E-09  0.6204200E-09  0.5000000E-15
  1.000000000000000E-004
  CAR 
 Kpoints                                 
     42   1760     48
 
  0.2272727E-01  0.0000000E+00  0.2500000E-01  0.2932551E-03
      1        -12.731722   1.000000
      2        -11.578855   1.000000
      3         -8.662378   1.000000
      4         -8.423461   1.000000
      5         -6.083123   1.000000
      6         -5.089748   1.000000
      7         -4.631743   1.000000
      8         -4.324060   1.000000
      9         -3.969134   1.000000
     10         -3.583609   1.000000
     11         -2.414906   1.000000
     12         -2.236683   1.000000
     13         -2.188087   1.000000
     14         -1.066201   1.000000
     15         -0.031215   1.000000
     16          0.002979   1.000000
     17          0.136461   1.000000
     18          0.169862   1.000000
     19          0.547470   1.000000
     20          2.075512   0.000000
     21          2.122955   0.000000
     22          2.227163   0.000000
     23          5.415536   0.000000
     24          5.790696   0.000000
     25          5.817942   0.000000
     26          5.930195   0.000000
     27          6.791779   0.000000
     28          7.605831   0.000000
     29          7.762037   0.000000
     30          8.645382   0.000000
     31          8.753615   0.000000
     32          8.881407   0.000000
     33          9.045452   0.000000
     34         10.039582   0.000000
     35         11.146431   0.000000
     36         11.386883   0.000000
     37         11.724496   0.000000
     38         11.796926   0.000000
     39         11.900300   0.000000
     40         12.362522   0.000000
     41         12.828561   0.000000
     42         13.407076   0.000000
     43         13.590004   0.000000
     44         15.494609   0.000000
     45         15.579284   0.000000
     46         15.951557   0.000000
     47         16.365277   0.000000
     48         16.472320   0.000000
 
  0.6818182E-01  0.0000000E+00  0.2500000E-01  0.2932551E-03
      1        -12.722623   1.000000
      2        -11.594610   1.000000
      3         -8.658576   1.000000
      4         -8.420519   1.000000
      5         -6.065049   1.000000
      6         -5.193774   1.000000
      7         -4.682213   1.000000
      8         -4.191650   1.000000
      9         -3.956388   1.000000
     10         -3.497696   1.000000
     11         -2.410987   1.000000
     12         -2.239229   1.000000
     13         -2.217410   1.000000
     14         -1.134303   1.000000
     15         -0.030113   1.000000
     16          0.025667   1.000000
     17          0.132023   1.000000
     18          0.157188   1.000000
     19          0.526845   1.000000
     20          2.047270   0.000004
     21          2.115628   0.000000
     22          2.201852   0.000000
     23          5.434994   0.000000
     24          5.781000   0.000000
     25          5.801896   0.000000
     26          6.036581   0.000000
     27          6.771878   0.000000
     28          7.438632   0.000000
     29          7.886734   0.000000
     30          8.675562   0.000000
     31          8.827650   0.000000
     32          8.938494   0.000000
     33          9.053894   0.000000
     34         10.066316   0.000000
     35         11.161442   0.000000
     36         11.298767   0.000000
     37         11.578571   0.000000
     38         11.749413   0.000000
     39         11.948475   0.000000
     40         12.380627   0.000000
     41         12.926117   0.000000
     42         13.483856   0.000000
     43         13.581495   0.000000
     44         15.260045   0.000000
     45         15.627489   0.000000
     46         16.106732   0.000000
     47         16.265316   0.000000
     48         16.389293   0.000000
 
  0.1136364E+00  0.0000000E+00  0.2500000E-01  0.2932551E-03
      1        -12.704499   1.000000
      2        -11.625424   1.000000
      3         -8.650718   1.000000
      4         -8.415107   1.000000
      5         -6.034884   1.000000
      6         -5.342305   1.000000
      7         -4.748044   1.000000
      8         -3.994221   1.000000
      9         -3.930977   1.000000
     10         -3.349121   1.000000
     11         -2.403048   1.000000
     12         -2.273872   1.000000
     13         -2.244282   1.000000
     14         -1.264318   1.000000
     15         -0.020183   1.000000
     16          0.061351   1.000000
     17          0.081103   1.000000
     18          0.172699   1.000000
     19          0.486122   1.000000
     20          1.999990   0.000852
     21          2.094134   0.000000
     22          2.151141   0.000000
     23          5.470510   0.000000
     24          5.764058   0.000000
     25          5.827904   0.000000
     26          6.189161   0.000000
     27          6.734359   0.000000
     28          7.269418   0.000000
     29          7.986533   0.000000
     30          8.732470   0.000000
     31          8.952794   0.000000
     32          9.024329   0.000000
     33          9.095413   0.000000
     34         10.121585   0.000000
     35         11.131648   0.000000
     36         11.191865   0.000000
     37         11.342807   0.000000
     38         11.697507   0.000000
     39         12.040245   0.000000
     40         12.416900   0.000000
     41         13.061331   0.000000
     42         13.341281   0.000000
     43         13.818599   0.000000
     44         15.001502   0.000000
     45         15.713278   0.000000
     46         16.009969   0.000000
     47         16.249613   0.000000
     48         16.436317   0.000000
 
  0.1590909E+00  0.0000000E+00  0.2500000E-01  0.2932551E-03
      1        -12.677504   1.000000
      2        -11.669972   1.000000
      3         -8.638409   1.000000
      4         -8.408109   1.000000
      5         -6.004475   1.000000
      6         -5.497949   1.000000
      7         -4.796865   1.000000
      8         -3.893063   1.000000
      9         -3.769370   1.000000
     10         -3.162134   1.000000
     11         -2.390855   1.000000
     12         -2.353641   1.000000
     13         -2.251738   1.000000
     14         -1.445760   1.000000
     15         -0.000036   1.000000
     16          0.000966   1.000000
     17          0.105136   1.000000
     18          0.192445   1.000000
     19          0.432131   1.000000
     20          1.939867   0.075379
     21          2.056972   0.000001
     22          2.075301   0.000000
     23          5.515895   0.000000
     24          5.744556   0.000000
     25          5.903677   0.000000
     26          6.376126   0.000000
     27          6.683419   0.000000
     28          7.110650   0.000000
     29          8.069119   0.000000
     30          8.808071   0.000000
     31          9.022212   0.000000
     32          9.127304   0.000000
     33          9.248880   0.000000
     34         10.210539   0.000000
     35         10.900637   0.000000
     36         11.068903   0.000000
     37         11.237210   0.000000
     38         11.679534   0.000000
     39         12.161281   0.000000
     40         12.477726   0.000000
     41         13.135116   0.000000
     42         13.152785   0.000000
     43         14.115405   0.000000
     44         14.804670   0.000000
     45         15.750681   0.000000
     46         15.823439   0.000000
     47         16.304477   0.000000
     48         16.505578   0.000000
 
  0.2045455E+00  0.0000000E+00  0.2500000E-01  0.2932551E-03
      1        -12.641881   1.000000
      2        -11.726450   1.000000
      3         -8.621374   1.000000
      4         -8.400744   1.000000
      5         -5.989128   1.000000
      6         -5.644813   1.000000
      7         -4.802085   1.000000
      8         -3.842885   1.000000
      9         -3.534184   1.000000
     10         -2.953506   1.000000
     11         -2.452022   1.000000
     12         -2.374063   1.000000
     13         -2.261383   1.000000
     14         -1.665914   1.000000
     15         -0.102157   1.000000
     16          0.029527   1.000000
     17          0.153219   1.000000
     18          0.181101   1.000000
     19          0.396277   1.000000
     20          1.871964   0.685705
     21          1.975503   0.007247
     22          2.005917   0.000475
     23          5.562809   0.000000
     24          5.728998   0.000000
     25          6.029244   0.000000
     26          6.591593   0.000000
     27          6.624525   0.000000
     28          6.968911   0.000000
     29          8.141659   0.000000
     30          8.886906   0.000000
     31          8.999749   0.000000
     32          9.308297   0.000000
     33          9.453261   0.000000
     34         10.342090   0.000000
     35         10.620502   0.000000
     36         10.795773   0.000000
     37         11.293101   0.000000
     38         11.714033   0.000000
     39         12.276868   0.000000
     40         12.586835   0.000000
     41         12.891609   0.000000
     42         13.122371   0.000000
     43         14.434960   0.000000
     44         14.733029   0.000000
     45         15.483098   0.000000
     46         15.947790   0.000000
     47         16.227594   0.000000
     48         16.460579   0.000000
 
  0.2500000E+00  0.0000000E+00  0.2500000E-01  0.2932551E-03
      1        -12.597977   1.000000
      2        -11.792737   1.000000
      3         -8.599662   1.000000
      4         -8.394503   1.000000
      5         -5.999970   1.000000
      6         -5.775343   1.000000
      7         -4.747012   1.000000
      8         -3.780792   1.000000
      9         -3.300866   1.000000
     10         -2.735268   1.000000
     11         -2.564196   1.000000
     12         -2.353058   1.000000
     13         -2.272650   1.000000
     14         -1.909288   1.000000
     15         -0.224186   1.000000
     16          0.067023   1.000000
     17          0.097715   1.000000
     18          0.201725   1.000000
     19          0.420802   1.000000
     20          1.801619   0.993308
     21          1.854320   0.837143
     22          1.944278   0.059188
     23          5.601572   0.000000
     24          5.724913   0.000000
     25          6.201981   0.000000
     26          6.564028   0.000000
     27          6.830963   0.000000
     28          6.846487   0.000000
     29          8.207502   0.000000
     30          8.940097   0.000000
     31          8.949608   0.000000
     32          9.505163   0.000000
     33          9.681597   0.000000
     34         10.303853   0.000000
     35         10.526148   0.000000
     36         10.564236   0.000000
     37         11.348213   0.000000
     38         11.803887   0.000000
     39         12.354720   0.000000
     40         12.623644   0.000000
     41         12.759019   0.000000
     42         12.958535   0.000000
     43         14.762023   0.000000
     44         14.781586   0.000000
     45         15.222390   0.000000
     46         16.030760   0.000000
     47         16.079030   0.000000
     48         16.190997   0.000000
 
  0.2954545E+00  0.0000000E+00  0.2500000E-01  0.2932551E-03
      1        -12.546218   1.000000
      2        -11.866555   1.000000
      3         -8.573771   1.000000
      4         -8.391004   1.000000
      5         -6.035595   1.000000
      6         -5.886181   1.000000
      7         -4.629647   1.000000
      8         -3.707238   1.000000
      9         -3.086053   1.000000
     10         -2.685655   1.000000
     11         -2.520976   1.000000
     12         -2.341724   1.000000
     13         -2.283676   1.000000
     14         -2.139813   1.000000
     15         -0.359710   1.000000
     16         -0.037063   1.000000
     17          0.110498   1.000000
     18          0.246521   1.000000
     19          0.488689   1.000000
     20          1.715779   1.000000
     21          1.734660   0.999994
     22          1.876252   0.641491
     23          5.626393   0.000000
     24          5.735220   0.000000
     25          6.417639   0.000000
     26          6.508796   0.000000
     27          6.742846   0.000000
     28          7.090389   0.000000
     29          8.267848   0.000000
     30          8.879462   0.000000
     31          8.921752   0.000000
     32          9.709534   0.000000
     33          9.920719   0.000000
     34          9.966108   0.000000
     35         10.421407   0.000000
     36         10.769123   0.000000
     37         11.384464   0.000000
     38         11.942612   0.000000
     39         12.340432   0.000000
     40         12.397617   0.000000
     41         12.695055   0.000000
     42         12.994165   0.000000
     43         14.832975   0.000000
     44         15.022997   0.000000
     45         15.087136   0.000000
     46         15.761525   0.000000
     47         15.804635   0.000000
     48         16.209734   0.000000
 
  0.3409091E+00  0.0000000E+00  0.2500000E-01  0.2932551E-03
      1        -12.487129   1.000000
      2        -11.945613   1.000000
      3         -8.544702   1.000000
      4         -8.391825   1.000000
      5         -6.082837   1.000000
      6         -5.977503   1.000000
      7         -4.459222   1.000000
      8         -3.622789   1.000000
      9         -2.932290   1.000000
     10         -2.812412   1.000000
     11         -2.457500   1.000000
     12         -2.358923   1.000000
     13         -2.264003   1.000000
     14         -2.188832   1.000000
     15         -0.500195   1.000000
     16         -0.197644   1.000000
     17          0.157488   1.000000
     18          0.283285   1.000000
     19          0.580157   1.000000
     20          1.565069   1.000000
     21          1.677284   1.000000
     22          1.806576   0.990180
     23          5.643390   0.000000
     24          5.750157   0.000000
     25          6.465681   0.000000
     26          6.656124   0.000000
     27          6.670909   0.000000
     28          7.366561   0.000000
     29          8.323916   0.000000
     30          8.792086   0.000000
     31          8.797996   0.000000
     32          9.620912   0.000000
     33          9.919087   0.000000
     34         10.156748   0.000000
     35         10.405292   0.000000
     36         11.068917   0.000000
     37         11.385363   0.000000
     38         12.049076   0.000000
     39         12.118712   0.000000
     40         12.310901   0.000000
     41         12.539840   0.000000
     42         13.199756   0.000000
     43         14.692323   0.000000
     44         15.021187   0.000000
     45         15.359763   0.000000
     46         15.402890   0.000000
     47         15.510996   0.000000
     48         16.328565   0.000000
 
  0.3863636E+00  0.0000000E+00  0.2500000E-01  0.2932551E-03
      1        -12.421409   1.000000
      2        -12.027736   1.000000
      3         -8.513919   1.000000
      4         -8.398252   1.000000
      5         -6.125774   1.000000
      6         -6.051093   1.000000
      7         -4.248059   1.000000
      8         -3.528165   1.000000
      9         -2.971253   1.000000
     10         -2.941055   1.000000
     11         -2.533889   1.000000
     12         -2.346591   1.000000
     13         -2.158845   1.000000
     14         -2.066596   1.000000
     15         -0.630594   1.000000
     16         -0.369134   1.000000
     17          0.204874   1.000000
     18          0.307781   1.000000
     19          0.688881   1.000000
     20          1.407848   1.000000
     21          1.635494   1.000000
     22          1.740351   0.999987
     23          5.661586   0.000000
     24          5.757103   0.000000
     25          6.440233   0.000000
     26          6.584259   0.000000
     27          6.955722   0.000000
     28          7.656215   0.000000
     29          8.377886   0.000000
     30          8.559496   0.000000
     31          8.713592   0.000000
     32          9.276736   0.000000
     33         10.131102   0.000000
     34         10.374098   0.000000
     35         10.508089   0.000000
     36         11.339224   0.000000
     37         11.422659   0.000000
     38         11.755601   0.000000
     39         12.032848   0.000000
     40         12.325449   0.000000
     41         12.549828   0.000000
     42         13.327728   0.000000
     43         14.552517   0.000000
     44         14.958213   0.000000
     45         15.063611   0.000000
     46         15.236152   0.000000
     47         15.701919   0.000000
     48         16.415818   0.000000
 
  0.4318182E+00  0.0000000E+00  0.2500000E-01  0.2932551E-03
      1        -12.349856   1.000000
      2        -12.110913   1.000000
      3         -8.483247   1.000000
      4         -8.411019   1.000000
      5         -6.153186   1.000000
      6         -6.107178   1.000000
      7         -4.007045   1.000000
      8         -3.424245   1.000000
      9         -3.199860   1.000000
     10         -3.068731   1.000000
     11         -2.486626   1.000000
     12         -2.367136   1.000000
     13         -2.041406   1.000000
     14         -1.939242   1.000000
     15         -0.723943   1.000000
     16         -0.535513   1.000000
     17          0.248818   1.000000
     18          0.316684   1.000000
     19          0.812274   1.000000
     20          1.249623   1.000000
     21          1.614153   1.000000
     22          1.682942   1.000000
     23          5.684028   0.000000
     24          5.750980   0.000000
     25          6.435063   0.000000
     26          6.525804   0.000000
     27          7.265169   0.000000
     28          7.950954   0.000000
     29          8.270374   0.000000
     30          8.432871   0.000000
     31          8.632525   0.000000
     32          8.938036   0.000000
     33         10.336131   0.000000
     34         10.543159   0.000000
     35         10.691627   0.000000
     36         11.304605   0.000000
     37         11.465792   0.000000
     38         11.730160   0.000000
     39         11.798771   0.000000
     40         12.471726   0.000000
     41         12.605343   0.000000
     42         13.287938   0.000000
     43         14.526387   0.000000
     44         14.745845   0.000000
     45         14.981079   0.000000
     46         14.996370   0.000000
     47         15.974755   0.000000
     48         16.440303   0.000000
 
  0.4772727E+00  0.0000000E+00  0.2500000E-01  0.2932551E-03
      1        -12.273444   1.000000
      2        -12.193344   1.000000
      3         -8.454669   1.000000
      4         -8.430099   1.000000
      5         -6.159728   1.000000
      6         -6.144063   1.000000
      7         -3.745295   1.000000
      8         -3.471768   1.000000
      9         -3.312104   1.000000
     10         -3.193064   1.000000
     11         -2.435145   1.000000
     12         -2.396406   1.000000
     13         -1.934760   1.000000
     14         -1.889299   1.000000
     15         -0.743332   1.000000
     16         -0.672148   1.000000
     17          0.284895   1.000000
     18          0.308652   1.000000
     19          0.948446   1.000000
     20          1.095202   1.000000
     21          1.615773   1.000000
     22          1.639794   1.000000
     23          5.709296   0.000000
     24          5.733397   0.000000
     25          6.449379   0.000000
     26          6.480462   0.000000
     27          7.590774   0.000000
     28          7.917648   0.000000
     29          8.290923   0.000000
     30          8.492192   0.000000
     31          8.558386   0.000000
     32          8.607410   0.000000
     33         10.509880   0.000000
     34         10.599105   0.000000
     35         10.923998   0.000000
     36         11.185941   0.000000
     37         11.339975   0.000000
     38         11.501632   0.000000
     39         12.116488   0.000000
     40         12.364641   0.000000
     41         12.832128   0.000000
     42         13.087095   0.000000
     43         14.591596   0.000000
     44         14.665157   0.000000
     45         14.840000   0.000000
     46         14.884636   0.000000
     47         16.206153   0.000000
     48         16.370620   0.000000
 
  0.2272727E-01  0.3225806E-01  0.2500000E-01  0.5865103E-03
      1        -12.729205   1.000000
      2        -11.576596   1.000000
      3         -8.660402   1.000000
      4         -8.421028   1.000000
      5         -6.080338   1.000000
      6         -5.085963   1.000000
      7         -4.629421   1.000000
      8         -4.331294   1.000000
      9         -4.027484   1.000000
     10         -3.580960   1.000000
     11         -2.550972   1.000000
     12         -2.339753   1.000000
     13         -1.862550   1.000000
     14         -1.065719   1.000000
     15         -0.062409   1.000000
     16         -0.034061   1.000000
     17          0.138499   1.000000
     18          0.188040   1.000000
     19          0.560138   1.000000
     20          2.036220   0.000016
     21          2.094229   0.000000
     22          2.242776   0.000000
     23          5.442855   0.000000
     24          5.763768   0.000000
     25          5.842432   0.000000
     26          5.908598   0.000000
     27          6.824374   0.000000
     28          7.639546   0.000000
     29          7.791839   0.000000
     30          8.545562   0.000000
     31          8.760070   0.000000
     32          8.930643   0.000000
     33          9.051757   0.000000
     34         10.104991   0.000000
     35         11.171353   0.000000
     36         11.378401   0.000000
     37         11.716603   0.000000
     38         11.807568   0.000000
     39         11.911224   0.000000
     40         12.392803   0.000000
     41         12.829721   0.000000
     42         13.372358   0.000000
     43         13.554182   0.000000
     44         15.494073   0.000000
     45         15.556774   0.000000
     46         15.956174   0.000000
     47         16.345367   0.000000
     48         16.438187   0.000000
 
  0.6818182E-01  0.3225806E-01  0.2500000E-01  0.5865103E-03
      1        -12.720104   1.000000
      2        -11.592347   1.000000
      3         -8.656595   1.000000
      4         -8.418096   1.000000
      5         -6.062226   1.000000
      6         -5.190295   1.000000
      7         -4.679969   1.000000
      8         -4.204616   1.000000
      9         -4.008838   1.000000
     10         -3.495110   1.000000
     11         -2.565253   1.000000
     12         -2.335679   1.000000
     13         -1.880634   1.000000
     14         -1.133808   1.000000
     15         -0.062113   1.000000
     16         -0.013571   1.000000
     17          0.143603   1.000000
     18          0.169288   1.000000
     19          0.539500   1.000000
     20          2.009942   0.000314
     21          2.085027   0.000000
     22          2.217266   0.000000
     23          5.462535   0.000000
     24          5.754312   0.000000
     25          5.825492   0.000000
     26          6.015372   0.000000
     27          6.804511   0.000000
     28          7.472286   0.000000
     29          7.916544   0.000000
     30          8.577385   0.000000
     31          8.835561   0.000000
     32          8.987035   0.000000
     33          9.060624   0.000000
     34         10.127406   0.000000
     35         11.185635   0.000000
     36         11.290623   0.000000
     37         11.570428   0.000000
     38         11.760382   0.000000
     39         11.959498   0.000000
     40         12.410690   0.000000
     41         12.927552   0.000000
     42         13.448066   0.000000
     43         13.547319   0.000000
     44         15.266969   0.000000
     45         15.603259   0.000000
     46         16.090420   0.000000
     47         16.251844   0.000000
     48         16.378196   0.000000
 
  0.1136364E+00  0.3225806E-01  0.2500000E-01  0.5865103E-03
      1        -12.701982   1.000000
      2        -11.623153   1.000000
      3         -8.648729   1.000000
      4         -8.412707   1.000000
      5         -6.031982   1.000000
      6         -5.339026   1.000000
      7         -4.745868   1.000000
      8         -4.050892   1.000000
      9         -3.939877   1.000000
     10         -3.346700   1.000000
     11         -2.594314   1.000000
     12         -2.327466   1.000000
     13         -1.913890   1.000000
     14         -1.263780   1.000000
     15         -0.053460   1.000000
     16          0.009581   1.000000
     17          0.115684   1.000000
     18          0.176419   1.000000
     19          0.498742   1.000000
     20          1.964249   0.016731
     21          2.061903   0.000001
     22          2.166388   0.000000
     23          5.498396   0.000000
     24          5.760470   0.000000
     25          5.829321   0.000000
     26          6.166436   0.000000
     27          6.767074   0.000000
     28          7.304459   0.000000
     29          8.015363   0.000000
     30          8.636680   0.000000
     31          8.959869   0.000000
     32          9.070612   0.000000
     33          9.108110   0.000000
     34         10.173751   0.000000
     35         11.122316   0.000000
     36         11.216476   0.000000
     37         11.333739   0.000000
     38         11.711255   0.000000
     39         12.051443   0.000000
     40         12.446561   0.000000
     41         13.063437   0.000000
     42         13.306036   0.000000
     43         13.782523   0.000000
     44         15.014324   0.000000
     45         15.684549   0.000000
     46         16.007143   0.000000
     47         16.204326   0.000000
     48         16.443634   0.000000
 
  0.1590909E+00  0.3225806E-01  0.2500000E-01  0.5865103E-03
      1        -12.674997   1.000000
      2        -11.667695   1.000000
      3         -8.636406   1.000000
      4         -8.405733   1.000000
      5         -6.001459   1.000000
      6         -5.494747   1.000000
      7         -4.794817   1.000000
      8         -3.979346   1.000000
      9         -3.749019   1.000000
     10         -3.160255   1.000000
     11         -2.638654   1.000000
     12         -2.314948   1.000000
     13         -1.957410   1.000000
     14         -1.445138   1.000000
     15         -0.040754   1.000000
     16         -0.008222   1.000000
     17          0.104407   1.000000
     18          0.197861   1.000000
     19          0.444120   1.000000
     20          1.905109   0.325001
     21          2.022763   0.000078
     22          2.091259   0.000000
     23          5.544025   0.000000
     24          5.756998   0.000000
     25          5.889952   0.000000
     26          6.351283   0.000000
     27          6.716273   0.000000
     28          7.148296   0.000000
     29          8.096970   0.000000
     30          8.714417   0.000000
     31          9.036903   0.000000
     32          9.161694   0.000000
     33          9.270956   0.000000
     34         10.248741   0.000000
     35         10.891997   0.000000
     36         11.060044   0.000000
     37         11.260049   0.000000
     38         11.697818   0.000000
     39         12.173045   0.000000
     40         12.506417   0.000000
     41         13.100724   0.000000
     42         13.155850   0.000000
     43         14.072044   0.000000
     44         14.826888   0.000000
     45         15.735318   0.000000
     46         15.811296   0.000000
     47         16.235353   0.000000
     48         16.523812   0.000000
 
  0.2045455E+00  0.3225806E-01  0.2500000E-01  0.5865103E-03
      1        -12.639387   1.000000
      2        -11.724160   1.000000
      3         -8.619360   1.000000
      4         -8.398397   1.000000
      5         -5.985970   1.000000
      6         -5.641622   1.000000
      7         -4.800191   1.000000
      8         -3.924727   1.000000
      9         -3.518632   1.000000
     10         -2.954229   1.000000
     11         -2.696837   1.000000
     12         -2.297963   1.000000
     13         -2.005848   1.000000
     14         -1.665140   1.000000
     15         -0.107841   1.000000
     16         -0.005234   1.000000
     17          0.137939   1.000000
     18          0.196301   1.000000
     19          0.404466   1.000000
     20          1.837554   0.927441
     21          1.963834   0.017226
     22          1.998678   0.000967
     23          5.590640   0.000000
     24          5.746963   0.000000
     25          6.011310   0.000000
     26          6.561682   0.000000
     27          6.657855   0.000000
     28          7.012175   0.000000
     29          8.168703   0.000000
     30          8.793642   0.000000
     31          9.029354   0.000000
     32          9.335179   0.000000
     33          9.475945   0.000000
     34         10.357051   0.000000
     35         10.615275   0.000000
     36         10.791226   0.000000
     37         11.313987   0.000000
     38         11.737663   0.000000
     39         12.290928   0.000000
     40         12.612118   0.000000
     41         12.859220   0.000000
     42         13.126141   0.000000
     43         14.370965   0.000000
     44         14.777934   0.000000
     45         15.490909   0.000000
     46         15.905744   0.000000
     47         16.178110   0.000000
     48         16.479443   0.000000
 
  0.2500000E+00  0.3225806E-01  0.2500000E-01  0.5865103E-03
      1        -12.595492   1.000000
      2        -11.790432   1.000000
      3         -8.597636   1.000000
      4         -8.392191   1.000000
      5         -5.996699   1.000000
      6         -5.772132   1.000000
      7         -4.745272   1.000000
      8         -3.862806   1.000000