 running   24 mpi-ranks, with    1 threads/rank, on    1 nodes
 distrk:  each k-point on   24 cores,    1 groups
 distr:  one band on    1 cores,   24 groups
 vasp.6.4.3 19Mar24 (build May 31 2024 16:31:43) complex                        
  
 POSCAR found type information on POSCAR B 
 POSCAR found :  1 types and      14 ions
 Reading from existing POTCAR
 scaLAPACK will be used
 Reading from existing POTCAR
 LDA part: xc-table for (Slater+PW92), standard interpolation
 POSCAR, INCAR and KPOINTS ok, starting setup
 FFT: planning ... GRIDC
 FFT: planning ... GRID_SOFT
 FFT: planning ... GRID
 WAVECAR not read
 entering main loop
       N       E                     dE             d eps       ncg     rms          rms(c)
DAV:   1     0.469182775434E+02    0.46918E+02   -0.17019E+04168960   0.688E+02
DAV:   2    -0.931947382117E+02   -0.14011E+03   -0.13208E+03236760   0.145E+02
DAV:   3    -0.975870611846E+02   -0.43923E+01   -0.43722E+01245064   0.231E+01
DAV:   4    -0.976124752323E+02   -0.25414E-01   -0.25413E-01212088   0.200E+00
DAV:   5    -0.976127687544E+02   -0.29352E-03   -0.29352E-03243576   0.208E-01    0.123E+01
DAV:   6    -0.922003034866E+02    0.54125E+01   -0.39646E+00245352   0.657E+00    0.677E+00
DAV:   7    -0.905508510319E+02    0.16495E+01   -0.31816E+00252528   0.582E+00    0.174E+00
DAV:   8    -0.905597989021E+02   -0.89479E-02   -0.22361E-01187272   0.160E+00    0.798E-01
DAV:   9    -0.905747849998E+02   -0.14986E-01   -0.18695E-02237432   0.476E-01    0.212E-01
DAV:  10    -0.905793361091E+02   -0.45511E-02   -0.29696E-03188808   0.191E-01    0.726E-02
DAV:  11    -0.905806428059E+02   -0.13067E-02   -0.75834E-04219864   0.950E-02    0.339E-02
DAV:  12    -0.905807423522E+02   -0.99546E-04   -0.66862E-05219960   0.312E-02    0.716E-03
DAV:  13    -0.905807546478E+02   -0.12296E-04   -0.10178E-05226416   0.119E-02    0.214E-03
DAV:  14    -0.905807556753E+02   -0.10275E-05   -0.67639E-07222672   0.344E-03    0.779E-04
DAV:  15    -0.905807559124E+02   -0.23702E-06   -0.13906E-07196368   0.155E-03
   1 F= -.90580756E+02 E0= -.90578870E+02  d E =-.377129E-02
