<?xml version="1.0" encoding="ISO-8859-1"?>
<modeling>
 <generator>
  <i name="program" type="string">vasp </i>
  <i name="version" type="string">6.4.3  </i>
  <i name="subversion" type="string">19Mar24 (build May 31 2024 16:31:43) complex                          parallel </i>
  <i name="platform" type="string">LinuxIFC </i>
  <i name="date" type="string">2024 10 29 </i>
  <i name="time" type="string">15:51:20 </i>
 </generator>
 <incar>
  <i type="string" name="SYSTEM">Kpoints</i>
  <i type="int" name="ISTART">     0</i>
  <i type="string" name="PREC">Accurate</i>
  <i type="string" name="ALGO">Normal</i>
  <i type="int" name="ISPIN">     1</i>
  <i type="int" name="ICHARG">     2</i>
  <i type="int" name="NELM">   100</i>
  <i type="int" name="IBRION">    -1</i>
  <i name="EDIFF">      0.00000100</i>
  <i name="EDIFFG">     -0.00100000</i>
  <i type="int" name="NSW">     0</i>
  <i type="int" name="ISIF">     2</i>
  <i name="ENCUT">    450.00000000</i>
  <i name="POTIM">      0.50000000</i>
  <i type="int" name="ISMEAR">     0</i>
  <i name="SIGMA">      0.05000000</i>
  <i type="logical" name="LWAVE"> F  </i>
  <i type="logical" name="LCHARG"> F  </i>
  <i type="string" name="GGA">PE</i>
 </incar>
 <primitive_cell>
  <structure name="primitive_cell" >
   <crystal>
    <varray name="basis" >
     <v>       5.69700000       0.00000000       0.00000000 </v>
     <v>       0.00000000       4.04790000       0.00000000 </v>
     <v>       0.00000000       0.00000000       6.20420000 </v>
    </varray>
    <i name="volume">    143.07435078 </i>
    <varray name="rec_basis" >
     <v>       0.17553098       0.00000000       0.00000000 </v>
     <v>       0.00000000       0.24704168       0.00000000 </v>
     <v>       0.00000000       0.00000000       0.16118114 </v>
    </varray>
   </crystal>
   <varray name="positions" >
    <v>       0.52123000       0.50000000       0.63796000 </v>
    <v>       0.47877000       0.50000000       0.36204000 </v>
    <v>       0.97877000       0.50000000       0.63796000 </v>
    <v>       0.02123000       0.50000000       0.36204000 </v>
    <v>       0.60090000       0.50000000       0.89991000 </v>
    <v>       0.39910000       0.50000000       0.10009000 </v>
    <v>       0.89910000       0.50000000       0.89991000 </v>
    <v>       0.10090000       0.50000000       0.10009000 </v>
    <v>       0.75000000       0.79171000       0.72973000 </v>
    <v>       0.25000000       0.20829000       0.27027000 </v>
    <v>       0.75000000       0.20829000       0.72973000 </v>
    <v>       0.25000000       0.79171000       0.27027000 </v>
    <v>       0.25000000       0.50000000       0.52367000 </v>
    <v>       0.75000000       0.50000000       0.47633000 </v>
   </varray>
  </structure>
  <varray name="primitive_index" >
   <v type="int" >        1 </v>
   <v type="int" >        2 </v>
   <v type="int" >        3 </v>
   <v type="int" >        4 </v>
   <v type="int" >        5 </v>
   <v type="int" >        6 </v>
   <v type="int" >        7 </v>
   <v type="int" >        8 </v>
   <v type="int" >        9 </v>
   <v type="int" >       10 </v>
   <v type="int" >       11 </v>
   <v type="int" >       12 </v>
   <v type="int" >       13 </v>
   <v type="int" >       14 </v>
  </varray>
 </primitive_cell>
 <kpoints>
  <generation param="Monkhorst-Pack">
   <v type="int" name="divisions">      22       31       20 </v>
   <v name="usershift">      0.00000000       0.00000000       0.00000000 </v>
   <v name="genvec1">      0.04545455       0.00000000       0.00000000 </v>
   <v name="genvec2">      0.00000000       0.03225806       0.00000000 </v>
   <v name="genvec3">      0.00000000       0.00000000       0.05000000 </v>
   <v name="shift">      0.50000000       0.00000000       0.50000000 </v>
  </generation>
  <varray name="kpointlist" >
   <v>       0.02272727       0.00000000       0.02500000 </v>
   <v>       0.06818182       0.00000000       0.02500000 </v>
   <v>       0.11363636       0.00000000       0.02500000 </v>
   <v>       0.15909091       0.00000000       0.02500000 </v>
   <v>       0.20454545       0.00000000       0.02500000 </v>
   <v>       0.25000000       0.00000000       0.02500000 </v>
   <v>       0.29545455       0.00000000       0.02500000 </v>
   <v>       0.34090909       0.00000000       0.02500000 </v>
   <v>       0.38636364       0.00000000       0.02500000 </v>
   <v>       0.43181818       0.00000000       0.02500000 </v>
   <v>       0.47727273       0.00000000       0.02500000 </v>
   <v>       0.02272727       0.03225806       0.02500000 </v>
   <v>       0.06818182       0.03225806       0.02500000 </v>
   <v>       0.11363636       0.03225806       0.02500000 </v>
   <v>       0.15909091       0.03225806       0.02500000 </v>
   <v>       0.20454545       0.03225806       0.02500000 </v>
   <v>       0.25000000       0.03225806       0.02500000 </v>
   <v>       0.29545455       0.03225806       0.02500000 </v>
   <v>       0.34090909       0.03225806       0.02500000 </v>
   <v>       0.38636364       0.03225806       0.02500000 </v>
   <v>       0.43181818       0.03225806       0.02500000 </v>
   <v>       0.47727273       0.03225806       0.02500000 </v>
   <v>       0.02272727       0.06451613       0.02500000 </v>
   <v>       0.06818182       0.06451613       0.02500000 </v>
   <v>       0.11363636       0.06451613       0.02500000 </v>
   <v>       0.15909091       0.06451613       0.02500000 </v>
   <v>       0.20454545       0.06451613       0.02500000 </v>
   <v>       0.25000000       0.06451613       0.02500000 </v>
   <v>       0.29545455       0.06451613       0.02500000 </v>
   <v>       0.34090909       0.06451613       0.02500000 </v>
   <v>       0.38636364       0.06451613       0.02500000 </v>
   <v>       0.43181818       0.06451613       0.02500000 </v>
   <v>       0.47727273       0.06451613       0.02500000 </v>
   <v>       0.02272727       0.09677419       0.02500000 </v>
   <v>       0.06818182       0.09677419       0.02500000 </v>
   <v>       0.11363636       0.09677419       0.02500000 </v>
   <v>       0.15909091       0.09677419       0.02500000 </v>
   <v>       0.20454545       0.09677419       0.02500000 </v>
   <v>       0.25000000       0.09677419       0.02500000 </v>
   <v>       0.29545455       0.09677419       0.02500000 </v>
   <v>       0.34090909       0.09677419       0.02500000 </v>
   <v>       0.38636364       0.09677419       0.02500000 </v>
   <v>       0.43181818       0.09677419       0.02500000 </v>
   <v>       0.47727273       0.09677419       0.02500000 </v>
   <v>       0.02272727       0.12903226       0.02500000 </v>
   <v>       0.06818182       0.12903226       0.02500000 </v>
   <v>       0.11363636       0.12903226       0.02500000 </v>
   <v>       0.15909091       0.12903226       0.02500000 </v>
   <v>       0.20454545       0.12903226       0.02500000 </v>
   <v>       0.25000000       0.12903226       0.02500000 </v>
   <v>       0.29545455       0.12903226       0.02500000 </v>
   <v>       0.34090909       0.12903226       0.02500000 </v>
   <v>       0.38636364       0.12903226       0.02500000 </v>
   <v>       0.43181818       0.12903226       0.02500000 </v>
   <v>       0.47727273       0.12903226       0.02500000 </v>
   <v>       0.02272727       0.16129032       0.02500000 </v>
   <v>       0.06818182       0.16129032       0.02500000 </v>
   <v>       0.11363636       0.16129032       0.02500000 </v>
   <v>       0.15909091       0.16129032       0.02500000 </v>
   <v>       0.20454545       0.16129032       0.02500000 </v>
   <v>       0.25000000       0.16129032       0.02500000 </v>
   <v>       0.29545455       0.16129032       0.02500000 </v>
   <v>       0.34090909       0.16129032       0.02500000 </v>
   <v>       0.38636364       0.16129032       0.02500000 </v>
   <v>       0.43181818       0.16129032       0.02500000 </v>
   <v>       0.47727273       0.16129032       0.02500000 </v>
   <v>       0.02272727       0.19354839       0.02500000 </v>
   <v>       0.06818182       0.19354839       0.02500000 </v>
   <v>       0.11363636       0.19354839       0.02500000 </v>
   <v>       0.15909091       0.19354839       0.02500000 </v>
   <v>       0.20454545       0.19354839       0.02500000 </v>
   <v>       0.25000000       0.19354839       0.02500000 </v>
   <v>       0.29545455       0.19354839       0.02500000 </v>
   <v>       0.34090909       0.19354839       0.02500000 </v>
   <v>       0.38636364       0.19354839       0.02500000 </v>
   <v>       0.43181818       0.19354839       0.02500000 </v>
   <v>       0.47727273       0.19354839       0.02500000 </v>
   <v>       0.02272727       0.22580645       0.02500000 </v>
   <v>       0.06818182       0.22580645       0.02500000 </v>
   <v>       0.11363636       0.22580645       0.02500000 </v>
   <v>       0.15909091       0.22580645       0.02500000 </v>
   <v>       0.20454545       0.22580645       0.02500000 </v>
   <v>       0.25000000       0.22580645       0.02500000 </v>
   <v>       0.29545455       0.22580645       0.02500000 </v>
   <v>       0.34090909       0.22580645       0.02500000 </v>
   <v>       0.38636364       0.22580645       0.02500000 </v>
   <v>       0.43181818       0.22580645       0.02500000 </v>
   <v>       0.47727273       0.22580645       0.02500000 </v>
   <v>       0.02272727       0.25806452       0.02500000 </v>
   <v>       0.06818182       0.25806452       0.02500000 </v>
   <v>       0.11363636       0.25806452       0.02500000 </v>
   <v>       0.15909091       0.25806452       0.02500000 </v>
   <v>       0.20454545       0.25806452       0.02500000 </v>
   <v>       0.25000000       0.25806452       0.02500000 </v>
   <v>       0.29545455       0.25806452       0.02500000 </v>
   <v>       0.34090909       0.25806452       0.02500000 </v>
   <v>       0.38636364       0.25806452       0.02500000 </v>
   <v>       0.43181818       0.25806452       0.02500000 </v>
   <v>       0.47727273       0.25806452       0.02500000 </v>
   <v>       0.02272727       0.29032258       0.02500000 </v>
   <v>       0.06818182       0.29032258       0.02500000 </v>
   <v>       0.11363636       0.29032258       0.02500000 </v>
   <v>       0.15909091       0.29032258       0.02500000 </v>
   <v>       0.20454545       0.29032258       0.02500000 </v>
   <v>       0.25000000       0.29032258       0.02500000 </v>
   <v>       0.29545455       0.29032258       0.02500000 </v>
   <v>       0.34090909       0.29032258       0.02500000 </v>
   <v>       0.38636364       0.29032258       0.02500000 </v>
   <v>       0.43181818       0.29032258       0.02500000 </v>
   <v>       0.47727273       0.29032258       0.02500000 </v>
   <v>       0.02272727       0.32258065       0.02500000 </v>
   <v>       0.06818182       0.32258065       0.02500000 </v>
   <v>       0.11363636       0.32258065       0.02500000 </v>
   <v>       0.15909091       0.32258065       0.02500000 </v>
   <v>       0.20454545       0.32258065       0.02500000 </v>
   <v>       0.25000000       0.32258065       0.02500000 </v>
   <v>       0.29545455       0.32258065       0.02500000 </v>
   <v>       0.34090909       0.32258065       0.02500000 </v>
   <v>       0.38636364       0.32258065       0.02500000 </v>
   <v>       0.43181818       0.32258065       0.02500000 </v>
   <v>       0.47727273       0.32258065       0.02500000 </v>
   <v>       0.02272727       0.35483871       0.02500000 </v>
   <v>       0.06818182       0.35483871       0.02500000 </v>
   <v>       0.11363636       0.35483871       0.02500000 </v>
   <v>       0.15909091       0.35483871       0.02500000 </v>
   <v>       0.20454545       0.35483871       0.02500000 </v>
   <v>       0.25000000       0.35483871       0.02500000 </v>
   <v>       0.29545455       0.35483871       0.02500000 </v>
   <v>       0.34090909       0.35483871       0.02500000 </v>
   <v>       0.38636364       0.35483871       0.02500000 </v>
   <v>       0.43181818       0.35483871       0.02500000 </v>
   <v>       0.47727273       0.35483871       0.02500000 </v>
   <v>       0.02272727       0.38709677       0.02500000 </v>
   <v>       0.06818182       0.38709677       0.02500000 </v>
   <v>       0.11363636       0.38709677       0.02500000 </v>
   <v>       0.15909091       0.38709677       0.02500000 </v>
   <v>       0.20454545       0.38709677       0.02500000 </v>
   <v>       0.25000000       0.38709677       0.02500000 </v>
   <v>       0.29545455       0.38709677       0.02500000 </v>
   <v>       0.34090909       0.38709677       0.02500000 </v>
   <v>       0.38636364       0.38709677       0.02500000 </v>
   <v>       0.43181818       0.38709677       0.02500000 </v>
   <v>       0.47727273       0.38709677       0.02500000 </v>
   <v>       0.02272727       0.41935484       0.02500000 </v>
   <v>       0.06818182       0.41935484       0.02500000 </v>
   <v>       0.11363636       0.41935484       0.02500000 </v>
   <v>       0.15909091       0.41935484       0.02500000 </v>
   <v>       0.20454545       0.41935484       0.02500000 </v>
   <v>       0.25000000       0.41935484       0.02500000 </v>
   <v>       0.29545455       0.41935484       0.02500000 </v>
   <v>       0.34090909       0.41935484       0.02500000 </v>
   <v>       0.38636364       0.41935484       0.02500000 </v>
   <v>       0.43181818       0.41935484       0.02500000 </v>
   <v>       0.47727273       0.41935484       0.02500000 </v>
   <v>       0.02272727       0.45161290       0.02500000 </v>
   <v>       0.06818182       0.45161290       0.02500000 </v>
   <v>       0.11363636       0.45161290       0.02500000 </v>
   <v>       0.15909091       0.45161290       0.02500000 </v>
   <v>       0.20454545       0.45161290       0.02500000 </v>
   <v>       0.25000000       0.45161290       0.02500000 </v>
   <v>       0.29545455       0.45161290       0.02500000 </v>
   <v>       0.34090909       0.45161290       0.02500000 </v>
   <v>       0.38636364       0.45161290       0.02500000 </v>
   <v>       0.43181818       0.45161290       0.02500000 </v>
   <v>       0.47727273       0.45161290       0.02500000 </v>
   <v>       0.02272727       0.48387097       0.02500000 </v>
   <v>       0.06818182       0.48387097       0.02500000 </v>
   <v>       0.11363636       0.48387097       0.02500000 </v>
   <v>       0.15909091       0.48387097       0.02500000 </v>
   <v>       0.20454545       0.48387097       0.02500000 </v>
   <v>       0.25000000       0.48387097       0.02500000 </v>
   <v>       0.29545455       0.48387097       0.02500000 </v>
   <v>       0.34090909       0.48387097       0.02500000 </v>
   <v>       0.38636364       0.48387097       0.02500000 </v>
   <v>       0.43181818       0.48387097       0.02500000 </v>
   <v>       0.47727273       0.48387097       0.02500000 </v>
   <v>       0.02272727       0.00000000       0.07500000 </v>
   <v>       0.06818182       0.00000000       0.07500000 </v>
   <v>       0.11363636       0.00000000       0.07500000 </v>
   <v>       0.15909091       0.00000000       0.07500000 </v>
   <v>       0.20454545       0.00000000       0.07500000 </v>
   <v>       0.25000000       0.00000000       0.07500000 </v>
   <v>       0.29545455       0.00000000       0.07500000 </v>
   <v>       0.34090909       0.00000000       0.07500000 </v>
   <v>       0.38636364       0.00000000       0.07500000 </v>
   <v>       0.43181818       0.00000000       0.07500000 </v>
   <v>       0.47727273       0.00000000       0.07500000 </v>
   <v>       0.02272727       0.03225806       0.07500000 </v>
   <v>       0.06818182       0.03225806       0.07500000 </v>
   <v>       0.11363636       0.03225806       0.07500000 </v>
   <v>       0.15909091       0.03225806       0.07500000 </v>
   <v>       0.20454545       0.03225806       0.07500000 </v>
   <v>       0.25000000       0.03225806       0.07500000 </v>
   <v>       0.29545455       0.03225806       0.07500000 </v>
   <v>       0.34090909       0.03225806       0.07500000 </v>
   <v>       0.38636364       0.03225806       0.07500000 </v>
   <v>       0.43181818       0.03225806       0.07500000 </v>
   <v>       0.47727273       0.03225806       0.07500000 </v>
   <v>       0.02272727       0.06451613       0.07500000 </v>
   <v>       0.06818182       0.06451613       0.07500000 </v>
   <v>       0.11363636       0.06451613       0.07500000 </v>
   <v>       0.15909091       0.06451613       0.07500000 </v>
   <v>       0.20454545       0.06451613       0.07500000 </v>
   <v>       0.25000000       0.06451613       0.07500000 </v>
   <v>       0.29545455       0.06451613       0.07500000 </v>
   <v>       0.34090909       0.06451613       0.07500000 </v>
   <v>       0.38636364       0.06451613       0.07500000 </v>
   <v>       0.43181818       0.06451613       0.07500000 </v>
   <v>       0.47727273       0.06451613       0.07500000 </v>
   <v>       0.02272727       0.09677419       0.07500000 </v>
   <v>       0.06818182       0.09677419       0.07500000 </v>
   <v>       0.11363636       0.09677419       0.07500000 </v>
   <v>       0.15909091       0.09677419       0.07500000 </v>
   <v>       0.20454545       0.09677419       0.07500000 </v>
   <v>       0.25000000       0.09677419       0.07500000 </v>
   <v>       0.29545455       0.09677419       0.07500000 </v>
   <v>       0.34090909       0.09677419       0.07500000 </v>
   <v>       0.38636364       0.09677419       0.07500000 </v>
   <v>       0.43181818       0.09677419       0.07500000 </v>
   <v>       0.47727273       0.09677419       0.07500000 </v>
   <v>       0.02272727       0.12903226       0.07500000 </v>
   <v>       0.06818182       0.12903226       0.07500000 </v>
   <v>       0.11363636       0.12903226       0.07500000 </v>
   <v>       0.15909091       0.12903226       0.07500000 </v>
   <v>       0.20454545       0.12903226       0.07500000 </v>
   <v>       0.25000000       0.12903226       0.07500000 </v>
   <v>       0.29545455       0.12903226       0.07500000 </v>
   <v>       0.34090909       0.12903226       0.07500000 </v>
   <v>       0.38636364       0.12903226       0.07500000 </v>
   <v>       0.43181818       0.12903226       0.07500000 </v>
   <v>       0.47727273       0.12903226       0.07500000 </v>
   <v>       0.02272727       0.16129032       0.07500000 </v>
   <v>       0.06818182       0.16129032       0.07500000 </v>
   <v>       0.11363636       0.16129032       0.07500000 </v>
   <v>       0.15909091       0.16129032       0.07500000 </v>
   <v>       0.20454545       0.16129032       0.07500000 </v>
   <v>       0.25000000       0.16129032       0.07500000 </v>
   <v>       0.29545455       0.16129032       0.07500000 </v>
   <v>       0.34090909       0.16129032       0.07500000 </v>
   <v>       0.38636364       0.16129032       0.07500000 </v>
   <v>       0.43181818       0.16129032       0.07500000 </v>
   <v>       0.47727273       0.16129032       0.07500000 </v>
   <v>       0.02272727       0.19354839       0.07500000 </v>
   <v>       0.06818182       0.19354839       0.07500000 </v>
   <v>       0.11363636       0.19354839       0.07500000 </v>
   <v>       0.15909091       0.19354839       0.07500000 </v>
   <v>       0.20454545       0.19354839       0.07500000 </v>
   <v>       0.25000000       0.19354839       0.07500000 </v>
   <v>       0.29545455       0.19354839       0.07500000 </v>
   <v>       0.34090909       0.19354839       0.07500000 </v>
   <v>       0.38636364       0.19354839       0.07500000 </v>
   <v>       0.43181818       0.19354839       0.07500000 </v>
   <v>       0.47727273       0.19354839       0.07500000 </v>
   <v>       0.02272727       0.22580645       0.07500000 </v>
   <v>       0.06818182       0.22580645       0.07500000 </v>
   <v>       0.11363636       0.22580645       0.07500000 </v>
   <v>       0.15909091       0.22580645       0.07500000 </v>
   <v>       0.20454545       0.22580645       0.07500000 </v>
   <v>       0.25000000       0.22580645       0.07500000 </v>
   <v>       0.29545455       0.22580645       0.07500000 </v>
   <v>       0.34090909       0.22580645       0.07500000 </v>
   <v>       0.38636364       0.22580645       0.07500000 </v>
   <v>       0.43181818       0.22580645       0.07500000 </v>
   <v>       0.47727273       0.22580645       0.07500000 </v>
   <v>       0.02272727       0.25806452       0.07500000 </v>
   <v>       0.06818182       0.25806452       0.07500000 </v>
   <v>       0.11363636       0.25806452       0.07500000 </v>
   <v>       0.15909091       0.25806452       0.07500000 </v>
   <v>       0.20454545       0.25806452       0.07500000 </v>
   <v>       0.25000000       0.25806452       0.07500000 </v>
   <v>       0.29545455       0.25806452       0.07500000 </v>
   <v>       0.34090909       0.25806452       0.07500000 </v>
   <v>       0.38636364       0.25806452       0.07500000 </v>
   <v>       0.43181818       0.25806452       0.07500000 </v>
   <v>       0.47727273       0.25806452       0.07500000 </v>
   <v>       0.02272727       0.29032258       0.07500000 </v>
   <v>       0.06818182       0.29032258       0.07500000 </v>
   <v>       0.11363636       0.29032258       0.07500000 </v>
   <v>       0.15909091       0.29032258       0.07500000 </v>
   <v>       0.20454545       0.29032258       0.07500000 </v>
   <v>       0.25000000       0.29032258       0.07500000 </v>
   <v>       0.29545455       0.29032258       0.07500000 </v>
   <v>       0.34090909       0.29032258       0.07500000 </v>
   <v>       0.38636364       0.29032258       0.07500000 </v>
   <v>       0.43181818       0.29032258       0.07500000 </v>
   <v>       0.47727273       0.29032258       0.07500000 </v>
   <v>       0.02272727       0.32258065       0.07500000 </v>
   <v>       0.06818182       0.32258065       0.07500000 </v>
   <v>       0.11363636       0.32258065       0.07500000 </v>
   <v>       0.15909091       0.32258065       0.07500000 </v>
   <v>       0.20454545       0.32258065       0.07500000 </v>
   <v>       0.25000000       0.32258065       0.07500000 </v>
   <v>       0.29545455       0.32258065       0.07500000 </v>
   <v>       0.34090909       0.32258065       0.07500000 </v>
   <v>       0.38636364       0.32258065       0.07500000 </v>
   <v>       0.43181818       0.32258065       0.07500000 </v>
   <v>       0.47727273       0.32258065       0.07500000 </v>
   <v>       0.02272727       0.35483871       0.07500000 </v>
   <v>       0.06818182       0.35483871       0.07500000 </v>
   <v>       0.11363636       0.35483871       0.07500000 </v>
   <v>       0.15909091       0.35483871       0.07500000 </v>
   <v>       0.20454545       0.35483871       0.07500000 </v>
   <v>       0.25000000       0.35483871       0.07500000 </v>
   <v>       0.29545455       0.35483871       0.07500000 </v>
   <v>       0.34090909       0.35483871       0.07500000 </v>
   <v>       0.38636364       0.35483871       0.07500000 </v>
   <v>       0.43181818       0.35483871       0.07500000 </v>
   <v>       0.47727273       0.35483871       0.07500000 </v>
   <v>       0.02272727       0.38709677       0.07500000 </v>
   <v>       0.06818182       0.38709677       0.07500000 </v>
   <v>       0.11363636       0.38709677       0.07500000 </v>
   <v>       0.15909091       0.38709677       0.07500000 </v>
   <v>       0.20454545       0.38709677       0.07500000 </v>
   <v>       0.25000000       0.38709677       0.07500000 </v>
   <v>       0.29545455       0.38709677       0.07500000 </v>
   <v>       0.34090909       0.38709677       0.07500000 </v>
   <v>       0.38636364       0.38709677       0.07500000 </v>
   <v>       0.43181818       0.38709677       0.07500000 </v>
   <v>       0.47727273       0.38709677       0.07500000 </v>
   <v>       0.02272727       0.41935484       0.07500000 </v>
   <v>       0.06818182       0.41935484       0.07500000 </v>
   <v>       0.11363636       0.41935484       0.07500000 </v>
   <v>       0.15909091       0.41935484       0.07500000 </v>
   <v>       0.20454545       0.41935484       0.07500000 </v>
   <v>       0.25000000       0.41935484       0.07500000 </v>
   <v>       0.29545455       0.41935484       0.07500000 </v>
   <v>       0.34090909       0.41935484       0.07500000 </v>
   <v>       0.38636364       0.41935484       0.07500000 </v>
   <v>       0.43181818       0.41935484       0.07500000 </v>
   <v>       0.47727273       0.41935484       0.07500000 </v>
   <v>       0.02272727       0.45161290       0.07500000 </v>
   <v>       0.06818182       0.45161290       0.07500000 </v>
   <v>       0.11363636       0.45161290       0.07500000 </v>
   <v>       0.15909091       0.45161290       0.07500000 </v>
   <v>       0.20454545       0.45161290       0.07500000 </v>
   <v>       0.25000000       0.45161290       0.07500000 </v>
   <v>       0.29545455       0.45161290       0.07500000 </v>
   <v>       0.34090909       0.45161290       0.07500000 </v>
   <v>       0.38636364       0.45161290       0.07500000 </v>
   <v>       0.43181818       0.45161290       0.07500000 </v>
   <v>       0.47727273       0.45161290       0.07500000 </v>
   <v>       0.02272727       0.48387097       0.07500000 </v>
   <v>       0.06818182       0.48387097       0.07500000 </v>
   <v>       0.11363636       0.48387097       0.07500000 </v>
   <v>       0.15909091       0.48387097       0.07500000 </v>
   <v>       0.20454545       0.48387097       0.07500000 </v>
   <v>       0.25000000       0.48387097       0.07500000 </v>
   <v>       0.29545455       0.48387097       0.07500000 </v>
   <v>       0.34090909       0.48387097       0.07500000 </v>
   <v>       0.38636364       0.48387097       0.07500000 </v>
   <v>       0.43181818       0.48387097       0.07500000 </v>
   <v>       0.47727273       0.48387097       0.07500000 </v>
   <v>       0.02272727       0.00000000       0.12500000 </v>
   <v>       0.06818182       0.00000000       0.12500000 </v>
   <v>       0.11363636       0.00000000       0.12500000 </v>
   <v>       0.15909091       0.00000000       0.12500000 </v>
   <v>       0.20454545       0.00000000       0.12500000 </v>
   <v>       0.25000000       0.00000000       0.12500000 </v>
   <v>       0.29545455       0.00000000       0.12500000 </v>
   <v>       0.34090909       0.00000000       0.12500000 </v>
   <v>       0.38636364       0.00000000       0.12500000 </v>
   <v>       0.43181818       0.00000000       0.12500000 </v>
   <v>       0.47727273       0.00000000       0.12500000 </v>
   <v>       0.02272727       0.03225806       0.12500000 </v>
   <v>       0.06818182       0.03225806       0.12500000 </v>
   <v>       0.11363636       0.03225806       0.12500000 </v>
   <v>       0.15909091       0.03225806       0.12500000 </v>
   <v>       0.20454545       0.03225806       0.12500000 </v>
   <v>       0.25000000       0.03225806       0.12500000 </v>
   <v>       0.29545455       0.03225806       0.12500000 </v>
   <v>       0.34090909       0.03225806       0.12500000 </v>
   <v>       0.38636364       0.03225806       0.12500000 </v>
   <v>       0.43181818       0.03225806       0.12500000 </v>
   <v>       0.47727273       0.03225806       0.12500000 </v>
   <v>       0.02272727       0.06451613       0.12500000 </v>
   <v>       0.06818182       0.06451613       0.12500000 </v>
   <v>       0.11363636       0.06451613       0.12500000 </v>
   <v>       0.15909091       0.06451613       0.12500000 </v>
   <v>       0.20454545       0.06451613       0.12500000 </v>
   <v>       0.25000000       0.06451613       0.12500000 </v>
   <v>       0.29545455       0.06451613       0.12500000 </v>
   <v>       0.34090909       0.06451613       0.12500000 </v>
   <v>       0.38636364       0.06451613       0.12500000 </v>
   <v>       0.43181818       0.06451613       0.12500000 </v>
   <v>       0.47727273       0.06451613       0.12500000 </v>
   <v>       0.02272727       0.09677419       0.12500000 </v>
   <v>       0.06818182       0.09677419       0.12500000 </v>
   <v>       0.11363636       0.09677419       0.12500000 </v>
   <v>       0.15909091       0.09677419       0.12500000 </v>
   <v>       0.20454545       0.09677419       0.12500000 </v>
   <v>       0.25000000       0.09677419       0.12500000 </v>
   <v>       0.29545455       0.09677419       0.12500000 </v>
   <v>       0.34090909       0.09677419       0.12500000 </v>
   <v>       0.38636364       0.09677419       0.12500000 </v>
   <v>       0.43181818       0.09677419       0.12500000 </v>
   <v>       0.47727273       0.09677419       0.12500000 </v>
   <v>       0.02272727       0.12903226       0.12500000 </v>
   <v>       0.06818182       0.12903226       0.12500000 </v>
   <v>       0.11363636       0.12903226       0.12500000 </v>
   <v>       0.15909091       0.12903226       0.12500000 </v>
   <v>       0.20454545       0.12903226       0.12500000 </v>
   <v>       0.25000000       0.12903226       0.12500000 </v>
   <v>       0.29545455       0.12903226       0.12500000 </v>
   <v>       0.34090909       0.12903226       0.12500000 </v>
   <v>       0.38636364       0.12903226       0.12500000 </v>
   <v>       0.43181818       0.12903226       0.12500000 </v>
   <v>       0.47727273       0.12903226       0.12500000 </v>
   <v>       0.02272727       0.16129032       0.12500000 </v>
   <v>       0.06818182       0.16129032       0.12500000 </v>
   <v>       0.11363636       0.16129032       0.12500000 </v>
   <v>       0.15909091       0.16129032       0.12500000 </v>
   <v>       0.20454545       0.16129032       0.12500000 </v>
   <v>       0.25000000       0.16129032       0.12500000 </v>
   <v>       0.29545455       0.16129032       0.12500000 </v>
   <v>       0.34090909       0.16129032       0.12500000 </v>
   <v>       0.38636364       0.16129032       0.12500000 </v>
   <v>       0.43181818       0.16129032       0.12500000 </v>
   <v>       0.47727273       0.16129032       0.12500000 </v>
   <v>       0.02272727       0.19354839       0.12500000 </v>
   <v>       0.06818182       0.19354839       0.12500000 </v>
   <v>       0.11363636       0.19354839       0.12500000 </v>
   <v>       0.15909091       0.19354839       0.12500000 </v>
   <v>       0.20454545       0.19354839       0.12500000 </v>
   <v>       0.25000000       0.19354839       0.12500000 </v>
   <v>       0.29545455       0.19354839       0.12500000 </v>
   <v>       0.34090909       0.19354839       0.12500000 </v>
   <v>       0.38636364       0.19354839       0.12500000 </v>
   <v>       0.43181818       0.19354839       0.12500000 </v>
   <v>       0.47727273       0.19354839       0.12500000 </v>
   <v>       0.02272727       0.22580645       0.12500000 </v>
   <v>       0.06818182       0.22580645       0.12500000 </v>
   <v>       0.11363636       0.22580645       0.12500000 </v>
   <v>       0.15909091       0.22580645       0.12500000 </v>
   <v>       0.20454545       0.22580645       0.12500000 </v>
   <v>       0.25000000       0.22580645       0.12500000 </v>
   <v>       0.29545455       0.22580645       0.12500000 </v>
   <v>       0.34090909       0.22580645       0.12500000 </v>
   <v>       0.38636364       0.22580645       0.12500000 </v>
   <v>       0.43181818       0.22580645       0.12500000 </v>
   <v>       0.47727273       0.22580645       0.12500000 </v>
   <v>       0.02272727       0.25806452       0.12500000 </v>
   <v>       0.06818182       0.25806452       0.12500000 </v>
   <v>       0.11363636       0.25806452       0.12500000 </v>
   <v>       0.15909091       0.25806452       0.12500000 </v>
   <v>       0.20454545       0.25806452       0.12500000 </v>
   <v>       0.25000000       0.25806452       0.12500000 </v>
   <v>       0.29545455       0.25806452       0.12500000 </v>
   <v>       0.34090909       0.25806452       0.12500000 </v>
   <v>       0.38636364       0.25806452       0.12500000 </v>
   <v>       0.43181818       0.25806452       0.12500000 </v>
   <v>       0.47727273       0.25806452       0.12500000 </v>
   <v>       0.02272727       0.29032258       0.12500000 </v>
   <v>       0.06818182       0.29032258       0.12500000 </v>
   <v>       0.11363636       0.29032258       0.12500000 </v>
   <v>       0.15909091       0.29032258       0.12500000 </v>
   <v>       0.20454545       0.29032258       0.12500000 </v>
   <v>       0.25000000       0.29032258       0.12500000 </v>
   <v>       0.29545455       0.29032258       0.12500000 </v>
   <v>       0.34090909       0.29032258       0.12500000 </v>
   <v>       0.38636364       0.29032258       0.12500000 </v>
   <v>       0.43181818       0.29032258       0.12500000 </v>
   <v>       0.47727273       0.29032258       0.12500000 </v>
   <v>       0.02272727       0.32258065       0.12500000 </v>
   <v>       0.06818182       0.32258065       0.12500000 </v>
   <v>       0.11363636       0.32258065       0.12500000 </v>
   <v>       0.15909091       0.32258065       0.12500000 </v>
   <v>       0.20454545       0.32258065       0.12500000 </v>
   <v>       0.25000000       0.32258065       0.12500000 </v>
   <v>       0.29545455       0.32258065       0.12500000 </v>
   <v>       0.34090909       0.32258065       0.12500000 </v>
   <v>       0.38636364       0.32258065       0.12500000 </v>
   <v>       0.43181818       0.32258065       0.12500000 </v>
   <v>       0.47727273       0.32258065       0.12500000 </v>
   <v>       0.02272727       0.35483871       0.12500000 </v>
   <v>       0.06818182       0.35483871       0.12500000 </v>
   <v>       0.11363636       0.35483871       0.12500000 </v>
   <v>       0.15909091       0.35483871       0.12500000 </v>
   <v>       0.20454545       0.35483871       0.12500000 </v>
   <v>       0.25000000       0.35483871       0.12500000 </v>
   <v>       0.29545455       0.35483871       0.12500000 </v>
   <v>       0.34090909       0.35483871       0.12500000 </v>
   <v>       0.38636364       0.35483871       0.12500000 </v>
   <v>       0.43181818       0.35483871       0.12500000 </v>
   <v>       0.47727273       0.35483871       0.12500000 </v>
   <v>       0.02272727       0.38709677       0.12500000 </v>
   <v>       0.06818182       0.38709677       0.12500000 </v>
   <v>       0.11363636       0.38709677       0.12500000 </v>
   <v>       0.15909091       0.38709677       0.12500000 </v>
   <v>       0.20454545       0.38709677       0.12500000 </v>
   <v>       0.25000000       0.38709677       0.12500000 </v>
   <v>       0.29545455       0.38709677       0.12500000 </v>
   <v>       0.34090909       0.38709677       0.12500000 </v>
   <v>       0.38636364       0.38709677       0.12500000 </v>
   <v>       0.43181818       0.38709677       0.12500000 </v>
   <v>       0.47727273       0.38709677       0.12500000 </v>
   <v>       0.02272727       0.41935484       0.12500000 </v>
   <v>       0.06818182       0.41935484       0.12500000 </v>
   <v>       0.11363636       0.41935484       0.12500000 </v>
   <v>       0.15909091       0.41935484       0.12500000 </v>
   <v>       0.20454545       0.41935484       0.12500000 </v>
   <v>       0.25000000       0.41935484       0.12500000 </v>
   <v>       0.29545455       0.41935484       0.12500000 </v>
   <v>       0.34090909       0.41935484       0.12500000 </v>
   <v>       0.38636364       0.41935484       0.12500000 </v>
   <v>       0.43181818       0.41935484       0.12500000 </v>
   <v>       0.47727273       0.41935484       0.12500000 </v>
   <v>       0.02272727       0.45161290       0.12500000 </v>
   <v>       0.06818182       0.45161290       0.12500000 </v>
   <v>       0.11363636       0.45161290       0.12500000 </v>
   <v>       0.15909091       0.45161290       0.12500000 </v>
   <v>       0.20454545       0.45161290       0.12500000 </v>
   <v>       0.25000000       0.45161290       0.12500000 </v>
   <v>       0.29545455       0.45161290       0.12500000 </v>
   <v>       0.34090909       0.45161290       0.12500000 </v>
   <v>       0.38636364       0.45161290       0.12500000 </v>
   <v>       0.43181818       0.45161290       0.12500000 </v>
   <v>       0.47727273       0.45161290       0.12500000 </v>
   <v>       0.02272727       0.48387097       0.12500000 </v>
   <v>       0.06818182       0.48387097       0.12500000 </v>
   <v>       0.11363636       0.48387097       0.12500000 </v>
   <v>       0.15909091       0.48387097       0.12500000 </v>
   <v>       0.20454545       0.48387097       0.12500000 </v>
   <v>       0.25000000       0.48387097       0.12500000 </v>
   <v>       0.29545455       0.48387097       0.12500000 </v>
   <v>       0.34090909       0.48387097       0.12500000 </v>
   <v>       0.38636364       0.48387097       0.12500000 </v>
   <v>       0.43181818       0.48387097       0.12500000 </v>
   <v>       0.47727273       0.48387097       0.12500000 </v>
   <v>       0.02272727       0.00000000       0.17500000 </v>
   <v>       0.06818182       0.00000000       0.17500000 </v>
   <v>       0.11363636       0.00000000       0.17500000 </v>
   <v>       0.15909091       0.00000000       0.17500000 </v>
   <v>       0.20454545       0.00000000       0.17500000 </v>
   <v>       0.25000000       0.00000000       0.17500000 </v>
   <v>       0.29545455       0.00000000       0.17500000 </v>
   <v>       0.34090909       0.00000000       0.17500000 </v>
   <v>       0.38636364       0.00000000       0.17500000 </v>
   <v>       0.43181818       0.00000000       0.17500000 </v>
   <v>       0.47727273       0.00000000       0.17500000 </v>
   <v>       0.02272727       0.03225806       0.17500000 </v>
   <v>       0.06818182       0.03225806       0.17500000 </v>
   <v>       0.11363636       0.03225806       0.17500000 </v>
   <v>       0.15909091       0.03225806       0.17500000 </v>
   <v>       0.20454545       0.03225806       0.17500000 </v>
   <v>       0.25000000       0.03225806       0.17500000 </v>
   <v>       0.29545455       0.03225806       0.17500000 </v>
   <v>       0.34090909       0.03225806       0.17500000 </v>
   <v>       0.38636364       0.03225806       0.17500000 </v>
   <v>       0.43181818       0.03225806       0.17500000 </v>
   <v>       0.47727273       0.03225806       0.17500000 </v>
   <v>       0.02272727       0.06451613       0.17500000 </v>
   <v>       0.06818182       0.06451613       0.17500000 </v>
   <v>       0.11363636       0.06451613       0.17500000 </v>
   <v>       0.15909091       0.06451613       0.17500000 </v>
   <v>       0.20454545       0.06451613       0.17500000 </v>
   <v>       0.25000000       0.06451613       0.17500000 </v>
   <v>       0.29545455       0.06451613       0.17500000 </v>
   <v>       0.34090909       0.06451613       0.17500000 </v>
   <v>       0.38636364       0.06451613       0.17500000 </v>
   <v>       0.43181818       0.06451613       0.17500000 </v>
   <v>       0.47727273       0.06451613       0.17500000 </v>
   <v>       0.02272727       0.09677419       0.17500000 </v>
   <v>       0.06818182       0.09677419       0.17500000 </v>
   <v>       0.11363636       0.09677419       0.17500000 </v>
   <v>       0.15909091       0.09677419       0.17500000 </v>
   <v>       0.20454545       0.09677419       0.17500000 </v>
   <v>       0.25000000       0.09677419       0.17500000 </v>
   <v>       0.29545455       0.09677419       0.17500000 </v>
   <v>       0.34090909       0.09677419       0.17500000 </v>
   <v>       0.38636364       0.09677419       0.17500000 </v>
   <v>       0.43181818       0.09677419       0.17500000 </v>
   <v>       0.47727273       0.09677419       0.17500000 </v>
   <v>       0.02272727       0.12903226       0.17500000 </v>
   <v>       0.06818182       0.12903226       0.17500000 </v>
   <v>       0.11363636       0.12903226       0.17500000 </v>
   <v>       0.15909091       0.12903226       0.17500000 </v>
   <v>       0.20454545       0.12903226       0.17500000 </v>
   <v>       0.25000000       0.12903226       0.17500000 </v>
   <v>       0.29545455       0.12903226       0.17500000 </v>
   <v>       0.34090909       0.12903226       0.17500000 </v>
   <v>       0.38636364       0.12903226       0.17500000 </v>
   <v>       0.43181818       0.12903226       0.17500000 </v>
   <v>       0.47727273       0.12903226       0.17500000 </v>
   <v>       0.02272727       0.16129032       0.17500000 </v>
   <v>       0.06818182       0.16129032       0.17500000 </v>
   <v>       0.11363636       0.16129032       0.17500000 </v>
   <v>       0.15909091       0.16129032       0.17500000 </v>
   <v>       0.20454545       0.16129032       0.17500000 </v>
   <v>       0.25000000       0.16129032       0.17500000 </v>
   <v>       0.29545455       0.16129032       0.17500000 </v>
   <v>       0.34090909       0.16129032       0.17500000 </v>
   <v>       0.38636364       0.16129032       0.17500000 </v>
   <v>       0.43181818       0.16129032       0.17500000 </v>
   <v>       0.47727273       0.16129032       0.17500000 </v>
   <v>       0.02272727       0.19354839       0.17500000 </v>
   <v>       0.06818182       0.19354839       0.17500000 </v>
   <v>       0.11363636       0.19354839       0.17500000 </v>
   <v>       0.15909091       0.19354839       0.17500000 </v>
   <v>       0.20454545       0.19354839       0.17500000 </v>
   <v>       0.25000000       0.19354839       0.17500000 </v>
   <v>       0.29545455       0.19354839       0.17500000 </v>
   <v>       0.34090909       0.19354839       0.17500000 </v>
   <v>       0.38636364       0.19354839       0.17500000 </v>
   <v>       0.43181818       0.19354839       0.17500000 </v>
   <v>       0.47727273       0.19354839       0.17500000 </v>
   <v>       0.02272727       0.22580645       0.17500000 </v>
   <v>       0.06818182       0.22580645       0.17500000 </v>
   <v>       0.11363636       0.22580645       0.17500000 </v>
   <v>       0.15909091       0.22580645       0.17500000 </v>
   <v>       0.20454545       0.22580645       0.17500000 </v>
   <v>       0.25000000       0.22580645       0.17500000 </v>
   <v>       0.29545455       0.22580645       0.17500000 </v>
   <v>       0.34090909       0.22580645       0.17500000 </v>
   <v>       0.38636364       0.22580645       0.17500000 </v>
   <v>       0.43181818       0.22580645       0.17500000 </v>
   <v>       0.47727273       0.22580645       0.17500000 </v>
   <v>       0.02272727       0.25806452       0.17500000 </v>
   <v>       0.06818182       0.25806452       0.17500000 </v>
   <v>       0.11363636       0.25806452       0.17500000 </v>
   <v>       0.15909091       0.25806452       0.17500000 </v>
   <v>       0.20454545       0.25806452       0.17500000 </v>
   <v>       0.25000000       0.25806452       0.17500000 </v>
   <v>       0.29545455       0.25806452       0.17500000 </v>
   <v>       0.34090909       0.25806452       0.17500000 </v>
   <v>       0.38636364       0.25806452       0.17500000 </v>
   <v>       0.43181818       0.25806452       0.17500000 </v>
   <v>       0.47727273       0.25806452       0.17500000 </v>
   <v>       0.02272727       0.29032258       0.17500000 </v>
   <v>       0.06818182       0.29032258       0.17500000 </v>
   <v>       0.11363636       0.29032258       0.17500000 </v>
   <v>       0.15909091       0.29032258       0.17500000 </v>
   <v>       0.20454545       0.29032258       0.17500000 </v>
   <v>       0.25000000       0.29032258       0.17500000 </v>
   <v>       0.29545455       0.29032258       0.17500000 </v>
   <v>       0.34090909       0.29032258       0.17500000 </v>
   <v>       0.38636364       0.29032258       0.17500000 </v>
   <v>       0.43181818       0.29032258       0.17500000 </v>
   <v>       0.47727273       0.29032258       0.17500000 </v>
   <v>       0.02272727       0.32258065       0.17500000 </v>
   <v>       0.06818182       0.32258065       0.17500000 </v>
   <v>       0.11363636       0.32258065       0.17500000 </v>
   <v>       0.15909091       0.32258065       0.17500000 </v>
   <v>       0.20454545       0.32258065       0.17500000 </v>
   <v>       0.25000000       0.32258065       0.17500000 </v>
   <v>       0.29545455       0.32258065       0.17500000 </v>
   <v>       0.34090909       0.32258065       0.17500000 </v>
   <v>       0.38636364       0.32258065       0.17500000 </v>
   <v>       0.43181818       0.32258065       0.17500000 </v>
   <v>       0.47727273       0.32258065       0.17500000 </v>
   <v>       0.02272727       0.35483871       0.17500000 </v>
   <v>       0.06818182       0.35483871       0.17500000 </v>
   <v>       0.11363636       0.35483871       0.17500000 </v>
   <v>       0.15909091       0.35483871       0.17500000 </v>
   <v>       0.20454545       0.35483871       0.17500000 </v>
   <v>       0.25000000       0.35483871       0.17500000 </v>
   <v>       0.29545455       0.35483871       0.17500000 </v>
   <v>       0.34090909       0.35483871       0.17500000 </v>
   <v>       0.38636364       0.35483871       0.17500000 </v>
   <v>       0.43181818       0.35483871       0.17500000 </v>
   <v>       0.47727273       0.35483871       0.17500000 </v>
   <v>       0.02272727       0.38709677       0.17500000 </v>
   <v>       0.06818182       0.38709677       0.17500000 </v>
   <v>       0.11363636       0.38709677       0.17500000 </v>
   <v>       0.15909091       0.38709677       0.17500000 </v>
   <v>       0.20454545       0.38709677       0.17500000 </v>
   <v>       0.25000000       0.38709677       0.17500000 </v>
   <v>       0.29545455       0.38709677       0.17500000 </v>
   <v>       0.34090909       0.38709677       0.17500000 </v>
   <v>       0.38636364       0.38709677       0.17500000 </v>
   <v>       0.43181818       0.38709677       0.17500000 </v>
   <v>       0.47727273       0.38709677       0.17500000 </v>
   <v>       0.02272727       0.41935484       0.17500000 </v>
   <v>       0.06818182       0.41935484       0.17500000 </v>
   <v>       0.11363636       0.41935484       0.17500000 </v>
   <v>       0.15909091       0.41935484       0.17500000 </v>
   <v>       0.20454545       0.41935484       0.17500000 </v>
   <v>       0.25000000       0.41935484       0.17500000 </v>
   <v>       0.29545455       0.41935484       0.17500000 </v>
   <v>       0.34090909       0.41935484       0.17500000 </v>
   <v>       0.38636364       0.41935484       0.17500000 </v>
   <v>       0.43181818       0.41935484       0.17500000 </v>
   <v>       0.47727273       0.41935484       0.17500000 </v>
   <v>       0.02272727       0.45161290       0.17500000 </v>
   <v>       0.06818182       0.45161290       0.17500000 </v>
   <v>       0.11363636       0.45161290       0.17500000 </v>
   <v>       0.15909091       0.45161290       0.17500000 </v>
   <v>       0.20454545       0.45161290       0.17500000 </v>
   <v>       0.25000000       0.45161290       0.17500000 </v>
   <v>       0.29545455       0.45161290       0.17500000 </v>
   <v>       0.34090909       0.45161290       0.17500000 </v>
   <v>       0.38636364       0.45161290       0.17500000 </v>
   <v>       0.43181818       0.45161290       0.17500000 </v>
   <v>       0.47727273       0.45161290       0.17500000 </v>
   <v>       0.02272727       0.48387097       0.17500000 </v>
   <v>       0.06818182       0.48387097       0.17500000 </v>
   <v>       0.11363636       0.48387097       0.17500000 </v>
   <v>       0.15909091       0.48387097       0.17500000 </v>
   <v>       0.20454545       0.48387097       0.17500000 </v>
   <v>       0.25000000       0.48387097       0.17500000 </v>
   <v>       0.29545455       0.48387097       0.17500000 </v>
   <v>       0.34090909       0.48387097       0.17500000 </v>
   <v>       0.38636364       0.48387097       0.17500000 </v>
   <v>       0.43181818       0.48387097       0.17500000 </v>
   <v>       0.47727273       0.48387097       0.17500000 </v>
   <v>       0.02272727       0.00000000       0.22500000 </v>
   <v>       0.06818182       0.00000000       0.22500000 </v>
   <v>       0.11363636       0.00000000       0.22500000 </v>
   <v>       0.15909091       0.00000000       0.22500000 </v>
   <v>       0.20454545       0.00000000       0.22500000 </v>
   <v>       0.25000000       0.00000000       0.22500000 </v>
   <v>       0.29545455       0.00000000       0.22500000 </v>
   <v>       0.34090909       0.00000000       0.22500000 </v>
   <v>       0.38636364       0.00000000       0.22500000 </v>
   <v>       0.43181818       0.00000000       0.22500000 </v>
   <v>       0.47727273       0.00000000       0.22500000 </v>
   <v>       0.02272727       0.03225806       0.22500000 </v>
   <v>       0.06818182       0.03225806       0.22500000 </v>
   <v>       0.11363636       0.03225806       0.22500000 </v>
   <v>       0.15909091       0.03225806       0.22500000 </v>
   <v>       0.20454545       0.03225806       0.22500000 </v>
   <v>       0.25000000       0.03225806       0.22500000 </v>
   <v>       0.29545455       0.03225806       0.22500000 </v>
   <v>       0.34090909       0.03225806       0.22500000 </v>
   <v>       0.38636364       0.03225806       0.22500000 </v>
   <v>       0.43181818       0.03225806       0.22500000 </v>
   <v>       0.47727273       0.03225806       0.22500000 </v>
   <v>       0.02272727       0.06451613       0.22500000 </v>
   <v>       0.06818182       0.06451613       0.22500000 </v>
   <v>       0.11363636       0.06451613       0.22500000 </v>
   <v>       0.15909091       0.06451613       0.22500000 </v>
   <v>       0.20454545       0.06451613       0.22500000 </v>
   <v>       0.25000000       0.06451613       0.22500000 </v>
   <v>       0.29545455       0.06451613       0.22500000 </v>
   <v>       0.34090909       0.06451613       0.22500000 </v>
   <v>       0.38636364       0.06451613       0.22500000 </v>
   <v>       0.43181818       0.06451613       0.22500000 </v>
   <v>       0.47727273       0.06451613       0.22500000 </v>
   <v>       0.02272727       0.09677419       0.22500000 </v>
   <v>       0.06818182       0.09677419       0.22500000 </v>
   <v>       0.11363636       0.09677419       0.22500000 </v>
   <v>       0.15909091       0.09677419       0.22500000 </v>
   <v>       0.20454545       0.09677419       0.22500000 </v>
   <v>       0.25000000       0.09677419       0.22500000 </v>
   <v>       0.29545455       0.09677419       0.22500000 </v>
   <v>       0.34090909       0.09677419       0.22500000 </v>
   <v>       0.38636364       0.09677419       0.22500000 </v>
   <v>       0.43181818       0.09677419       0.22500000 </v>
   <v>       0.47727273       0.09677419       0.22500000 </v>
   <v>       0.02272727       0.12903226       0.22500000 </v>
   <v>       0.06818182       0.12903226       0.22500000 </v>
   <v>       0.11363636       0.12903226       0.22500000 </v>
   <v>       0.15909091       0.12903226       0.22500000 </v>
   <v>       0.20454545       0.12903226       0.22500000 </v>
   <v>       0.25000000       0.12903226       0.22500000 </v>
   <v>       0.29545455       0.12903226       0.22500000 </v>
   <v>       0.34090909       0.12903226       0.22500000 </v>
   <v>       0.38636364       0.12903226       0.22500000 </v>
   <v>       0.43181818       0.12903226       0.22500000 </v>
   <v>       0.47727273       0.12903226       0.22500000 </v>
   <v>       0.02272727       0.16129032       0.22500000 </v>
   <v>       0.06818182       0.16129032       0.22500000 </v>
   <v>       0.11363636       0.16129032       0.22500000 </v>
   <v>       0.15909091       0.16129032       0.22500000 </v>
   <v>       0.20454545       0.16129032       0.22500000 </v>
   <v>       0.25000000       0.16129032       0.22500000 </v>
   <v>       0.29545455       0.16129032       0.22500000 </v>
   <v>       0.34090909       0.16129032       0.22500000 </v>
   <v>       0.38636364       0.16129032       0.22500000 </v>
   <v>       0.43181818       0.16129032       0.22500000 </v>
   <v>       0.47727273       0.16129032       0.22500000 </v>
   <v>       0.02272727       0.19354839       0.22500000 </v>
   <v>       0.06818182       0.19354839       0.22500000 </v>
   <v>       0.11363636       0.19354839       0.22500000 </v>
   <v>       0.15909091       0.19354839       0.22500000 </v>
   <v>       0.20454545       0.19354839       0.22500000 </v>
   <v>       0.25000000       0.19354839       0.22500000 </v>
   <v>       0.29545455       0.19354839       0.22500000 </v>
   <v>       0.34090909       0.19354839       0.22500000 </v>
   <v>       0.38636364       0.19354839       0.22500000 </v>
   <v>       0.43181818       0.19354839       0.22500000 </v>
   <v>       0.47727273       0.19354839       0.22500000 </v>
   <v>       0.02272727       0.22580645       0.22500000 </v>
   <v>       0.06818182       0.22580645       0.22500000 </v>
   <v>       0.11363636       0.22580645       0.22500000 </v>
   <v>       0.15909091       0.22580645       0.22500000 </v>
   <v>       0.20454545       0.22580645       0.22500000 </v>
   <v>       0.25000000       0.22580645       0.22500000 </v>
   <v>       0.29545455       0.22580645       0.22500000 </v>
   <v>       0.34090909       0.22580645       0.22500000 </v>
   <v>       0.38636364       0.22580645       0.22500000 </v>
   <v>       0.43181818       0.22580645       0.22500000 </v>
   <v>       0.47727273       0.22580645       0.22500000 </v>
   <v>       0.02272727       0.25806452       0.22500000 </v>
   <v>       0.06818182       0.25806452       0.22500000 </v>
   <v>       0.11363636       0.25806452       0.22500000 </v>
   <v>       0.15909091       0.25806452       0.22500000 </v>
   <v>       0.20454545       0.25806452       0.22500000 </v>
   <v>       0.25000000       0.25806452       0.22500000 </v>
   <v>       0.29545455       0.25806452       0.22500000 </v>
   <v>       0.34090909       0.25806452       0.22500000 </v>
   <v>       0.38636364       0.25806452       0.22500000 </v>
   <v>       0.43181818       0.25806452       0.22500000 </v>
   <v>       0.47727273       0.25806452       0.22500000 </v>
   <v>       0.02272727       0.29032258       0.22500000 </v>
   <v>       0.06818182       0.29032258       0.22500000 </v>
   <v>       0.11363636       0.29032258       0.22500000 </v>
   <v>       0.15909091       0.29032258       0.22500000 </v>
   <v>       0.20454545       0.29032258       0.22500000 </v>
   <v>       0.25000000       0.29032258       0.22500000 </v>
   <v>       0.29545455       0.29032258       0.22500000 </v>
   <v>       0.34090909       0.29032258       0.22500000 </v>
   <v>       0.38636364       0.29032258       0.22500000 </v>
   <v>       0.43181818       0.29032258       0.22500000 </v>
   <v>       0.47727273       0.29032258       0.22500000 </v>
   <v>       0.02272727       0.32258065       0.22500000 </v>
   <v>       0.06818182       0.32258065       0.22500000 </v>
   <v>       0.11363636       0.32258065       0.22500000 </v>
   <v>       0.15909091       0.32258065       0.22500000 </v>
   <v>       0.20454545       0.32258065       0.22500000 </v>
   <v>       0.25000000       0.32258065       0.22500000 </v>
   <v>       0.29545455       0.32258065       0.22500000 </v>
   <v>       0.34090909       0.32258065       0.22500000 </v>
   <v>       0.38636364       0.32258065       0.22500000 </v>
   <v>       0.43181818       0.32258065       0.22500000 </v>
   <v>       0.47727273       0.32258065       0.22500000 </v>
   <v>       0.02272727       0.35483871       0.22500000 </v>
   <v>       0.06818182       0.35483871       0.22500000 </v>
   <v>       0.11363636       0.35483871       0.22500000 </v>
   <v>       0.15909091       0.35483871       0.22500000 </v>
   <v>       0.20454545       0.35483871       0.22500000 </v>
   <v>       0.25000000       0.35483871       0.22500000 </v>
   <v>       0.29545455       0.35483871       0.22500000 </v>
   <v>       0.34090909       0.35483871       0.22500000 </v>
   <v>       0.38636364       0.35483871       0.22500000 </v>
   <v>       0.43181818       0.35483871       0.22500000 </v>
   <v>       0.47727273       0.35483871       0.22500000 </v>
   <v>       0.02272727       0.38709677       0.22500000 </v>
   <v>       0.06818182       0.38709677       0.22500000 </v>
   <v>       0.11363636       0.38709677       0.22500000 </v>
   <v>       0.15909091       0.38709677       0.22500000 </v>
   <v>       0.20454545       0.38709677       0.22500000 </v>
   <v>       0.25000000       0.38709677       0.22500000 </v>
   <v>       0.29545455       0.38709677       0.22500000 </v>
   <v>       0.34090909       0.38709677       0.22500000 </v>
   <v>       0.38636364       0.38709677       0.22500000 </v>
   <v>       0.43181818       0.38709677       0.22500000 </v>
   <v>       0.47727273       0.38709677       0.22500000 </v>
   <v>       0.02272727       0.41935484       0.22500000 </v>
   <v>       0.06818182       0.41935484       0.22500000 </v>
   <v>       0.11363636       0.41935484       0.22500000 </v>
   <v>       0.15909091       0.41935484       0.22500000 </v>
   <v>       0.20454545       0.41935484       0.22500000 </v>
   <v>       0.25000000       0.41935484       0.22500000 </v>
   <v>       0.29545455       0.41935484       0.22500000 </v>
   <v>       0.34090909       0.41935484       0.22500000 </v>
   <v>       0.38636364       0.41935484       0.22500000 </v>
   <v>       0.43181818       0.41935484       0.22500000 </v>
   <v>       0.47727273       0.41935484       0.22500000 </v>
   <v>       0.02272727       0.45161290       0.22500000 </v>
   <v>       0.06818182       0.45161290       0.22500000 </v>
   <v>       0.11363636       0.45161290       0.22500000 </v>
   <v>       0.15909091       0.45161290       0.22500000 </v>
   <v>       0.20454545       0.45161290       0.22500000 </v>
   <v>       0.25000000       0.45161290       0.22500000 </v>
   <v>       0.29545455       0.45161290       0.22500000 </v>
   <v>       0.34090909       0.45161290       0.22500000 </v>
   <v>       0.38636364       0.45161290       0.22500000 </v>
   <v>       0.43181818       0.45161290       0.22500000 </v>
   <v>       0.47727273       0.45161290       0.22500000 </v>
   <v>       0.02272727       0.48387097       0.22500000 </v>
   <v>       0.06818182       0.48387097       0.22500000 </v>
   <v>       0.11363636       0.48387097       0.22500000 </v>
   <v>       0.15909091       0.48387097       0.22500000 </v>
   <v>       0.20454545       0.48387097       0.22500000 </v>
   <v>       0.25000000       0.48387097       0.22500000 </v>
   <v>       0.29545455       0.48387097       0.22500000 </v>
   <v>       0.34090909       0.48387097       0.22500000 </v>
   <v>       0.38636364       0.48387097       0.22500000 </v>
   <v>       0.43181818       0.48387097       0.22500000 </v>
   <v>       0.47727273       0.48387097       0.22500000 </v>
   <v>       0.02272727       0.00000000       0.27500000 </v>
   <v>       0.06818182       0.00000000       0.27500000 </v>
   <v>       0.11363636       0.00000000       0.27500000 </v>
   <v>       0.15909091       0.00000000       0.27500000 </v>
   <v>       0.20454545       0.00000000       0.27500000 </v>
   <v>       0.25000000       0.00000000       0.27500000 </v>
   <v>       0.29545455       0.00000000       0.27500000 </v>
   <v>       0.34090909       0.00000000       0.27500000 </v>
   <v>       0.38636364       0.00000000       0.27500000 </v>
   <v>       0.43181818       0.00000000       0.27500000 </v>
   <v>       0.47727273       0.00000000       0.27500000 </v>
   <v>       0.02272727       0.03225806       0.27500000 </v>
   <v>       0.06818182       0.03225806       0.27500000 </v>
   <v>       0.11363636       0.03225806       0.27500000 </v>
   <v>       0.15909091       0.03225806       0.27500000 </v>
   <v>       0.20454545       0.03225806       0.27500000 </v>
   <v>       0.25000000       0.03225806       0.27500000 </v>
   <v>       0.29545455       0.03225806       0.27500000 </v>
   <v>       0.34090909       0.03225806       0.27500000 </v>
   <v>       0.38636364       0.03225806       0.27500000 </v>
   <v>       0.43181818       0.03225806       0.27500000 </v>
   <v>       0.47727273       0.03225806       0.27500000 </v>
   <v>       0.02272727       0.06451613       0.27500000 </v>
   <v>       0.06818182       0.06451613       0.27500000 </v>
   <v>       0.11363636       0.06451613       0.27500000 </v>
   <v>       0.15909091       0.06451613       0.27500000 </v>
   <v>       0.20454545       0.06451613       0.27500000 </v>
   <v>       0.25000000       0.06451613       0.27500000 </v>
   <v>       0.29545455       0.06451613       0.27500000 </v>
   <v>       0.34090909       0.06451613       0.27500000 </v>
   <v>       0.38636364       0.06451613       0.27500000 </v>
   <v>       0.43181818       0.06451613       0.27500000 </v>
   <v>       0.47727273       0.06451613       0.27500000 </v>
   <v>       0.02272727       0.09677419       0.27500000 </v>
   <v>       0.06818182       0.09677419       0.27500000 </v>
   <v>       0.11363636       0.09677419       0.27500000 </v>
   <v>       0.15909091       0.09677419       0.27500000 </v>
   <v>       0.20454545       0.09677419       0.27500000 </v>
   <v>       0.25000000       0.09677419       0.27500000 </v>
   <v>       0.29545455       0.09677419       0.27500000 </v>
   <v>       0.34090909       0.09677419       0.27500000 </v>
   <v>       0.38636364       0.09677419       0.27500000 </v>
   <v>       0.43181818       0.09677419       0.27500000 </v>
   <v>       0.47727273       0.09677419       0.27500000 </v>
   <v>       0.02272727       0.12903226       0.27500000 </v>
   <v>       0.06818182       0.12903226       0.27500000 </v>
   <v>       0.11363636       0.12903226       0.27500000 </v>
   <v>       0.15909091       0.12903226       0.27500000 </v>
   <v>       0.20454545       0.12903226       0.27500000 </v>
   <v>       0.25000000       0.12903226       0.27500000 </v>
   <v>       0.29545455       0.12903226       0.27500000 </v>
   <v>       0.34090909       0.12903226       0.27500000 </v>
   <v>       0.38636364       0.12903226       0.27500000 </v>
   <v>       0.43181818       0.12903226       0.27500000 </v>
   <v>       0.47727273       0.12903226       0.27500000 </v>
   <v>       0.02272727       0.16129032       0.27500000 </v>
   <v>       0.06818182       0.16129032       0.27500000 </v>
   <v>       0.11363636       0.16129032       0.27500000 </v>
   <v>       0.15909091       0.16129032       0.27500000 </v>
   <v>       0.20454545       0.16129032       0.27500000 </v>
   <v>       0.25000000       0.16129032       0.27500000 </v>
   <v>       0.29545455       0.16129032       0.27500000 </v>
   <v>       0.34090909       0.16129032       0.27500000 </v>
   <v>       0.38636364       0.16129032       0.27500000 </v>
   <v>       0.43181818       0.16129032       0.27500000 </v>
   <v>       0.47727273       0.16129032       0.27500000 </v>
   <v>       0.02272727       0.19354839       0.27500000 </v>
   <v>       0.06818182       0.19354839       0.27500000 </v>
   <v>       0.11363636       0.19354839       0.27500000 </v>
   <v>       0.15909091       0.19354839       0.27500000 </v>
   <v>       0.20454545       0.19354839       0.27500000 </v>
   <v>       0.25000000       0.19354839       0.27500000 </v>
   <v>       0.29545455       0.19354839       0.27500000 </v>
   <v>       0.34090909       0.19354839       0.27500000 </v>
   <v>       0.38636364       0.19354839       0.27500000 </v>
   <v>       0.43181818       0.19354839       0.27500000 </v>
   <v>       0.47727273       0.19354839       0.27500000 </v>
   <v>       0.02272727       0.22580645       0.27500000 </v>
   <v>       0.06818182       0.22580645       0.27500000 </v>
   <v>       0.11363636       0.22580645       0.27500000 </v>
   <v>       0.15909091       0.22580645       0.27500000 </v>
   <v>       0.20454545       0.22580645       0.27500000 </v>
   <v>       0.25000000       0.22580645       0.27500000 </v>
   <v>       0.29545455       0.22580645       0.27500000 </v>
   <v>       0.34090909       0.22580645       0.27500000 </v>
   <v>       0.38636364       0.22580645       0.27500000 </v>
   <v>       0.43181818       0.22580645       0.27500000 </v>
   <v>       0.47727273       0.22580645       0.27500000 </v>
   <v>       0.02272727       0.25806452       0.27500000 </v>
   <v>       0.06818182       0.25806452       0.27500000 </v>
   <v>       0.11363636       0.25806452       0.27500000 </v>
   <v>       0.15909091       0.25806452       0.27500000 </v>
   <v>       0.20454545       0.25806452       0.27500000 </v>
   <v>       0.25000000       0.25806452       0.27500000 </v>
   <v>       0.29545455       0.25806452       0.27500000 </v>
   <v>       0.34090909       0.25806452       0.27500000 </v>
   <v>       0.38636364       0.25806452       0.27500000 </v>
   <v>       0.43181818       0.25806452       0.27500000 </v>
   <v>       0.47727273       0.25806452       0.27500000 </v>
   <v>       0.02272727       0.29032258       0.27500000 </v>
   <v>       0.06818182       0.29032258       0.27500000 </v>
   <v>       0.11363636       0.29032258       0.27500000 </v>
   <v>       0.15909091       0.29032258       0.27500000 </v>
   <v>       0.20454545       0.29032258       0.27500000 </v>
   <v>       0.25000000       0.29032258       0.27500000 </v>
   <v>       0.29545455       0.29032258       0.27500000 </v>
   <v>       0.34090909       0.29032258       0.27500000 </v>
   <v>       0.38636364       0.29032258       0.27500000 </v>
   <v>       0.43181818       0.29032258       0.27500000 </v>
   <v>       0.47727273       0.29032258       0.27500000 </v>
   <v>       0.02272727       0.32258065       0.27500000 </v>
   <v>       0.06818182       0.32258065       0.27500000 </v>
   <v>       0.11363636       0.32258065       0.27500000 </v>
   <v>       0.15909091       0.32258065       0.27500000 </v>
   <v>       0.20454545       0.32258065       0.27500000 </v>
   <v>       0.25000000       0.32258065       0.27500000 </v>
   <v>       0.29545455       0.32258065       0.27500000 </v>
   <v>       0.34090909       0.32258065       0.27500000 </v>
   <v>       0.38636364       0.32258065       0.27500000 </v>
   <v>       0.43181818       0.32258065       0.27500000 </v>
   <v>       0.47727273       0.32258065       0.27500000 </v>
   <v>       0.02272727       0.35483871       0.27500000 </v>
   <v>       0.06818182       0.35483871       0.27500000 </v>
   <v>       0.11363636       0.35483871       0.27500000 </v>
   <v>       0.15909091       0.35483871       0.27500000 </v>
   <v>       0.20454545       0.35483871       0.27500000 </v>
   <v>       0.25000000       0.35483871       0.27500000 </v>
   <v>       0.29545455       0.35483871       0.27500000 </v>
   <v>       0.34090909       0.35483871       0.27500000 </v>
   <v>       0.38636364       0.35483871       0.27500000 </v>
   <v>       0.43181818       0.35483871       0.27500000 </v>
   <v>       0.47727273       0.35483871       0.27500000 </v>
   <v>       0.02272727       0.38709677       0.27500000 </v>
   <v>       0.06818182       0.38709677       0.27500000 </v>
   <v>       0.11363636       0.38709677       0.27500000 </v>
   <v>       0.15909091       0.38709677       0.27500000 </v>
   <v>       0.20454545       0.38709677       0.27500000 </v>
   <v>       0.25000000       0.38709677       0.27500000 </v>
   <v>       0.29545455       0.38709677       0.27500000 </v>
   <v>       0.34090909       0.38709677       0.27500000 </v>
   <v>       0.38636364       0.38709677       0.27500000 </v>
   <v>       0.43181818       0.38709677       0.27500000 </v>
   <v>       0.47727273       0.38709677       0.27500000 </v>
   <v>       0.02272727       0.41935484       0.27500000 </v>
   <v>       0.06818182       0.41935484       0.27500000 </v>
   <v>       0.11363636       0.41935484       0.27500000 </v>
   <v>       0.15909091       0.41935484       0.27500000 </v>
   <v>       0.20454545       0.41935484       0.27500000 </v>
   <v>       0.25000000       0.41935484       0.27500000 </v>
   <v>       0.29545455       0.41935484       0.27500000 </v>
   <v>       0.34090909       0.41935484       0.27500000 </v>
   <v>       0.38636364       0.41935484       0.27500000 </v>
   <v>       0.43181818       0.41935484       0.27500000 </v>
   <v>       0.47727273       0.41935484       0.27500000 </v>
   <v>       0.02272727       0.45161290       0.27500000 </v>
   <v>       0.06818182       0.45161290       0.27500000 </v>
   <v>       0.11363636       0.45161290       0.27500000 </v>
   <v>       0.15909091       0.45161290       0.27500000 </v>
   <v>       0.20454545       0.45161290       0.27500000 </v>
   <v>       0.25000000       0.45161290       0.27500000 </v>
   <v>       0.29545455       0.45161290       0.27500000 </v>
   <v>       0.34090909       0.45161290       0.27500000 </v>
   <v>       0.38636364       0.45161290       0.27500000 </v>
   <v>       0.43181818       0.45161290       0.27500000 </v>
   <v>       0.47727273       0.45161290       0.27500000 </v>
   <v>       0.02272727       0.48387097       0.27500000 </v>
   <v>       0.06818182       0.48387097       0.27500000 </v>
   <v>       0.11363636       0.48387097       0.27500000 </v>
   <v>       0.15909091       0.48387097       0.27500000 </v>
   <v>       0.20454545       0.48387097       0.27500000 </v>
   <v>       0.25000000       0.48387097       0.27500000 </v>
   <v>       0.29545455       0.48387097       0.27500000 </v>
   <v>       0.34090909       0.48387097       0.27500000 </v>
   <v>       0.38636364       0.48387097       0.27500000 </v>
   <v>       0.43181818       0.48387097       0.27500000 </v>
   <v>       0.47727273       0.48387097       0.27500000 </v>
   <v>       0.02272727       0.00000000       0.32500000 </v>
   <v>       0.06818182       0.00000000       0.32500000 </v>
   <v>       0.11363636       0.00000000       0.32500000 </v>
   <v>       0.15909091       0.00000000       0.32500000 </v>
   <v>       0.20454545       0.00000000       0.32500000 </v>
   <v>       0.25000000       0.00000000       0.32500000 </v>
   <v>       0.29545455       0.00000000       0.32500000 </v>
   <v>       0.34090909       0.00000000       0.32500000 </v>
   <v>       0.38636364       0.00000000       0.32500000 </v>
   <v>       0.43181818       0.00000000       0.32500000 </v>
   <v>       0.47727273       0.00000000       0.32500000 </v>
   <v>       0.02272727       0.03225806       0.32500000 </v>
   <v>       0.06818182       0.03225806       0.32500000 </v>
   <v>       0.11363636       0.03225806       0.32500000 </v>
   <v>       0.15909091       0.03225806       0.32500000 </v>
   <v>       0.20454545       0.03225806       0.32500000 </v>
   <v>       0.25000000       0.03225806       0.32500000 </v>
   <v>       0.29545455       0.03225806       0.32500000 </v>
   <v>       0.34090909       0.03225806       0.32500000 </v>
   <v>       0.38636364       0.03225806       0.32500000 </v>
   <v>       0.43181818       0.03225806       0.32500000 </v>
   <v>       0.47727273       0.03225806       0.32500000 </v>
   <v>       0.02272727       0.06451613       0.32500000 </v>
   <v>       0.06818182       0.06451613       0.32500000 </v>
   <v>       0.11363636       0.06451613       0.32500000 </v>
   <v>       0.15909091       0.06451613       0.32500000 </v>
   <v>       0.20454545       0.06451613       0.32500000 </v>
   <v>       0.25000000       0.06451613       0.32500000 </v>
   <v>       0.29545455       0.06451613       0.32500000 </v>
   <v>       0.34090909       0.06451613       0.32500000 </v>
   <v>       0.38636364       0.06451613       0.32500000 </v>
   <v>       0.43181818       0.06451613       0.32500000 </v>
   <v>       0.47727273       0.06451613       0.32500000 </v>
   <v>       0.02272727       0.09677419       0.32500000 </v>
   <v>       0.06818182       0.09677419       0.32500000 </v>
   <v>       0.11363636       0.09677419       0.32500000 </v>
   <v>       0.15909091       0.09677419       0.32500000 </v>
   <v>       0.20454545       0.09677419       0.32500000 </v>
   <v>       0.25000000       0.09677419       0.32500000 </v>
   <v>       0.29545455       0.09677419       0.32500000 </v>
   <v>       0.34090909       0.09677419       0.32500000 </v>
   <v>       0.38636364       0.09677419       0.32500000 </v>
   <v>       0.43181818       0.09677419       0.32500000 </v>
   <v>       0.47727273       0.09677419       0.32500000 </v>
   <v>       0.02272727       0.12903226       0.32500000 </v>
   <v>       0.06818182       0.12903226       0.32500000 </v>
   <v>       0.11363636       0.12903226       0.32500000 </v>
   <v>       0.15909091       0.12903226       0.32500000 </v>
   <v>       0.20454545       0.12903226       0.32500000 </v>
   <v>       0.25000000       0.12903226       0.32500000 </v>
   <v>       0.29545455       0.12903226       0.32500000 </v>
   <v>       0.34090909       0.12903226       0.32500000 </v>
   <v>       0.38636364       0.12903226       0.32500000 </v>
   <v>       0.43181818       0.12903226       0.32500000 </v>
   <v>       0.47727273       0.12903226       0.32500000 </v>
   <v>       0.02272727       0.16129032       0.32500000 </v>
   <v>       0.06818182       0.16129032       0.32500000 </v>
   <v>       0.11363636       0.16129032       0.32500000 </v>
   <v>       0.15909091       0.16129032       0.32500000 </v>
   <v>       0.20454545       0.16129032       0.32500000 </v>
   <v>       0.25000000       0.16129032       0.32500000 </v>
   <v>       0.29545455       0.16129032       0.32500000 </v>
   <v>       0.34090909       0.16129032       0.32500000 </v>
   <v>       0.38636364       0.16129032       0.32500000 </v>
   <v>       0.43181818       0.16129032       0.32500000 </v>
   <v>       0.47727273       0.16129032       0.32500000 </v>
   <v>       0.02272727       0.19354839       0.32500000 </v>
   <v>       0.06818182       0.19354839       0.32500000 </v>
   <v>       0.11363636       0.19354839       0.32500000 </v>
   <v>       0.15909091       0.19354839       0.32500000 </v>
   <v>       0.20454545       0.19354839       0.32500000 </v>
   <v>       0.25000000       0.19354839       0.32500000 </v>
   <v>       0.29545455       0.19354839       0.32500000 </v>
   <v>       0.34090909       0.19354839       0.32500000 </v>
   <v>       0.38636364       0.19354839       0.32500000 </v>
   <v>       0.43181818       0.19354839       0.32500000 </v>
   <v>       0.47727273       0.19354839       0.32500000 </v>
   <v>       0.02272727       0.22580645       0.32500000 </v>
   <v>       0.06818182       0.22580645       0.32500000 </v>
   <v>       0.11363636       0.22580645       0.32500000 </v>
   <v>       0.15909091       0.22580645       0.32500000 </v>
   <v>       0.20454545       0.22580645       0.32500000 </v>
   <v>       0.25000000       0.22580645       0.32500000 </v>
   <v>       0.29545455       0.22580645       0.32500000 </v>
   <v>       0.34090909       0.22580645       0.32500000 </v>
   <v>       0.38636364       0.22580645       0.32500000 </v>
   <v>       0.43181818       0.22580645       0.32500000 </v>
   <v>       0.47727273       0.22580645       0.32500000 </v>
   <v>       0.02272727       0.25806452       0.32500000 </v>
   <v>       0.06818182       0.25806452       0.32500000 </v>
   <v>       0.11363636       0.25806452       0.32500000 </v>
   <v>       0.15909091       0.25806452       0.32500000 </v>
   <v>       0.20454545       0.25806452       0.32500000 </v>
   <v>       0.25000000       0.25806452       0.32500000 </v>
   <v>       0.29545455       0.25806452       0.32500000 </v>
   <v>       0.34090909       0.25806452       0.32500000 </v>
   <v>       0.38636364       0.25806452       0.32500000 </v>
   <v>       0.43181818       0.25806452       0.32500000 </v>
   <v>       0.47727273       0.25806452       0.32500000 </v>
   <v>       0.02272727       0.29032258       0.32500000 </v>
   <v>       0.06818182       0.29032258       0.32500000 </v>
   <v>       0.11363636       0.29032258       0.32500000 </v>
   <v>       0.15909091       0.29032258       0.32500000 </v>
   <v>       0.20454545       0.29032258       0.32500000 </v>
   <v>       0.25000000       0.29032258       0.32500000 </v>
   <v>       0.29545455       0.29032258       0.32500000 </v>
   <v>       0.34090909       0.29032258       0.32500000 </v>
   <v>       0.38636364       0.29032258       0.32500000 </v>
   <v>       0.43181818       0.29032258       0.32500000 </v>
   <v>       0.47727273       0.29032258       0.32500000 </v>
   <v>       0.02272727       0.32258065       0.32500000 </v>
   <v>       0.06818182       0.32258065       0.32500000 </v>
   <v>       0.11363636       0.32258065       0.32500000 </v>
   <v>       0.15909091       0.32258065       0.32500000 </v>
   <v>       0.20454545       0.32258065       0.32500000 </v>
   <v>       0.25000000       0.32258065       0.32500000 </v>
   <v>       0.29545455       0.32258065       0.32500000 </v>
   <v>       0.34090909       0.32258065       0.32500000 </v>
   <v>       0.38636364       0.32258065       0.32500000 </v>
   <v>       0.43181818       0.32258065       0.32500000 </v>
   <v>       0.47727273       0.32258065       0.32500000 </v>
   <v>       0.02272727       0.35483871       0.32500000 </v>
   <v>       0.06818182       0.35483871       0.32500000 </v>
   <v>       0.11363636       0.35483871       0.32500000 </v>
   <v>       0.15909091       0.35483871       0.32500000 </v>
   <v>       0.20454545       0.35483871       0.32500000 </v>
   <v>       0.25000000       0.35483871       0.32500000 </v>
   <v>       0.29545455       0.35483871       0.32500000 </v>
   <v>       0.34090909       0.35483871       0.32500000 </v>
   <v>       0.38636364       0.35483871       0.32500000 </v>
   <v>       0.43181818       0.35483871       0.32500000 </v>
   <v>       0.47727273       0.35483871       0.32500000 </v>
   <v>       0.02272727       0.38709677       0.32500000 </v>
   <v>       0.06818182       0.38709677       0.32500000 </v>
   <v>       0.11363636       0.38709677       0.32500000 </v>
   <v>       0.15909091       0.38709677       0.32500000 </v>
   <v>       0.20454545       0.38709677       0.32500000 </v>
   <v>       0.25000000       0.38709677       0.32500000 </v>
   <v>       0.29545455       0.38709677       0.32500000 </v>
   <v>       0.34090909       0.38709677       0.32500000 </v>
   <v>       0.38636364       0.38709677       0.32500000 </v>
   <v>       0.43181818       0.38709677       0.32500000 </v>
   <v>       0.47727273       0.38709677       0.32500000 </v>
   <v>       0.02272727       0.41935484       0.32500000 </v>
   <v>       0.06818182       0.41935484       0.32500000 </v>
   <v>       0.11363636       0.41935484       0.32500000 </v>
   <v>       0.15909091       0.41935484       0.32500000 </v>
   <v>       0.20454545       0.41935484       0.32500000 </v>
   <v>       0.25000000       0.41935484       0.32500000 </v>
   <v>       0.29545455       0.41935484       0.32500000 </v>
   <v>       0.34090909       0.41935484       0.32500000 </v>
   <v>       0.38636364       0.41935484       0.32500000 </v>
[...]
   <i type="int" name="NBANDS">    48</i>
   <i type="int" name="NBANDSLOW">    -1</i>
   <i type="int" name="NBANDSHIGH">    -1</i>
   <i name="NELECT">     42.00000000</i>
   <i type="int" name="TURBO">     0</i>
   <i type="int" name="IRESTART">     0</i>
   <i type="int" name="NREBOOT">     0</i>
   <i type="int" name="NMIN">     0</i>
   <i name="EREF">      0.00000000</i>
   <separator name="electronic smearing" >
    <i type="int" name="ISMEAR">     0</i>
    <i name="SIGMA">      0.05000000</i>
    <i name="KSPACING">      0.50000000</i>
    <i type="logical" name="KGAMMA"> T  </i>
    <i type="logical" name="KBLOWUP"> T  </i>
   </separator>
   <separator name="electronic projectors" >
    <i type="logical" name="LREAL"> F  </i>
    <v name="ROPT">      0.00000000</v>
    <i type="int" name="LMAXPAW">  -100</i>
    <i type="int" name="LMAXMIX">     2</i>
    <i type="logical" name="NLSPLINE"> F  </i>
   </separator>
   <separator name="electronic startup" >
    <i type="int" name="ISTART">     0</i>
    <i type="int" name="ICHARG">     2</i>
    <i type="int" name="INIWAV">     1</i>
   </separator>
   <separator name="electronic spin" >
    <i type="int" name="ISPIN">     1</i>
    <i type="logical" name="LNONCOLLINEAR"> F  </i>
    <v name="MAGMOM">      1.00000000      1.00000000      1.00000000      1.00000000      1.00000000      1.00000000      1.00000000      1.00000000      1.00000000      1.00000000      1.00000000      1.00000000      1.00000000      1.00000000</v>
    <i name="NUPDOWN">     -1.00000000</i>
    <i type="logical" name="LSORBIT"> F  </i>
    <v name="SAXIS">      0.00000000      0.00000000      1.00000000</v>
    <i type="logical" name="LSPIRAL"> F  </i>
    <v name="QSPIRAL">      0.00000000      0.00000000      0.00000000</v>
    <i type="logical" name="LZEROZ"> F  </i>
   </separator>
   <separator name="electronic exchange-correlation" >
    <i type="logical" name="LASPH"> F  </i>
   </separator>
   <separator name="electronic convergence" >
    <i type="int" name="NELM">   100</i>
    <i type="int" name="NELMDL">    -5</i>
    <i type="int" name="NELMIN">     2</i>
    <i name="ENINI">    450.00000000</i>
    <separator name="electronic convergence detail" >
     <i type="logical" name="LDIAG"> T  </i>
     <i type="logical" name="LSUBROT"> F  </i>
     <i name="WEIMIN">      0.00000000</i>
     <i name="EBREAK">      0.00000001</i>
     <i name="DEPER">      0.30000000</i>
     <i type="int" name="NRMM">     4</i>
     <i name="TIME">      0.40000000</i>
    </separator>
   </separator>
   <separator name="electronic mixer" >
    <i name="AMIX">      0.40000000</i>
    <i name="BMIX">      1.00000000</i>
    <i name="AMIN">      0.10000000</i>
    <i name="AMIX_MAG">      1.60000000</i>
    <i name="BMIX_MAG">      1.00000000</i>
    <separator name="electronic mixer details" >
     <i type="int" name="IMIX">     4</i>
     <i type="logical" name="MIXFIRST"> F  </i>
     <i type="int" name="MAXMIX">   -45</i>
     <i name="WC">    100.00000000</i>
     <i type="int" name="INIMIX">     1</i>
     <i type="int" name="MIXPRE">     1</i>
     <i type="int" name="MREMOVE">     5</i>
    </separator>
   </separator>
   <separator name="electronic dipolcorrection" >
    <i type="logical" name="LDIPOL"> F  </i>
    <i type="logical" name="LMONO"> F  </i>
    <i type="int" name="IDIPOL">     0</i>
    <i name="EPSILON">      1.00000000</i>
    <v name="DIPOL">   -100.00000000   -100.00000000   -100.00000000</v>
    <i name="EFIELD">      0.00000000</i>
    <i type="logical" name="LVACPOTAV"> F  </i>
   </separator>
  </separator>
  <separator name="grids" >
   <i type="int" name="NGX">    40</i>
   <i type="int" name="NGY">    28</i>
   <i type="int" name="NGZ">    48</i>
   <i type="int" name="NGXF">    80</i>
   <i type="int" name="NGYF">    56</i>
   <i type="int" name="NGZF">    96</i>
   <i type="logical" name="ADDGRID"> F  </i>
  </separator>
  <separator name="ionic" >
   <i type="int" name="NSW">     0</i>
   <i type="int" name="IBRION">    -1</i>
   <i type="int" name="MDALGO">     0</i>
   <i type="int" name="ISIF">     2</i>
   <i name="PSTRESS">      0.00000000</i>
   <i name="EDIFFG">     -0.00100000</i>
   <i type="int" name="NFREE">     0</i>
   <i name="POTIM">      0.50000000</i>
   <i name="SMASS">     -3.00000000</i>
   <i name="SCALEE">      1.00000000</i>
  </separator>
  <separator name="ionic md" >
   <i name="TEBEG">      0.00010000</i>
   <i name="TEEND">      0.00010000</i>
   <i type="int" name="NBLOCK">     1</i>
   <i type="int" name="KBLOCK">     1</i>
   <i type="int" name="NPACO">   256</i>
   <i name="APACO">     10.00000000</i>
  </separator>
  <separator name="symmetry" >
   <i type="int" name="ISYM">     2</i>
   <i name="SYMPREC">      0.00001000</i>
  </separator>
  <separator name="dos" >
   <i type="int" name="LORBIT">     0</i>
   <v name="RWIGS">     -1.00000000</v>
   <i type="int" name="NEDOS">   301</i>
   <i name="EMIN">     10.00000000</i>
   <i name="EMAX">    -10.00000000</i>
   <i name="EFERMI">      0.00000000</i>
  </separator>
  <separator name="writing" >
   <i type="int" name="NWRITE">     2</i>
   <i type="logical" name="LWAVE"> F  </i>
   <i type="logical" name="LDOWNSAMPLE"> F  </i>
   <i type="logical" name="LCHARG"> F  </i>
   <i type="logical" name="LPARD"> F  </i>
   <i type="logical" name="LVTOT"> F  </i>
   <i type="logical" name="LVHAR"> F  </i>
   <i type="logical" name="LELF"> F  </i>
   <i type="logical" name="LOPTICS"> F  </i>
   <v name="STM">      0.00000000      0.00000000      0.00000000      0.00000000      0.00000000      0.00000000      0.00000000</v>
  </separator>
  <separator name="performance" >
   <i type="int" name="NPAR">    24</i>
   <i type="int" name="NSIM">     4</i>
   <i type="int" name="NBLK">    -1</i>
   <i type="logical" name="LPLANE"> T  </i>
   <i type="logical" name="LSCALAPACK"> T  </i>
   <i type="logical" name="LSCAAWARE"> F  </i>
   <i type="logical" name="LSCALU"> F  </i>
   <i type="logical" name="LASYNC"> F  </i>
   <i type="logical" name="LORBITALREAL"> F  </i>
  </separator>
  <separator name="miscellaneous" >
   <i type="int" name="IDIOT">     3</i>
   <i type="int" name="PHON_NSTRUCT">    -1</i>
   <i type="logical" name="LMUSIC"> F  </i>
   <v name="POMASS">     10.81100000</v>
   <v name="DARWINR">      0.00000000</v>
   <v name="DARWINV">      1.00000000</v>
   <i type="logical" name="LCORR"> T  </i>
  </separator>
  <i type="logical" name="GGA_COMPAT"> T  </i>
  <i type="logical" name="LBERRY"> F  </i>
  <i type="int" name="ICORELEVEL">     0</i>
  <i type="logical" name="LDAU"> F  </i>
  <i type="int" name="I_CONSTRAINED_M">     0</i>
  <separator name="electronic exchange-correlation" >
   <i type="string" name="GGA    ">PE</i>
   <i type="string" name="XC_C">1</i>
   <i type="int" name="VOSKOWN">     0</i>
   <i type="logical" name="LHFCALC"> F  </i>
   <i type="string" name="PRECFOCK"></i>
   <i type="logical" name="LSYMGRAD"> F  </i>
   <i type="logical" name="LHFONE"> F  </i>
   <i type="logical" name="LRHFCALC"> F  </i>
   <i type="logical" name="LTHOMAS"> F  </i>
   <i type="logical" name="LMODELHF"> F  </i>
   <i type="logical" name="LFOCKACE"> F  </i>
   <i name="ENCUT4O">     -1.00000000</i>
   <i type="int" name="EXXOEP">     0</i>
   <i type="int" name="FOURORBIT">     0</i>
   <i name="AEXX">      0.00000000</i>
   <i name="HFALPHA">      0.00000000</i>
   <i name="MCALPHA">      0.00000000</i>
   <i name="ALDAX">      1.00000000</i>
   <i name="AGGAX">      1.00000000</i>
   <i name="AMGGAX">      1.00000000</i>
   <i name="ALDAC">      1.00000000</i>
   <i name="AGGAC">      1.00000000</i>
   <i name="AMGGAC">      1.00000000</i>
   <i type="int" name="NKREDX">     1</i>
   <i type="int" name="NKREDY">     1</i>
   <i type="int" name="NKREDZ">     1</i>
   <i type="logical" name="SHIFTRED"> F  </i>
   <i type="logical" name="ODDONLY"> F  </i>
   <i type="logical" name="EVENONLY"> F  </i>
   <i type="int" name="LMAXFOCK">     0</i>
   <i type="int" name="NMAXFOCKAE">     0</i>
   <i type="logical" name="LFOCKAEDFT"> F  </i>
   <i name="HFSCREEN">      0.00000000</i>
   <i name="HFSCREENC">      0.00000000</i>
   <i type="int" name="NBANDSGWLOW">     0</i>
  </separator>
  <separator name="vdW DFT" >
   <i type="logical" name="LUSE_VDW"> F  </i>
   <i type="int" name="IVDW_NL">    -1</i>
   <i type="logical" name="LSPIN_VDW"> F  </i>
   <i name="ZAB_VDW">     -0.84910000</i>
   <i name="GAMMA_VDW">      1.39626340</i>
   <i name="ALPHA_VDW">      0.00000000</i>
   <i name="PARAM1">      0.12340000</i>
   <i name="PARAM2">      1.00000000</i>
   <i name="BPARAM">      6.30000000</i>
   <i name="CPARAM">      0.00930000</i>
  </separator>
  <separator name="model GW" >
   <i type="int" name="MODEL_GW">     0</i>
   <i name="MODEL_EPS0">      6.13175789</i>
   <i name="MODEL_ALPHA">      1.00000000</i>
  </separator>
  <separator name="linear response parameters" >
   <i type="logical" name="LEPSILON"> F  </i>
   <i type="logical" name="LRPA"> F  </i>
   <i type="logical" name="LNABLA"> F  </i>
   <i type="logical" name="LVEL"> F  </i>
   <i name="CSHIFT">      0.10000000</i>
   <i name="OMEGAMAX">     -1.00000000</i>
   <i name="DEG_THRESHOLD">      0.00200000</i>
   <i name="RTIME">     -0.10000000</i>
   <i name="WPLASMAI">      0.00000000</i>
   <v name="DFIELD">      0.00000000      0.00000000      0.00000000</v>
   <v name="WPLASMA">      0.00000000      0.00000000      0.00000000      0.00000000      0.00000000      0.00000000      0.00000000      0.00000000      0.00000000</v>
  </separator>
  <separator name="orbital magnetization" >
   <i type="logical" name="NUCIND"> F  </i>
   <v name="MAGPOS">      0.00000000      0.00000000      0.00000000</v>
   <i type="logical" name="LNICSALL"> T  </i>
   <i type="logical" name="ORBITALMAG"> F  </i>
   <i type="logical" name="LMAGBLOCH"> F  </i>
   <i type="logical" name="LCHIMAG"> F  </i>
   <i type="logical" name="LGAUGE"> T  </i>
   <i type="int" name="MAGATOM">     0</i>
   <v name="MAGDIPOL">      0.00000000      0.00000000      0.00000000</v>
   <v name="AVECCONST">      0.00000000      0.00000000      0.00000000</v>
  </separator>
  <separator name="response functions" >
   <i type="logical" name="LALL_IN_ONE"> F  </i>
   <i type="int" name="IALL_IN_ONE">    -1</i>
   <i type="int" name="NBANDS_WAVE">    -1</i>
   <i type="logical" name="LFINITE_TEMPERATURE"> F  </i>
   <i type="logical" name="LADDER"> F  </i>
   <i type="logical" name="LRPAFORCE"> F  </i>
   <i type="logical" name="LFXC"> F  </i>
   <i type="logical" name="LHARTREE"> T  </i>
   <i type="int" name="IBSE">     0</i>
   <v type="int" name="KPOINT">    -1     0     0     0</v>
   <i type="logical" name="LTCTC"> F  </i>
   <i type="logical" name="LTCTE"> F  </i>
   <i type="logical" name="LTETE"> F  </i>
   <i type="logical" name="LTRIPLET"> F  </i>
   <i type="logical" name="LFXCEPS"> F  </i>
   <i type="logical" name="LFXHEG"> F  </i>
   <i type="int" name="NATURALO">     2</i>
   <i type="logical" name="LHOLEGF"> F  </i>
   <i type="logical" name="L2ORDER"> F  </i>
   <i type="logical" name="LDMP1"> F  </i>
   <i type="logical" name="LMP2LT"> F  </i>
   <i type="logical" name="LSMP2LT"> F  </i>
   <i type="logical" name="LGWLF"> F  </i>
   <i name="ENCUTGW">     -1.60000002</i>
   <i name="ENCUTGWSOFT">     -1.60000002</i>
   <i name="ENCUTLF">     -1.00000000</i>
   <i type="logical" name="ESF_SPLINES"> F  </i>
   <i name="ESF_CONV">      0.01000000</i>
   <i type="int" name="ESF_NINTER">    15</i>
   <i type="int" name="LMAXMP2">    -1</i>
   <i name="SCISSOR">      0.00000000</i>
   <i type="int" name="NOMEGA">     0</i>
   <i type="int" name="NOMEGAR">     0</i>
   <i type="int" name="NBANDSGW">    -1</i>
   <i type="int" name="NBANDSO">    -1</i>
   <i type="int" name="NBANDSV">    -1</i>
   <i type="int" name="NELMGW">     1</i>
   <i type="int" name="NELMHF">     1</i>
   <i type="int" name="DIM">     3</i>
   <i type="int" name="IESPILON">     4</i>
   <i type="int" name="ANTIRES">     0</i>
   <i name="OMEGAMAX">    -30.00000000</i>
   <i name="OMEGAMIN">    -30.00000000</i>
   <i name="OMEGATL">   -200.00000000</i>
   <i type="int" name="OMEGAGRID">     0</i>
   <i name="CSHIFT">     -0.10000000</i>
   <i type="logical" name="LSELFENERGY"> F  </i>
   <i type="logical" name="LSPECTRAL"> F  </i>
   <i type="logical" name="LSPECTRALGW"> F  </i>
   <i type="logical" name="LSINGLES"> F  </i>
   <i type="logical" name="LFERMIGW"> F  </i>
   <i type="logical" name="ODDONLYGW"> F  </i>
   <i type="logical" name="EVENONLYGW"> F  </i>
   <i type="int" name="NKREDLFX">     1</i>
   <i type="int" name="NKREDLFY">     1</i>
   <i type="int" name="NKREDLFZ">     1</i>
   <i type="int" name="MAXMEM">  2800</i>
   <i type="int" name="TELESCOPE">     0</i>
   <i type="int" name="NTAUPAR">    -1</i>
   <i type="int" name="NOMEGAPAR">    -1</i>
   <i name="DAMP_NEWTON">      0.80000001</i>
   <i name="LAMBDA">      1.00000000</i>
  </separator>
  <separator name="External order field" >
   <i name="OFIELD_KAPPA">      0.00000000</i>
   <v name="OFIELD_K">      0.00000000      0.00000000      0.00000000</v>
   <i name="OFIELD_Q6_NEAR">      0.00000000</i>
   <i name="OFIELD_Q6_FAR">      0.00000000</i>
   <i name="OFIELD_A">      0.00000000</i>
  </separator>
  <separator name="optional k-points parameters" >
   <i type="int" name="KPOINTS_OPT_MODE">     1</i>
   <i type="logical" name="LKPOINTS_OPT"> F  </i>
  </separator>
 </parameters>
 <atominfo>
  <atoms>      14 </atoms>
  <types>       1 </types>
  <array name="atoms" >
   <dimension dim="1">ion</dimension>
   <field type="string">element</field>
   <field type="int">atomtype</field>
   <set>
    <rc><c>B </c><c>   1</c></rc>
    <rc><c>B </c><c>   1</c></rc>
    <rc><c>B </c><c>   1</c></rc>
    <rc><c>B </c><c>   1</c></rc>
    <rc><c>B </c><c>   1</c></rc>
    <rc><c>B </c><c>   1</c></rc>
    <rc><c>B </c><c>   1</c></rc>
    <rc><c>B </c><c>   1</c></rc>
    <rc><c>B </c><c>   1</c></rc>
    <rc><c>B </c><c>   1</c></rc>
    <rc><c>B </c><c>   1</c></rc>
    <rc><c>B </c><c>   1</c></rc>
    <rc><c>B </c><c>   1</c></rc>
    <rc><c>B </c><c>   1</c></rc>
   </set>
  </array>
  <array name="atomtypes" >
   <dimension dim="1">type</dimension>
   <field type="int">atomspertype</field>
   <field type="string">element</field>
   <field>mass</field>
   <field>valence</field>
   <field type="string">pseudopotential</field>
   <set>
    <rc><c>  14</c><c>B </c><c>     10.81100000</c><c>      3.00000000</c><c>  PAW_PBE B 06Sep2000                   </c></rc>
   </set>
  </array>
 </atominfo>
 <structure name="initialpos" >
  <crystal>
   <varray name="basis" >
    <v>       5.69700000       0.00000000       0.00000000 </v>
    <v>       0.00000000       4.04790000       0.00000000 </v>
    <v>       0.00000000       0.00000000       6.20420000 </v>
   </varray>
   <i name="volume">    143.07435078 </i>
   <varray name="rec_basis" >
    <v>       0.17553098       0.00000000       0.00000000 </v>
    <v>       0.00000000       0.24704168       0.00000000 </v>
    <v>       0.00000000       0.00000000       0.16118114 </v>
   </varray>
  </crystal>
  <varray name="positions" >
   <v>       0.52123000       0.50000000       0.63796000 </v>
   <v>       0.47877000       0.50000000       0.36204000 </v>
   <v>       0.97877000       0.50000000       0.63796000 </v>
   <v>       0.02123000       0.50000000       0.36204000 </v>
   <v>       0.60090000       0.50000000       0.89991000 </v>
   <v>       0.39910000       0.50000000       0.10009000 </v>
   <v>       0.89910000       0.50000000       0.89991000 </v>
   <v>       0.10090000       0.50000000       0.10009000 </v>
   <v>       0.75000000       0.79171000       0.72973000 </v>
   <v>       0.25000000       0.20829000       0.27027000 </v>
   <v>       0.75000000       0.20829000       0.72973000 </v>
   <v>       0.25000000       0.79171000       0.27027000 </v>
   <v>       0.25000000       0.50000000       0.52367000 </v>
   <v>       0.75000000       0.50000000       0.47633000 </v>
  </varray>
 </structure>
 <calculation>
  <scstep>
   <time name="dav">   39.45   39.76</time>
   <time name="total">   39.48   39.79</time>
   <energy>
    <i name="alphaZ">     94.24357992 </i>
    <i name="ewald">   -795.76658092 </i>
    <i name="hartreedc">   -271.33601302 </i>
    <i name="XCdc">     97.50108175 </i>
    <i name="pawpsdc">    608.99811708 </i>
    <i name="pawaedc">   -597.02363782 </i>
    <i name="eentropy">     -0.00190507 </i>
    <i name="bandstr">    -86.05976474 </i>
    <i name="atom">    996.36340036 </i>
    <i name="e_fr_energy">     46.91827754 </i>
    <i name="e_wo_entrp">     46.92018261 </i>
    <i name="e_0_energy">     46.91923008 </i>
   </energy>
  </scstep>
  <scstep>
   <time name="dav">   53.77   54.13</time>
   <time name="total">   53.78   54.14</time>
   <energy>
    <i name="e_fr_energy">    -93.19473821 </i>
    <i name="e_wo_entrp">    -93.19057609 </i>
    <i name="e_0_energy">    -93.19265715 </i>
   </energy>
  </scstep>
  <scstep>
   <time name="dav">   55.94   56.29</time>
   <time name="total">   55.95   56.30</time>
   <energy>
    <i name="e_fr_energy">    -97.58706118 </i>
    <i name="e_wo_entrp">    -97.58252008 </i>
    <i name="e_0_energy">    -97.58479063 </i>
   </energy>
  </scstep>
  <scstep>
   <time name="dav">   48.28   48.60</time>
   <time name="total">   48.29   48.61</time>
   <energy>
    <i name="e_fr_energy">    -97.61247523 </i>
    <i name="e_wo_entrp">    -97.60793115 </i>
    <i name="e_0_energy">    -97.61020319 </i>
   </energy>
  </scstep>
  <scstep>
   <time name="dav">   55.55   55.90</time>
   <time name="total">   56.18   56.53</time>
   <energy>
    <i name="e_fr_energy">    -97.61276875 </i>
    <i name="e_wo_entrp">    -97.60822463 </i>
    <i name="e_0_energy">    -97.61049669 </i>
   </energy>
  </scstep>
  <scstep>
   <time name="dav">   56.17   56.53</time>
   <time name="total">   56.80   57.16</time>
   <energy>
    <i name="e_fr_energy">    -92.20030349 </i>
    <i name="e_wo_entrp">    -92.19615133 </i>
    <i name="e_0_energy">    -92.19822741 </i>
   </energy>
  </scstep>
  <scstep>
   <time name="dav">   57.75   58.11</time>
   <time name="total">   58.38   58.75</time>
   <energy>
    <i name="e_fr_energy">    -90.55085103 </i>
    <i name="e_wo_entrp">    -90.54710537 </i>
    <i name="e_0_energy">    -90.54897820 </i>
   </energy>
  </scstep>
  <scstep>
   <time name="dav">   43.22   43.51</time>
   <time name="total">   43.85   44.14</time>
   <energy>
    <i name="e_fr_energy">    -90.55979890 </i>
    <i name="e_wo_entrp">    -90.55602751 </i>
    <i name="e_0_energy">    -90.55791321 </i>
   </energy>
  </scstep>
  <scstep>
   <time name="dav">   54.27   54.62</time>
   <time name="total">   54.89   55.24</time>
   <energy>
    <i name="e_fr_energy">    -90.57478500 </i>
    <i name="e_wo_entrp">    -90.57100463 </i>
    <i name="e_0_energy">    -90.57289482 </i>
   </energy>
  </scstep>
  <scstep>
   <time name="dav">   43.73   44.02</time>
   <time name="total">   44.36   44.66</time>
   <energy>
    <i name="e_fr_energy">    -90.57933611 </i>
    <i name="e_wo_entrp">    -90.57556378 </i>
    <i name="e_0_energy">    -90.57744995 </i>
   </energy>
  </scstep>
  <scstep>
   <time name="dav">   50.15   50.67</time>
   <time name="total">   50.78   51.29</time>
   <energy>
    <i name="e_fr_energy">    -90.58064281 </i>
    <i name="e_wo_entrp">    -90.57686989 </i>
    <i name="e_0_energy">    -90.57875635 </i>
   </energy>
  </scstep>
  <scstep>
   <time name="dav">   50.45   50.80</time>
   <time name="total">   51.08   51.43</time>
   <energy>
    <i name="e_fr_energy">    -90.58074235 </i>
    <i name="e_wo_entrp">    -90.57697057 </i>
    <i name="e_0_energy">    -90.57885646 </i>
   </energy>
  </scstep>
  <scstep>
