   14   14    1    1
  0.1030568E+02  0.5712952E-09  0.4059234E-09  0.6221572E-09  0.5000000E-15
  1.000000000000000E-004
  CAR 
 Convergence                             
     42    175     48
 
  0.5000000E-01  0.3571429E-01  0.0000000E+00  0.3174603E-02
      1        -12.715194   1.000000
      2        -11.574236   1.000000
      3         -8.669898   1.000000
      4         -8.434349   1.000000
      5         -6.087056   1.000000
      6         -5.154281   1.000000
      7         -4.692507   1.000000
      8         -4.289715   1.000000
      9         -4.055000   1.000000
     10         -3.569141   1.000000
     11         -2.630493   1.000000
     12         -2.362321   1.000000
     13         -1.873457   1.000000
     14         -1.131991   1.000000
     15         -0.102766   1.000000
     16         -0.072129   1.000000
     17          0.112456   1.000000
     18          0.131188   1.000000
     19          0.521878   1.000000
     20          1.973287   0.000048
     21          2.035121   0.000000
     22          2.163815   0.000000
     23          5.392556   0.000000
     24          5.682499   0.000000
     25          5.767311   0.000000
     26          5.893256   0.000000
     27          6.739764   0.000000
     28          7.473971   0.000000
     29          7.798594   0.000000
     30          8.438798   0.000000
     31          8.689189   0.000000
     32          8.848904   0.000000
     33          8.923486   0.000000
     34         10.041860   0.000000
     35         11.108264   0.000000
     36         11.226266   0.000000
     37         11.551656   0.000000
     38         11.677825   0.000000
     39         11.848688   0.000000
     40         12.317483   0.000000
     41         12.752866   0.000000
     42         13.333640   0.000000
     43         13.361160   0.000000
     44         15.234505   0.000000
     45         15.434589   0.000000
     46         15.916632   0.000000
     47         16.204791   0.000000
     48         16.222636   0.000000
 
  0.1500000E+00  0.3571429E-01  0.0000000E+00  0.3174603E-02
      1        -12.671541   1.000000
      2        -11.648103   1.000000
      3         -8.648585   1.000000
      4         -8.422848   1.000000
      5         -6.019369   1.000000
      6         -5.491493   1.000000
      7         -4.812502   1.000000
      8         -4.029700   1.000000
      9         -3.813351   1.000000
     10         -3.234537   1.000000
     11         -2.699992   1.000000
     12         -2.342773   1.000000
     13         -1.950099   1.000000
     14         -1.438012   1.000000
     15         -0.063005   1.000000
     16         -0.060272   1.000000
     17          0.055257   1.000000
     18          0.153838   1.000000
     19          0.426569   1.000000
     20          1.887493   0.070579
     21          1.957613   0.000275
     22          2.043623   0.000000
     23          5.482437   0.000000
     24          5.685547   0.000000
     25          5.801291   0.000000
     26          6.235392   0.000000
     27          6.655304   0.000000
     28          7.114728   0.000000
     29          8.002087   0.000000
     30          8.575348   0.000000
     31          8.936111   0.000000
     32          9.021350   0.000000
     33          9.104284   0.000000
     34         10.143701   0.000000
     35         10.837224   0.000000
     36         11.022582   0.000000
     37         11.179927   0.000000
     38         11.596774   0.000000
     39         12.065199   0.000000
     40         12.403542   0.000000
     41         13.001419   0.000000
     42         13.011131   0.000000
     43         13.886804   0.000000
     44         14.727663   0.000000
     45         15.620207   0.000000
     46         15.707518   0.000000
     47         16.088273   0.000000
     48         16.377379   0.000000
 
  0.2500000E+00  0.3571429E-01  0.0000000E+00  0.3174603E-02
      1        -12.586098   1.000000
      2        -11.781140   1.000000
      3         -8.604798   1.000000
      4         -8.408068   1.000000
      5         -5.997386   1.000000
      6         -5.816239   1.000000
      7         -4.765704   1.000000
      8         -3.904320   1.000000
      9         -3.303619   1.000000
     10         -2.866367   1.000000
     11         -2.745890   1.000000
     12         -2.303450   1.000000
     13         -2.058252   1.000000
     14         -1.940911   1.000000
     15         -0.266505   1.000000
     16         -0.024132   1.000000
     17          0.102005   1.000000
     18          0.122157   1.000000
     19          0.396554   1.000000
     20          1.739660   0.996634
     21          1.816574   0.703468
     22          1.825619   0.609711
     23          5.604070   0.000000
     24          5.641809   0.000000
     25          6.109824   0.000000
     26          6.530877   0.000000
     27          6.690729   0.000000
     28          6.861148   0.000000
     29          8.149057   0.000000
     30          8.724675   0.000000
     31          8.889076   0.000000
     32          9.466247   0.000000
     33          9.550270   0.000000
     34         10.181045   0.000000
     35         10.379329   0.000000
     36         10.517079   0.000000
     37         11.295293   0.000000
     38         11.741751   0.000000
     39         12.299316   0.000000
     40         12.446856   0.000000
     41         12.697222   0.000000
     42         12.796655   0.000000
     43         14.509090   0.000000
     44         14.784413   0.000000
     45         15.112336   0.000000
     46         15.848671   0.000000
     47         15.872103   0.000000
     48         16.147428   0.000000
 
  0.3500000E+00  0.3571429E-01  0.0000000E+00  0.3174603E-02
      1        -12.462822   1.000000
      2        -11.950475   1.000000
      3         -8.543019   1.000000
      4         -8.404627   1.000000
      5         -6.076250   1.000000
      6         -6.048667   1.000000
      7         -4.439659   1.000000
      8         -3.737117   1.000000
      9         -3.058473   1.000000
     10         -2.921800   1.000000
     11         -2.473420   1.000000
     12         -2.286806   1.000000
     13         -2.187295   1.000000
     14         -2.156519   1.000000
     15         -0.565624   1.000000
     16         -0.290631   1.000000
     17          0.137361   1.000000
     18          0.211923   1.000000
     19          0.568795   1.000000
     20          1.481313   1.000000
     21          1.619109   1.000000
     22          1.678352   0.999996
     23          5.627870   0.000000
     24          5.688595   0.000000
     25          6.431480   0.000000
     26          6.605005   0.000000
     27          6.630229   0.000000
     28          7.334644   0.000000
     29          8.270785   0.000000
     30          8.600086   0.000000
     31          8.707438   0.000000
     32          9.440974   0.000000
     33          9.948021   0.000000
     34         10.021858   0.000000
     35         10.291340   0.000000
     36         11.026250   0.000000
     37         11.311424   0.000000
     38         11.828745   0.000000
     39         12.095149   0.000000
     40         12.164167   0.000000
     41         12.424028   0.000000
     42         13.156642   0.000000
     43         14.606103   0.000000
     44         14.856328   0.000000
     45         15.122449   0.000000
     46         15.250929   0.000000
     47         15.442503   0.000000
     48         16.244914   0.000000
 
  0.4500000E+00  0.3571429E-01  0.0000000E+00  0.3174603E-02
      1        -12.308338   1.000000
      2        -12.132719   1.000000
      3         -8.477251   1.000000
      4         -8.426790   1.000000
      5         -6.162703   1.000000
      6         -6.159613   1.000000
      7         -3.926385   1.000000
      8         -3.530000   1.000000
      9         -3.329039   1.000000
     10         -3.294689   1.000000
     11         -2.388244   1.000000
     12         -2.264127   1.000000
     13         -2.001579   1.000000
     14         -1.943627   1.000000
     15         -0.786296   1.000000
     16         -0.649632   1.000000
     17          0.219810   1.000000
     18          0.252848   1.000000
     19          0.828307   1.000000
     20          1.144142   1.000000
     21          1.538854   1.000000
     22          1.565603   1.000000
     23          5.657739   0.000000
     24          5.697547   0.000000
     25          6.411934   0.000000
     26          6.476564   0.000000
     27          7.294354   0.000000
     28          7.990421   0.000000
     29          8.015480   0.000000
     30          8.385982   0.000000
     31          8.521510   0.000000
     32          8.700848   0.000000
     33         10.404755   0.000000
     34         10.416082   0.000000
     35         10.651639   0.000000
     36         11.107703   0.000000
     37         11.291304   0.000000
     38         11.478161   0.000000
     39         11.809006   0.000000
     40         12.372483   0.000000
     41         12.618366   0.000000
     42         13.149003   0.000000
     43         14.485410   0.000000
     44         14.609772   0.000000
     45         14.755485   0.000000
     46         14.816281   0.000000
     47         15.960850   0.000000
     48         16.307260   0.000000
 
  0.5000000E-01  0.1071429E+00  0.0000000E+00  0.3174603E-02
      1        -12.691361   1.000000
      2        -11.552696   1.000000
      3         -8.651377   1.000000
      4         -8.411481   1.000000
      5         -6.060644   1.000000
      6         -5.120694   1.000000
      7         -4.670735   1.000000
      8         -4.589154   1.000000
      9         -4.198085   1.000000
     10         -3.546655   1.000000
     11         -3.321273   1.000000
     12         -1.831399   1.000000
     13         -1.127469   1.000000
     14         -1.077046   1.000000
     15         -0.334901   1.000000
     16         -0.306948   1.000000
     17          0.125985   1.000000
     18          0.201385   1.000000
     19          0.599582   1.000000
     20          1.707642   0.999850
     21          1.786295   0.917861
     22          2.215651   0.000000
     23          5.514292   0.000000
     24          5.639665   0.000000
     25          5.677965   0.000000
     26          5.931837   0.000000
     27          7.022590   0.000000
     28          7.758516   0.000000
     29          7.988060   0.000000
     30          8.105750   0.000000
     31          8.694656   0.000000
     32          8.977671   0.000000
     33          9.040713   0.000000
     34         10.487834   0.000000
     35         11.159881   0.000000
     36         11.318546   0.000000
     37         11.486562   0.000000
     38         11.779807   0.000000
     39         11.959862   0.000000
     40         12.593814   0.000000
     41         12.755087   0.000000
     42         13.075407   0.000000
     43         13.077470   0.000000
     44         15.193606   0.000000
     45         15.237759   0.000000
     46         15.720365   0.000000
     47         15.727506   0.000000
     48         16.081718   0.000000
 
  0.1500000E+00  0.1071429E+00  0.0000000E+00  0.3174603E-02
      1        -12.647797   1.000000
      2        -11.626433   1.000000
      3         -8.629909   1.000000
      4         -8.400347   1.000000
      5         -5.991199   1.000000
      6         -5.461528   1.000000
      7         -4.792729   1.000000
      8         -4.509348   1.000000
      9         -3.775733   1.000000
     10         -3.400762   1.000000
     11         -3.197127   1.000000
     12         -1.809963   1.000000
     13         -1.432640   1.000000
     14         -1.193132   1.000000
     15         -0.296634   1.000000
     16         -0.231174   1.000000
     17          0.092790   1.000000
     18          0.175448   1.000000
     19          0.496650   1.000000
     20          1.627646   1.000000
     21          1.710237   0.999801
     22          2.085774   0.000000
     23          5.590646   0.000000
     24          5.739513   0.000000
     25          5.860758   0.000000
     26          6.043942   0.000000
     27          6.940100   0.000000
     28          7.434605   0.000000
     29          8.133921   0.000000
     30          8.270386   0.000000
     31          9.006648   0.000000
     32          9.052615   0.000000
     33          9.311908   0.000000
     34         10.405006   0.000000
     35         10.770471   0.000000
     36         10.976225   0.000000
     37         11.372173   0.000000
     38         11.769481   0.000000
     39         12.178366   0.000000
     40         12.639782   0.000000
     41         12.757421   0.000000
     42         13.034887   0.000000
     43         13.607935   0.000000
     44         14.811701   0.000000
     45         15.263595   0.000000
     46         15.626650   0.000000
     47         15.657061   0.000000
     48         16.261594   0.000000
 
  0.2500000E+00  0.1071429E+00  0.0000000E+00  0.3174603E-02
      1        -12.562537   1.000000
      2        -11.759215   1.000000
      3         -8.585898   1.000000
      4         -8.386254   1.000000
      5         -5.966475   1.000000
      6         -5.786072   1.000000
      7         -4.749267   1.000000
      8         -4.402292   1.000000
      9         -3.521324   1.000000
     10         -3.252063   1.000000
     11         -2.733210   1.000000
     12         -1.936266   1.000000
     13         -1.766227   1.000000
     14         -1.353276   1.000000
     15         -0.268272   1.000000
     16         -0.251665   1.000000
     17          0.016265   1.000000
     18          0.162513   1.000000
     19          0.420747   1.000000
     20          1.493479   1.000000
     21          1.580899   1.000000
     22          1.839190   0.458080
     23          5.783001   0.000000
     24          5.868045   0.000000
     25          5.947226   0.000000
     26          6.489122   0.000000
     27          6.820887   0.000000
     28          7.208373   0.000000
     29          8.341014   0.000000
     30          8.400478   0.000000
     31          8.985420   0.000000
     32          9.505206   0.000000
     33          9.773776   0.000000
     34         10.026977   0.000000
     35         10.249771   0.000000
     36         10.711609   0.000000
     37         11.432932   0.000000
     38         12.005188   0.000000
     39         12.194400   0.000000
     40         12.460107   0.000000
     41         12.836283   0.000000
     42         12.924089   0.000000
     43         14.182672   0.000000
     44         14.947667   0.000000
     45         15.035780   0.000000
     46         15.512421   0.000000
     47         15.582542   0.000000
     48         16.282291   0.000000
 
  0.3500000E+00  0.1071429E+00  0.0000000E+00  0.3174603E-02
      1        -12.439518   1.000000
      2        -11.928223   1.000000
      3         -8.523866   1.000000
      4         -8.383692   1.000000
      5         -6.044145   1.000000
      6         -6.017698   1.000000
      7         -4.425355   1.000000
      8         -4.256817   1.000000
      9         -3.690702   1.000000
     10         -2.875201   1.000000
     11         -2.392879   1.000000
     12         -2.252078   1.000000
     13         -1.702818   1.000000
     14         -1.514196   1.000000
     15         -0.528225   1.000000
     16         -0.349852   1.000000
     17          0.046648   1.000000
     18          0.078536   1.000000
     19          0.579297   1.000000
     20          1.354260   1.000000
     21          1.436492   1.000000
     22          1.517491   1.000000
     23          5.800139   0.000000
     24          5.940633   0.000000
     25          6.450940   0.000000
     26          6.733370   0.000000
     27          6.807452   0.000000
     28          7.296673   0.000000
     29          8.333755   0.000000
     30          8.506377   0.000000
     31          8.835550   0.000000
     32          9.278822   0.000000
     33          9.969100   0.000000
     34          9.990682   0.000000
     35         10.342287   0.000000
     36         11.101897   0.000000
     37         11.263406   0.000000
     38         11.732756   0.000000
     39         12.166474   0.000000
     40         12.447296   0.000000
     41         12.621904   0.000000
     42         13.356020   0.000000
     43         14.642768   0.000000
     44         14.653326   0.000000
     45         15.022340   0.000000
     46         15.183916   0.000000
     47         15.515758   0.000000
     48         16.259670   0.000000
 
  0.4500000E+00  0.1071429E+00  0.0000000E+00  0.3174603E-02
      1        -12.285358   1.000000
      2        -12.110093   1.000000
      3         -8.457745   1.000000
      4         -8.406691   1.000000
      5         -6.130957   1.000000
      6         -6.127433   1.000000
      7         -4.079773   1.000000
      8         -3.918714   1.000000
      9         -3.878616   1.000000
     10         -3.316450   1.000000
     11         -2.136792   1.000000
     12         -1.946309   1.000000
     13         -1.634747   1.000000
     14         -1.627534   1.000000
     15         -0.748743   1.000000
     16         -0.645323   1.000000
     17          0.081612   1.000000
     18          0.112500   1.000000
     19          0.837590   1.000000
     20          1.150669   1.000000
     21          1.301423   1.000000
     22          1.325093   1.000000
     23          5.852892   0.000000
     24          5.920966   0.000000
     25          6.724376   0.000000
     26          6.775355   0.000000
     27          7.113843   0.000000
     28          7.820178   0.000000
     29          7.861198   0.000000
     30          8.537659   0.000000
     31          8.596886   0.000000
     32          8.707578   0.000000
     33         10.216176   0.000000
     34         10.466168   0.000000
     35         10.706064   0.000000
     36         10.800215   0.000000
     37         11.438751   0.000000
     38         11.536390   0.000000
     39         11.885618   0.000000
     40         12.537739   0.000000
     41         12.923135   0.000000
     42         13.377169   0.000000
     43         14.428928   0.000000
     44         14.614869   0.000000
     45         14.715648   0.000000
     46         14.933648   0.000000
     47         15.987593   0.000000
     48         16.282669   0.000000
 
  0.5000000E-01  0.1785714E+00  0.0000000E+00  0.3174603E-02
      1        -12.647323   1.000000
      2        -11.512973   1.000000
      3         -8.617470   1.000000
      4         -8.369283   1.000000
      5         -6.011823   1.000000
      6         -5.145209   1.000000
      7         -5.031139   1.000000
      8         -4.629482   1.000000
      9         -4.181120   1.000000
     10         -3.941294   1.000000
     11         -3.493897   1.000000
     12         -1.240225   1.000000
     13         -1.118325   1.000000
     14         -0.675334   1.000000
     15         -0.573548   1.000000
     16         -0.221541   1.000000
     17          0.146953   1.000000
     18          0.253166   1.000000
     19          0.677182   1.000000
     20          1.328192   1.000000
     21          1.390385   1.000000
     22          2.253088   0.000000
     23          5.229658   0.000000
     24          5.392027   0.000000
     25          6.049537   0.000000
     26          6.117027   0.000000
     27          7.451939   0.000000
     28          7.540985   0.000000
     29          8.236738   0.000000
     30          8.626819   0.000000
     31          8.786237   0.000000
     32          9.117335   0.000000
     33          9.264436   0.000000
     34         10.782495   0.000000
     35         11.215810   0.000000
     36         11.465283   0.000000
     37         11.613134   0.000000
     38         11.978358   0.000000
     39         12.175419   0.000000
     40         12.639783   0.000000
     41         12.651241   0.000000
     42         12.882378   0.000000
     43         13.126652   0.000000
     44         14.530075   0.000000
     45         15.026338   0.000000
     46         15.198943   0.000000
     47         15.313043   0.000000
     48         15.818917   0.000000
 
  0.1500000E+00  0.1785714E+00  0.0000000E+00  0.3174603E-02
      1        -12.603941   1.000000
      2        -11.586457   1.000000
      3         -8.595689   1.000000
      4         -8.358840   1.000000
      5         -5.939010   1.000000
      6         -5.412790   1.000000
      7         -5.049944   1.000000
      8         -4.755504   1.000000
      9         -4.006456   1.000000
     10         -3.734418   1.000000
     11         -3.157836   1.000000
     12         -1.424305   1.000000
     13         -1.214583   1.000000
     14         -0.784149   1.000000
     15         -0.535826   1.000000
     16         -0.139422   1.000000
     17          0.124577   1.000000
     18          0.200386   1.000000
     19          0.564500   1.000000
     20          1.249583   1.000000
     21          1.321000   1.000000
     22          2.118273   0.000000
     23          5.310282   0.000000
     24          5.734418   0.000000
     25          6.063204   0.000000
     26          6.165566   0.000000
     27          7.371848   0.000000
     28          7.697474   0.000000
     29          7.969234   0.000000
     30          8.720508   0.000000
     31          9.132942   0.000000
     32          9.185888   0.000000
     33          9.546752   0.000000
     34         10.418400   0.000000
     35         10.677026   0.000000
     36         11.171036   0.000000
     37         11.630774   0.000000
     38         12.093240   0.000000
     39         12.324675   0.000000
     40         12.402096   0.000000
     41         13.045735   0.000000
     42         13.171507   0.000000
     43         13.318067   0.000000
     44         14.544555   0.000000
     45         14.691875   0.000000
     46         15.128374   0.000000
     47         15.377456   0.000000
     48         15.856158   0.000000
 
  0.2500000E+00  0.1785714E+00  0.0000000E+00  0.3174603E-02
      1        -12.519010   1.000000
      2        -11.718765   1.000000
      3         -8.551241   1.000000
      4         -8.346059   1.000000
      5         -5.908955   1.000000
      6         -5.731547   1.000000
      7         -4.958628   1.000000
      8         -4.718591   1.000000
      9         -4.128314   1.000000
     10         -3.203097   1.000000
     11         -2.689627   1.000000
     12         -1.920058   1.000000
     13         -1.174489   1.000000
     14         -0.923818   1.000000
     15         -0.483710   1.000000
     16         -0.136187   1.000000
     17         -0.025886   1.000000
     18          0.211125   1.000000
     19          0.450147   1.000000
     20          1.118936   1.000000
     21          1.203280   1.000000
     22          1.863430   0.214502
     23          5.629775   0.000000
     24          6.018332   0.000000
     25          6.206522   0.000000
     26          6.296566   0.000000
     27          7.271004   0.000000
     28          7.782078   0.000000
     29          7.931804   0.000000
     30          8.849803   0.000000
     31          9.134026   0.000000
     32          9.614711   0.000000
     33          9.757163   0.000000
     34         10.029300   0.000000
     35         10.154046   0.000000
     36         10.951418   0.000000
     37         11.489849   0.000000
     38         12.000709   0.000000
     39         12.401340   0.000000
     40         12.703599   0.000000
     41         12.924501   0.000000
     42         13.339584   0.000000
     43         13.839334   0.000000
     44         14.458077   0.000000
     45         14.740429   0.000000
     46         15.156072   0.000000
     47         15.392522   0.000000
     48         16.067144   0.000000
 
  0.3500000E+00  0.1785714E+00  0.0000000E+00  0.3174603E-02
      1        -12.396480   1.000000
      2        -11.887165   1.000000
      3         -8.488739   1.000000
      4         -8.345182   1.000000
      5         -5.984304   1.000000
      6         -5.960566   1.000000
      7         -4.824102   1.000000
      8         -4.398971   1.000000
      9         -4.290683   1.000000
     10         -2.837669   1.000000
     11         -2.352867   1.000000
     12         -2.211089   1.000000
     13         -1.118583   1.000000
     14         -1.061382   1.000000
     15         -0.492504   1.000000
     16         -0.419820   1.000000
     17          0.017388   1.000000
     18          0.018189   1.000000
     19          0.596641   1.000000
     20          0.989991   1.000000
     21          1.071302   1.000000
     22          1.530434   1.000000
     23          6.030922   0.000000
     24          6.160804   0.000000
     25          6.326909   0.000000
     26          6.728907   0.000000
     27          7.217635   0.000000
     28          7.704803   0.000000
     29          7.990736   0.000000
     30          8.949154   0.000000
     31          9.011925   0.000000
     32          9.078194   0.000000
     33          9.782131   0.000000
     34         10.079925   0.000000
     35         10.603551   0.000000
     36         10.974465   0.000000
     37         11.200264   0.000000
     38         11.846021   0.000000
     39         12.228126   0.000000
     40         12.882243   0.000000
     41         12.933204   0.000000
     42         13.678826   0.000000
     43         14.248862   0.000000
     44         14.270246   0.000000
     45         14.901051   0.000000
     46         14.996946   0.000000
     47         15.477621   0.000000
     48         16.246971   0.000000
 
  0.4500000E+00  0.1785714E+00  0.0000000E+00  0.3174603E-02
      1        -12.242924   1.000000
      2        -12.068338   1.000000
      3         -8.421941   1.000000
      4         -8.369761   1.000000
      5         -6.072040   1.000000
      6         -6.067548   1.000000
      7         -4.658136   1.000000
      8         -4.474641   1.000000
      9         -3.888485   1.000000
     10         -3.294194   1.000000
     11         -2.070353   1.000000
     12         -1.906636   1.000000
     13         -1.135746   1.000000
     14         -1.077551   1.000000
     15         -0.672053   1.000000
     16         -0.668948   1.000000
     17         -0.031250   1.000000
     18          0.012217   1.000000
     19          0.853149   1.000000
     20          0.927538   1.000000
     21          0.967525   1.000000
     22          1.178841   1.000000
     23          6.123146   0.000000
     24          6.243211   0.000000
     25          6.808652   0.000000
     26          7.140829   0.000000
     27          7.197460   0.000000
     28          7.548693   0.000000
     29          7.850516   0.000000
     30          8.356527   0.000000
     31          9.004043   0.000000
     32          9.035093   0.000000
     33          9.907525   0.000000
     34         10.380692   0.000000
     35         10.602079   0.000000
     36         10.881055   0.000000
     37         11.618029   0.000000
     38         11.626219   0.000000
     39         12.002980   0.000000
     40         12.788527   0.000000
     41         13.308151   0.000000
     42         13.651003   0.000000
     43         14.103457   0.000000
     44         14.257186   0.000000
     45         14.873903   0.000000
     46         15.011661   0.000000
     47         15.856598   0.000000
     48         16.157868   0.000000
 
  0.5000000E-01  0.2500000E+00  0.0000000E+00  0.3174603E-02
      1        -12.590277   1.000000
      2        -11.461645   1.000000
      3         -8.574155   1.000000
      4         -8.314693   1.000000
      5         -5.948480   1.000000
      6         -5.624511   1.000000
      7         -4.961961   1.000000
      8         -4.574026   1.000000
      9         -4.459768   1.000000
     10         -4.142118   1.000000
     11         -3.432587   1.000000
     12         -1.245242   1.000000
     13         -1.104042   1.000000
     14         -1.025950   1.000000
     15         -0.235699   1.000000
     16          0.174831   1.000000
     17          0.295709   1.000000
     18          0.547223   1.000000
     19          0.740211   1.000000
     20          0.945412   1.000000
     21          0.959198   1.000000
     22          2.286728   0.000000
     23          4.890513   0.000000
     24          5.101588   0.000000
     25          6.275494   0.000000
     26          6.505455   0.000000
     27          7.186077   0.000000
     28          7.874548   0.000000
     29          8.594582   0.000000
     30          8.972121   0.000000
     31          9.344109   0.000000
     32          9.486945   0.000000
     33          9.545355   0.000000
     34         10.643818   0.000000
     35         11.161540   0.000000
     36         11.865019   0.000000
     37         11.925004   0.000000
     38         12.182400   0.000000
     39         12.320175   0.000000
     40         12.349413   0.000000
     41         12.458188   0.000000
     42         12.866775   0.000000
     43         13.650849   0.000000
     44         13.771360   0.000000
     45         14.284202   0.000000
     46         14.984136   0.000000
     47         15.287551   0.000000
     48         15.705462   0.000000
 
  0.1500000E+00  0.2500000E+00  0.0000000E+00  0.3174603E-02
      1        -12.547119   1.000000
      2        -11.534796   1.000000
      3         -8.551959   1.000000
      4         -8.305194   1.000000
      5         -5.871104   1.000000
      6         -5.589708   1.000000
      7         -5.296428   1.000000
      8         -4.706281   1.000000