<?xml version="1.0" encoding="ISO-8859-1"?>
<modeling>
 <generator>
  <i name="program" type="string">vasp </i>
  <i name="version" type="string">6.4.3  </i>
  <i name="subversion" type="string">19Mar24 (build May 31 2024 16:31:43) complex                          parallel </i>
  <i name="platform" type="string">LinuxIFC </i>
  <i name="date" type="string">2024 11 11 </i>
  <i name="time" type="string">16:00:01 </i>
 </generator>
 <incar>
  <i type="string" name="SYSTEM">Convergence</i>
  <i type="int" name="ISTART">     0</i>
  <i type="string" name="PREC">Accurate</i>
  <i type="string" name="ALGO">Normal</i>
  <i type="int" name="ISPIN">     1</i>
  <i type="int" name="ICHARG">     2</i>
  <i type="int" name="NELM">   100</i>
  <i type="int" name="IBRION">    -1</i>
  <i name="EDIFF">      0.00000100</i>
  <i name="EDIFFG">     -0.00100000</i>
  <i type="int" name="NSW">     0</i>
  <i type="int" name="ISIF">     2</i>
  <i name="ENCUT">    600.00000000</i>
  <i name="POTIM">      0.50000000</i>
  <i type="int" name="ISMEAR">     0</i>
  <i name="SIGMA">      0.05000000</i>
  <i type="logical" name="LWAVE"> F  </i>
  <i type="logical" name="LCHARG"> F  </i>
  <i type="string" name="GGA">PE</i>
 </incar>
 <primitive_cell>
  <structure name="primitive_cell" >
   <crystal>
    <varray name="basis" >
     <v>       5.71295160       0.00000000       0.00000000 </v>
     <v>       0.00000000       4.05923412       0.00000000 </v>
     <v>       0.00000000       0.00000000       6.22157176 </v>
    </varray>
    <i name="volume">    144.27954358 </i>
    <varray name="rec_basis" >
     <v>       0.17504087       0.00000000       0.00000000 </v>
     <v>       0.00000000       0.24635189       0.00000000 </v>
     <v>       0.00000000       0.00000000       0.16073109 </v>
    </varray>
   </crystal>
   <varray name="positions" >
    <v>       0.52123000       0.50000000       0.63796000 </v>
    <v>       0.47877000       0.50000000       0.36204000 </v>
    <v>       0.97877000       0.50000000       0.63796000 </v>
    <v>       0.02123000       0.50000000       0.36204000 </v>
    <v>       0.60090000       0.50000000       0.89991000 </v>
    <v>       0.39910000       0.50000000       0.10009000 </v>
    <v>       0.89910000       0.50000000       0.89991000 </v>
    <v>       0.10090000       0.50000000       0.10009000 </v>
    <v>       0.75000000       0.79171000       0.72973000 </v>
    <v>       0.25000000       0.20829000       0.27027000 </v>
    <v>       0.75000000       0.20829000       0.72973000 </v>
    <v>       0.25000000       0.79171000       0.27027000 </v>
    <v>       0.25000000       0.50000000       0.52367000 </v>
    <v>       0.75000000       0.50000000       0.47633000 </v>
   </varray>
  </structure>
  <varray name="primitive_index" >
   <v type="int" >        1 </v>
   <v type="int" >        2 </v>
   <v type="int" >        3 </v>
   <v type="int" >        4 </v>
   <v type="int" >        5 </v>
   <v type="int" >        6 </v>
   <v type="int" >        7 </v>
   <v type="int" >        8 </v>
   <v type="int" >        9 </v>
   <v type="int" >       10 </v>
   <v type="int" >       11 </v>
   <v type="int" >       12 </v>
   <v type="int" >       13 </v>
   <v type="int" >       14 </v>
  </varray>
 </primitive_cell>
 <kpoints>
  <generation param="Monkhorst-Pack">
   <v type="int" name="divisions">      10       14        9 </v>
   <v name="usershift">      0.00000000       0.00000000       0.00000000 </v>
   <v name="genvec1">      0.10000000       0.00000000       0.00000000 </v>
   <v name="genvec2">      0.00000000       0.07142857       0.00000000 </v>
   <v name="genvec3">      0.00000000       0.00000000       0.11111111 </v>
   <v name="shift">      0.50000000       0.50000000       0.00000000 </v>
  </generation>
  <varray name="kpointlist" >
   <v>       0.05000000       0.03571429       0.00000000 </v>
   <v>       0.15000000       0.03571429       0.00000000 </v>
   <v>       0.25000000       0.03571429       0.00000000 </v>
   <v>       0.35000000       0.03571429       0.00000000 </v>
   <v>       0.45000000       0.03571429       0.00000000 </v>
   <v>       0.05000000       0.10714286       0.00000000 </v>
   <v>       0.15000000       0.10714286       0.00000000 </v>
   <v>       0.25000000       0.10714286       0.00000000 </v>
   <v>       0.35000000       0.10714286       0.00000000 </v>
   <v>       0.45000000       0.10714286       0.00000000 </v>
   <v>       0.05000000       0.17857143       0.00000000 </v>
   <v>       0.15000000       0.17857143       0.00000000 </v>
   <v>       0.25000000       0.17857143       0.00000000 </v>
   <v>       0.35000000       0.17857143       0.00000000 </v>
   <v>       0.45000000       0.17857143       0.00000000 </v>
   <v>       0.05000000       0.25000000       0.00000000 </v>
   <v>       0.15000000       0.25000000       0.00000000 </v>
   <v>       0.25000000       0.25000000       0.00000000 </v>
   <v>       0.35000000       0.25000000       0.00000000 </v>
   <v>       0.45000000       0.25000000       0.00000000 </v>
   <v>       0.05000000       0.32142857       0.00000000 </v>
   <v>       0.15000000       0.32142857       0.00000000 </v>
   <v>       0.25000000       0.32142857       0.00000000 </v>
   <v>       0.35000000       0.32142857       0.00000000 </v>
   <v>       0.45000000       0.32142857       0.00000000 </v>
   <v>       0.05000000       0.39285714       0.00000000 </v>
   <v>       0.15000000       0.39285714       0.00000000 </v>
   <v>       0.25000000       0.39285714       0.00000000 </v>
   <v>       0.35000000       0.39285714       0.00000000 </v>
   <v>       0.45000000       0.39285714       0.00000000 </v>
   <v>       0.05000000       0.46428571       0.00000000 </v>
   <v>       0.15000000       0.46428571       0.00000000 </v>
   <v>       0.25000000       0.46428571       0.00000000 </v>
   <v>       0.35000000       0.46428571       0.00000000 </v>
   <v>       0.45000000       0.46428571       0.00000000 </v>
   <v>       0.05000000       0.03571429       0.11111111 </v>
   <v>       0.15000000       0.03571429       0.11111111 </v>
   <v>       0.25000000       0.03571429       0.11111111 </v>
   <v>       0.35000000       0.03571429       0.11111111 </v>
   <v>       0.45000000       0.03571429       0.11111111 </v>
   <v>       0.05000000       0.10714286       0.11111111 </v>
   <v>       0.15000000       0.10714286       0.11111111 </v>
   <v>       0.25000000       0.10714286       0.11111111 </v>
   <v>       0.35000000       0.10714286       0.11111111 </v>
   <v>       0.45000000       0.10714286       0.11111111 </v>
   <v>       0.05000000       0.17857143       0.11111111 </v>
   <v>       0.15000000       0.17857143       0.11111111 </v>
   <v>       0.25000000       0.17857143       0.11111111 </v>
   <v>       0.35000000       0.17857143       0.11111111 </v>
   <v>       0.45000000       0.17857143       0.11111111 </v>
   <v>       0.05000000       0.25000000       0.11111111 </v>
   <v>       0.15000000       0.25000000       0.11111111 </v>
   <v>       0.25000000       0.25000000       0.11111111 </v>
   <v>       0.35000000       0.25000000       0.11111111 </v>
   <v>       0.45000000       0.25000000       0.11111111 </v>
   <v>       0.05000000       0.32142857       0.11111111 </v>
   <v>       0.15000000       0.32142857       0.11111111 </v>
   <v>       0.25000000       0.32142857       0.11111111 </v>
   <v>       0.35000000       0.32142857       0.11111111 </v>
   <v>       0.45000000       0.32142857       0.11111111 </v>
   <v>       0.05000000       0.39285714       0.11111111 </v>
   <v>       0.15000000       0.39285714       0.11111111 </v>
   <v>       0.25000000       0.39285714       0.11111111 </v>
   <v>       0.35000000       0.39285714       0.11111111 </v>
   <v>       0.45000000       0.39285714       0.11111111 </v>
   <v>       0.05000000       0.46428571       0.11111111 </v>
   <v>       0.15000000       0.46428571       0.11111111 </v>
   <v>       0.25000000       0.46428571       0.11111111 </v>
   <v>       0.35000000       0.46428571       0.11111111 </v>
   <v>       0.45000000       0.46428571       0.11111111 </v>
   <v>       0.05000000       0.03571429       0.22222222 </v>
   <v>       0.15000000       0.03571429       0.22222222 </v>
   <v>       0.25000000       0.03571429       0.22222222 </v>
   <v>       0.35000000       0.03571429       0.22222222 </v>
   <v>       0.45000000       0.03571429       0.22222222 </v>
   <v>       0.05000000       0.10714286       0.22222222 </v>
   <v>       0.15000000       0.10714286       0.22222222 </v>
   <v>       0.25000000       0.10714286       0.22222222 </v>
   <v>       0.35000000       0.10714286       0.22222222 </v>
   <v>       0.45000000       0.10714286       0.22222222 </v>
   <v>       0.05000000       0.17857143       0.22222222 </v>
   <v>       0.15000000       0.17857143       0.22222222 </v>
   <v>       0.25000000       0.17857143       0.22222222 </v>
   <v>       0.35000000       0.17857143       0.22222222 </v>
   <v>       0.45000000       0.17857143       0.22222222 </v>
   <v>       0.05000000       0.25000000       0.22222222 </v>
   <v>       0.15000000       0.25000000       0.22222222 </v>
   <v>       0.25000000       0.25000000       0.22222222 </v>
   <v>       0.35000000       0.25000000       0.22222222 </v>
   <v>       0.45000000       0.25000000       0.22222222 </v>
   <v>       0.05000000       0.32142857       0.22222222 </v>
   <v>       0.15000000       0.32142857       0.22222222 </v>
   <v>       0.25000000       0.32142857       0.22222222 </v>
   <v>       0.35000000       0.32142857       0.22222222 </v>
   <v>       0.45000000       0.32142857       0.22222222 </v>
   <v>       0.05000000       0.39285714       0.22222222 </v>
   <v>       0.15000000       0.39285714       0.22222222 </v>
   <v>       0.25000000       0.39285714       0.22222222 </v>
   <v>       0.35000000       0.39285714       0.22222222 </v>
   <v>       0.45000000       0.39285714       0.22222222 </v>
   <v>       0.05000000       0.46428571       0.22222222 </v>
   <v>       0.15000000       0.46428571       0.22222222 </v>
   <v>       0.25000000       0.46428571       0.22222222 </v>
   <v>       0.35000000       0.46428571       0.22222222 </v>
   <v>       0.45000000       0.46428571       0.22222222 </v>
   <v>       0.05000000       0.03571429       0.33333333 </v>
   <v>       0.15000000       0.03571429       0.33333333 </v>
   <v>       0.25000000       0.03571429       0.33333333 </v>
   <v>       0.35000000       0.03571429       0.33333333 </v>
   <v>       0.45000000       0.03571429       0.33333333 </v>
   <v>       0.05000000       0.10714286       0.33333333 </v>
   <v>       0.15000000       0.10714286       0.33333333 </v>
   <v>       0.25000000       0.10714286       0.33333333 </v>
   <v>       0.35000000       0.10714286       0.33333333 </v>
   <v>       0.45000000       0.10714286       0.33333333 </v>
   <v>       0.05000000       0.17857143       0.33333333 </v>
   <v>       0.15000000       0.17857143       0.33333333 </v>
   <v>       0.25000000       0.17857143       0.33333333 </v>
   <v>       0.35000000       0.17857143       0.33333333 </v>
   <v>       0.45000000       0.17857143       0.33333333 </v>
   <v>       0.05000000       0.25000000       0.33333333 </v>
   <v>       0.15000000       0.25000000       0.33333333 </v>
   <v>       0.25000000       0.25000000       0.33333333 </v>
   <v>       0.35000000       0.25000000       0.33333333 </v>
   <v>       0.45000000       0.25000000       0.33333333 </v>
   <v>       0.05000000       0.32142857       0.33333333 </v>
   <v>       0.15000000       0.32142857       0.33333333 </v>
   <v>       0.25000000       0.32142857       0.33333333 </v>
   <v>       0.35000000       0.32142857       0.33333333 </v>
   <v>       0.45000000       0.32142857       0.33333333 </v>
   <v>       0.05000000       0.39285714       0.33333333 </v>
   <v>       0.15000000       0.39285714       0.33333333 </v>
   <v>       0.25000000       0.39285714       0.33333333 </v>
   <v>       0.35000000       0.39285714       0.33333333 </v>
   <v>       0.45000000       0.39285714       0.33333333 </v>
   <v>       0.05000000       0.46428571       0.33333333 </v>
   <v>       0.15000000       0.46428571       0.33333333 </v>
   <v>       0.25000000       0.46428571       0.33333333 </v>
   <v>       0.35000000       0.46428571       0.33333333 </v>
   <v>       0.45000000       0.46428571       0.33333333 </v>
   <v>       0.05000000       0.03571429       0.44444444 </v>
   <v>       0.15000000       0.03571429       0.44444444 </v>
   <v>       0.25000000       0.03571429       0.44444444 </v>
   <v>       0.35000000       0.03571429       0.44444444 </v>
   <v>       0.45000000       0.03571429       0.44444444 </v>
   <v>       0.05000000       0.10714286       0.44444444 </v>
   <v>       0.15000000       0.10714286       0.44444444 </v>
   <v>       0.25000000       0.10714286       0.44444444 </v>
   <v>       0.35000000       0.10714286       0.44444444 </v>
   <v>       0.45000000       0.10714286       0.44444444 </v>
   <v>       0.05000000       0.17857143       0.44444444 </v>
   <v>       0.15000000       0.17857143       0.44444444 </v>
   <v>       0.25000000       0.17857143       0.44444444 </v>
   <v>       0.35000000       0.17857143       0.44444444 </v>
   <v>       0.45000000       0.17857143       0.44444444 </v>
   <v>       0.05000000       0.25000000       0.44444444 </v>
   <v>       0.15000000       0.25000000       0.44444444 </v>
   <v>       0.25000000       0.25000000       0.44444444 </v>
   <v>       0.35000000       0.25000000       0.44444444 </v>
   <v>       0.45000000       0.25000000       0.44444444 </v>
   <v>       0.05000000       0.32142857       0.44444444 </v>
   <v>       0.15000000       0.32142857       0.44444444 </v>
   <v>       0.25000000       0.32142857       0.44444444 </v>
   <v>       0.35000000       0.32142857       0.44444444 </v>
   <v>       0.45000000       0.32142857       0.44444444 </v>
   <v>       0.05000000       0.39285714       0.44444444 </v>
   <v>       0.15000000       0.39285714       0.44444444 </v>
   <v>       0.25000000       0.39285714       0.44444444 </v>
   <v>       0.35000000       0.39285714       0.44444444 </v>
   <v>       0.45000000       0.39285714       0.44444444 </v>
   <v>       0.05000000       0.46428571       0.44444444 </v>
   <v>       0.15000000       0.46428571       0.44444444 </v>
   <v>       0.25000000       0.46428571       0.44444444 </v>
   <v>       0.35000000       0.46428571       0.44444444 </v>
   <v>       0.45000000       0.46428571       0.44444444 </v>
  </varray>
  <varray name="weights" >
   <v>       0.00317460 </v>
   <v>       0.00317460 </v>
   <v>       0.00317460 </v>
   <v>       0.00317460 </v>
   <v>       0.00317460 </v>
   <v>       0.00317460 </v>
   <v>       0.00317460 </v>
   <v>       0.00317460 </v>
   <v>       0.00317460 </v>
   <v>       0.00317460 </v>
   <v>       0.00317460 </v>
   <v>       0.00317460 </v>
   <v>       0.00317460 </v>
   <v>       0.00317460 </v>
   <v>       0.00317460 </v>
   <v>       0.00317460 </v>
   <v>       0.00317460 </v>
   <v>       0.00317460 </v>
   <v>       0.00317460 </v>
   <v>       0.00317460 </v>
   <v>       0.00317460 </v>
   <v>       0.00317460 </v>
   <v>       0.00317460 </v>
   <v>       0.00317460 </v>
   <v>       0.00317460 </v>
   <v>       0.00317460 </v>
   <v>       0.00317460 </v>
   <v>       0.00317460 </v>
   <v>       0.00317460 </v>
   <v>       0.00317460 </v>
   <v>       0.00317460 </v>
   <v>       0.00317460 </v>
   <v>       0.00317460 </v>
   <v>       0.00317460 </v>
   <v>       0.00317460 </v>
   <v>       0.00634921 </v>
   <v>       0.00634921 </v>
   <v>       0.00634921 </v>
   <v>       0.00634921 </v>
   <v>       0.00634921 </v>
   <v>       0.00634921 </v>
   <v>       0.00634921 </v>
   <v>       0.00634921 </v>
   <v>       0.00634921 </v>
   <v>       0.00634921 </v>
   <v>       0.00634921 </v>
   <v>       0.00634921 </v>
   <v>       0.00634921 </v>
   <v>       0.00634921 </v>
   <v>       0.00634921 </v>
   <v>       0.00634921 </v>
   <v>       0.00634921 </v>
   <v>       0.00634921 </v>
   <v>       0.00634921 </v>
   <v>       0.00634921 </v>
   <v>       0.00634921 </v>
   <v>       0.00634921 </v>
   <v>       0.00634921 </v>
   <v>       0.00634921 </v>
   <v>       0.00634921 </v>
   <v>       0.00634921 </v>
   <v>       0.00634921 </v>
   <v>       0.00634921 </v>
   <v>       0.00634921 </v>
   <v>       0.00634921 </v>
   <v>       0.00634921 </v>
   <v>       0.00634921 </v>
   <v>       0.00634921 </v>
   <v>       0.00634921 </v>
   <v>       0.00634921 </v>
   <v>       0.00634921 </v>
   <v>       0.00634921 </v>
   <v>       0.00634921 </v>
   <v>       0.00634921 </v>
   <v>       0.00634921 </v>
   <v>       0.00634921 </v>
   <v>       0.00634921 </v>
   <v>       0.00634921 </v>
   <v>       0.00634921 </v>
   <v>       0.00634921 </v>
   <v>       0.00634921 </v>
   <v>       0.00634921 </v>
   <v>       0.00634921 </v>
   <v>       0.00634921 </v>
   <v>       0.00634921 </v>
   <v>       0.00634921 </v>
   <v>       0.00634921 </v>
   <v>       0.00634921 </v>
   <v>       0.00634921 </v>
   <v>       0.00634921 </v>
   <v>       0.00634921 </v>
   <v>       0.00634921 </v>
   <v>       0.00634921 </v>
   <v>       0.00634921 </v>
   <v>       0.00634921 </v>
   <v>       0.00634921 </v>
   <v>       0.00634921 </v>
   <v>       0.00634921 </v>
   <v>       0.00634921 </v>
   <v>       0.00634921 </v>
   <v>       0.00634921 </v>
   <v>       0.00634921 </v>
   <v>       0.00634921 </v>
   <v>       0.00634921 </v>
   <v>       0.00634921 </v>
   <v>       0.00634921 </v>
   <v>       0.00634921 </v>
   <v>       0.00634921 </v>
   <v>       0.00634921 </v>
   <v>       0.00634921 </v>
   <v>       0.00634921 </v>
   <v>       0.00634921 </v>
   <v>       0.00634921 </v>
   <v>       0.00634921 </v>
   <v>       0.00634921 </v>
   <v>       0.00634921 </v>
   <v>       0.00634921 </v>
   <v>       0.00634921 </v>
   <v>       0.00634921 </v>
   <v>       0.00634921 </v>
   <v>       0.00634921 </v>
   <v>       0.00634921 </v>
   <v>       0.00634921 </v>
   <v>       0.00634921 </v>
   <v>       0.00634921 </v>
   <v>       0.00634921 </v>
   <v>       0.00634921 </v>
   <v>       0.00634921 </v>
   <v>       0.00634921 </v>
   <v>       0.00634921 </v>
   <v>       0.00634921 </v>
   <v>       0.00634921 </v>
   <v>       0.00634921 </v>
   <v>       0.00634921 </v>
   <v>       0.00634921 </v>
   <v>       0.00634921 </v>
   <v>       0.00634921 </v>
   <v>       0.00634921 </v>
   <v>       0.00634921 </v>
   <v>       0.00634921 </v>
   <v>       0.00634921 </v>
   <v>       0.00634921 </v>
   <v>       0.00634921 </v>
   <v>       0.00634921 </v>
   <v>       0.00634921 </v>
   <v>       0.00634921 </v>
   <v>       0.00634921 </v>
   <v>       0.00634921 </v>
   <v>       0.00634921 </v>
   <v>       0.00634921 </v>
   <v>       0.00634921 </v>
   <v>       0.00634921 </v>
   <v>       0.00634921 </v>
   <v>       0.00634921 </v>
   <v>       0.00634921 </v>
   <v>       0.00634921 </v>
   <v>       0.00634921 </v>
   <v>       0.00634921 </v>
   <v>       0.00634921 </v>
   <v>       0.00634921 </v>
   <v>       0.00634921 </v>
   <v>       0.00634921 </v>
   <v>       0.00634921 </v>
   <v>       0.00634921 </v>
   <v>       0.00634921 </v>
   <v>       0.00634921 </v>
   <v>       0.00634921 </v>
   <v>       0.00634921 </v>
   <v>       0.00634921 </v>
   <v>       0.00634921 </v>
   <v>       0.00634921 </v>
   <v>       0.00634921 </v>
   <v>       0.00634921 </v>
   <v>       0.00634921 </v>
   <v>       0.00634921 </v>
  </varray>
 </kpoints>
 <parameters>
  <separator name="general" >
   <i type="string" name="SYSTEM">Convergence</i>
   <i type="logical" name="LCOMPAT"> F  </i>
  </separator>
  <separator name="electronic" >
   <i type="string" name="PREC">accura</i>
   <i name="ENMAX">    600.00000000</i>
   <i name="ENAUG">    535.51400000</i>
   <i name="EDIFF">      0.00000100</i>
   <i type="int" name="IALGO">    38</i>
   <i type="int" name="IWAVPR">    10</i>
   <i type="int" name="NBANDS">    48</i>
   <i type="int" name="NBANDSLOW">    -1</i>
   <i type="int" name="NBANDSHIGH">    -1</i>
   <i name="NELECT">     42.00000000</i>
   <i type="int" name="TURBO">     0</i>
   <i type="int" name="IRESTART">     0</i>
   <i type="int" name="NREBOOT">     0</i>
   <i type="int" name="NMIN">     0</i>
   <i name="EREF">      0.00000000</i>
   <separator name="electronic smearing" >
    <i type="int" name="ISMEAR">     0</i>
    <i name="SIGMA">      0.05000000</i>
    <i name="KSPACING">      0.50000000</i>
    <i type="logical" name="KGAMMA"> T  </i>
    <i type="logical" name="KBLOWUP"> T  </i>
   </separator>
   <separator name="electronic projectors" >
    <i type="logical" name="LREAL"> F  </i>
    <v name="ROPT">      0.00000000</v>
    <i type="int" name="LMAXPAW">  -100</i>
    <i type="int" name="LMAXMIX">     2</i>
    <i type="logical" name="NLSPLINE"> F  </i>
   </separator>
   <separator name="electronic startup" >
    <i type="int" name="ISTART">     0</i>
    <i type="int" name="ICHARG">     2</i>
    <i type="int" name="INIWAV">     1</i>
   </separator>
   <separator name="electronic spin" >
    <i type="int" name="ISPIN">     1</i>
    <i type="logical" name="LNONCOLLINEAR"> F  </i>
    <v name="MAGMOM">      1.00000000      1.00000000      1.00000000      1.00000000      1.00000000      1.00000000      1.00000000      1.00000000      1.00000000      1.00000000      1.00000000      1.00000000      1.00000000      1.00000000</v>
    <i name="NUPDOWN">     -1.00000000</i>
    <i type="logical" name="LSORBIT"> F  </i>
    <v name="SAXIS">      0.00000000      0.00000000      1.00000000</v>
    <i type="logical" name="LSPIRAL"> F  </i>
    <v name="QSPIRAL">      0.00000000      0.00000000      0.00000000</v>
    <i type="logical" name="LZEROZ"> F  </i>
   </separator>
   <separator name="electronic exchange-correlation" >
    <i type="logical" name="LASPH"> F  </i>
   </separator>
   <separator name="electronic convergence" >
    <i type="int" name="NELM">   100</i>
    <i type="int" name="NELMDL">    -5</i>
    <i type="int" name="NELMIN">     2</i>
    <i name="ENINI">    600.00000000</i>
    <separator name="electronic convergence detail" >
     <i type="logical" name="LDIAG"> T  </i>
     <i type="logical" name="LSUBROT"> F  </i>
     <i name="WEIMIN">      0.00000000</i>
     <i name="EBREAK">      0.00000001</i>
     <i name="DEPER">      0.30000000</i>
     <i type="int" name="NRMM">     4</i>
     <i name="TIME">      0.40000000</i>
    </separator>
   </separator>
   <separator name="electronic mixer" >
    <i name="AMIX">      0.40000000</i>
    <i name="BMIX">      1.00000000</i>
    <i name="AMIN">      0.10000000</i>
    <i name="AMIX_MAG">      1.60000000</i>
    <i name="BMIX_MAG">      1.00000000</i>
    <separator name="electronic mixer details" >
     <i type="int" name="IMIX">     4</i>
     <i type="logical" name="MIXFIRST"> F  </i>
     <i type="int" name="MAXMIX">   -45</i>
     <i name="WC">    100.00000000</i>
     <i type="int" name="INIMIX">     1</i>
     <i type="int" name="MIXPRE">     1</i>
     <i type="int" name="MREMOVE">     5</i>
    </separator>
   </separator>
   <separator name="electronic dipolcorrection" >
    <i type="logical" name="LDIPOL"> F  </i>
    <i type="logical" name="LMONO"> F  </i>
    <i type="int" name="IDIPOL">     0</i>
    <i name="EPSILON">      1.00000000</i>
    <v name="DIPOL">   -100.00000000   -100.00000000   -100.00000000</v>
    <i name="EFIELD">      0.00000000</i>
    <i type="logical" name="LVACPOTAV"> F  </i>
   </separator>
  </separator>
  <separator name="grids" >
   <i type="int" name="NGX">    48</i>
   <i type="int" name="NGY">    32</i>
   <i type="int" name="NGZ">    50</i>
   <i type="int" name="NGXF">    96</i>
   <i type="int" name="NGYF">    64</i>
   <i type="int" name="NGZF">   100</i>
   <i type="logical" name="ADDGRID"> F  </i>
  </separator>
  <separator name="ionic" >
   <i type="int" name="NSW">     0</i>
   <i type="int" name="IBRION">    -1</i>
   <i type="int" name="MDALGO">     0</i>
   <i type="int" name="ISIF">     2</i>
   <i name="PSTRESS">      0.00000000</i>
   <i name="EDIFFG">     -0.00100000</i>
   <i type="int" name="NFREE">     0</i>
   <i name="POTIM">      0.50000000</i>
   <i name="SMASS">     -3.00000000</i>
   <i name="SCALEE">      1.00000000</i>
  </separator>
  <separator name="ionic md" >
   <i name="TEBEG">      0.00010000</i>
   <i name="TEEND">      0.00010000</i>
   <i type="int" name="NBLOCK">     1</i>
   <i type="int" name="KBLOCK">     1</i>
   <i type="int" name="NPACO">   256</i>
   <i name="APACO">     10.00000000</i>
  </separator>
  <separator name="symmetry" >
   <i type="int" name="ISYM">     2</i>
   <i name="SYMPREC">      0.00001000</i>
  </separator>
  <separator name="dos" >
   <i type="int" name="LORBIT">     0</i>
   <v name="RWIGS">     -1.00000000</v>
   <i type="int" name="NEDOS">   301</i>
   <i name="EMIN">     10.00000000</i>
   <i name="EMAX">    -10.00000000</i>
   <i name="EFERMI">      0.00000000</i>
  </separator>
  <separator name="writing" >
   <i type="int" name="NWRITE">     2</i>
   <i type="logical" name="LWAVE"> F  </i>
   <i type="logical" name="LDOWNSAMPLE"> F  </i>
   <i type="logical" name="LCHARG"> F  </i>
   <i type="logical" name="LPARD"> F  </i>
   <i type="logical" name="LVTOT"> F  </i>
   <i type="logical" name="LVHAR"> F  </i>
   <i type="logical" name="LELF"> F  </i>
   <i type="logical" name="LOPTICS"> F  </i>
   <v name="STM">      0.00000000      0.00000000      0.00000000      0.00000000      0.00000000      0.00000000      0.00000000</v>
  </separator>
  <separator name="performance" >
   <i type="int" name="NPAR">    24</i>
   <i type="int" name="NSIM">     4</i>
   <i type="int" name="NBLK">    -1</i>
   <i type="logical" name="LPLANE"> T  </i>
   <i type="logical" name="LSCALAPACK"> T  </i>
   <i type="logical" name="LSCAAWARE"> F  </i>
   <i type="logical" name="LSCALU"> F  </i>
   <i type="logical" name="LASYNC"> F  </i>
   <i type="logical" name="LORBITALREAL"> F  </i>
  </separator>
  <separator name="miscellaneous" >
   <i type="int" name="IDIOT">     3</i>
   <i type="int" name="PHON_NSTRUCT">    -1</i>
   <i type="logical" name="LMUSIC"> F  </i>
   <v name="POMASS">     10.81100000</v>
   <v name="DARWINR">      0.00000000</v>
   <v name="DARWINV">      1.00000000</v>
   <i type="logical" name="LCORR"> T  </i>
  </separator>
  <i type="logical" name="GGA_COMPAT"> T  </i>
  <i type="logical" name="LBERRY"> F  </i>
  <i type="int" name="ICORELEVEL">     0</i>
  <i type="logical" name="LDAU"> F  </i>
  <i type="int" name="I_CONSTRAINED_M">     0</i>
  <separator name="electronic exchange-correlation" >
   <i type="string" name="GGA    ">PE</i>
   <i type="string" name="XC_C">1</i>
   <i type="int" name="VOSKOWN">     0</i>
   <i type="logical" name="LHFCALC"> F  </i>
   <i type="string" name="PRECFOCK"></i>
   <i type="logical" name="LSYMGRAD"> F  </i>
   <i type="logical" name="LHFONE"> F  </i>
   <i type="logical" name="LRHFCALC"> F  </i>
   <i type="logical" name="LTHOMAS"> F  </i>
   <i type="logical" name="LMODELHF"> F  </i>
   <i type="logical" name="LFOCKACE"> F  </i>
   <i name="ENCUT4O">     -1.00000000</i>
   <i type="int" name="EXXOEP">     0</i>
   <i type="int" name="FOURORBIT">     0</i>
   <i name="AEXX">      0.00000000</i>
   <i name="HFALPHA">      0.00000000</i>
   <i name="MCALPHA">      0.00000000</i>
   <i name="ALDAX">      1.00000000</i>
   <i name="AGGAX">      1.00000000</i>
   <i name="AMGGAX">      1.00000000</i>
   <i name="ALDAC">      1.00000000</i>
   <i name="AGGAC">      1.00000000</i>
   <i name="AMGGAC">      1.00000000</i>
   <i type="int" name="NKREDX">     1</i>
   <i type="int" name="NKREDY">     1</i>
   <i type="int" name="NKREDZ">     1</i>
   <i type="logical" name="SHIFTRED"> F  </i>
   <i type="logical" name="ODDONLY"> F  </i>
   <i type="logical" name="EVENONLY"> F  </i>
   <i type="int" name="LMAXFOCK">     0</i>
   <i type="int" name="NMAXFOCKAE">     0</i>
   <i type="logical" name="LFOCKAEDFT"> F  </i>
   <i name="HFSCREEN">      0.00000000</i>
   <i name="HFSCREENC">      0.00000000</i>
   <i type="int" name="NBANDSGWLOW">     0</i>
  </separator>
  <separator name="vdW DFT" >
   <i type="logical" name="LUSE_VDW"> F  </i>
   <i type="int" name="IVDW_NL">    -1</i>
   <i type="logical" name="LSPIN_VDW"> F  </i>
   <i name="ZAB_VDW">     -0.84910000</i>
   <i name="GAMMA_VDW">      1.39626340</i>
   <i name="ALPHA_VDW">      0.00000000</i>
   <i name="PARAM1">      0.12340000</i>
   <i name="PARAM2">      1.00000000</i>
   <i name="BPARAM">      6.30000000</i>
   <i name="CPARAM">      0.00930000</i>
  </separator>
  <separator name="model GW" >
   <i type="int" name="MODEL_GW">     0</i>
   <i name="MODEL_EPS0">      6.18340901</i>
   <i name="MODEL_ALPHA">      1.00000000</i>
  </separator>
  <separator name="linear response parameters" >
   <i type="logical" name="LEPSILON"> F  </i>
   <i type="logical" name="LRPA"> F  </i>
   <i type="logical" name="LNABLA"> F  </i>
   <i type="logical" name="LVEL"> F  </i>
   <i name="CSHIFT">      0.10000000</i>
   <i name="OMEGAMAX">     -1.00000000</i>
   <i name="DEG_THRESHOLD">      0.00200000</i>
   <i name="RTIME">     -0.10000000</i>
   <i name="WPLASMAI">      0.00000000</i>
   <v name="DFIELD">      0.00000000      0.00000000      0.00000000</v>
   <v name="WPLASMA">      0.00000000      0.00000000      0.00000000      0.00000000      0.00000000      0.00000000      0.00000000      0.00000000      0.00000000</v>
  </separator>
  <separator name="orbital magnetization" >
   <i type="logical" name="NUCIND"> F  </i>
   <v name="MAGPOS">      0.00000000      0.00000000      0.00000000</v>
   <i type="logical" name="LNICSALL"> T  </i>
   <i type="logical" name="ORBITALMAG"> F  </i>
   <i type="logical" name="LMAGBLOCH"> F  </i>
   <i type="logical" name="LCHIMAG"> F  </i>
   <i type="logical" name="LGAUGE"> T  </i>
   <i type="int" name="MAGATOM">     0</i>
   <v name="MAGDIPOL">      0.00000000      0.00000000      0.00000000</v>
   <v name="AVECCONST">      0.00000000      0.00000000      0.00000000</v>
  </separator>
  <separator name="response functions" >
   <i type="logical" name="LALL_IN_ONE"> F  </i>
   <i type="int" name="IALL_IN_ONE">    -1</i>
   <i type="int" name="NBANDS_WAVE">    -1</i>
   <i type="logical" name="LFINITE_TEMPERATURE"> F  </i>
   <i type="logical" name="LADDER"> F  </i>
   <i type="logical" name="LRPAFORCE"> F  </i>
   <i type="logical" name="LFXC"> F  </i>
   <i type="logical" name="LHARTREE"> T  </i>
   <i type="int" name="IBSE">     0</i>
   <v type="int" name="KPOINT">    -1     0     0     0</v>
   <i type="logical" name="LTCTC"> F  </i>
   <i type="logical" name="LTCTE"> F  </i>
   <i type="logical" name="LTETE"> F  </i>
   <i type="logical" name="LTRIPLET"> F  </i>
   <i type="logical" name="LFXCEPS"> F  </i>
   <i type="logical" name="LFXHEG"> F  </i>
   <i type="int" name="NATURALO">     2</i>
   <i type="logical" name="LHOLEGF"> F  </i>
   <i type="logical" name="L2ORDER"> F  </i>
   <i type="logical" name="LDMP1"> F  </i>
   <i type="logical" name="LMP2LT"> F  </i>
   <i type="logical" name="LSMP2LT"> F  </i>
   <i type="logical" name="LGWLF"> F  </i>
   <i name="ENCUTGW">     -1.60000002</i>
   <i name="ENCUTGWSOFT">     -1.60000002</i>
   <i name="ENCUTLF">     -1.00000000</i>
   <i type="logical" name="ESF_SPLINES"> F  </i>
   <i name="ESF_CONV">      0.01000000</i>
   <i type="int" name="ESF_NINTER">    15</i>
   <i type="int" name="LMAXMP2">    -1</i>
   <i name="SCISSOR">      0.00000000</i>
   <i type="int" name="NOMEGA">     0</i>
   <i type="int" name="NOMEGAR">     0</i>
   <i type="int" name="NBANDSGW">    -1</i>
   <i type="int" name="NBANDSO">    -1</i>
   <i type="int" name="NBANDSV">    -1</i>
   <i type="int" name="NELMGW">     1</i>
   <i type="int" name="NELMHF">     1</i>
   <i type="int" name="DIM">     3</i>
   <i type="int" name="IESPILON">     4</i>
   <i type="int" name="ANTIRES">     0</i>
   <i name="OMEGAMAX">    -30.00000000</i>
   <i name="OMEGAMIN">    -30.00000000</i>
   <i name="OMEGATL">   -200.00000000</i>
   <i type="int" name="OMEGAGRID">     0</i>
   <i name="CSHIFT">     -0.10000000</i>
   <i type="logical" name="LSELFENERGY"> F  </i>
   <i type="logical" name="LSPECTRAL"> F  </i>
   <i type="logical" name="LSPECTRALGW"> F  </i>
   <i type="logical" name="LSINGLES"> F  </i>
   <i type="logical" name="LFERMIGW"> F  </i>
   <i type="logical" name="ODDONLYGW"> F  </i>
   <i type="logical" name="EVENONLYGW"> F  </i>
   <i type="int" name="NKREDLFX">     1</i>
   <i type="int" name="NKREDLFY">     1</i>
   <i type="int" name="NKREDLFZ">     1</i>
   <i type="int" name="MAXMEM">  2800</i>
   <i type="int" name="TELESCOPE">     0</i>
   <i type="int" name="NTAUPAR">    -1</i>
   <i type="int" name="NOMEGAPAR">    -1</i>
   <i name="DAMP_NEWTON">      0.80000001</i>
   <i name="LAMBDA">      1.00000000</i>
  </separator>
  <separator name="External order field" >
   <i name="OFIELD_KAPPA">      0.00000000</i>
   <v name="OFIELD_K">      0.00000000      0.00000000      0.00000000</v>
   <i name="OFIELD_Q6_NEAR">      0.00000000</i>
   <i name="OFIELD_Q6_FAR">      0.00000000</i>
   <i name="OFIELD_A">      0.00000000</i>
  </separator>
  <separator name="optional k-points parameters" >
   <i type="int" name="KPOINTS_OPT_MODE">     1</i>
   <i type="logical" name="LKPOINTS_OPT"> F  </i>
  </separator>
 </parameters>
 <atominfo>
  <atoms>      14 </atoms>
  <types>       1 </types>
  <array name="atoms" >
   <dimension dim="1">ion</dimension>
   <field type="string">element</field>
   <field type="int">atomtype</field>
   <set>
    <rc><c>B </c><c>   1</c></rc>
    <rc><c>B </c><c>   1</c></rc>
    <rc><c>B </c><c>   1</c></rc>
    <rc><c>B </c><c>   1</c></rc>
    <rc><c>B </c><c>   1</c></rc>
    <rc><c>B </c><c>   1</c></rc>
    <rc><c>B </c><c>   1</c></rc>
    <rc><c>B </c><c>   1</c></rc>
    <rc><c>B </c><c>   1</c></rc>
    <rc><c>B </c><c>   1</c></rc>
    <rc><c>B </c><c>   1</c></rc>
    <rc><c>B </c><c>   1</c></rc>
    <rc><c>B </c><c>   1</c></rc>
    <rc><c>B </c><c>   1</c></rc>
   </set>
  </array>
  <array name="atomtypes" >
   <dimension dim="1">type</dimension>
   <field type="int">atomspertype</field>
   <field type="string">element</field>
   <field>mass</field>
   <field>valence</field>
   <field type="string">pseudopotential</field>
   <set>
    <rc><c>  14</c><c>B </c><c>     10.81100000</c><c>      3.00000000</c><c>  PAW_PBE B 06Sep2000                   </c></rc>
   </set>
  </array>
 </atominfo>
 <structure name="initialpos" >
  <crystal>
   <varray name="basis" >
    <v>       5.71295160       0.00000000       0.00000000 </v>
    <v>       0.00000000       4.05923412       0.00000000 </v>
    <v>       0.00000000       0.00000000       6.22157176 </v>
   </varray>
   <i name="volume">    144.27954358 </i>
   <varray name="rec_basis" >
    <v>       0.17504087       0.00000000       0.00000000 </v>
    <v>       0.00000000       0.24635189       0.00000000 </v>
    <v>       0.00000000       0.00000000       0.16073109 </v>
   </varray>
  </crystal>
  <varray name="positions" >
   <v>       0.52123000       0.50000000       0.63796000 </v>
   <v>       0.47877000       0.50000000       0.36204000 </v>
   <v>       0.97877000       0.50000000       0.63796000 </v>
   <v>       0.02123000       0.50000000       0.36204000 </v>
   <v>       0.60090000       0.50000000       0.89991000 </v>
   <v>       0.39910000       0.50000000       0.10009000 </v>
   <v>       0.89910000       0.50000000       0.89991000 </v>
   <v>       0.10090000       0.50000000       0.10009000 </v>
   <v>       0.75000000       0.79171000       0.72973000 </v>
   <v>       0.25000000       0.20829000       0.27027000 </v>
   <v>       0.75000000       0.20829000       0.72973000 </v>
   <v>       0.25000000       0.79171000       0.27027000 </v>
   <v>       0.25000000       0.50000000       0.52367000 </v>
   <v>       0.75000000       0.50000000       0.47633000 </v>
  </varray>
 </structure>
 <calculation>
  <scstep>
   <time name="dav">    5.58    5.59</time>
   <time name="total">    5.60    5.61</time>
   <energy>
    <i name="alphaZ">     93.45634646 </i>
    <i name="ewald">   -793.54465588 </i>
    <i name="hartreedc">   -272.17045357 </i>
    <i name="XCdc">     97.28926938 </i>
    <i name="pawpsdc">    608.99811708 </i>
    <i name="pawaedc">   -597.02363782 </i>
    <i name="eentropy">     -0.00224639 </i>
    <i name="bandstr">    -53.98688116 </i>
    <i name="atom">    996.37441054 </i>
    <i name="e_fr_energy">     79.39026865 </i>
    <i name="e_wo_entrp">     79.39251504 </i>
    <i name="e_0_energy">     79.39139185 </i>
   </energy>
  </scstep>
  <scstep>
   <time name="dav">    7.36    7.36</time>
   <time name="total">    7.36    7.36</time>
   <energy>
    <i name="e_fr_energy">    -91.59375800 </i>
    <i name="e_wo_entrp">    -91.59043699 </i>
    <i name="e_0_energy">    -91.59209750 </i>
   </energy>
  </scstep>
  <scstep>
   <time name="dav">    7.74    7.74</time>
   <time name="total">    7.74    7.74</time>
   <energy>
    <i name="e_fr_energy">    -97.44989520 </i>
    <i name="e_wo_entrp">    -97.44622084 </i>
    <i name="e_0_energy">    -97.44805802 </i>
   </energy>
  </scstep>
  <scstep>
   <time name="dav">    6.58    6.58</time>
   <time name="total">    6.58    6.58</time>
   <energy>
    <i name="e_fr_energy">    -97.48458641 </i>
    <i name="e_wo_entrp">    -97.48091753 </i>
    <i name="e_0_energy">    -97.48275197 </i>
   </energy>
  </scstep>
  <scstep>
   <time name="dav">    7.71    7.71</time>
   <time name="total">    7.80    7.81</time>
   <energy>
    <i name="e_fr_energy">    -97.48497665 </i>
    <i name="e_wo_entrp">    -97.48130782 </i>
    <i name="e_0_energy">    -97.48314223 </i>
   </energy>
  </scstep>
  <scstep>
   <time name="dav">    7.66    7.66</time>
   <time name="total">    7.77    7.77</time>
   <energy>
    <i name="e_fr_energy">    -92.19232598 </i>
    <i name="e_wo_entrp">    -92.18885999 </i>
    <i name="e_0_energy">    -92.19059299 </i>
   </energy>
  </scstep>
  <scstep>
   <time name="dav">    7.99    7.99</time>
   <time name="total">    8.09    8.10</time>
   <energy>
    <i name="e_fr_energy">    -90.57329648 </i>
    <i name="e_wo_entrp">    -90.57013733 </i>
    <i name="e_0_energy">    -90.57171690 </i>
   </energy>
  </scstep>
  <scstep>
   <time name="dav">    5.99    5.99</time>
   <time name="total">    6.09    6.09</time>
   <energy>
    <i name="e_fr_energy">    -90.58588607 </i>
    <i name="e_wo_entrp">    -90.58269980 </i>
    <i name="e_0_energy">    -90.58429293 </i>
   </energy>
  </scstep>
  <scstep>
   <time name="dav">    7.48    7.48</time>
   <time name="total">    7.58    7.58</time>
   <energy>
    <i name="e_fr_energy">    -90.60008663 </i>
    <i name="e_wo_entrp">    -90.59681885 </i>
    <i name="e_0_energy">    -90.59845274 </i>
   </energy>
  </scstep>
  <scstep>
   <time name="dav">    6.17    6.17</time>
   <time name="total">    6.27    6.27</time>
   <energy>
    <i name="e_fr_energy">    -90.60411174 </i>
    <i name="e_wo_entrp">    -90.60088861 </i>
    <i name="e_0_energy">    -90.60250017 </i>
   </energy>
  </scstep>
  <scstep>
   <time name="dav">    6.97    6.97</time>
   <time name="total">    7.07    7.07</time>
   <energy>
    <i name="e_fr_energy">    -90.60518203 </i>
    <i name="e_wo_entrp">    -90.60196904 </i>
    <i name="e_0_energy">    -90.60357554 </i>
   </energy>
  </scstep>
  <scstep>
   <time name="dav">    6.66    6.66</time>
   <time name="total">    6.76    6.76</time>
   <energy>
    <i name="e_fr_energy">    -90.60529505 </i>
    <i name="e_wo_entrp">    -90.60207612 </i>
    <i name="e_0_energy">    -90.60368558 </i>
   </energy>
  </scstep>
  <scstep>
   <time name="dav">    7.51    7.51</time>
   <time name="total">    7.61    7.61</time>
   <energy>
    <i name="e_fr_energy">    -90.60529995 </i>
    <i name="e_wo_entrp">    -90.60208088 </i>
    <i name="e_0_energy">    -90.60369041 </i>
   </energy>
  </scstep>
  <scstep>
   <time name="dav">    6.64    6.64</time>
   <time name="total">    6.65    6.65</time>
   <energy>
    <i name="alphaZ">     93.45634646 </i>
    <i name="ewald">   -793.54465588 </i>
    <i name="hartreedc">   -349.17139020 </i>
    <i name="XCdc">    101.34810766 </i>
    <i name="pawpsdc">   3681.46195490 </i>
    <i name="pawaedc">  -3670.62519119 </i>
    <i name="eentropy">     -0.00321921 </i>
    <i name="bandstr">   -149.90166370 </i>
    <i name="atom">    996.37441054 </i>
    <i name="e_fr_energy">    -90.60530062 </i>
    <i name="e_wo_entrp">    -90.60208141 </i>
    <i name="e_0_energy">    -90.60369101 </i>
   </energy>
  </scstep>
  <structure>
   <crystal>
    <varray name="basis" >
     <v>       5.71295160       0.00000000       0.00000000 </v>
     <v>       0.00000000       4.05923412       0.00000000 </v>
     <v>       0.00000000       0.00000000       6.22157176 </v>
    </varray>
    <i name="volume">    144.27954358 </i>
    <varray name="rec_basis" >
     <v>       0.17504087       0.00000000       0.00000000 </v>
     <v>       0.00000000       0.24635189       0.00000000 </v>
     <v>       0.00000000       0.00000000       0.16073109 </v>
    </varray>
   </crystal>
   <varray name="positions" >
    <v>       0.52123000       0.50000000       0.63796000 </v>
    <v>       0.47877000       0.50000000       0.36204000 </v>
    <v>       0.97877000       0.50000000       0.63796000 </v>
    <v>       0.02123000       0.50000000       0.36204000 </v>
    <v>       0.60090000       0.50000000       0.89991000 </v>
    <v>       0.39910000       0.50000000       0.10009000 </v>
    <v>       0.89910000       0.50000000       0.89991000 </v>
    <v>       0.10090000       0.50000000       0.10009000 </v>
    <v>       0.75000000       0.79171000       0.72973000 </v>
    <v>       0.25000000       0.20829000       0.27027000 </v>
    <v>       0.75000000       0.20829000       0.72973000 </v>
    <v>       0.25000000       0.79171000       0.27027000 </v>
    <v>       0.25000000       0.50000000       0.52367000 </v>
    <v>       0.75000000       0.50000000       0.47633000 </v>
   </varray>
  </structure>
  <varray name="forces" >
   <v>       0.04133279       0.00000000       0.03384386 </v>
   <v>      -0.04133279       0.00000000      -0.03384386 </v>
   <v>      -0.04133279      -0.00000000       0.03384386 </v>
   <v>       0.04133279      -0.00000000      -0.03384386 </v>
   <v>      -0.79812754       0.00000000       0.23006290 </v>
   <v>       0.79812754       0.00000000      -0.23006290 </v>
   <v>       0.79812754      -0.00000000       0.23006290 </v>
   <v>      -0.79812754      -0.00000000      -0.23006290 </v>
   <v>      -0.00000000       0.05834150      -0.06912114 </v>
   <v>       0.00000000      -0.05834150       0.06912114 </v>
   <v>      -0.00000000      -0.05834150      -0.06912114 </v>
   <v>      -0.00000000       0.05834150       0.06912114 </v>
   <v>      -0.00000000       0.00000000       0.02174412 </v>
   <v>       0.00000000      -0.00000000      -0.02174412 </v>
  </varray>
  <varray name="stress" >
   <v>      -2.30011970       0.00000000       0.00000000 </v>
   <v>       0.00000000      -8.06854259       0.00000000 </v>
   <v>       0.00000000       0.00000000     -21.43301345 </v>
  </varray>
  <energy>
   <i name="e_fr_energy">    -90.60530062 </i>
   <i name="e_wo_entrp">    -90.60208141 </i>
   <i name="e_0_energy">    -90.60369101 </i>
  </energy>
  <time name="totalsc">  103.78  103.83</time>
  <eigenvalues>
   <array>
    <dimension dim="1">band</dimension>
    <dimension dim="2">kpoint</dimension>
    <dimension dim="3">spin</dimension>
    <field>eigene</field>
    <field>occ</field>
    <set>
     <set comment="spin 1">
      <set comment="kpoint 1">
       <r>  -12.7152    1.0000 </r>
       <r>  -11.5742    1.0000 </r>
       <r>   -8.6699    1.0000 </r>
       <r>   -8.4343    1.0000 </r>
       <r>   -6.0871    1.0000 </r>
       <r>   -5.1543    1.0000 </r>
       <r>   -4.6925    1.0000 </r>
       <r>   -4.2897    1.0000 </r>
       <r>   -4.0550    1.0000 </r>
       <r>   -3.5691    1.0000 </r>
       <r>   -2.6305    1.0000 </r>
       <r>   -2.3623    1.0000 </r>
       <r>   -1.8735    1.0000 </r>
       <r>   -1.1320    1.0000 </r>
       <r>   -0.1028    1.0000 </r>
       <r>   -0.0721    1.0000 </r>
       <r>    0.1125    1.0000 </r>
       <r>    0.1312    1.0000 </r>
       <r>    0.5219    1.0000 </r>
       <r>    1.9733    0.0000 </r>
       <r>    2.0351    0.0000 </r>
       <r>    2.1638    0.0000 </r>
       <r>    5.3926    0.0000 </r>
       <r>    5.6825    0.0000 </r>
       <r>    5.7673    0.0000 </r>
       <r>    5.8933    0.0000 </r>
       <r>    6.7398    0.0000 </r>
       <r>    7.4740    0.0000 </r>
       <r>    7.7986    0.0000 </r>
       <r>    8.4388    0.0000 </r>
       <r>    8.6892    0.0000 </r>
       <r>    8.8489    0.0000 </r>
       <r>    8.9235    0.0000 </r>
       <r>   10.0419    0.0000 </r>
       <r>   11.1083    0.0000 </r>
       <r>   11.2263    0.0000 </r>
       <r>   11.5517    0.0000 </r>
       <r>   11.6778    0.0000 </r>
       <r>   11.8487    0.0000 </r>
       <r>   12.3175    0.0000 </r>
       <r>   12.7529    0.0000 </r>
       <r>   13.3336    0.0000 </r>
       <r>   13.3612    0.0000 </r>
       <r>   15.2345    0.0000 </r>
       <r>   15.4346    0.0000 </r>
       <r>   15.9166    0.0000 </r>
       <r>   16.2048    0.0000 </r>
       <r>   16.2226    0.0000 </r>
      </set>
      <set comment="kpoint 2">
       <r>  -12.6715    1.0000 </r>
       <r>  -11.6481    1.0000 </r>
       <r>   -8.6486    1.0000 </r>
       <r>   -8.4228    1.0000 </r>
       <r>   -6.0194    1.0000 </r>
       <r>   -5.4915    1.0000 </r>
       <r>   -4.8125    1.0000 </r>
       <r>   -4.0297    1.0000 </r>
       <r>   -3.8134    1.0000 </r>
       <r>   -3.2345    1.0000 </r>
       <r>   -2.7000    1.0000 </r>
       <r>   -2.3428    1.0000 </r>
       <r>   -1.9501    1.0000 </r>
       <r>   -1.4380    1.0000 </r>
       <r>   -0.0630    1.0000 </r>
       <r>   -0.0603    1.0000 </r>
       <r>    0.0553    1.0000 </r>
       <r>    0.1538    1.0000 </r>
       <r>    0.4266    1.0000 </r>
       <r>    1.8875    0.0706 </r>
       <r>    1.9576    0.0003 </r>
       <r>    2.0436    0.0000 </r>
       <r>    5.4824    0.0000 </r>
       <r>    5.6855    0.0000 </r>
       <r>    5.8013    0.0000 </r>
       <r>    6.2354    0.0000 </r>
       <r>    6.6553    0.0000 </r>
       <r>    7.1147    0.0000 </r>
       <r>    8.0021    0.0000 </r>
       <r>    8.5753    0.0000 </r>
       <r>    8.9361    0.0000 </r>
       <r>    9.0213    0.0000 </r>
       <r>    9.1043    0.0000 </r>
       <r>   10.1437    0.0000 </r>
       <r>   10.8372    0.0000 </r>
       <r>   11.0226    0.0000 </r>
       <r>   11.1799    0.0000 </r>
       <r>   11.5968    0.0000 </r>
       <r>   12.0652    0.0000 </r>
       <r>   12.4035    0.0000 </r>
       <r>   13.0014    0.0000 </r>
       <r>   13.0111    0.0000 </r>
       <r>   13.8868    0.0000 </r>
       <r>   14.7277    0.0000 </r>
       <r>   15.6202    0.0000 </r>
       <r>   15.7075    0.0000 </r>
       <r>   16.0883    0.0000 </r>
       <r>   16.3774    0.0000 </r>
      </set>
      <set comment="kpoint 3">
       <r>  -12.5861    1.0000 </r>
       <r>  -11.7811    1.0000 </r>
       <r>   -8.6048    1.0000 </r>
       <r>   -8.4081    1.0000 </r>
       <r>   -5.9974    1.0000 </r>
       <r>   -5.8162    1.0000 </r>
       <r>   -4.7657    1.0000 </r>
       <r>   -3.9043    1.0000 </r>
       <r>   -3.3036    1.0000 </r>
       <r>   -2.8664    1.0000 </r>
       <r>   -2.7459    1.0000 </r>
       <r>   -2.3035    1.0000 </r>
       <r>   -2.0583    1.0000 </r>
       <r>   -1.9409    1.0000 </r>
       <r>   -0.2665    1.0000 </r>
       <r>   -0.0241    1.0000 </r>
       <r>    0.1020    1.0000 </r>
       <r>    0.1222    1.0000 </r>
       <r>    0.3966    1.0000 </r>
       <r>    1.7397    0.9966 </r>
       <r>    1.8166    0.7035 </r>
       <r>    1.8256    0.6097 </r>
       <r>    5.6041    0.0000 </r>
       <r>    5.6418    0.0000 </r>
       <r>    6.1098    0.0000 </r>
       <r>    6.5309    0.0000 </r>
       <r>    6.6907    0.0000 </r>
       <r>    6.8611    0.0000 </r>
       <r>    8.1491    0.0000 </r>
       <r>    8.7247    0.0000 </r>
       <r>    8.8891    0.0000 </r>
       <r>    9.4662    0.0000 </r>
       <r>    9.5503    0.0000 </r>
       <r>   10.1810    0.0000 </r>
       <r>   10.3793    0.0000 </r>
       <r>   10.5171    0.0000 </r>
       <r>   11.2953    0.0000 </r>
       <r>   11.7418    0.0000 </r>
       <r>   12.2993    0.0000 </r>
       <r>   12.4469    0.0000 </r>
       <r>   12.6972    0.0000 </r>
       <r>   12.7967    0.0000 </r>
       <r>   14.5091    0.0000 </r>
       <r>   14.7844    0.0000 </r>
       <r>   15.1123    0.0000 </r>
       <r>   15.8487    0.0000 </r>
       <r>   15.8721    0.0000 </r>
       <r>   16.1474    0.0000 </r>
      </set>
      <set comment="kpoint 4">
       <r>  -12.4628    1.0000 </r>
       <r>  -11.9505    1.0000 </r>
       <r>   -8.5430    1.0000 </r>
       <r>   -8.4046    1.0000 </r>
       <r>   -6.0763    1.0000 </r>
       <r>   -6.0487    1.0000 </r>
       <r>   -4.4397    1.0000 </r>
       <r>   -3.7371    1.0000 </r>
       <r>   -3.0585    1.0000 </r>
       <r>   -2.9218    1.0000 </r>
       <r>   -2.4734    1.0000 </r>
       <r>   -2.2868    1.0000 </r>
       <r>   -2.1873    1.0000 </r>
       <r>   -2.1565    1.0000 </r>
       <r>   -0.5656    1.0000 </r>
       <r>   -0.2906    1.0000 </r>
       <r>    0.1374    1.0000 </r>
       <r>    0.2119    1.0000 </r>
       <r>    0.5688    1.0000 </r>
       <r>    1.4813    1.0000 </r>
       <r>    1.6191    1.0000 </r>
       <r>    1.6784    1.0000 </r>
       <r>    5.6279    0.0000 </r>
       <r>    5.6886    0.0000 </r>
       <r>    6.4315    0.0000 </r>
       <r>    6.6050    0.0000 </r>
       <r>    6.6302    0.0000 </r>
       <r>    7.3346    0.0000 </r>
       <r>    8.2708    0.0000 </r>
       <r>    8.6001    0.0000 </r>
       <r>    8.7074    0.0000 </r>
       <r>    9.4410    0.0000 </r>
       <r>    9.9480    0.0000 </r>
       <r>   10.0219    0.0000 </r>
       <r>   10.2913    0.0000 </r>
       <r>   11.0262    0.0000 </r>
       <r>   11.3114    0.0000 </r>
       <r>   11.8287    0.0000 </r>
       <r>   12.0951    0.0000 </r>
       <r>   12.1642    0.0000 </r>
       <r>   12.4240    0.0000 </r>
       <r>   13.1566    0.0000 </r>
       <r>   14.6061    0.0000 </r>
       <r>   14.8563    0.0000 </r>
       <r>   15.1224    0.0000 </r>
       <r>   15.2509    0.0000 </r>
       <r>   15.4425    0.0000 </r>
       <r>   16.2449    0.0000 </r>
      </set>
      <set comment="kpoint 5">
       <r>  -12.3083    1.0000 </r>
       <r>  -12.1327    1.0000 </r>
       <r>   -8.4773    1.0000 </r>
       <r>   -8.4268    1.0000 </r>
       <r>   -6.1627    1.0000 </r>
       <r>   -6.1596    1.0000 </r>
       <r>   -3.9264    1.0000 </r>
       <r>   -3.5300    1.0000 </r>
       <r>   -3.3290    1.0000 </r>
       <r>   -3.2947    1.0000 </r>
       <r>   -2.3882    1.0000 </r>
       <r>   -2.2641    1.0000 </r>
       <r>   -2.0016    1.0000 </r>
       <r>   -1.9436    1.0000 </r>
       <r>   -0.7863    1.0000 </r>
       <r>   -0.6496    1.0000 </r>
       <r>    0.2198    1.0000 </r>
       <r>    0.2528    1.0000 </r>
       <r>    0.8283    1.0000 </r>
       <r>    1.1441    1.0000 </r>
       <r>    1.5389    1.0000 </r>
       <r>    1.5656    1.0000 </r>
       <r>    5.6577    0.0000 </r>
       <r>    5.6975    0.0000 </r>
       <r>    6.4119    0.0000 </r>
       <r>    6.4766    0.0000 </r>
       <r>    7.2944    0.0000 </r>
       <r>    7.9904    0.0000 </r>
       <r>    8.0155    0.0000 </r>
       <r>    8.3860    0.0000 </r>
       <r>    8.5215    0.0000 </r>
       <r>    8.7008    0.0000 </r>
       <r>   10.4048    0.0000 </r>
       <r>   10.4161    0.0000 </r>
       <r>   10.6516    0.0000 </r>
       <r>   11.1077    0.0000 </r>
       <r>   11.2913    0.0000 </r>
       <r>   11.4782    0.0000 </r>
       <r>   11.8090    0.0000 </r>
       <r>   12.3725    0.0000 </r>
       <r>   12.6184    0.0000 </r>
       <r>   13.1490    0.0000 </r>
       <r>   14.4854    0.0000 </r>
       <r>   14.6098    0.0000 </r>
       <r>   14.7555    0.0000 </r>
       <r>   14.8163    0.0000 </r>
       <r>   15.9609    0.0000 </r>
       <r>   16.3073    0.0000 </r>
      </set>
      <set comment="kpoint 6">
       <r>  -12.6914    1.0000 </r>
       <r>  -11.5527    1.0000 </r>
       <r>   -8.6514    1.0000 </r>
       <r>   -8.4115    1.0000 </r>
       <r>   -6.0606    1.0000 </r>
       <r>   -5.1207    1.0000 </r>
       <r>   -4.6707    1.0000 </r>
       <r>   -4.5892    1.0000 </r>
       <r>   -4.1981    1.0000 </r>
       <r>   -3.5467    1.0000 </r>
       <r>   -3.3213    1.0000 </r>
       <r>   -1.8314    1.0000 </r>
       <r>   -1.1275    1.0000 </r>
       <r>   -1.0770    1.0000 </r>
       <r>   -0.3349    1.0000 </r>
       <r>   -0.3069    1.0000 </r>
       <r>    0.1260    1.0000 </r>
       <r>    0.2014    1.0000 </r>
       <r>    0.5996    1.0000 </r>
       <r>    1.7076    0.9999 </r>
       <r>    1.7863    0.9179 </r>
       <r>    2.2157    0.0000 </r>
       <r>    5.5143    0.0000 </r>
       <r>    5.6397    0.0000 </r>
       <r>    5.6780    0.0000 </r>
       <r>    5.9318    0.0000 </r>
       <r>    7.0226    0.0000 </r>
       <r>    7.7585    0.0000 </r>
       <r>    7.9881    0.0000 </r>
       <r>    8.1058    0.0000 </r>
       <r>    8.6947    0.0000 </r>
       <r>    8.9777    0.0000 </r>
       <r>    9.0407    0.0000 </r>
       <r>   10.4878    0.0000 </r>
       <r>   11.1599    0.0000 </r>
       <r>   11.3185    0.0000 </r>
       <r>   11.4866    0.0000 </r>
       <r>   11.7798    0.0000 </r>
       <r>   11.9599    0.0000 </r>
       <r>   12.5938    0.0000 </r>
       <r>   12.7551    0.0000 </r>
       <r>   13.0754    0.0000 </r>
       <r>   13.0775    0.0000 </r>
       <r>   15.1936    0.0000 </r>
       <r>   15.2378    0.0000 </r>
       <r>   15.7204    0.0000 </r>
       <r>   15.7275    0.0000 </r>
       <r>   16.0817    0.0000 </r>
      </set>
      <set comment="kpoint 7">
       <r>  -12.6478    1.0000 </r>
       <r>  -11.6264    1.0000 </r>
       <r>   -8.6299    1.0000 </r>
       <r>   -8.4003    1.0000 </r>
       <r>   -5.9912    1.0000 </r>
       <r>   -5.4615    1.0000 </r>
       <r>   -4.7927    1.0000 </r>
       <r>   -4.5093    1.0000 </r>
       <r>   -3.7757    1.0000 </r>
       <r>   -3.4008    1.0000 </r>
       <r>   -3.1971    1.0000 </r>
       <r>   -1.8100    1.0000 </r>
       <r>   -1.4326    1.0000 </r>
       <r>   -1.1931    1.0000 </r>
       <r>   -0.2966    1.0000 </r>
       <r>   -0.2312    1.0000 </r>
       <r>    0.0928    1.0000 </r>
       <r>    0.1754    1.0000 </r>
       <r>    0.4967    1.0000 </r>
       <r>    1.6276    1.0000 </r>
       <r>    1.7102    0.9998 </r>
       <r>    2.0858    0.0000 </r>
       <r>    5.5906    0.0000 </r>
       <r>    5.7395    0.0000 </r>
       <r>    5.8608    0.0000 </r>
       <r>    6.0439    0.0000 </r>
       <r>    6.9401    0.0000 </r>
       <r>    7.4346    0.0000 </r>
       <r>    8.1339    0.0000 </r>
       <r>    8.2704    0.0000 </r>
       <r>    9.0066    0.0000 </r>
       <r>    9.0526    0.0000 </r>
       <r>    9.3119    0.0000 </r>
       <r>   10.4050    0.0000 </r>
       <r>   10.7705    0.0000 </r>
       <r>   10.9762    0.0000 </r>
       <r>   11.3722    0.0000 </r>
       <r>   11.7695    0.0000 </r>
       <r>   12.1784    0.0000 </r>
       <r>   12.6398    0.0000 </r>
       <r>   12.7574    0.0000 </r>
       <r>   13.0349    0.0000 </r>
       <r>   13.6079    0.0000 </r>
       <r>   14.8117    0.0000 </r>
       <r>   15.2636    0.0000 </r>
       <r>   15.6266    0.0000 </r>
       <r>   15.6571    0.0000 </r>
       <r>   16.2616    0.0000 </r>
      </set>
      <set comment="kpoint 8">
       <r>  -12.5625    1.0000 </r>
       <r>  -11.7592    1.0000 </r>
       <r>   -8.5859    1.0000 </r>
       <r>   -8.3863    1.0000 </r>
       <r>   -5.9665    1.0000 </r>
       <r>   -5.7861    1.0000 </r>
       <r>   -4.7493    1.0000 </r>
       <r>   -4.4023    1.0000 </r>
       <r>   -3.5213    1.0000 </r>
       <r>   -3.2521    1.0000 </r>
       <r>   -2.7332    1.0000 </r>
       <r>   -1.9363    1.0000 </r>
       <r>   -1.7662    1.0000 </r>
       <r>   -1.3533    1.0000 </r>
       <r>   -0.2683    1.0000 </r>
       <r>   -0.2517    1.0000 </r>
       <r>    0.0163    1.0000 </r>
       <r>    0.1625    1.0000 </r>
       <r>    0.4207    1.0000 </r>
       <r>    1.4935    1.0000 </r>
       <r>    1.5809    1.0000 </r>
       <r>    1.8392    0.4581 </r>
       <r>    5.7830    0.0000 </r>
       <r>    5.8680    0.0000 </r>
       <r>    5.9472    0.0000 </r>
       <r>    6.4891    0.0000 </r>
       <r>    6.8209    0.0000 </r>
       <r>    7.2084    0.0000 </r>
       <r>    8.3410    0.0000 </r>
       <r>    8.4005    0.0000 </r>
       <r>    8.9854    0.0000 </r>
       <r>    9.5052    0.0000 </r>
       <r>    9.7738    0.0000 </r>
       <r>   10.0270    0.0000 </r>
       <r>   10.2498    0.0000 </r>
       <r>   10.7116    0.0000 </r>
       <r>   11.4329    0.0000 </r>
       <r>   12.0052    0.0000 </r>
       <r>   12.1944    0.0000 </r>
       <r>   12.4601    0.0000 </r>
       <r>   12.8363    0.0000 </r>
       <r>   12.9241    0.0000 </r>
       <r>   14.1827    0.0000 </r>
       <r>   14.9477    0.0000 </r>
       <r>   15.0358    0.0000 </r>
       <r>   15.5124    0.0000 </r>
       <r>   15.5825    0.0000 </r>
       <r>   16.2823    0.0000 </r>
      </set>
      <set comment="kpoint 9">
       <r>  -12.4395    1.0000 </r>
       <r>  -11.9282    1.0000 </r>
       <r>   -8.5239    1.0000 </r>
       <r>   -8.3837    1.0000 </r>
       <r>   -6.0441    1.0000 </r>
       <r>   -6.0177    1.0000 </r>
       <r>   -4.4254    1.0000 </r>
       <r>   -4.2568    1.0000 </r>
       <r>   -3.6907    1.0000 </r>
       <r>   -2.8752    1.0000 </r>
       <r>   -2.3929    1.0000 </r>
       <r>   -2.2521    1.0000 </r>
       <r>   -1.7028    1.0000 </r>
       <r>   -1.5142    1.0000 </r>
       <r>   -0.5282    1.0000 </r>
       <r>   -0.3499    1.0000 </r>
       <r>    0.0466    1.0000 </r>
       <r>    0.0785    1.0000 </r>
       <r>    0.5793    1.0000 </r>
       <r>    1.3543    1.0000 </r>
       <r>    1.4365    1.0000 </r>
       <r>    1.5175    1.0000 </r>
       <r>    5.8001    0.0000 </r>
       <r>    5.9406    0.0000 </r>
       <r>    6.4509    0.0000 </r>
       <r>    6.7334    0.0000 </r>
       <r>    6.8075    0.0000 </r>
       <r>    7.2967    0.0000 </r>
       <r>    8.3338    0.0000 </r>
       <r>    8.5064    0.0000 </r>
       <r>    8.8356    0.0000 </r>
       <r>    9.2788    0.0000 </r>
       <r>    9.9691    0.0000 </r>
       <r>    9.9907    0.0000 </r>
       <r>   10.3423    0.0000 </r>
       <r>   11.1019    0.0000 </r>
       <r>   11.2634    0.0000 </r>
       <r>   11.7328    0.0000 </r>
       <r>   12.1665    0.0000 </r>
       <r>   12.4473    0.0000 </r>
       <r>   12.6219    0.0000 </r>
       <r>   13.3560    0.0000 </r>
       <r>   14.6428    0.0000 </r>
       <r>   14.6533    0.0000 </r>
       <r>   15.0223    0.0000 </r>
       <r>   15.1839    0.0000 </r>
       <r>   15.5158    0.0000 </r>
       <r>   16.2597    0.0000 </r>
      </set>
      <set comment="kpoint 10">
       <r>  -12.2854    1.0000 </r>
       <r>  -12.1101    1.0000 </r>
       <r>   -8.4577    1.0000 </r>
       <r>   -8.4067    1.0000 </r>
       <r>   -6.1310    1.0000 </r>
       <r>   -6.1274    1.0000 </r>
       <r>   -4.0798    1.0000 </r>
       <r>   -3.9187    1.0000 </r>
       <r>   -3.8786    1.0000 </r>
       <r>   -3.3165    1.0000 </r>
       <r>   -2.1368    1.0000 </r>
       <r>   -1.9463    1.0000 </r>
       <r>   -1.6347    1.0000 </r>
       <r>   -1.6275    1.0000 </r>
       <r>   -0.7487    1.0000 </r>
       <r>   -0.6453    1.0000 </r>
       <r>    0.0816    1.0000 </r>
       <r>    0.1125    1.0000 </r>
       <r>    0.8376    1.0000 </r>
       <r>    1.1507    1.0000 </r>
       <r>    1.3014    1.0000 </r>
       <r>    1.3251    1.0000 </r>
       <r>    5.8529    0.0000 </r>
       <r>    5.9210    0.0000 </r>
       <r>    6.7244    0.0000 </r>
       <r>    6.7754    0.0000 </r>
       <r>    7.1138    0.0000 </r>
       <r>    7.8202    0.0000 </r>
       <r>    7.8612    0.0000 </r>
       <r>    8.5377    0.0000 </r>
       <r>    8.5969    0.0000 </r>
       <r>    8.7076    0.0000 </r>
       <r>   10.2162    0.0000 </r>
       <r>   10.4662    0.0000 </r>
       <r>   10.7061    0.0000 </r>
       <r>   10.8002    0.0000 </r>
       <r>   11.4388    0.0000 </r>
       <r>   11.5364    0.0000 </r>
       <r>   11.8856    0.0000 </r>
       <r>   12.5377    0.0000 </r>
       <r>   12.9231    0.0000 </r>
       <r>   13.3772    0.0000 </r>
       <r>   14.4289    0.0000 </r>
       <r>   14.6149    0.0000 </r>
       <r>   14.7156    0.0000 </r>
       <r>   14.9336    0.0000 </r>
       <r>   15.9876    0.0000 </r>
       <r>   16.2827    0.0000 </r>
      </set>
      <set comment="kpoint 11">
       <r>  -12.6473    1.0000 </r>
       <r>  -11.5130    1.0000 </r>
       <r>   -8.6175    1.0000 </r>
       <r>   -8.3693    1.0000 </r>
       <r>   -6.0118    1.0000 </r>
       <r>   -5.1452    1.0000 </r>
       <r>   -5.0311    1.0000 </r>
       <r>   -4.6295    1.0000 </r>
       <r>   -4.1811    1.0000 </r>
       <r>   -3.9413    1.0000 </r>
       <r>   -3.4939    1.0000 </r>
       <r>   -1.2402    1.0000 </r>
       <r>   -1.1183    1.0000 </r>
       <r>   -0.6753    1.0000 </r>
       <r>   -0.5735    1.0000 </r>
       <r>   -0.2215    1.0000 </r>
       <r>    0.1470    1.0000 </r>
       <r>    0.2532    1.0000 </r>
       <r>    0.6772    1.0000 </r>
       <r>    1.3282    1.0000 </r>
       <r>    1.3904    1.0000 </r>
       <r>    2.2531    0.0000 </r>
       <r>    5.2297    0.0000 </r>
       <r>    5.3920    0.0000 </r>
       <r>    6.0495    0.0000 </r>
       <r>    6.1170    0.0000 </r>
       <r>    7.4519    0.0000 </r>
       <r>    7.5410    0.0000 </r>
       <r>    8.2367    0.0000 </r>
       <r>    8.6268    0.0000 </r>
       <r>    8.7862    0.0000 </r>
       <r>    9.1173    0.0000 </r>
       <r>    9.2644    0.0000 </r>
       <r>   10.7825    0.0000 </r>
       <r>   11.2158    0.0000 </r>
       <r>   11.4653    0.0000 </r>
       <r>   11.6131    0.0000 </r>
       <r>   11.9784    0.0000 </r>
       <r>   12.1754    0.0000 </r>
       <r>   12.6398    0.0000 </r>
       <r>   12.6512    0.0000 </r>
       <r>   12.8824    0.0000 </r>
       <r>   13.1267    0.0000 </r>
       <r>   14.5301    0.0000 </r>
       <r>   15.0263    0.0000 </r>
       <r>   15.1989    0.0000 </r>
       <r>   15.3130    0.0000 </r>
       <r>   15.8189    0.0000 </r>
      </set>
      <set comment="kpoint 12">
       <r>  -12.6039    1.0000 </r>
       <r>  -11.5865    1.0000 </r>
       <r>   -8.5957    1.0000 </r>
       <r>   -8.3588    1.0000 </r>
       <r>   -5.9390    1.0000 </r>
       <r>   -5.4128    1.0000 </r>
       <r>   -5.0499    1.0000 </r>
       <r>   -4.7555    1.0000 </r>
       <r>   -4.0065    1.0000 </r>
       <r>   -3.7344    1.0000 </r>
       <r>   -3.1578    1.0000 </r>
       <r>   -1.4243    1.0000 </r>
       <r>   -1.2146    1.0000 </r>
       <r>   -0.7841    1.0000 </r>
       <r>   -0.5358    1.0000 </r>
       <r>   -0.1394    1.0000 </r>
       <r>    0.1246    1.0000 </r>
       <r>    0.2004    1.0000 </r>
       <r>    0.5645    1.0000 </r>
       <r>    1.2496    1.0000 </r>
       <r>    1.3210    1.0000 </r>
       <r>    2.1183    0.0000 </r>
       <r>    5.3103    0.0000 </r>
       <r>    5.7344    0.0000 </r>
       <r>    6.0632    0.0000 </r>
       <r>    6.1656    0.0000 </r>
       <r>    7.3718    0.0000 </r>
       <r>    7.6975    0.0000 </r>
       <r>    7.9692    0.0000 </r>
       <r>    8.7205    0.0000 </r>
       <r>    9.1329    0.0000 </r>
       <r>    9.1859    0.0000 </r>
       <r>    9.5468    0.0000 </r>
       <r>   10.4184    0.0000 </r>
       <r>   10.6770    0.0000 </r>
       <r>   11.1710    0.0000 </r>
       <r>   11.6308    0.0000 </r>
       <r>   12.0932    0.0000 </r>
       <r>   12.3247    0.0000 </r>
       <r>   12.4021    0.0000 </r>
       <r>   13.0457    0.0000 </r>
       <r>   13.1715    0.0000 </r>
       <r>   13.3181    0.0000 </r>
       <r>   14.5446    0.0000 </r>
       <r>   14.6919    0.0000 </r>
       <r>   15.1284    0.0000 </r>
       <r>   15.3775    0.0000 </r>
       <r>   15.8562    0.0000 </r>
      </set>
      <set comment="kpoint 13">
       <r>  -12.5190    1.0000 </r>
       <r>  -11.7188    1.0000 </r>
       <r>   -8.5512    1.0000 </r>
       <r>   -8.3461    1.0000 </r>
       <r>   -5.9090    1.0000 </r>
       <r>   -5.7315    1.0000 </r>
       <r>   -4.9586    1.0000 </r>
       <r>   -4.7186    1.0000 </r>
       <r>   -4.1283    1.0000 </r>
       <r>   -3.2031    1.0000 </r>
       <r>   -2.6896    1.0000 </r>
       <r>   -1.9201    1.0000 </r>
       <r>   -1.1745    1.0000 </r>
       <r>   -0.9238    1.0000 </r>
       <r>   -0.4837    1.0000 </r>
       <r>   -0.1362    1.0000 </r>
       <r>   -0.0259    1.0000 </r>
       <r>    0.2111    1.0000 </r>
       <r>    0.4501    1.0000 </r>
       <r>    1.1189    1.0000 </r>
       <r>    1.2033    1.0000 </r>
       <r>    1.8634    0.2145 </r>
       <r>    5.6298    0.0000 </r>
       <r>    6.0183    0.0000 </r>
       <r>    6.2065    0.0000 </r>
       <r>    6.2966    0.0000 </r>
       <r>    7.2710    0.0000 </r>
       <r>    7.7821    0.0000 </r>
       <r>    7.9318    0.0000 </r>
       <r>    8.8498    0.0000 </r>
       <r>    9.1340    0.0000 </r>
       <r>    9.6147    0.0000 </r>
       <r>    9.7572    0.0000 </r>
       <r>   10.0293    0.0000 </r>
       <r>   10.1540    0.0000 </r>
       <r>   10.9514    0.0000 </r>
       <r>   11.4898    0.0000 </r>
       <r>   12.0007    0.0000 </r>
       <r>   12.4013    0.0000 </r>
       <r>   12.7036    0.0000 </r>
       <r>   12.9245    0.0000 </r>
       <r>   13.3396    0.0000 </r>
       <r>   13.8393    0.0000 </r>
       <r>   14.4581    0.0000 </r>
       <r>   14.7404    0.0000 </r>
       <r>   15.1561    0.0000 </r>
       <r>   15.3925    0.0000 </r>
       <r>   16.0671    0.0000 </r>
      </set>
      <set comment="kpoint 14">
       <r>  -12.3965    1.0000 </r>
       <r>  -11.8872    1.0000 </r>
       <r>   -8.4887    1.0000 </r>
       <r>   -8.3452    1.0000 </r>
       <r>   -5.9843    1.0000 </r>
       <r>   -5.9606    1.0000 </r>
       <r>   -4.8241    1.0000 </r>
       <r>   -4.3990    1.0000 </r>
       <r>   -4.2907    1.0000 </r>
       <r>   -2.8377    1.0000 </r>
       <r>   -2.3529    1.0000 </r>
       <r>   -2.2111    1.0000 </r>
       <r>   -1.1186    1.0000 </r>
       <r>   -1.0614    1.0000 </r>
       <r>   -0.4925    1.0000 </r>
       <r>   -0.4198    1.0000 </r>
       <r>    0.0174    1.0000 </r>
       <r>    0.0182    1.0000 </r>
       <r>    0.5966    1.0000 </r>
       <r>    0.9900    1.0000 </r>
       <r>    1.0713    1.0000 </r>
       <r>    1.5304    1.0000 </r>
       <r>    6.0309    0.0000 </r>
       <r>    6.1608    0.0000 </r>
       <r>    6.3269    0.0000 </r>
       <r>    6.7289    0.0000 </r>
       <r>    7.2176    0.0000 </r>
       <r>    7.7048    0.0000 </r>
       <r>    7.9907    0.0000 </r>
       <r>    8.9492    0.0000 </r>
       <r>    9.0119    0.0000 </r>
       <r>    9.0782    0.0000 </r>
       <r>    9.7821    0.0000 </r>
       <r>   10.0799    0.0000 </r>
       <r>   10.6036    0.0000 </r>
       <r>   10.9745    0.0000 </r>
       <r>   11.2003    0.0000 </r>
       <r>   11.8460    0.0000 </r>
       <r>   12.2281    0.0000 </r>
       <r>   12.8822    0.0000 </r>
       <r>   12.9332    0.0000 </r>
       <r>   13.6788    0.0000 </r>
       <r>   14.2489    0.0000 </r>
       <r>   14.2702    0.0000 </r>
       <r>   14.9011    0.0000 </r>
       <r>   14.9969    0.0000 </r>
       <r>   15.4776    0.0000 </r>
       <r>   16.2470    0.0000 </r>
      </set>
      <set comment="kpoint 15">
       <r>  -12.2429    1.0000 </r>
       <r>  -12.0683    1.0000 </r>
       <r>   -8.4219    1.0000 </r>
       <r>   -8.3698    1.0000 </r>
       <r>   -6.0720    1.0000 </r>
       <r>   -6.0675    1.0000 </r>
       <r>   -4.6581    1.0000 </r>
       <r>   -4.4746    1.0000 </r>
       <r>   -3.8885    1.0000 </r>
       <r>   -3.2942    1.0000 </r>
       <r>   -2.0704    1.0000 </r>
       <r>   -1.9066    1.0000 </r>
       <r>   -1.1357    1.0000 </r>
       <r>   -1.0776    1.0000 </r>
       <r>   -0.6721    1.0000 </r>
       <r>   -0.6689    1.0000 </r>
       <r>   -0.0312    1.0000 </r>
       <r>    0.0122    1.0000 </r>
       <r>    0.8531    1.0000 </r>
       <r>    0.9275    1.0000 </r>
       <r>    0.9675    1.0000 </r>
       <r>    1.1788    1.0000 </r>
       <r>    6.1231    0.0000 </r>
       <r>    6.2432    0.0000 </r>
       <r>    6.8087    0.0000 </r>
       <r>    7.1408    0.0000 </r>
       <r>    7.1975    0.0000 </r>
       <r>    7.5487    0.0000 </r>
       <r>    7.8505    0.0000 </r>
       <r>    8.3565    0.0000 </r>
       <r>    9.0040    0.0000 </r>
       <r>    9.0351    0.0000 </r>
       <r>    9.9075    0.0000 </r>
       <r>   10.3807    0.0000 </r>
       <r>   10.6021    0.0000 </r>
       <r>   10.8811    0.0000 </r>
       <r>   11.6180    0.0000 </r>
       <r>   11.6262    0.0000 </r>
       <r>   12.0030    0.0000 </r>
       <r>   12.7885    0.0000 </r>
       <r>   13.3082    0.0000 </r>
       <r>   13.6510    0.0000 </r>
       <r>   14.1035    0.0000 </r>
       <r>   14.2572    0.0000 </r>
       <r>   14.8739    0.0000 </r>
       <r>   15.0117    0.0000 </r>
       <r>   15.8566    0.0000 </r>
       <r>   16.1579    0.0000 </r>
      </set>
      <set comment="kpoint 16">
       <r>  -12.5903    1.0000 </r>
       <r>  -11.4616    1.0000 </r>
       <r>   -8.5742    1.0000 </r>
       <r>   -8.3147    1.0000 </r>
       <r>   -5.9485    1.0000 </r>
       <r>   -5.6245    1.0000 </r>
       <r>   -4.9620    1.0000 </r>
       <r>   -4.5740    1.0000 </r>
       <r>   -4.4598    1.0000 </r>
       <r>   -4.1421    1.0000 </r>
       <r>   -3.4326    1.0000 </r>
       <r>   -1.2452    1.0000 </r>
       <r>   -1.1040    1.0000 </r>
       <r>   -1.0260    1.0000 </r>
       <r>   -0.2357    1.0000 </r>
       <r>    0.1748    1.0000 </r>
       <r>    0.2957    1.0000 </r>
       <r>    0.5472    1.0000 </r>
       <r>    0.7402    1.0000 </r>
       <r>    0.9454    1.0000 </r>
       <r>    0.9592    1.0000 </r>
       <r>    2.2867    0.0000 </r>
       <r>    4.8905    0.0000 </r>
       <r>    5.1016    0.0000 </r>
       <r>    6.2755    0.0000 </r>
       <r>    6.5055    0.0000 </r>
       <r>    7.1861    0.0000 </r>
       <r>    7.8745    0.0000 </r>
       <r>    8.5946    0.0000 </r>
       <r>    8.9721    0.0000 </r>
       <r>    9.3441    0.0000 </r>
       <r>    9.4869    0.0000 </r>
       <r>    9.5454    0.0000 </r>
       <r>   10.6438    0.0000 </r>
       <r>   11.1615    0.0000 </r>
       <r>   11.8650    0.0000 </r>
       <r>   11.9250    0.0000 </r>
       <r>   12.1824    0.0000 </r>
       <r>   12.3202    0.0000 </r>
       <r>   12.3494    0.0000 </r>
       <r>   12.4582    0.0000 </r>
       <r>   12.8668    0.0000 </r>
       <r>   13.6508    0.0000 </r>
       <r>   13.7714    0.0000 </r>
       <r>   14.2842    0.0000 </r>
       <r>   14.9841    0.0000 </r>
       <r>   15.2876    0.0000 </r>
       <r>   15.7055    0.0000 </r>
      </set>
      <set comment="kpoint 17">
       <r>  -12.5471    1.0000 </r>
       <r>  -11.5348    1.0000 </r>
       <r>   -8.5520    1.0000 </r>
       <r>   -8.3052    1.0000 </r>
       <r>   -5.8711    1.0000 </r>
       <r>   -5.5897    1.0000 </r>
       <r>   -5.2964    1.0000 </r>
       <r>   -4.7063    1.0000 </r>
       <r>   -4.5242    1.0000 </r>
       <r>   -3.6814    1.0000 </r>
       <r>   -3.0969    1.0000 </r>
       <r>   -1.4176    1.0000 </r>
       <r>   -1.1895    1.0000 </r>
       <r>   -1.0413    1.0000 </r>
       <r>   -0.2365    1.0000 </r>
       <r>    0.1565    1.0000 </r>
       <r>    0.2317    1.0000 </r>
       <r>    0.5274    1.0000 </r>
       <r>    0.6188    1.0000 </r>
       <r>    0.8797    1.0000 </r>
       <r>    0.9174    1.0000 </r>
       <r>    2.1500    0.0000 </r>
       <r>    4.9865    0.0000 </r>
       <r>    5.4300    0.0000 </r>
       <r>    6.2213    0.0000 </r>
       <r>    6.6393    0.0000 </r>
       <r>    7.3208    0.0000 </r>
       <r>    7.8331    0.0000 </r>
       <r>    8.5398    0.0000 </r>
       <r>    9.0774    0.0000 </r>
       <r>    9.3158    0.0000 </r>
       <r>    9.6946    0.0000 </r>
       <r>    9.7828    0.0000 </r>
       <r>   10.2379    0.0000 </r>
       <r>   10.6052    0.0000 </r>
       <r>   11.5988    0.0000 </r>
       <r>   11.7886    0.0000 </r>
       <r>   12.1440    0.0000 </r>
       <r>   12.3666    0.0000 </r>
       <r>   12.5423    0.0000 </r>
       <r>   12.8459    0.0000 </r>
       <r>   13.2721    0.0000 </r>
       <r>   13.6580    0.0000 </r>
       <r>   13.8046    0.0000 </r>
       <r>   14.1286    0.0000 </r>
       <r>   14.9335    0.0000 </r>
       <r>   15.3169    0.0000 </r>
       <r>   15.5942    0.0000 </r>
      </set>
      <set comment="kpoint 18">
       <r>  -12.4626    1.0000 </r>
       <r>  -11.6665    1.0000 </r>
       <r>   -8.5069    1.0000 </r>
       <r>   -8.2942    1.0000 </r>
       <r>   -5.8336    1.0000 </r>
       <r>   -5.6781    1.0000 </r>
       <r>   -5.4400    1.0000 </r>
       <r>   -4.6793    1.0000 </r>
       <r>   -4.6447    1.0000 </r>
       <r>   -3.1448    1.0000 </r>
       <r>   -2.6298    1.0000 </r>
       <r>   -1.9013    1.0000 </r>
       <r>   -1.1293    1.0000 </r>
       <r>   -1.0611    1.0000 </r>
       <r>   -0.2541    1.0000 </r>
       <r>   -0.0964    1.0000 </r>
       <r>    0.2688    1.0000 </r>
       <r>    0.4624    1.0000 </r>
       <r>    0.4772    1.0000 </r>
       <r>    0.7897    1.0000 </r>
       <r>    0.8499    1.0000 </r>
       <r>    1.8916    0.0563 </r>
       <r>    5.3104    0.0000 </r>
       <r>    5.9006    0.0000 </r>
       <r>    6.1937    0.0000 </r>
       <r>    6.7539    0.0000 </r>
       <r>    7.4866    0.0000 </r>
       <r>    7.8575    0.0000 </r>
       <r>    8.4725    0.0000 </r>
       <r>    9.2609    0.0000 </r>
       <r>    9.2927    0.0000 </r>
       <r>    9.5001    0.0000 </r>
       <r>    9.9433    0.0000 </r>
       <r>    9.9995    0.0000 </r>
       <r>   10.4515    0.0000 </r>
       <r>   11.2787    0.0000 </r>
       <r>   11.2963    0.0000 </r>
       <r>   12.1390    0.0000 </r>
       <r>   12.6200    0.0000 </r>
       <r>   12.8532    0.0000 </r>
       <r>   13.0667    0.0000 </r>
       <r>   13.3985    0.0000 </r>
       <r>   13.6305    0.0000 </r>
       <r>   13.8951    0.0000 </r>
       <r>   14.2639    0.0000 </r>
       <r>   15.0255    0.0000 </r>
       <r>   15.2377    0.0000 </r>
       <r>   15.8603    0.0000 </r>
      </set>
      <set comment="kpoint 19">
       <r>  -12.3408    1.0000 </r>
       <r>  -11.8341    1.0000 </r>
       <r>   -8.4437    1.0000 </r>
       <r>   -8.2956    1.0000 </r>
       <r>   -5.9057    1.0000 </r>
       <r>   -5.8884    1.0000 </r>
       <r>   -5.3263    1.0000 </r>
       <r>   -4.8068    1.0000 </r>
       <r>   -4.3638    1.0000 </r>
       <r>   -2.7937    1.0000 </r>
       <r>   -2.3109    1.0000 </r>
       <r>   -2.1556    1.0000 </r>
       <r>   -1.0714    1.0000 </r>
       <r>   -1.0463    1.0000 </r>
       <r>   -0.4186    1.0000 </r>
       <r>   -0.3700    1.0000 </r>
       <r>    0.1081    1.0000 </r>
       <r>    0.3353    1.0000 </r>
       <r>    0.6164    1.0000 </r>
       <r>    0.7319    1.0000 </r>
       <r>    0.7827    1.0000 </r>
       <r>    1.5547    1.0000 </r>
       <r>    5.8342    0.0000 </r>
       <r>    6.2274    0.0000 </r>
       <r>    6.4731    0.0000 </r>
       <r>    6.7047    0.0000 </r>
       <r>    7.4884    0.0000 </r>
       <r>    7.9218    0.0000 </r>
       <r>    8.4298    0.0000 </r>
       <r>    8.8283    0.0000 </r>
       <r>    9.1784    0.0000 </r>
       <r>    9.4809    0.0000 </r>
       <r>    9.7916    0.0000 </r>
       <r>   10.2400    0.0000 </r>
       <r>   10.6939    0.0000 </r>
       <r>   10.9928    0.0000 </r>
       <r>   11.3188    0.0000 </r>
       <r>   12.0614    0.0000 </r>
       <r>   12.2933    0.0000 </r>
       <r>   13.0463    0.0000 </r>
       <r>   13.1728    0.0000 </r>
       <r>   13.5239    0.0000 </r>
       <r>   13.7712    0.0000 </r>
       <r>   14.0282    0.0000 </r>
       <r>   14.6340    0.0000 </r>
       <r>   14.8660    0.0000 </r>
       <r>   15.2991    0.0000 </r>
       <r>   16.1859    0.0000 </r>
      </set>
      <set comment="kpoint 20">
       <r>  -12.1880    1.0000 </r>
       <r>  -12.0143    1.0000 </r>
       <r>   -8.3760    1.0000 </r>
       <r>   -8.3223    1.0000 </r>
       <r>   -5.9955    1.0000 </r>
       <r>   -5.9891    1.0000 </r>
       <r>   -5.1666    1.0000 </r>
       <r>   -4.9872    1.0000 </r>
       <r>   -3.8568    1.0000 </r>
       <r>   -3.2645    1.0000 </r>
       <r>   -2.0142    1.0000 </r>
       <r>   -1.8605    1.0000 </r>
       <r>   -1.0126    1.0000 </r>
       <r>   -0.9525    1.0000 </r>
       <r>   -0.7136    1.0000 </r>
       <r>   -0.6708    1.0000 </r>
       <r>    0.0876    1.0000 </r>
       <r>    0.1890    1.0000 </r>
       <r>    0.7161    1.0000 </r>
       <r>    0.7328    1.0000 </r>
       <r>    0.8785    1.0000 </r>
       <r>    1.2001    1.0000 </r>
       <r>    6.3605    0.0000 </r>
       <r>    6.4894    0.0000 </r>
       <r>    6.5402    0.0000 </r>
       <r>    7.0592    0.0000 </r>
       <r>    7.1332    0.0000 </r>
       <r>    7.6132    0.0000 </r>
       <r>    8.4201    0.0000 </r>
       <r>    8.4835    0.0000 </r>
       <r>    9.3724    0.0000 </r>
       <r>    9.5378    0.0000 </r>
       <r>    9.7344    0.0000 </r>
       <r>   10.0394    0.0000 </r>
       <r>   10.7545    0.0000 </r>
       <r>   11.1360    0.0000 </r>
       <r>   11.7458    0.0000 </r>
       <r>   11.8294    0.0000 </r>
       <r>   12.1219    0.0000 </r>
       <r>   13.0165    0.0000 </r>
       <r>   13.3156    0.0000 </r>
       <r>   13.4934    0.0000 </r>
       <r>   13.7238    0.0000 </r>
       <r>   13.8238    0.0000 </r>
       <r>   14.9785    0.0000 </r>
       <r>   14.9948    0.0000 </r>
       <r>   15.5358    0.0000 </r>
       <r>   15.8359    0.0000 </r>
      </set>
      <set comment="kpoint 21">
       <r>  -12.5306    1.0000 </r>
[...]
       <r>   -2.3603    1.0000 </r>
       <r>   -2.1603    1.0000 </r>
       <r>   -1.9998    1.0000 </r>
       <r>   -1.5335    1.0000 </r>
       <r>   -0.7717    1.0000 </r>
       <r>   -0.2441    1.0000 </r>
       <r>    0.1337    1.0000 </r>
       <r>    0.3519    1.0000 </r>
       <r>    0.4631    1.0000 </r>
       <r>    1.5407    1.0000 </r>
       <r>    1.5659    1.0000 </r>
       <r>    1.8204    0.6653 </r>
       <r>    5.4525    0.0000 </r>
       <r>    6.0794    0.0000 </r>
       <r>    6.5987    0.0000 </r>
       <r>    7.1240    0.0000 </r>
       <r>    7.6817    0.0000 </r>
       <r>    8.1485    0.0000 </r>
       <r>    8.9044    0.0000 </r>
       <r>    9.0540    0.0000 </r>
       <r>    9.6281    0.0000 </r>
       <r>    9.8600    0.0000 </r>
       <r>   10.4835    0.0000 </r>
       <r>   10.9467    0.0000 </r>
       <r>   11.0815    0.0000 </r>
       <r>   11.3443    0.0000 </r>
       <r>   11.4568    0.0000 </r>
       <r>   11.8488    0.0000 </r>
       <r>   12.7231    0.0000 </r>
       <r>   12.9958    0.0000 </r>
       <r>   13.2509    0.0000 </r>
       <r>   13.6225    0.0000 </r>
       <r>   13.7289    0.0000 </r>
       <r>   14.0323    0.0000 </r>
       <r>   14.3398    0.0000 </r>
       <r>   14.8528    0.0000 </r>
       <r>   14.9622    0.0000 </r>
       <r>   15.2609    0.0000 </r>
      </set>
      <set comment="kpoint 175">
       <r>  -12.0134    1.0000 </r>
       <r>  -11.8742    1.0000 </r>
       <r>   -8.5609    1.0000 </r>
       <r>   -8.4486    1.0000 </r>
       <r>   -5.9442    1.0000 </r>
       <r>   -5.8398    1.0000 </r>
       <r>   -4.9194    1.0000 </r>
       <r>   -4.5992    1.0000 </r>
       <r>   -4.4383    1.0000 </r>
       <r>   -4.0039    1.0000 </r>
       <r>   -2.2130    1.0000 </r>
       <r>   -2.1522    1.0000 </r>
       <r>   -2.1024    1.0000 </r>
       <r>   -1.8181    1.0000 </r>
       <r>   -0.2585    1.0000 </r>
       <r>   -0.0493    1.0000 </r>
       <r>    0.3547    1.0000 </r>
       <r>    0.4423    1.0000 </r>
       <r>    0.5024    1.0000 </r>
       <r>    0.8307    1.0000 </r>
       <r>    1.5799    1.0000 </r>
       <r>    1.6792    1.0000 </r>
       <r>    5.7943    0.0000 </r>
       <r>    5.9774    0.0000 </r>
       <r>    6.8024    0.0000 </r>
       <r>    7.3088    0.0000 </r>
       <r>    7.4007    0.0000 </r>
       <r>    7.4772    0.0000 </r>
       <r>    9.3094    0.0000 </r>
       <r>    9.4871    0.0000 </r>
       <r>    9.6936    0.0000 </r>
       <r>    9.8709    0.0000 </r>
       <r>   10.3553    0.0000 </r>
       <r>   10.6975    0.0000 </r>
       <r>   11.1533    0.0000 </r>
       <r>   11.3873    0.0000 </r>
       <r>   11.4007    0.0000 </r>
       <r>   11.5097    0.0000 </r>
       <r>   12.9629    0.0000 </r>
       <r>   13.0655    0.0000 </r>
       <r>   13.5679    0.0000 </r>
       <r>   13.9237    0.0000 </r>
       <r>   14.0530    0.0000 </r>
       <r>   14.1469    0.0000 </r>
       <r>   14.4617    0.0000 </r>
       <r>   14.6213    0.0000 </r>
       <r>   14.7732    0.0000 </r>
       <r>   14.9013    0.0000 </r>
      </set>
     </set>
    </set>
   </array>
  </eigenvalues>
  <separator name="orbital magnetization" >
   <v name="MAGDIPOLOUT">      0.00000000      0.00000000      0.00000000</v>
  </separator>
  <dos>
   <i name="efermi">      1.83546778 </i>
   <total>
    <array>
     <dimension dim="1">gridpoints</dimension>
     <dimension dim="2">spin</dimension>
     <field>energy</field>
     <field>total</field>
     <field>integrated</field>
     <set>
      <set comment="spin 1">
       <r>   -14.1698     0.0000     0.0000 </r>
       <r>   -14.0632     0.0000     0.0000 </r>
       <r>   -13.9565     0.0000     0.0000 </r>
       <r>   -13.8498     0.0000     0.0000 </r>
       <r>   -13.7431     0.0000     0.0000 </r>
       <r>   -13.6365     0.0000     0.0000 </r>
       <r>   -13.5298     0.0000     0.0000 </r>
       <r>   -13.4231     0.0000     0.0000 </r>
       <r>   -13.3164     0.0000     0.0000 </r>
       <r>   -13.2098     0.0000     0.0000 </r>
       <r>   -13.1031     0.0000     0.0000 </r>
       <r>   -12.9964     0.0000     0.0000 </r>
       <r>   -12.8897     0.0000     0.0000 </r>
       <r>   -12.7831     0.0039     0.0004 </r>
       <r>   -12.6764     0.5118     0.0550 </r>
       <r>   -12.5697     2.3999     0.3110 </r>
       <r>   -12.4631     3.5840     0.6933 </r>
       <r>   -12.3564     4.3864     1.1612 </r>
       <r>   -12.2497     3.5393     1.5388 </r>
       <r>   -12.1430     2.7398     1.8310 </r>
       <r>   -12.0364     2.7599     2.1254 </r>
       <r>   -11.9297     2.4924     2.3913 </r>
       <r>   -11.8230     2.7732     2.6872 </r>
       <r>   -11.7163     3.3945     3.0493 </r>
       <r>   -11.6097     3.5392     3.4268 </r>
       <r>   -11.5030     3.1630     3.7642 </r>
       <r>   -11.3963     1.7308     3.9488 </r>
       <r>   -11.2897     0.4692     3.9989 </r>
       <r>   -11.1830     0.0104     4.0000 </r>
       <r>   -11.0763     0.0000     4.0000 </r>
       <r>   -10.9696     0.0000     4.0000 </r>
       <r>   -10.8630     0.0000     4.0000 </r>
       <r>   -10.7563     0.0000     4.0000 </r>
       <r>   -10.6496     0.0000     4.0000 </r>
       <r>   -10.5429     0.0000     4.0000 </r>
       <r>   -10.4363     0.0000     4.0000 </r>
       <r>   -10.3296     0.0000     4.0000 </r>
       <r>   -10.2229     0.0000     4.0000 </r>
       <r>   -10.1163     0.0000     4.0000 </r>
       <r>   -10.0096     0.0000     4.0000 </r>
       <r>    -9.9029     0.0000     4.0000 </r>
       <r>    -9.7962     0.0000     4.0000 </r>
       <r>    -9.6896     0.0000     4.0000 </r>
       <r>    -9.5829     0.0000     4.0000 </r>
       <r>    -9.4762     0.0000     4.0000 </r>
       <r>    -9.3695     0.0000     4.0000 </r>
       <r>    -9.2629     0.0000     4.0000 </r>
       <r>    -9.1562     0.0000     4.0000 </r>
       <r>    -9.0495     0.0000     4.0000 </r>
       <r>    -8.9429     0.0007     4.0001 </r>
       <r>    -8.8362     0.2882     4.0308 </r>
       <r>    -8.7295     2.1348     4.2586 </r>
       <r>    -8.6228     5.4284     4.8376 </r>
       <r>    -8.5162     7.0441     5.5890 </r>
       <r>    -8.4095     6.2666     6.2575 </r>
       <r>    -8.3028     5.3348     6.8266 </r>
       <r>    -8.1961     4.8605     7.3451 </r>
       <r>    -8.0895     3.8521     7.7560 </r>
       <r>    -7.9828     1.6584     7.9329 </r>
       <r>    -7.8761     0.5766     7.9944 </r>
       <r>    -7.7695     0.0526     8.0000 </r>
       <r>    -7.6628     0.0000     8.0000 </r>
       <r>    -7.5561     0.0000     8.0000 </r>
       <r>    -7.4494     0.0000     8.0000 </r>
       <r>    -7.3428     0.0000     8.0000 </r>
       <r>    -7.2361     0.0000     8.0000 </r>
       <r>    -7.1294     0.0000     8.0000 </r>
       <r>    -7.0227     0.0003     8.0000 </r>
       <r>    -6.9161     0.1065     8.0114 </r>
       <r>    -6.8094     0.2617     8.0393 </r>
       <r>    -6.7027     0.4223     8.0844 </r>
       <r>    -6.5961     0.7667     8.1661 </r>
       <r>    -6.4894     0.8400     8.2557 </r>
       <r>    -6.3827     1.4177     8.4070 </r>
       <r>    -6.2760     1.9046     8.6101 </r>
       <r>    -6.1694     3.0448     8.9349 </r>
       <r>    -6.0627     3.8199     9.3424 </r>
       <r>    -5.9560     4.1319     9.7832 </r>
       <r>    -5.8493     4.0631    10.2166 </r>
       <r>    -5.7427     3.9150    10.6342 </r>
       <r>    -5.6360     4.0811    11.0696 </r>
       <r>    -5.5293     4.2109    11.5188 </r>
       <r>    -5.4227     4.5941    12.0088 </r>
       <r>    -5.3160     4.6539    12.5053 </r>
       <r>    -5.2093     4.5083    12.9862 </r>
       <r>    -5.1026     3.9015    13.4024 </r>
       <r>    -4.9960     3.2167    13.7455 </r>
       <r>    -4.8893     2.9998    14.0655 </r>
       <r>    -4.7826     2.2745    14.3081 </r>
       <r>    -4.6759     2.9011    14.6176 </r>
       <r>    -4.5693     3.3737    14.9775 </r>
       <r>    -4.4626     3.4172    15.3420 </r>
       <r>    -4.3559     3.3988    15.7046 </r>
       <r>    -4.2493     2.9774    16.0222 </r>
       <r>    -4.1426     2.9162    16.3333 </r>
       <r>    -4.0359     2.9128    16.6440 </r>
       <r>    -3.9292     2.9149    16.9549 </r>
       <r>    -3.8226     3.0882    17.2843 </r>
       <r>    -3.7159     2.9249    17.5964 </r>
       <r>    -3.6092     2.7155    17.8860 </r>
       <r>    -3.5025     3.0905    18.2157 </r>
       <r>    -3.3959     2.6895    18.5026 </r>
       <r>    -3.2892     2.7916    18.8004 </r>
       <r>    -3.1825     2.8561    19.1050 </r>
       <r>    -3.0759     2.6736    19.3902 </r>
       <r>    -2.9692     3.1303    19.7242 </r>
       <r>    -2.8625     2.9994    20.0441 </r>
       <r>    -2.7558     2.4694    20.3075 </r>
       <r>    -2.6492     2.6095    20.5859 </r>
       <r>    -2.5425     2.9960    20.9055 </r>
       <r>    -2.4358     3.0340    21.2291 </r>
       <r>    -2.3291     3.1648    21.5667 </r>
       <r>    -2.2225     4.0036    21.9938 </r>
       <r>    -2.1158     3.6444    22.3826 </r>
       <r>    -2.0091     3.1120    22.7145 </r>
       <r>    -1.9025     4.8375    23.2306 </r>
       <r>    -1.7958     5.5012    23.8174 </r>
       <r>    -1.6891     5.6882    24.4242 </r>
       <r>    -1.5824     6.1391    25.0790 </r>
       <r>    -1.4758     6.1998    25.7404 </r>
       <r>    -1.3691     5.6671    26.3449 </r>
       <r>    -1.2624     4.7142    26.8478 </r>
       <r>    -1.1557     6.4339    27.5341 </r>
       <r>    -1.0491     4.4379    28.0075 </r>
       <r>    -0.9424     2.3206    28.2551 </r>
       <r>    -0.8357     2.7165    28.5449 </r>
       <r>    -0.7291     2.8988    28.8541 </r>
       <r>    -0.6224     4.3234    29.3153 </r>
       <r>    -0.5157     6.7283    30.0330 </r>
       <r>    -0.4090     5.7256    30.6437 </r>
       <r>    -0.3024     6.5330    31.3406 </r>
       <r>    -0.1957     6.4370    32.0273 </r>
       <r>    -0.0890     6.7159    32.7437 </r>
       <r>     0.0177     6.9168    33.4815 </r>
       <r>     0.1243     6.1698    34.1397 </r>
       <r>     0.2310     8.8719    35.0861 </r>
       <r>     0.3377     8.2412    35.9652 </r>
       <r>     0.4443     8.6561    36.8886 </r>
       <r>     0.5510     5.5998    37.4859 </r>
       <r>     0.6577     3.1245    37.8192 </r>
       <r>     0.7644     3.1457    38.1548 </r>
       <r>     0.8710     3.5976    38.5385 </r>
       <r>     0.9777     3.5981    38.9224 </r>
       <r>     1.0844     2.8434    39.2257 </r>
       <r>     1.1911     3.3326    39.5812 </r>
       <r>     1.2977     4.4234    40.0530 </r>
       <r>     1.4044     3.8886    40.4678 </r>
       <r>     1.5111     3.6719    40.8595 </r>
       <r>     1.6177     4.5987    41.3501 </r>
       <r>     1.7244     3.5119    41.7247 </r>
       <r>     1.8311     2.4751    41.9887 </r>
       <r>     1.9378     2.6961    42.2763 </r>
       <r>     2.0444     2.1165    42.5021 </r>
       <r>     2.1511     2.6339    42.7831 </r>
       <r>     2.2578     2.6604    43.0669 </r>
       <r>     2.3645     2.0319    43.2836 </r>
       <r>     2.4711     0.9819    43.3884 </r>
       <r>     2.5778     0.3860    43.4295 </r>
       <r>     2.6845     0.5777    43.4912 </r>
       <r>     2.7911     0.4229    43.5363 </r>
       <r>     2.8978     0.3081    43.5692 </r>
       <r>     3.0045     0.6989    43.6437 </r>
       <r>     3.1112     1.0376    43.7544 </r>
       <r>     3.2178     0.6129    43.8198 </r>
       <r>     3.3245     0.0232    43.8223 </r>
       <r>     3.4312     0.1051    43.8335 </r>
       <r>     3.5379     0.3870    43.8747 </r>
       <r>     3.6445     0.3539    43.9125 </r>
       <r>     3.7512     0.3526    43.9501 </r>
       <r>     3.8579     0.4274    43.9957 </r>
       <r>     3.9645     0.0402    44.0000 </r>
       <r>     4.0712     0.0000    44.0000 </r>
       <r>     4.1779     0.0089    44.0010 </r>
       <r>     4.2846     0.1482    44.0168 </r>
       <r>     4.3912     0.3481    44.0539 </r>
       <r>     4.4979     0.4296    44.0997 </r>
       <r>     4.6046     0.6086    44.1646 </r>
       <r>     4.7113     0.8395    44.2542 </r>
       <r>     4.8179     0.8464    44.3445 </r>
       <r>     4.9246     0.8844    44.4388 </r>
       <r>     5.0313     1.2067    44.5675 </r>
       <r>     5.1379     1.2204    44.6977 </r>
       <r>     5.2446     1.5348    44.8614 </r>
       <r>     5.3513     2.0682    45.0821 </r>
       <r>     5.4580     2.5299    45.3519 </r>
       <r>     5.5646     2.8010    45.6507 </r>
       <r>     5.6713     3.2164    45.9938 </r>
       <r>     5.7780     3.3418    46.3503 </r>
       <r>     5.8847     4.1183    46.7896 </r>
       <r>     5.9913     4.8572    47.3077 </r>
       <r>     6.0980     4.1677    47.7523 </r>
       <r>     6.2047     4.5694    48.2398 </r>
       <r>     6.3113     4.4165    48.7109 </r>
       <r>     6.4180     3.9138    49.1284 </r>
       <r>     6.5247     4.5547    49.6142 </r>
       <r>     6.6314     3.3167    49.9680 </r>
       <r>     6.7380     3.9168    50.3858 </r>
       <r>     6.8447     4.5883    50.8753 </r>
       <r>     6.9514     4.6388    51.3701 </r>
       <r>     7.0581     4.3404    51.8331 </r>
       <r>     7.1647     5.5453    52.4247 </r>
       <r>     7.2714     5.0818    52.9667 </r>
       <r>     7.3781     4.5203    53.4489 </r>
       <r>     7.4847     4.2714    53.9046 </r>
       <r>     7.5914     3.6300    54.2918 </r>
       <r>     7.6981     3.0892    54.6213 </r>
       <r>     7.8048     3.0489    54.9466 </r>
       <r>     7.9114     2.9732    55.2637 </r>
       <r>     8.0181     4.1337    55.7047 </r>
       <r>     8.1248     3.9729    56.1285 </r>
       <r>     8.2315     3.8051    56.5344 </r>
       <r>     8.3381     4.0476    56.9662 </r>
       <r>     8.4448     4.2856    57.4233 </r>
       <r>     8.5515     4.5336    57.9069 </r>
       <r>     8.6581     4.3797    58.3741 </r>
       <r>     8.7648     5.4299    58.9534 </r>
       <r>     8.8715     4.6660    59.4511 </r>
       <r>     8.9782     5.2508    60.0112 </r>
       <r>     9.0848     5.2307    60.5692 </r>
       <r>     9.1915     5.0520    61.1081 </r>
       <r>     9.2982     4.6456    61.6036 </r>
       <r>     9.4049     4.4484    62.0782 </r>
       <r>     9.5115     5.0683    62.6188 </r>
       <r>     9.6182     5.0552    63.1581 </r>
       <r>     9.7249     5.2648    63.7197 </r>
       <r>     9.8315     4.5132    64.2011 </r>
       <r>     9.9382     3.7549    64.6017 </r>
       <r>    10.0449     5.1982    65.1562 </r>
       <r>    10.1516     4.7336    65.6611 </r>
       <r>    10.2582     4.2095    66.1102 </r>
       <r>    10.3649     5.2563    66.6709 </r>
       <r>    10.4716     5.8485    67.2947 </r>
       <r>    10.5783     4.1071    67.7328 </r>
       <r>    10.6849     3.9486    68.1541 </r>
       <r>    10.7916     3.3252    68.5088 </r>
       <r>    10.8983     4.7329    69.0136 </r>
       <r>    11.0050     5.3215    69.5813 </r>
       <r>    11.1116     6.4039    70.2644 </r>
       <r>    11.2183     6.0055    70.9050 </r>
       <r>    11.3250     5.0963    71.4487 </r>
       <r>    11.4316     4.5515    71.9342 </r>
       <r>    11.5383     4.4791    72.4120 </r>
       <r>    11.6450     5.0384    72.9494 </r>
       <r>    11.7517     4.8570    73.4676 </r>
       <r>    11.8583     5.9301    74.1001 </r>
       <r>    11.9650     6.0912    74.7499 </r>
       <r>    12.0717     6.1054    75.4012 </r>
       <r>    12.1784     5.4734    75.9850 </r>
       <r>    12.2850     5.0235    76.5209 </r>
       <r>    12.3917     5.7361    77.1328 </r>
       <r>    12.4984     5.9590    77.7685 </r>
       <r>    12.6050     5.8591    78.3935 </r>
       <r>    12.7117     6.0167    79.0353 </r>
       <r>    12.8184     5.9193    79.6667 </r>
       <r>    12.9251     5.6547    80.2699 </r>
       <r>    13.0317     6.3428    80.9465 </r>
       <r>    13.1384     6.3811    81.6272 </r>
       <r>    13.2451     5.5372    82.2179 </r>
       <r>    13.3518     6.1142    82.8701 </r>
       <r>    13.4584     5.5137    83.4583 </r>
       <r>    13.5651     4.8883    83.9797 </r>
       <r>    13.6718     6.2327    84.6446 </r>
       <r>    13.7784     5.5122    85.2326 </r>
       <r>    13.8851     5.3993    85.8085 </r>
       <r>    13.9918     5.4767    86.3928 </r>
       <r>    14.0985     4.6771    86.8917 </r>
       <r>    14.2051     5.0157    87.4267 </r>
       <r>    14.3118     4.9079    87.9502 </r>
       <r>    14.4185     4.9224    88.4753 </r>
       <r>    14.5252     5.2705    89.0375 </r>
       <r>    14.6318     5.2383    89.5963 </r>
       <r>    14.7385     4.1152    90.0353 </r>
       <r>    14.8452     4.9449    90.5628 </r>
       <r>    14.9518     6.0925    91.2127 </r>
       <r>    15.0585     5.7750    91.8287 </r>
       <r>    15.1652     5.7669    92.4439 </r>
       <r>    15.2719     5.9689    93.0806 </r>
       <r>    15.3785     5.8099    93.7004 </r>
       <r>    15.4852     6.0777    94.3487 </r>
       <r>    15.5919     4.6606    94.8459 </r>
       <r>    15.6986     2.5682    95.1198 </r>
       <r>    15.8052     2.7063    95.4085 </r>
       <r>    15.9119     1.8264    95.6034 </r>
       <r>    16.0186     1.1190    95.7227 </r>
       <r>    16.1252     0.9037    95.8191 </r>
       <r>    16.2319     0.6959    95.8934 </r>
       <r>    16.3386     0.8185    95.9807 </r>
       <r>    16.4453     0.1795    95.9998 </r>
       <r>    16.5519     0.0017    96.0000 </r>
       <r>    16.6586     0.0000    96.0000 </r>
       <r>    16.7653     0.0000    96.0000 </r>
       <r>    16.8720     0.0000    96.0000 </r>
       <r>    16.9786     0.0000    96.0000 </r>
       <r>    17.0853     0.0000    96.0000 </r>
       <r>    17.1920     0.0000    96.0000 </r>
       <r>    17.2986     0.0000    96.0000 </r>
       <r>    17.4053     0.0000    96.0000 </r>
       <r>    17.5120     0.0000    96.0000 </r>
       <r>    17.6187     0.0000    96.0000 </r>
       <r>    17.7253     0.0000    96.0000 </r>
       <r>    17.8320     0.0000    96.0000 </r>
      </set>
     </set>
    </array>
   </total>
  </dos>
 </calculation>
 <structure name="finalpos" >
  <crystal>
   <varray name="basis" >
    <v>       5.71295160       0.00000000       0.00000000 </v>
    <v>       0.00000000       4.05923412       0.00000000 </v>
    <v>       0.00000000       0.00000000       6.22157176 </v>
   </varray>
   <i name="volume">    144.27954358 </i>
   <varray name="rec_basis" >
    <v>       0.17504087       0.00000000       0.00000000 </v>
    <v>       0.00000000       0.24635189       0.00000000 </v>
    <v>       0.00000000       0.00000000       0.16073109 </v>
   </varray>
  </crystal>
  <varray name="positions" >
   <v>       0.52123000       0.50000000       0.63796000 </v>
   <v>       0.47877000       0.50000000       0.36204000 </v>
   <v>       0.97877000       0.50000000       0.63796000 </v>
   <v>       0.02123000       0.50000000       0.36204000 </v>
   <v>       0.60090000       0.50000000       0.89991000 </v>
   <v>       0.39910000       0.50000000       0.10009000 </v>
   <v>       0.89910000       0.50000000       0.89991000 </v>
   <v>       0.10090000       0.50000000       0.10009000 </v>
   <v>       0.75000000       0.79171000       0.72973000 </v>
   <v>       0.25000000       0.20829000       0.27027000 </v>
   <v>       0.75000000       0.20829000       0.72973000 </v>
   <v>       0.25000000       0.79171000       0.27027000 </v>
   <v>       0.25000000       0.50000000       0.52367000 </v>
   <v>       0.75000000       0.50000000       0.47633000 </v>
  </varray>
 </structure>
</modeling>
