   1   1   0   0
  0.3381079E+04  0.1500900E-08  0.1250750E-08  0.1801080E-08  0.5000000E-15
  1.000000000000000E-004
  CAR 
 Convergence                             
      2.49137501     -9.97670191  301     -3.60726440      1.00000000
     -9.977  0.0000E+00  0.0000E+00
     -9.935  0.0000E+00  0.0000E+00
     -9.894  0.0000E+00  0.0000E+00
     -9.852  0.0000E+00  0.0000E+00
     -9.810  0.0000E+00  0.0000E+00
     -9.769  0.0000E+00  0.0000E+00
     -9.727  0.0000E+00  0.0000E+00
     -9.686  0.1469E-12  0.6106E-14
     -9.644  0.8322E-09  0.3459E-10
     -9.603  0.1211E-05  0.5035E-07
     -9.561  0.4596E-03  0.1915E-04
     -9.520  0.4625E-01  0.1941E-02
     -9.478  0.1262E+01  0.5441E-01
     -9.436  0.9625E+01  0.4544E+00
     -9.395  0.2109E+02  0.1331E+01
     -9.353  0.1348E+02  0.1891E+01
     -9.312  0.2490E+01  0.1995E+01
     -9.270  0.1296E+00  0.2000E+01
     -9.229  0.1843E-02  0.2000E+01
     -9.187  0.6985E-05  0.2000E+01
     -9.145  0.6935E-08  0.2000E+01
     -9.104  0.1784E-11  0.2000E+01
     -9.062  0.0000E+00  0.2000E+01
     -9.021  0.0000E+00  0.2000E+01
     -8.979  0.0000E+00  0.2000E+01
     -8.938  0.0000E+00  0.2000E+01
     -8.896  0.0000E+00  0.2000E+01
     -8.855  0.0000E+00  0.2000E+01
     -8.813  0.0000E+00  0.2000E+01
     -8.771  0.0000E+00  0.2000E+01
     -8.730  0.0000E+00  0.2000E+01
     -8.688  0.0000E+00  0.2000E+01
     -8.647  0.0000E+00  0.2000E+01
     -8.605  0.0000E+00  0.2000E+01
     -8.564  0.0000E+00  0.2000E+01
     -8.522  0.0000E+00  0.2000E+01
     -8.481  0.0000E+00  0.2000E+01
     -8.439  0.0000E+00  0.2000E+01
     -8.397  0.0000E+00  0.2000E+01
     -8.356  0.0000E+00  0.2000E+01
     -8.314  0.0000E+00  0.2000E+01
     -8.273  0.0000E+00  0.2000E+01
     -8.231  0.0000E+00  0.2000E+01
     -8.190  0.0000E+00  0.2000E+01
     -8.148  0.0000E+00  0.2000E+01
     -8.106  0.0000E+00  0.2000E+01
     -8.065  0.0000E+00  0.2000E+01
     -8.023  0.0000E+00  0.2000E+01
     -7.982  0.0000E+00  0.2000E+01
     -7.940  0.0000E+00  0.2000E+01
     -7.899  0.0000E+00  0.2000E+01
     -7.857  0.0000E+00  0.2000E+01
     -7.816  0.0000E+00  0.2000E+01
     -7.774  0.0000E+00  0.2000E+01
     -7.732  0.0000E+00  0.2000E+01
     -7.691  0.0000E+00  0.2000E+01
     -7.649  0.0000E+00  0.2000E+01
     -7.608  0.0000E+00  0.2000E+01
     -7.566  0.0000E+00  0.2000E+01
     -7.525  0.0000E+00  0.2000E+01
     -7.483  0.0000E+00  0.2000E+01
     -7.442  0.0000E+00  0.2000E+01
     -7.400  0.0000E+00  0.2000E+01
     -7.358  0.0000E+00  0.2000E+01
     -7.317  0.0000E+00  0.2000E+01
     -7.275  0.0000E+00  0.2000E+01
     -7.234  0.0000E+00  0.2000E+01
     -7.192  0.0000E+00  0.2000E+01
     -7.151  0.0000E+00  0.2000E+01
     -7.109  0.0000E+00  0.2000E+01
     -7.067  0.0000E+00  0.2000E+01
     -7.026  0.0000E+00  0.2000E+01
     -6.984  0.0000E+00  0.2000E+01
     -6.943  0.0000E+00  0.2000E+01
     -6.901  0.0000E+00  0.2000E+01
     -6.860  0.0000E+00  0.2000E+01
     -6.818  0.0000E+00  0.2000E+01
     -6.777  0.0000E+00  0.2000E+01
     -6.735  0.0000E+00  0.2000E+01
     -6.693  0.0000E+00  0.2000E+01
     -6.652  0.0000E+00  0.2000E+01
     -6.610  0.0000E+00  0.2000E+01
     -6.569  0.0000E+00  0.2000E+01
     -6.527  0.0000E+00  0.2000E+01
     -6.486  0.0000E+00  0.2000E+01
     -6.444  0.0000E+00  0.2000E+01
     -6.403  0.0000E+00  0.2000E+01
     -6.361  0.0000E+00  0.2000E+01
     -6.319  0.0000E+00  0.2000E+01
     -6.278  0.0000E+00  0.2000E+01
     -6.236  0.0000E+00  0.2000E+01
     -6.195  0.0000E+00  0.2000E+01
     -6.153  0.0000E+00  0.2000E+01
     -6.112  0.0000E+00  0.2000E+01
     -6.070  0.0000E+00  0.2000E+01
     -6.028  0.0000E+00  0.2000E+01
     -5.987  0.0000E+00  0.2000E+01
     -5.945  0.0000E+00  0.2000E+01
     -5.904  0.0000E+00  0.2000E+01
     -5.862  0.0000E+00  0.2000E+01
     -5.821  0.0000E+00  0.2000E+01
     -5.779  0.0000E+00  0.2000E+01
     -5.738  0.0000E+00  0.2000E+01
     -5.696  0.0000E+00  0.2000E+01
     -5.654  0.0000E+00  0.2000E+01
     -5.613  0.0000E+00  0.2000E+01
     -5.571  0.0000E+00  0.2000E+01
     -5.530  0.0000E+00  0.2000E+01
     -5.488  0.0000E+00  0.2000E+01
     -5.447  0.0000E+00  0.2000E+01
     -5.405  0.0000E+00  0.2000E+01
     -5.364  0.0000E+00  0.2000E+01
     -5.322  0.0000E+00  0.2000E+01
     -5.280  0.0000E+00  0.2000E+01
     -5.239  0.0000E+00  0.2000E+01
     -5.197  0.0000E+00  0.2000E+01
     -5.156  0.0000E+00  0.2000E+01
     -5.114  0.0000E+00  0.2000E+01
     -5.073  0.0000E+00  0.2000E+01
     -5.031  0.0000E+00  0.2000E+01
     -4.989  0.0000E+00  0.2000E+01
     -4.948  0.0000E+00  0.2000E+01
     -4.906  0.0000E+00  0.2000E+01
     -4.865  0.0000E+00  0.2000E+01
     -4.823  0.0000E+00  0.2000E+01
     -4.782  0.0000E+00  0.2000E+01
     -4.740  0.0000E+00  0.2000E+01
     -4.699  0.0000E+00  0.2000E+01
     -4.657  0.0000E+00  0.2000E+01
     -4.615  0.0000E+00  0.2000E+01
     -4.574  0.0000E+00  0.2000E+01
     -4.532  0.0000E+00  0.2000E+01
     -4.491  0.0000E+00  0.2000E+01
     -4.449  0.0000E+00  0.2000E+01
     -4.408  0.0000E+00  0.2000E+01
     -4.366  0.0000E+00  0.2000E+01
     -4.325  0.0000E+00  0.2000E+01
     -4.283  0.0000E+00  0.2000E+01
     -4.241  0.0000E+00  0.2000E+01
     -4.200  0.0000E+00  0.2000E+01
     -4.158  0.0000E+00  0.2000E+01
     -4.117  0.0000E+00  0.2000E+01
     -4.075  0.0000E+00  0.2000E+01
     -4.034  0.0000E+00  0.2000E+01
     -3.992  0.0000E+00  0.2000E+01
     -3.950  0.0000E+00  0.2000E+01
     -3.909  0.0000E+00  0.2000E+01
     -3.867  0.8014E-14  0.2000E+01
     -3.826  0.6351E-10  0.2000E+01
     -3.784  0.1685E-06  0.2000E+01
     -3.743  0.1160E-03  0.2000E+01
     -3.701  0.2102E-01  0.2001E+01
     -3.660  0.1021E+01  0.2043E+01
     -3.618  0.1367E+02  0.2612E+01
     -3.576  0.5200E+02  0.4773E+01
     -3.535  0.5744E+02  0.7160E+01
     -3.493  0.1847E+02  0.7928E+01
     -3.452  0.1695E+01  0.7998E+01
     -3.410  0.4305E-01  0.8000E+01
     -3.369  0.2945E-03  0.8000E+01
     -3.327  0.5313E-06  0.8000E+01
     -3.286  0.2492E-09  0.8000E+01
     -3.244  0.3206E-13  0.8000E+01
     -3.202  0.0000E+00  0.8000E+01
     -3.161  0.0000E+00  0.8000E+01
     -3.119  0.0000E+00  0.8000E+01
     -3.078  0.0000E+00  0.8000E+01
     -3.036  0.0000E+00  0.8000E+01
     -2.995  0.0000E+00  0.8000E+01
     -2.953  0.0000E+00  0.8000E+01
     -2.911  0.0000E+00  0.8000E+01
     -2.870  0.0000E+00  0.8000E+01
     -2.828  0.0000E+00  0.8000E+01
     -2.787  0.0000E+00  0.8000E+01
     -2.745  0.0000E+00  0.8000E+01
     -2.704  0.0000E+00  0.8000E+01
     -2.662  0.0000E+00  0.8000E+01
     -2.621  0.0000E+00  0.8000E+01
     -2.579  0.0000E+00  0.8000E+01
     -2.537  0.0000E+00  0.8000E+01
     -2.496  0.0000E+00  0.8000E+01
     -2.454  0.0000E+00  0.8000E+01
     -2.413  0.0000E+00  0.8000E+01
     -2.371  0.0000E+00  0.8000E+01
     -2.330  0.0000E+00  0.8000E+01
     -2.288  0.0000E+00  0.8000E+01
     -2.246  0.0000E+00  0.8000E+01
     -2.205  0.0000E+00  0.8000E+01
     -2.163  0.0000E+00  0.8000E+01
     -2.122  0.0000E+00  0.8000E+01
     -2.080  0.0000E+00  0.8000E+01
     -2.039  0.0000E+00  0.8000E+01
     -1.997  0.0000E+00  0.8000E+01
     -1.956  0.0000E+00  0.8000E+01
     -1.914  0.0000E+00  0.8000E+01
     -1.872  0.0000E+00  0.8000E+01
     -1.831  0.0000E+00  0.8000E+01
     -1.789  0.0000E+00  0.8000E+01
     -1.748  0.0000E+00  0.8000E+01
     -1.706  0.0000E+00  0.8000E+01
     -1.665  0.0000E+00  0.8000E+01
     -1.623  0.0000E+00  0.8000E+01
     -1.582  0.0000E+00  0.8000E+01
     -1.540  0.0000E+00  0.8000E+01
     -1.498  0.0000E+00  0.8000E+01
     -1.457  0.0000E+00  0.8000E+01
     -1.415  0.0000E+00  0.8000E+01
     -1.374  0.0000E+00  0.8000E+01
     -1.332  0.0000E+00  0.8000E+01
     -1.291  0.0000E+00  0.8000E+01
     -1.249  0.0000E+00  0.8000E+01
     -1.207  0.0000E+00  0.8000E+01
     -1.166  0.0000E+00  0.8000E+01
     -1.124  0.0000E+00  0.8000E+01
     -1.083  0.0000E+00  0.8000E+01
     -1.041  0.0000E+00  0.8000E+01
     -1.000  0.0000E+00  0.8000E+01
     -0.958  0.0000E+00  0.8000E+01
     -0.917  0.0000E+00  0.8000E+01
     -0.875  0.0000E+00  0.8000E+01
     -0.833  0.0000E+00  0.8000E+01
     -0.792  0.0000E+00  0.8000E+01
     -0.750  0.0000E+00  0.8000E+01
     -0.709  0.0000E+00  0.8000E+01
     -0.667  0.0000E+00  0.8000E+01
     -0.626  0.0000E+00  0.8000E+01
     -0.584  0.0000E+00  0.8000E+01
     -0.543  0.3901E-15  0.8000E+01
     -0.501  0.3165E-11  0.8000E+01
     -0.459  0.6559E-08  0.8000E+01
     -0.418  0.3740E-05  0.8000E+01
     -0.376  0.6087E-03  0.8000E+01
     -0.335  0.2990E-01  0.8001E+01
     -0.293  0.4814E+00  0.8021E+01
     -0.252  0.2867E+01  0.8140E+01
     -0.210  0.7497E+01  0.8452E+01
     -0.168  0.1067E+02  0.8895E+01
     -0.127  0.1049E+02  0.9332E+01
     -0.085  0.8622E+01  0.9690E+01
     -0.044  0.5309E+01  0.9911E+01
     -0.002  0.1878E+01  0.9989E+01
      0.039  0.6517E+00  0.1002E+02
      0.081  0.1978E+01  0.1010E+02
      0.122  0.5552E+01  0.1033E+02
      0.164  0.1018E+02  0.1075E+02
      0.206  0.1389E+02  0.1133E+02
      0.247  0.1561E+02  0.1198E+02
      0.289  0.1581E+02  0.1263E+02
      0.330  0.1593E+02  0.1330E+02
      0.372  0.1622E+02  0.1397E+02
      0.413  0.1651E+02  0.1466E+02
      0.455  0.1754E+02  0.1539E+02
      0.496  0.1850E+02  0.1615E+02
      0.538  0.1851E+02  0.1692E+02
      0.580  0.1897E+02  0.1771E+02
      0.621  0.1990E+02  0.1854E+02
      0.663  0.2038E+02  0.1939E+02
      0.704  0.2100E+02  0.2026E+02
      0.746  0.2240E+02  0.2119E+02
      0.787  0.2246E+02  0.2212E+02
      0.829  0.2189E+02  0.2303E+02
      0.871  0.2331E+02  0.2400E+02
      0.912  0.2455E+02  0.2502E+02
      0.954  0.2427E+02  0.2603E+02
      0.995  0.2486E+02  0.2706E+02
      1.037  0.2592E+02  0.2814E+02
      1.078  0.2604E+02  0.2922E+02
      1.120  0.2610E+02  0.3031E+02
      1.161  0.2684E+02  0.3142E+02
      1.203  0.2774E+02  0.3258E+02
      1.245  0.2737E+02  0.3371E+02
      1.286  0.2751E+02  0.3486E+02
      1.328  0.2859E+02  0.3605E+02
      1.369  0.2866E+02  0.3724E+02
      1.411  0.2835E+02  0.3842E+02
      1.452  0.2935E+02  0.3964E+02
      1.494  0.3092E+02  0.4092E+02
      1.535  0.3009E+02  0.4217E+02
      1.577  0.2961E+02  0.4340E+02
      1.619  0.3012E+02  0.4465E+02
      1.660  0.2778E+02  0.4581E+02
      1.702  0.2131E+02  0.4669E+02
      1.743  0.1413E+02  0.4728E+02
      1.785  0.8373E+01  0.4763E+02
      1.826  0.4821E+01  0.4783E+02
      1.868  0.2585E+01  0.4794E+02
      1.910  0.1095E+01  0.4798E+02
      1.951  0.3471E+00  0.4800E+02
      1.993  0.7330E-01  0.4800E+02
      2.034  0.7103E-02  0.4800E+02
      2.076  0.2275E-03  0.4800E+02
      2.117  0.2082E-05  0.4800E+02
      2.159  0.5150E-08  0.4800E+02
      2.200  0.3362E-11  0.4800E+02
      2.242  0.5767E-15  0.4800E+02
      2.284  0.0000E+00  0.4800E+02
      2.325  0.0000E+00  0.4800E+02
      2.367  0.0000E+00  0.4800E+02
      2.408  0.0000E+00  0.4800E+02
      2.450  0.0000E+00  0.4800E+02
      2.491  0.0000E+00  0.4800E+02
