 running   24 mpi-ranks, with    1 threads/rank, on    1 nodes
 distrk:  each k-point on   24 cores,    1 groups
 distr:  one band on    1 cores,   24 groups
 vasp.6.4.3 19Mar24 (build May 31 2024 16:31:43) complex                        
  
 POSCAR found type information on POSCAR B 
 POSCAR found :  1 types and       1 ions
 Reading from existing POTCAR
 scaLAPACK will be used
 Reading from existing POTCAR
 LDA part: xc-table for (Slater+PW92), standard interpolation
 POSCAR, INCAR and KPOINTS ok, starting setup
 FFT: planning ... GRIDC
 FFT: planning ... GRID_SOFT
 FFT: planning ... GRID
 WAVECAR not read
 entering main loop
       N       E                     dE             d eps       ncg     rms          rms(c)
DAV:   1     0.801363186150E+01    0.80136E+01   -0.34736E+02  8400   0.399E+01
DAV:   2     0.106815267162E+00   -0.79068E+01   -0.78814E+01 16560   0.577E+00
DAV:   3    -0.549135274149E-01   -0.16173E+00   -0.14040E+00  8520   0.146E+00
DAV:   4    -0.582149642735E-01   -0.33014E-02   -0.31575E-02  9648   0.177E-01
DAV:   5    -0.582522049445E-01   -0.37241E-04   -0.37224E-04 13056   0.210E-02    0.848E-03
DAV:   6    -0.582525830534E-01   -0.37811E-06   -0.28521E-06 11352   0.341E-03
   1 F= -.58252583E-01 E0= -.31751913E-01  d E =-.530013E-01
