<?xml version="1.0" encoding="ISO-8859-1"?>
<modeling>
 <generator>
  <i name="program" type="string">vasp </i>
  <i name="version" type="string">6.4.3  </i>
  <i name="subversion" type="string">19Mar24 (build May 31 2024 16:31:43) complex                          parallel </i>
  <i name="platform" type="string">LinuxIFC </i>
  <i name="date" type="string">2024 11 05 </i>
  <i name="time" type="string">22:41:31 </i>
 </generator>
 <incar>
  <i type="string" name="SYSTEM">Convergence</i>
  <i type="int" name="ISTART">     0</i>
  <i type="string" name="PREC">Accurate</i>
  <i type="string" name="ALGO">Normal</i>
  <i type="int" name="ISPIN">     1</i>
  <i type="int" name="ICHARG">     2</i>
  <i type="int" name="NELM">   100</i>
  <i type="int" name="IBRION">    -1</i>
  <i name="EDIFF">      0.00000100</i>
  <i name="EDIFFG">     -0.00100000</i>
  <i type="int" name="NSW">     0</i>
  <i type="int" name="ISIF">     2</i>
  <i name="ENCUT">    600.00000000</i>
  <i name="POTIM">      0.50000000</i>
  <i type="int" name="ISMEAR">     0</i>
  <i name="SIGMA">      0.05000000</i>
  <i type="logical" name="LWAVE"> F  </i>
  <i type="logical" name="LCHARG"> F  </i>
  <i type="string" name="GGA">PE</i>
 </incar>
 <primitive_cell>
  <structure name="primitive_cell" >
   <crystal>
    <varray name="basis" >
     <v>      15.00900000       0.00000000       0.00000000 </v>
     <v>       0.00000000      12.50750000       0.00000000 </v>
     <v>       0.00000000       0.00000000      18.01080000 </v>
    </varray>
    <i name="volume">   3381.07864573 </i>
    <varray name="rec_basis" >
     <v>       0.06662669       0.00000000       0.00000000 </v>
     <v>       0.00000000       0.07995203       0.00000000 </v>
     <v>       0.00000000       0.00000000       0.05552224 </v>
    </varray>
   </crystal>
   <varray name="positions" >
    <v>       0.52123000       0.54500000       0.63796000 </v>
   </varray>
  </structure>
  <varray name="primitive_index" >
   <v type="int" >        1 </v>
  </varray>
 </primitive_cell>
 <kpoints>
  <generation param="Monkhorst-Pack">
   <v type="int" name="divisions">      10       14        9 </v>
   <v name="usershift">      0.00000000       0.00000000       0.00000000 </v>
   <v name="genvec1">      0.10000000       0.00000000       0.00000000 </v>
   <v name="genvec2">      0.00000000       0.07142857       0.00000000 </v>
   <v name="genvec3">      0.00000000       0.00000000       0.11111111 </v>
   <v name="shift">      0.50000000       0.50000000       0.00000000 </v>
  </generation>
  <varray name="kpointlist" >
   <v>       0.05000000       0.03571429       0.00000000 </v>
   <v>       0.15000000       0.03571429       0.00000000 </v>
   <v>       0.25000000       0.03571429       0.00000000 </v>
   <v>       0.35000000       0.03571429       0.00000000 </v>
   <v>       0.45000000       0.03571429       0.00000000 </v>
   <v>       0.05000000       0.10714286       0.00000000 </v>
   <v>       0.15000000       0.10714286       0.00000000 </v>
   <v>       0.25000000       0.10714286       0.00000000 </v>
   <v>       0.35000000       0.10714286       0.00000000 </v>
   <v>       0.45000000       0.10714286       0.00000000 </v>
   <v>       0.05000000       0.17857143       0.00000000 </v>
   <v>       0.15000000       0.17857143       0.00000000 </v>
   <v>       0.25000000       0.17857143       0.00000000 </v>
   <v>       0.35000000       0.17857143       0.00000000 </v>
   <v>       0.45000000       0.17857143       0.00000000 </v>
   <v>       0.05000000       0.25000000       0.00000000 </v>
   <v>       0.15000000       0.25000000       0.00000000 </v>
   <v>       0.25000000       0.25000000       0.00000000 </v>
   <v>       0.35000000       0.25000000       0.00000000 </v>
   <v>       0.45000000       0.25000000       0.00000000 </v>
   <v>       0.05000000       0.32142857       0.00000000 </v>
   <v>       0.15000000       0.32142857       0.00000000 </v>
   <v>       0.25000000       0.32142857       0.00000000 </v>
   <v>       0.35000000       0.32142857       0.00000000 </v>
   <v>       0.45000000       0.32142857       0.00000000 </v>
   <v>       0.05000000       0.39285714       0.00000000 </v>
   <v>       0.15000000       0.39285714       0.00000000 </v>
   <v>       0.25000000       0.39285714       0.00000000 </v>
   <v>       0.35000000       0.39285714       0.00000000 </v>
   <v>       0.45000000       0.39285714       0.00000000 </v>
   <v>       0.05000000       0.46428571       0.00000000 </v>
   <v>       0.15000000       0.46428571       0.00000000 </v>
   <v>       0.25000000       0.46428571       0.00000000 </v>
   <v>       0.35000000       0.46428571       0.00000000 </v>
   <v>       0.45000000       0.46428571       0.00000000 </v>
   <v>       0.05000000       0.03571429       0.11111111 </v>
   <v>       0.15000000       0.03571429       0.11111111 </v>
   <v>       0.25000000       0.03571429       0.11111111 </v>
   <v>       0.35000000       0.03571429       0.11111111 </v>
   <v>       0.45000000       0.03571429       0.11111111 </v>
   <v>       0.05000000       0.10714286       0.11111111 </v>
   <v>       0.15000000       0.10714286       0.11111111 </v>
   <v>       0.25000000       0.10714286       0.11111111 </v>
   <v>       0.35000000       0.10714286       0.11111111 </v>
   <v>       0.45000000       0.10714286       0.11111111 </v>
   <v>       0.05000000       0.17857143       0.11111111 </v>
   <v>       0.15000000       0.17857143       0.11111111 </v>
   <v>       0.25000000       0.17857143       0.11111111 </v>
   <v>       0.35000000       0.17857143       0.11111111 </v>
   <v>       0.45000000       0.17857143       0.11111111 </v>
   <v>       0.05000000       0.25000000       0.11111111 </v>
   <v>       0.15000000       0.25000000       0.11111111 </v>
   <v>       0.25000000       0.25000000       0.11111111 </v>
   <v>       0.35000000       0.25000000       0.11111111 </v>
   <v>       0.45000000       0.25000000       0.11111111 </v>
   <v>       0.05000000       0.32142857       0.11111111 </v>
   <v>       0.15000000       0.32142857       0.11111111 </v>
   <v>       0.25000000       0.32142857       0.11111111 </v>
   <v>       0.35000000       0.32142857       0.11111111 </v>
   <v>       0.45000000       0.32142857       0.11111111 </v>
   <v>       0.05000000       0.39285714       0.11111111 </v>
   <v>       0.15000000       0.39285714       0.11111111 </v>
   <v>       0.25000000       0.39285714       0.11111111 </v>
   <v>       0.35000000       0.39285714       0.11111111 </v>
   <v>       0.45000000       0.39285714       0.11111111 </v>
   <v>       0.05000000       0.46428571       0.11111111 </v>
   <v>       0.15000000       0.46428571       0.11111111 </v>
   <v>       0.25000000       0.46428571       0.11111111 </v>
   <v>       0.35000000       0.46428571       0.11111111 </v>
   <v>       0.45000000       0.46428571       0.11111111 </v>
   <v>       0.05000000       0.03571429       0.22222222 </v>
   <v>       0.15000000       0.03571429       0.22222222 </v>
   <v>       0.25000000       0.03571429       0.22222222 </v>
   <v>       0.35000000       0.03571429       0.22222222 </v>
   <v>       0.45000000       0.03571429       0.22222222 </v>
   <v>       0.05000000       0.10714286       0.22222222 </v>
   <v>       0.15000000       0.10714286       0.22222222 </v>
   <v>       0.25000000       0.10714286       0.22222222 </v>
   <v>       0.35000000       0.10714286       0.22222222 </v>
   <v>       0.45000000       0.10714286       0.22222222 </v>
   <v>       0.05000000       0.17857143       0.22222222 </v>
   <v>       0.15000000       0.17857143       0.22222222 </v>
   <v>       0.25000000       0.17857143       0.22222222 </v>
   <v>       0.35000000       0.17857143       0.22222222 </v>
   <v>       0.45000000       0.17857143       0.22222222 </v>
   <v>       0.05000000       0.25000000       0.22222222 </v>
   <v>       0.15000000       0.25000000       0.22222222 </v>
   <v>       0.25000000       0.25000000       0.22222222 </v>
   <v>       0.35000000       0.25000000       0.22222222 </v>
   <v>       0.45000000       0.25000000       0.22222222 </v>
   <v>       0.05000000       0.32142857       0.22222222 </v>
   <v>       0.15000000       0.32142857       0.22222222 </v>
   <v>       0.25000000       0.32142857       0.22222222 </v>
   <v>       0.35000000       0.32142857       0.22222222 </v>
   <v>       0.45000000       0.32142857       0.22222222 </v>
   <v>       0.05000000       0.39285714       0.22222222 </v>
   <v>       0.15000000       0.39285714       0.22222222 </v>
   <v>       0.25000000       0.39285714       0.22222222 </v>
   <v>       0.35000000       0.39285714       0.22222222 </v>
   <v>       0.45000000       0.39285714       0.22222222 </v>
   <v>       0.05000000       0.46428571       0.22222222 </v>
   <v>       0.15000000       0.46428571       0.22222222 </v>
   <v>       0.25000000       0.46428571       0.22222222 </v>
   <v>       0.35000000       0.46428571       0.22222222 </v>
   <v>       0.45000000       0.46428571       0.22222222 </v>
   <v>       0.05000000       0.03571429       0.33333333 </v>
   <v>       0.15000000       0.03571429       0.33333333 </v>
   <v>       0.25000000       0.03571429       0.33333333 </v>
   <v>       0.35000000       0.03571429       0.33333333 </v>
   <v>       0.45000000       0.03571429       0.33333333 </v>
   <v>       0.05000000       0.10714286       0.33333333 </v>
   <v>       0.15000000       0.10714286       0.33333333 </v>
   <v>       0.25000000       0.10714286       0.33333333 </v>
   <v>       0.35000000       0.10714286       0.33333333 </v>
   <v>       0.45000000       0.10714286       0.33333333 </v>
   <v>       0.05000000       0.17857143       0.33333333 </v>
   <v>       0.15000000       0.17857143       0.33333333 </v>
   <v>       0.25000000       0.17857143       0.33333333 </v>
   <v>       0.35000000       0.17857143       0.33333333 </v>
   <v>       0.45000000       0.17857143       0.33333333 </v>
   <v>       0.05000000       0.25000000       0.33333333 </v>
   <v>       0.15000000       0.25000000       0.33333333 </v>
   <v>       0.25000000       0.25000000       0.33333333 </v>
   <v>       0.35000000       0.25000000       0.33333333 </v>
   <v>       0.45000000       0.25000000       0.33333333 </v>
   <v>       0.05000000       0.32142857       0.33333333 </v>
   <v>       0.15000000       0.32142857       0.33333333 </v>
   <v>       0.25000000       0.32142857       0.33333333 </v>
   <v>       0.35000000       0.32142857       0.33333333 </v>
   <v>       0.45000000       0.32142857       0.33333333 </v>
   <v>       0.05000000       0.39285714       0.33333333 </v>
   <v>       0.15000000       0.39285714       0.33333333 </v>
   <v>       0.25000000       0.39285714       0.33333333 </v>
   <v>       0.35000000       0.39285714       0.33333333 </v>
   <v>       0.45000000       0.39285714       0.33333333 </v>
   <v>       0.05000000       0.46428571       0.33333333 </v>
   <v>       0.15000000       0.46428571       0.33333333 </v>
   <v>       0.25000000       0.46428571       0.33333333 </v>
   <v>       0.35000000       0.46428571       0.33333333 </v>
   <v>       0.45000000       0.46428571       0.33333333 </v>
   <v>       0.05000000       0.03571429       0.44444444 </v>
   <v>       0.15000000       0.03571429       0.44444444 </v>
   <v>       0.25000000       0.03571429       0.44444444 </v>
   <v>       0.35000000       0.03571429       0.44444444 </v>
   <v>       0.45000000       0.03571429       0.44444444 </v>
   <v>       0.05000000       0.10714286       0.44444444 </v>
   <v>       0.15000000       0.10714286       0.44444444 </v>
   <v>       0.25000000       0.10714286       0.44444444 </v>
   <v>       0.35000000       0.10714286       0.44444444 </v>
   <v>       0.45000000       0.10714286       0.44444444 </v>
   <v>       0.05000000       0.17857143       0.44444444 </v>
   <v>       0.15000000       0.17857143       0.44444444 </v>
   <v>       0.25000000       0.17857143       0.44444444 </v>
   <v>       0.35000000       0.17857143       0.44444444 </v>
   <v>       0.45000000       0.17857143       0.44444444 </v>
   <v>       0.05000000       0.25000000       0.44444444 </v>
   <v>       0.15000000       0.25000000       0.44444444 </v>
   <v>       0.25000000       0.25000000       0.44444444 </v>
   <v>       0.35000000       0.25000000       0.44444444 </v>
   <v>       0.45000000       0.25000000       0.44444444 </v>
   <v>       0.05000000       0.32142857       0.44444444 </v>
   <v>       0.15000000       0.32142857       0.44444444 </v>
   <v>       0.25000000       0.32142857       0.44444444 </v>
   <v>       0.35000000       0.32142857       0.44444444 </v>
   <v>       0.45000000       0.32142857       0.44444444 </v>
   <v>       0.05000000       0.39285714       0.44444444 </v>
   <v>       0.15000000       0.39285714       0.44444444 </v>
   <v>       0.25000000       0.39285714       0.44444444 </v>
   <v>       0.35000000       0.39285714       0.44444444 </v>
   <v>       0.45000000       0.39285714       0.44444444 </v>
   <v>       0.05000000       0.46428571       0.44444444 </v>
   <v>       0.15000000       0.46428571       0.44444444 </v>
   <v>       0.25000000       0.46428571       0.44444444 </v>
   <v>       0.35000000       0.46428571       0.44444444 </v>
   <v>       0.45000000       0.46428571       0.44444444 </v>
  </varray>
  <varray name="weights" >
   <v>       0.00317460 </v>
   <v>       0.00317460 </v>
   <v>       0.00317460 </v>
   <v>       0.00317460 </v>
   <v>       0.00317460 </v>
   <v>       0.00317460 </v>
   <v>       0.00317460 </v>
   <v>       0.00317460 </v>
   <v>       0.00317460 </v>
   <v>       0.00317460 </v>
   <v>       0.00317460 </v>
   <v>       0.00317460 </v>
   <v>       0.00317460 </v>
   <v>       0.00317460 </v>
   <v>       0.00317460 </v>
   <v>       0.00317460 </v>
   <v>       0.00317460 </v>
   <v>       0.00317460 </v>
   <v>       0.00317460 </v>
   <v>       0.00317460 </v>
   <v>       0.00317460 </v>
   <v>       0.00317460 </v>
   <v>       0.00317460 </v>
   <v>       0.00317460 </v>
   <v>       0.00317460 </v>
   <v>       0.00317460 </v>
   <v>       0.00317460 </v>
   <v>       0.00317460 </v>
   <v>       0.00317460 </v>
   <v>       0.00317460 </v>
   <v>       0.00317460 </v>
   <v>       0.00317460 </v>
   <v>       0.00317460 </v>
   <v>       0.00317460 </v>
   <v>       0.00317460 </v>
   <v>       0.00634921 </v>
   <v>       0.00634921 </v>
   <v>       0.00634921 </v>
   <v>       0.00634921 </v>
   <v>       0.00634921 </v>
   <v>       0.00634921 </v>
   <v>       0.00634921 </v>
   <v>       0.00634921 </v>
   <v>       0.00634921 </v>
   <v>       0.00634921 </v>
   <v>       0.00634921 </v>
   <v>       0.00634921 </v>
   <v>       0.00634921 </v>
   <v>       0.00634921 </v>
   <v>       0.00634921 </v>
   <v>       0.00634921 </v>
   <v>       0.00634921 </v>
   <v>       0.00634921 </v>
   <v>       0.00634921 </v>
   <v>       0.00634921 </v>
   <v>       0.00634921 </v>
   <v>       0.00634921 </v>
   <v>       0.00634921 </v>
   <v>       0.00634921 </v>
   <v>       0.00634921 </v>
   <v>       0.00634921 </v>
   <v>       0.00634921 </v>
   <v>       0.00634921 </v>
   <v>       0.00634921 </v>
   <v>       0.00634921 </v>
   <v>       0.00634921 </v>
   <v>       0.00634921 </v>
   <v>       0.00634921 </v>
   <v>       0.00634921 </v>
   <v>       0.00634921 </v>
   <v>       0.00634921 </v>
   <v>       0.00634921 </v>
   <v>       0.00634921 </v>
   <v>       0.00634921 </v>
   <v>       0.00634921 </v>
   <v>       0.00634921 </v>
   <v>       0.00634921 </v>
   <v>       0.00634921 </v>
   <v>       0.00634921 </v>
   <v>       0.00634921 </v>
   <v>       0.00634921 </v>
   <v>       0.00634921 </v>
   <v>       0.00634921 </v>
   <v>       0.00634921 </v>
   <v>       0.00634921 </v>
   <v>       0.00634921 </v>
   <v>       0.00634921 </v>
   <v>       0.00634921 </v>
   <v>       0.00634921 </v>
   <v>       0.00634921 </v>
   <v>       0.00634921 </v>
   <v>       0.00634921 </v>
   <v>       0.00634921 </v>
   <v>       0.00634921 </v>
   <v>       0.00634921 </v>
   <v>       0.00634921 </v>
   <v>       0.00634921 </v>
   <v>       0.00634921 </v>
   <v>       0.00634921 </v>
   <v>       0.00634921 </v>
   <v>       0.00634921 </v>
   <v>       0.00634921 </v>
   <v>       0.00634921 </v>
   <v>       0.00634921 </v>
   <v>       0.00634921 </v>
   <v>       0.00634921 </v>
   <v>       0.00634921 </v>
   <v>       0.00634921 </v>
   <v>       0.00634921 </v>
   <v>       0.00634921 </v>
   <v>       0.00634921 </v>
   <v>       0.00634921 </v>
   <v>       0.00634921 </v>
   <v>       0.00634921 </v>
   <v>       0.00634921 </v>
   <v>       0.00634921 </v>
   <v>       0.00634921 </v>
   <v>       0.00634921 </v>
   <v>       0.00634921 </v>
   <v>       0.00634921 </v>
   <v>       0.00634921 </v>
   <v>       0.00634921 </v>
   <v>       0.00634921 </v>
   <v>       0.00634921 </v>
   <v>       0.00634921 </v>
   <v>       0.00634921 </v>
   <v>       0.00634921 </v>
   <v>       0.00634921 </v>
   <v>       0.00634921 </v>
   <v>       0.00634921 </v>
   <v>       0.00634921 </v>
   <v>       0.00634921 </v>
   <v>       0.00634921 </v>
   <v>       0.00634921 </v>
   <v>       0.00634921 </v>
   <v>       0.00634921 </v>
   <v>       0.00634921 </v>
   <v>       0.00634921 </v>
   <v>       0.00634921 </v>
   <v>       0.00634921 </v>
   <v>       0.00634921 </v>
   <v>       0.00634921 </v>
   <v>       0.00634921 </v>
   <v>       0.00634921 </v>
   <v>       0.00634921 </v>
   <v>       0.00634921 </v>
   <v>       0.00634921 </v>
   <v>       0.00634921 </v>
   <v>       0.00634921 </v>
   <v>       0.00634921 </v>
   <v>       0.00634921 </v>
   <v>       0.00634921 </v>
   <v>       0.00634921 </v>
   <v>       0.00634921 </v>
   <v>       0.00634921 </v>
   <v>       0.00634921 </v>
   <v>       0.00634921 </v>
   <v>       0.00634921 </v>
   <v>       0.00634921 </v>
   <v>       0.00634921 </v>
   <v>       0.00634921 </v>
   <v>       0.00634921 </v>
   <v>       0.00634921 </v>
   <v>       0.00634921 </v>
   <v>       0.00634921 </v>
   <v>       0.00634921 </v>
   <v>       0.00634921 </v>
   <v>       0.00634921 </v>
   <v>       0.00634921 </v>
   <v>       0.00634921 </v>
   <v>       0.00634921 </v>
   <v>       0.00634921 </v>
   <v>       0.00634921 </v>
   <v>       0.00634921 </v>
   <v>       0.00634921 </v>
  </varray>
 </kpoints>
 <parameters>
  <separator name="general" >
   <i type="string" name="SYSTEM">Convergence</i>
   <i type="logical" name="LCOMPAT"> F  </i>
  </separator>
  <separator name="electronic" >
   <i type="string" name="PREC">accura</i>
   <i name="ENMAX">    600.00000000</i>
   <i name="ENAUG">    535.51400000</i>
   <i name="EDIFF">      0.00000100</i>
   <i type="int" name="IALGO">    38</i>
   <i type="int" name="IWAVPR">    10</i>
   <i type="int" name="NBANDS">    24</i>
   <i type="int" name="NBANDSLOW">    -1</i>
   <i type="int" name="NBANDSHIGH">    -1</i>
   <i name="NELECT">      3.00000000</i>
   <i type="int" name="TURBO">     0</i>
   <i type="int" name="IRESTART">     0</i>
   <i type="int" name="NREBOOT">     0</i>
   <i type="int" name="NMIN">     0</i>
   <i name="EREF">      0.00000000</i>
   <separator name="electronic smearing" >
    <i type="int" name="ISMEAR">     0</i>
    <i name="SIGMA">      0.05000000</i>
    <i name="KSPACING">      0.50000000</i>
    <i type="logical" name="KGAMMA"> T  </i>
    <i type="logical" name="KBLOWUP"> T  </i>
   </separator>
   <separator name="electronic projectors" >
    <i type="logical" name="LREAL"> F  </i>
    <v name="ROPT">      0.00000000</v>
    <i type="int" name="LMAXPAW">  -100</i>
    <i type="int" name="LMAXMIX">     2</i>
    <i type="logical" name="NLSPLINE"> F  </i>
   </separator>
   <separator name="electronic startup" >
    <i type="int" name="ISTART">     0</i>
    <i type="int" name="ICHARG">     2</i>
    <i type="int" name="INIWAV">     1</i>
   </separator>
   <separator name="electronic spin" >
    <i type="int" name="ISPIN">     1</i>
    <i type="logical" name="LNONCOLLINEAR"> F  </i>
    <v name="MAGMOM">      1.00000000</v>
    <i name="NUPDOWN">     -1.00000000</i>
    <i type="logical" name="LSORBIT"> F  </i>
    <v name="SAXIS">      0.00000000      0.00000000      1.00000000</v>
    <i type="logical" name="LSPIRAL"> F  </i>
    <v name="QSPIRAL">      0.00000000      0.00000000      0.00000000</v>
    <i type="logical" name="LZEROZ"> F  </i>
   </separator>
   <separator name="electronic exchange-correlation" >
    <i type="logical" name="LASPH"> F  </i>
   </separator>
   <separator name="electronic convergence" >
    <i type="int" name="NELM">   100</i>
    <i type="int" name="NELMDL">    -5</i>
    <i type="int" name="NELMIN">     2</i>
    <i name="ENINI">    600.00000000</i>
    <separator name="electronic convergence detail" >
     <i type="logical" name="LDIAG"> T  </i>
     <i type="logical" name="LSUBROT"> F  </i>
     <i name="WEIMIN">      0.00000000</i>
     <i name="EBREAK">      0.00000001</i>
     <i name="DEPER">      0.30000000</i>
     <i type="int" name="NRMM">     4</i>
     <i name="TIME">      0.40000000</i>
    </separator>
   </separator>
   <separator name="electronic mixer" >
    <i name="AMIX">      0.40000000</i>
    <i name="BMIX">      1.00000000</i>
    <i name="AMIN">      0.10000000</i>
    <i name="AMIX_MAG">      1.60000000</i>
    <i name="BMIX_MAG">      1.00000000</i>
    <separator name="electronic mixer details" >
     <i type="int" name="IMIX">     4</i>
     <i type="logical" name="MIXFIRST"> F  </i>
     <i type="int" name="MAXMIX">   -45</i>
     <i name="WC">    100.00000000</i>
     <i type="int" name="INIMIX">     1</i>
     <i type="int" name="MIXPRE">     1</i>
     <i type="int" name="MREMOVE">     5</i>
    </separator>
   </separator>
   <separator name="electronic dipolcorrection" >
    <i type="logical" name="LDIPOL"> F  </i>
    <i type="logical" name="LMONO"> F  </i>
    <i type="int" name="IDIPOL">     0</i>
    <i name="EPSILON">      1.00000000</i>
    <v name="DIPOL">   -100.00000000   -100.00000000   -100.00000000</v>
    <i name="EFIELD">      0.00000000</i>
    <i type="logical" name="LVACPOTAV"> F  </i>
   </separator>
  </separator>
  <separator name="grids" >
   <i type="int" name="NGX">   120</i>
   <i type="int" name="NGY">   100</i>
   <i type="int" name="NGZ">   144</i>
   <i type="int" name="NGXF">   240</i>
   <i type="int" name="NGYF">   200</i>
   <i type="int" name="NGZF">   288</i>
   <i type="logical" name="ADDGRID"> F  </i>
  </separator>
  <separator name="ionic" >
   <i type="int" name="NSW">     0</i>
   <i type="int" name="IBRION">    -1</i>
   <i type="int" name="MDALGO">     0</i>
   <i type="int" name="ISIF">     2</i>
   <i name="PSTRESS">      0.00000000</i>
   <i name="EDIFFG">     -0.00100000</i>
   <i type="int" name="NFREE">     0</i>
   <i name="POTIM">      0.50000000</i>
   <i name="SMASS">     -3.00000000</i>
   <i name="SCALEE">      1.00000000</i>
  </separator>
  <separator name="ionic md" >
   <i name="TEBEG">      0.00010000</i>
   <i name="TEEND">      0.00010000</i>
   <i type="int" name="NBLOCK">     1</i>
   <i type="int" name="KBLOCK">     1</i>
   <i type="int" name="NPACO">   256</i>
   <i name="APACO">     10.00000000</i>
  </separator>
  <separator name="symmetry" >
   <i type="int" name="ISYM">     2</i>
   <i name="SYMPREC">      0.00001000</i>
  </separator>
  <separator name="dos" >
   <i type="int" name="LORBIT">     0</i>
   <v name="RWIGS">     -1.00000000</v>
   <i type="int" name="NEDOS">   301</i>
   <i name="EMIN">     10.00000000</i>
   <i name="EMAX">    -10.00000000</i>
   <i name="EFERMI">      0.00000000</i>
  </separator>
  <separator name="writing" >
   <i type="int" name="NWRITE">     2</i>
   <i type="logical" name="LWAVE"> F  </i>
   <i type="logical" name="LDOWNSAMPLE"> F  </i>
   <i type="logical" name="LCHARG"> F  </i>
   <i type="logical" name="LPARD"> F  </i>
   <i type="logical" name="LVTOT"> F  </i>
   <i type="logical" name="LVHAR"> F  </i>
   <i type="logical" name="LELF"> F  </i>
   <i type="logical" name="LOPTICS"> F  </i>
   <v name="STM">      0.00000000      0.00000000      0.00000000      0.00000000      0.00000000      0.00000000      0.00000000</v>
  </separator>
  <separator name="performance" >
   <i type="int" name="NPAR">    24</i>
   <i type="int" name="NSIM">     4</i>
   <i type="int" name="NBLK">    -1</i>
   <i type="logical" name="LPLANE"> T  </i>
   <i type="logical" name="LSCALAPACK"> T  </i>
   <i type="logical" name="LSCAAWARE"> F  </i>
   <i type="logical" name="LSCALU"> F  </i>
   <i type="logical" name="LASYNC"> F  </i>
   <i type="logical" name="LORBITALREAL"> F  </i>
  </separator>
  <separator name="miscellaneous" >
   <i type="int" name="IDIOT">     3</i>
   <i type="int" name="PHON_NSTRUCT">    -1</i>
   <i type="logical" name="LMUSIC"> F  </i>
   <v name="POMASS">     10.81100000</v>
   <v name="DARWINR">      0.00000000</v>
   <v name="DARWINV">      1.00000000</v>
   <i type="logical" name="LCORR"> T  </i>
  </separator>
  <i type="logical" name="GGA_COMPAT"> T  </i>
  <i type="logical" name="LBERRY"> F  </i>
  <i type="int" name="ICORELEVEL">     0</i>
  <i type="logical" name="LDAU"> F  </i>
  <i type="int" name="I_CONSTRAINED_M">     0</i>
  <separator name="electronic exchange-correlation" >
   <i type="string" name="GGA    ">PE</i>
   <i type="string" name="XC_C">1</i>
   <i type="int" name="VOSKOWN">     0</i>
   <i type="logical" name="LHFCALC"> F  </i>
   <i type="string" name="PRECFOCK"></i>
   <i type="logical" name="LSYMGRAD"> F  </i>
   <i type="logical" name="LHFONE"> F  </i>
   <i type="logical" name="LRHFCALC"> F  </i>
   <i type="logical" name="LTHOMAS"> F  </i>
   <i type="logical" name="LMODELHF"> F  </i>
   <i type="logical" name="LFOCKACE"> F  </i>
   <i name="ENCUT4O">     -1.00000000</i>
   <i type="int" name="EXXOEP">     0</i>
   <i type="int" name="FOURORBIT">     0</i>
   <i name="AEXX">      0.00000000</i>
   <i name="HFALPHA">      0.00000000</i>
   <i name="MCALPHA">      0.00000000</i>
   <i name="ALDAX">      1.00000000</i>
   <i name="AGGAX">      1.00000000</i>
   <i name="AMGGAX">      1.00000000</i>
   <i name="ALDAC">      1.00000000</i>
   <i name="AGGAC">      1.00000000</i>
   <i name="AMGGAC">      1.00000000</i>
   <i type="int" name="NKREDX">     1</i>
   <i type="int" name="NKREDY">     1</i>
   <i type="int" name="NKREDZ">     1</i>
   <i type="logical" name="SHIFTRED"> F  </i>
   <i type="logical" name="ODDONLY"> F  </i>
   <i type="logical" name="EVENONLY"> F  </i>
   <i type="int" name="LMAXFOCK">     0</i>
   <i type="int" name="NMAXFOCKAE">     0</i>
   <i type="logical" name="LFOCKAEDFT"> F  </i>
   <i name="HFSCREEN">      0.00000000</i>
   <i name="HFSCREENC">      0.00000000</i>
   <i type="int" name="NBANDSGWLOW">     0</i>
  </separator>
  <separator name="vdW DFT" >
   <i type="logical" name="LUSE_VDW"> F  </i>
   <i type="int" name="IVDW_NL">    -1</i>
   <i type="logical" name="LSPIN_VDW"> F  </i>
   <i name="ZAB_VDW">     -0.84910000</i>
   <i name="GAMMA_VDW">      1.39626340</i>
   <i name="ALPHA_VDW">      0.00000000</i>
   <i name="PARAM1">      0.12340000</i>
   <i name="PARAM2">      1.00000000</i>
   <i name="BPARAM">      6.30000000</i>
   <i name="CPARAM">      0.00930000</i>
  </separator>
  <separator name="model GW" >
   <i type="int" name="MODEL_GW">     0</i>
   <i name="MODEL_EPS0">   2028.64718744</i>
   <i name="MODEL_ALPHA">      1.00000000</i>
  </separator>
  <separator name="linear response parameters" >
   <i type="logical" name="LEPSILON"> F  </i>
   <i type="logical" name="LRPA"> F  </i>
   <i type="logical" name="LNABLA"> F  </i>
   <i type="logical" name="LVEL"> F  </i>
   <i name="CSHIFT">      0.10000000</i>
   <i name="OMEGAMAX">     -1.00000000</i>
   <i name="DEG_THRESHOLD">      0.00200000</i>
   <i name="RTIME">     -0.10000000</i>
   <i name="WPLASMAI">      0.00000000</i>
   <v name="DFIELD">      0.00000000      0.00000000      0.00000000</v>
   <v name="WPLASMA">      0.00000000      0.00000000      0.00000000      0.00000000      0.00000000      0.00000000      0.00000000      0.00000000      0.00000000</v>
  </separator>
  <separator name="orbital magnetization" >
   <i type="logical" name="NUCIND"> F  </i>
   <v name="MAGPOS">      0.00000000      0.00000000      0.00000000</v>
   <i type="logical" name="LNICSALL"> T  </i>
   <i type="logical" name="ORBITALMAG"> F  </i>
   <i type="logical" name="LMAGBLOCH"> F  </i>
   <i type="logical" name="LCHIMAG"> F  </i>
   <i type="logical" name="LGAUGE"> T  </i>
   <i type="int" name="MAGATOM">     0</i>
   <v name="MAGDIPOL">      0.00000000      0.00000000      0.00000000</v>
   <v name="AVECCONST">      0.00000000      0.00000000      0.00000000</v>
  </separator>
  <separator name="response functions" >
   <i type="logical" name="LALL_IN_ONE"> F  </i>
   <i type="int" name="IALL_IN_ONE">    -1</i>
   <i type="int" name="NBANDS_WAVE">    -1</i>
   <i type="logical" name="LFINITE_TEMPERATURE"> F  </i>
   <i type="logical" name="LADDER"> F  </i>
   <i type="logical" name="LRPAFORCE"> F  </i>
   <i type="logical" name="LFXC"> F  </i>
   <i type="logical" name="LHARTREE"> T  </i>
   <i type="int" name="IBSE">     0</i>
   <v type="int" name="KPOINT">    -1     0     0     0</v>
   <i type="logical" name="LTCTC"> F  </i>
   <i type="logical" name="LTCTE"> F  </i>
   <i type="logical" name="LTETE"> F  </i>
   <i type="logical" name="LTRIPLET"> F  </i>
   <i type="logical" name="LFXCEPS"> F  </i>
   <i type="logical" name="LFXHEG"> F  </i>
   <i type="int" name="NATURALO">     2</i>
   <i type="logical" name="LHOLEGF"> F  </i>
   <i type="logical" name="L2ORDER"> F  </i>
   <i type="logical" name="LDMP1"> F  </i>
   <i type="logical" name="LMP2LT"> F  </i>
   <i type="logical" name="LSMP2LT"> F  </i>
   <i type="logical" name="LGWLF"> F  </i>
   <i name="ENCUTGW">     -1.60000002</i>
   <i name="ENCUTGWSOFT">     -1.60000002</i>
   <i name="ENCUTLF">     -1.00000000</i>
   <i type="logical" name="ESF_SPLINES"> F  </i>
   <i name="ESF_CONV">      0.01000000</i>
   <i type="int" name="ESF_NINTER">    15</i>
   <i type="int" name="LMAXMP2">    -1</i>
   <i name="SCISSOR">      0.00000000</i>
   <i type="int" name="NOMEGA">     0</i>
   <i type="int" name="NOMEGAR">     0</i>
   <i type="int" name="NBANDSGW">    -1</i>
   <i type="int" name="NBANDSO">    -1</i>
   <i type="int" name="NBANDSV">    -1</i>
   <i type="int" name="NELMGW">     1</i>
   <i type="int" name="NELMHF">     1</i>
   <i type="int" name="DIM">     3</i>
   <i type="int" name="IESPILON">     4</i>
   <i type="int" name="ANTIRES">     0</i>
   <i name="OMEGAMAX">    -30.00000000</i>
   <i name="OMEGAMIN">    -30.00000000</i>
   <i name="OMEGATL">   -200.00000000</i>
   <i type="int" name="OMEGAGRID">     0</i>
   <i name="CSHIFT">     -0.10000000</i>
   <i type="logical" name="LSELFENERGY"> F  </i>
   <i type="logical" name="LSPECTRAL"> F  </i>
   <i type="logical" name="LSPECTRALGW"> F  </i>
   <i type="logical" name="LSINGLES"> F  </i>
   <i type="logical" name="LFERMIGW"> F  </i>
   <i type="logical" name="ODDONLYGW"> F  </i>
   <i type="logical" name="EVENONLYGW"> F  </i>
   <i type="int" name="NKREDLFX">     1</i>
   <i type="int" name="NKREDLFY">     1</i>
   <i type="int" name="NKREDLFZ">     1</i>
   <i type="int" name="MAXMEM">  2800</i>
   <i type="int" name="TELESCOPE">     0</i>
   <i type="int" name="NTAUPAR">    -1</i>
   <i type="int" name="NOMEGAPAR">    -1</i>
   <i name="DAMP_NEWTON">      0.80000001</i>
   <i name="LAMBDA">      1.00000000</i>
  </separator>
  <separator name="External order field" >
   <i name="OFIELD_KAPPA">      0.00000000</i>
   <v name="OFIELD_K">      0.00000000      0.00000000      0.00000000</v>
   <i name="OFIELD_Q6_NEAR">      0.00000000</i>
   <i name="OFIELD_Q6_FAR">      0.00000000</i>
   <i name="OFIELD_A">      0.00000000</i>
  </separator>
  <separator name="optional k-points parameters" >
   <i type="int" name="KPOINTS_OPT_MODE">     1</i>
   <i type="logical" name="LKPOINTS_OPT"> F  </i>
  </separator>
 </parameters>
 <atominfo>
  <atoms>       1 </atoms>
  <types>       1 </types>
  <array name="atoms" >
   <dimension dim="1">ion</dimension>
   <field type="string">element</field>
   <field type="int">atomtype</field>
   <set>
    <rc><c>B </c><c>   1</c></rc>
   </set>
  </array>
  <array name="atomtypes" >
   <dimension dim="1">type</dimension>
   <field type="int">atomspertype</field>
   <field type="string">element</field>
   <field>mass</field>
   <field>valence</field>
   <field type="string">pseudopotential</field>
   <set>
    <rc><c>   1</c><c>B </c><c>     10.81100000</c><c>      3.00000000</c><c>  PAW_PBE B 06Sep2000                   </c></rc>
   </set>
  </array>
 </atominfo>
 <structure name="initialpos" >
  <crystal>
   <varray name="basis" >
    <v>      15.00900000       0.00000000       0.00000000 </v>
    <v>       0.00000000      12.50750000       0.00000000 </v>
    <v>       0.00000000       0.00000000      18.01080000 </v>
   </varray>
   <i name="volume">   3381.07864573 </i>
   <varray name="rec_basis" >
    <v>       0.06662669       0.00000000       0.00000000 </v>
    <v>       0.00000000       0.07995203       0.00000000 </v>
    <v>       0.00000000       0.00000000       0.05552224 </v>
   </varray>
  </crystal>
  <varray name="positions" >
   <v>       0.52123000       0.54500000       0.63796000 </v>
  </varray>
 </structure>
 <calculation>
  <scstep>
   <time name="dav">   53.05   53.99</time>
   <time name="total">   53.50   54.45</time>
   <energy>
    <i name="alphaZ">      0.02034709 </i>
    <i name="ewald">    -11.82192349 </i>
    <i name="hartreedc">    -42.59084100 </i>
    <i name="XCdc">      4.75549672 </i>
    <i name="pawpsdc">     43.49986551 </i>
    <i name="pawaedc">    -42.64454556 </i>
    <i name="eentropy">     -0.01006476 </i>
    <i name="bandstr">    -14.36430340 </i>
    <i name="atom">     71.16960075 </i>
    <i name="e_fr_energy">      8.01363186 </i>
    <i name="e_wo_entrp">      8.02369662 </i>
    <i name="e_0_energy">      8.01866424 </i>
   </energy>
  </scstep>
  <scstep>
   <time name="dav">   85.46   86.60</time>
   <time name="total">   85.46   86.60</time>
   <energy>
    <i name="e_fr_energy">      0.10681527 </i>
    <i name="e_wo_entrp">      0.13657120 </i>
    <i name="e_0_energy">      0.12169323 </i>
   </energy>
  </scstep>
  <scstep>
   <time name="dav">   53.72   54.61</time>
   <time name="total">   53.72   54.61</time>
   <energy>
    <i name="e_fr_energy">     -0.05491353 </i>
    <i name="e_wo_entrp">     -0.00206076 </i>
    <i name="e_0_energy">     -0.02848714 </i>
   </energy>
  </scstep>
  <scstep>
   <time name="dav">   58.47   59.43</time>
   <time name="total">   58.47   59.43</time>
   <energy>
    <i name="e_fr_energy">     -0.05821496 </i>
    <i name="e_wo_entrp">     -0.00521366 </i>
    <i name="e_0_energy">     -0.03171431 </i>
   </energy>
  </scstep>
  <scstep>
   <time name="dav">   71.99   72.97</time>
   <time name="total">   76.16   77.18</time>
   <energy>
    <i name="e_fr_energy">     -0.05825220 </i>
    <i name="e_wo_entrp">     -0.00525086 </i>
    <i name="e_0_energy">     -0.03175153 </i>
   </energy>
  </scstep>
  <scstep>
   <time name="dav">   65.47   66.43</time>
   <time name="total">   65.89   66.86</time>
   <energy>
    <i name="alphaZ">      0.02034709 </i>
    <i name="ewald">    -11.82192349 </i>
    <i name="hartreedc">    -42.59104631 </i>
    <i name="XCdc">      4.75548570 </i>
    <i name="pawpsdc">     43.56777728 </i>
    <i name="pawaedc">    -42.71249005 </i>
    <i name="eentropy">     -0.05300134 </i>
    <i name="bandstr">    -22.39300220 </i>
    <i name="atom">     71.16960075 </i>
    <i name="e_fr_energy">     -0.05825258 </i>
    <i name="e_wo_entrp">     -0.00525124 </i>
    <i name="e_0_energy">     -0.03175191 </i>
   </energy>
  </scstep>
  <structure>
   <crystal>
    <varray name="basis" >
     <v>      15.00900000       0.00000000       0.00000000 </v>
     <v>       0.00000000      12.50750000       0.00000000 </v>
     <v>       0.00000000       0.00000000      18.01080000 </v>
    </varray>
    <i name="volume">   3381.07864573 </i>
    <varray name="rec_basis" >
     <v>       0.06662669       0.00000000       0.00000000 </v>
     <v>       0.00000000       0.07995203       0.00000000 </v>
     <v>       0.00000000       0.00000000       0.05552224 </v>
    </varray>
   </crystal>
   <varray name="positions" >
    <v>       0.52123000       0.54500000       0.63796000 </v>
   </varray>
  </structure>
  <varray name="forces" >
   <v>      -0.00000000       0.00000000       0.00000000 </v>
  </varray>
  <varray name="stress" >
   <v>      -0.00046519       0.00000000       0.00000000 </v>
   <v>      -0.00000000      -0.00047256       0.00000000 </v>
   <v>       0.00000000       0.00000000      -0.00045420 </v>
  </varray>
  <energy>
   <i name="e_fr_energy">     -0.05825258 </i>
   <i name="e_wo_entrp">     -0.00525124 </i>
   <i name="e_0_energy">     -0.03175191 </i>
  </energy>
  <time name="totalsc">  449.97  456.18</time>
  <eigenvalues>
   <array>
    <dimension dim="1">band</dimension>
    <dimension dim="2">kpoint</dimension>
    <dimension dim="3">spin</dimension>
    <field>eigene</field>
    <field>occ</field>
    <set>
     <set comment="spin 1">
      <set comment="kpoint 1">
       <r>   -9.4100    1.0000 </r>
       <r>   -3.5731    0.1667 </r>
       <r>   -3.5731    0.1667 </r>
       <r>   -3.5729    0.1659 </r>
       <r>   -0.2618    0.0000 </r>
       <r>    0.2938    0.0000 </r>
       <r>    0.3092    0.0000 </r>
       <r>    0.4386    0.0000 </r>
       <r>    0.5727    0.0000 </r>
       <r>    0.6857    0.0000 </r>
       <r>    0.8276    0.0000 </r>
       <r>    0.9095    0.0000 </r>
       <r>    0.9427    0.0000 </r>
       <r>    1.0345    0.0000 </r>
       <r>    1.0773    0.0000 </r>
       <r>    1.1725    0.0000 </r>
       <r>    1.2069    0.0000 </r>
       <r>    1.2879    0.0000 </r>
       <r>    1.3329    0.0000 </r>
       <r>    1.3506    0.0000 </r>
       <r>    1.4262    0.0000 </r>
       <r>    1.4966    0.0000 </r>
       <r>    1.5742    0.0000 </r>
       <r>    1.7057    0.0000 </r>
      </set>
      <set comment="kpoint 2">
       <r>   -9.4100    1.0000 </r>
       <r>   -3.5731    0.1667 </r>
       <r>   -3.5731    0.1667 </r>
       <r>   -3.5729    0.1659 </r>
       <r>   -0.2520    0.0000 </r>
       <r>    0.2685    0.0000 </r>
       <r>    0.3204    0.0000 </r>
       <r>    0.3730    0.0000 </r>
       <r>    0.6883    0.0000 </r>
       <r>    0.7070    0.0000 </r>
       <r>    0.7998    0.0000 </r>
       <r>    0.8293    0.0000 </r>
       <r>    0.8401    0.0000 </r>
       <r>    1.1504    0.0000 </r>
       <r>    1.1634    0.0000 </r>
       <r>    1.1963    0.0000 </r>
       <r>    1.2179    0.0000 </r>
       <r>    1.2554    0.0000 </r>
       <r>    1.3302    0.0000 </r>
       <r>    1.3495    0.0000 </r>
       <r>    1.3861    0.0000 </r>
       <r>    1.5746    0.0000 </r>
       <r>    1.6357    0.0000 </r>
       <r>    1.6857    0.0000 </r>
      </set>
      <set comment="kpoint 3">
       <r>   -9.4100    1.0000 </r>
       <r>   -3.5731    0.1667 </r>
       <r>   -3.5731    0.1667 </r>
       <r>   -3.5729    0.1659 </r>
       <r>   -0.2338    0.0000 </r>
       <r>    0.1988    0.0000 </r>
       <r>    0.3420    0.0000 </r>
       <r>    0.3749    0.0000 </r>
       <r>    0.7030    0.0000 </r>
       <r>    0.7105    0.0000 </r>
       <r>    0.7147    0.0000 </r>
       <r>    0.8532    0.0000 </r>
       <r>    0.8711    0.0000 </r>
       <r>    1.0882    0.0000 </r>
       <r>    1.1921    0.0000 </r>
       <r>    1.2324    0.0000 </r>
       <r>    1.2713    0.0000 </r>
       <r>    1.2938    0.0000 </r>
       <r>    1.3858    0.0000 </r>
       <r>    1.3969    0.0000 </r>
       <r>    1.4042    0.0000 </r>
       <r>    1.5940    0.0000 </r>
       <r>    1.5948    0.0000 </r>
       <r>    1.6475    0.0000 </r>
      </set>
      <set comment="kpoint 4">
       <r>   -9.4100    1.0000 </r>
       <r>   -3.5731    0.1668 </r>
       <r>   -3.5731    0.1667 </r>
       <r>   -3.5729    0.1659 </r>
       <r>   -0.2116    0.0000 </r>
       <r>    0.1311    0.0000 </r>
       <r>    0.3711    0.0000 </r>
       <r>    0.4061    0.0000 </r>
       <r>    0.6235    0.0000 </r>
       <r>    0.6260    0.0000 </r>
       <r>    0.7383    0.0000 </r>
       <r>    0.8861    0.0000 </r>
       <r>    0.9999    0.0000 </r>
       <r>    1.0390    0.0000 </r>
       <r>    1.1654    0.0000 </r>
       <r>    1.2181    0.0000 </r>
       <r>    1.3053    0.0000 </r>
       <r>    1.3610    0.0000 </r>
       <r>    1.4344    0.0000 </r>
       <r>    1.4833    0.0000 </r>
       <r>    1.5035    0.0000 </r>
       <r>    1.5434    0.0000 </r>
       <r>    1.5570    0.0000 </r>
       <r>    1.6031    0.0000 </r>
      </set>
      <set comment="kpoint 5">
       <r>   -9.4100    1.0000 </r>
       <r>   -3.5731    0.1668 </r>
       <r>   -3.5731    0.1667 </r>
       <r>   -3.5729    0.1659 </r>
       <r>   -0.1946    0.0000 </r>
       <r>    0.0900    0.0000 </r>
       <r>    0.3975    0.0000 </r>
       <r>    0.4442    0.0000 </r>
       <r>    0.5604    0.0000 </r>
       <r>    0.5718    0.0000 </r>
       <r>    0.7586    0.0000 </r>
       <r>    0.9110    0.0000 </r>
       <r>    0.9695    0.0000 </r>
       <r>    1.0997    0.0000 </r>
       <r>    1.2104    0.0000 </r>
       <r>    1.2379    0.0000 </r>
       <r>    1.3399    0.0000 </r>
       <r>    1.4016    0.0000 </r>
       <r>    1.4020    0.0000 </r>
       <r>    1.4464    0.0000 </r>
       <r>    1.4516    0.0000 </r>
       <r>    1.5136    0.0000 </r>
       <r>    1.5790    0.0000 </r>
       <r>    1.5814    0.0000 </r>
      </set>
      <set comment="kpoint 6">
       <r>   -9.4100    1.0000 </r>
       <r>   -3.5731    0.1667 </r>
       <r>   -3.5731    0.1666 </r>
       <r>   -3.5730    0.1660 </r>
       <r>   -0.2527    0.0000 </r>
       <r>    0.3019    0.0000 </r>
       <r>    0.3181    0.0000 </r>
       <r>    0.4474    0.0000 </r>
       <r>    0.5611    0.0000 </r>
       <r>    0.5912    0.0000 </r>
       <r>    0.9170    0.0000 </r>
       <r>    0.9451    0.0000 </r>
       <r>    0.9625    0.0000 </r>
       <r>    1.0236    0.0000 </r>
       <r>    1.0831    0.0000 </r>
       <r>    1.0860    0.0000 </r>
       <r>    1.0940    0.0000 </r>
       <r>    1.1876    0.0000 </r>
       <r>    1.3324    0.0000 </r>
       <r>    1.4541    0.0000 </r>
       <r>    1.4912    0.0000 </r>
       <r>    1.5825    0.0000 </r>
       <r>    1.6359    0.0000 </r>
       <r>    1.6772    0.0000 </r>
      </set>
      <set comment="kpoint 7">
       <r>   -9.4100    1.0000 </r>
       <r>   -3.5731    0.1667 </r>
       <r>   -3.5731    0.1667 </r>
       <r>   -3.5730    0.1660 </r>
       <r>   -0.2429    0.0000 </r>
       <r>    0.2770    0.0000 </r>
       <r>    0.3293    0.0000 </r>
       <r>    0.3819    0.0000 </r>
       <r>    0.5780    0.0000 </r>
       <r>    0.7111    0.0000 </r>
       <r>    0.8085    0.0000 </r>
       <r>    0.8392    0.0000 </r>
       <r>    0.9663    0.0000 </r>
       <r>    1.0576    0.0000 </r>
       <r>    1.0604    0.0000 </r>
       <r>    1.1341    0.0000 </r>
       <r>    1.1915    0.0000 </r>
       <r>    1.2325    0.0000 </r>
       <r>    1.4187    0.0000 </r>
       <r>    1.4641    0.0000 </r>
       <r>    1.4684    0.0000 </r>
       <r>    1.5565    0.0000 </r>
       <r>    1.5727    0.0000 </r>
       <r>    1.6029    0.0000 </r>
      </set>
      <set comment="kpoint 8">
       <r>   -9.4100    1.0000 </r>
       <r>   -3.5731    0.1667 </r>
       <r>   -3.5731    0.1667 </r>
       <r>   -3.5730    0.1660 </r>
       <r>   -0.2248    0.0000 </r>
       <r>    0.2078    0.0000 </r>
       <r>    0.3509    0.0000 </r>
       <r>    0.3835    0.0000 </r>
       <r>    0.5985    0.0000 </r>
       <r>    0.7121    0.0000 </r>
       <r>    0.7201    0.0000 </r>
       <r>    0.8729    0.0000 </r>
       <r>    0.9636    0.0000 </r>
       <r>    1.0017    0.0000 </r>
       <r>    1.0835    0.0000 </r>
       <r>    1.1505    0.0000 </r>
       <r>    1.3234    0.0000 </r>
       <r>    1.3485    0.0000 </r>
       <r>    1.3947    0.0000 </r>
       <r>    1.4668    0.0000 </r>
       <r>    1.4956    0.0000 </r>
       <r>    1.5075    0.0000 </r>
       <r>    1.5299    0.0000 </r>
       <r>    1.6300    0.0000 </r>
      </set>
      <set comment="kpoint 9">
       <r>   -9.4100    1.0000 </r>
       <r>   -3.5731    0.1668 </r>
       <r>   -3.5731    0.1667 </r>
       <r>   -3.5730    0.1660 </r>
       <r>   -0.2026    0.0000 </r>
       <r>    0.1404    0.0000 </r>
       <r>    0.3799    0.0000 </r>
       <r>    0.4145    0.0000 </r>
       <r>    0.6243    0.0000 </r>
       <r>    0.6329    0.0000 </r>
       <r>    0.6351    0.0000 </r>
       <r>    0.8928    0.0000 </r>
       <r>    1.0172    0.0000 </r>
       <r>    1.0380    0.0000 </r>
       <r>    1.1109    0.0000 </r>
       <r>    1.1860    0.0000 </r>
       <r>    1.2903    0.0000 </r>
       <r>    1.3671    0.0000 </r>
       <r>    1.3972    0.0000 </r>
       <r>    1.4830    0.0000 </r>
       <r>    1.5435    0.0000 </r>
       <r>    1.5496    0.0000 </r>
       <r>    1.5686    0.0000 </r>
       <r>    1.6386    0.0000 </r>
      </set>
      <set comment="kpoint 10">
       <r>   -9.4100    1.0000 </r>
       <r>   -3.5731    0.1668 </r>
       <r>   -3.5731    0.1667 </r>
       <r>   -3.5730    0.1660 </r>
       <r>   -0.1857    0.0000 </r>
       <r>    0.0994    0.0000 </r>
       <r>    0.4062    0.0000 </r>
       <r>    0.4526    0.0000 </r>
       <r>    0.5690    0.0000 </r>
       <r>    0.5813    0.0000 </r>
       <r>    0.6473    0.0000 </r>
       <r>    0.8490    0.0000 </r>
       <r>    1.0370    0.0000 </r>
       <r>    1.1341    0.0000 </r>
       <r>    1.1894    0.0000 </r>
       <r>    1.2287    0.0000 </r>
       <r>    1.2575    0.0000 </r>
       <r>    1.3299    0.0000 </r>
       <r>    1.3339    0.0000 </r>
       <r>    1.4180    0.0000 </r>
       <r>    1.5232    0.0000 </r>
       <r>    1.6401    0.0000 </r>
       <r>    1.6462    0.0000 </r>
       <r>    1.7042    0.0000 </r>
      </set>
      <set comment="kpoint 11">
       <r>   -9.4100    1.0000 </r>
       <r>   -3.5731    0.1667 </r>
       <r>   -3.5731    0.1666 </r>
       <r>   -3.5730    0.1663 </r>
       <r>   -0.2348    0.0000 </r>
       <r>    0.3148    0.0000 </r>
       <r>    0.3360    0.0000 </r>
       <r>    0.4605    0.0000 </r>
       <r>    0.4671    0.0000 </r>
       <r>    0.6037    0.0000 </r>
       <r>    0.9169    0.0000 </r>
       <r>    0.9534    0.0000 </r>
       <r>    0.9596    0.0000 </r>
       <r>    0.9731    0.0000 </r>
       <r>    1.0711    0.0000 </r>
       <r>    1.0782    0.0000 </r>
       <r>    1.1019    0.0000 </r>
       <r>    1.1333    0.0000 </r>
       <r>    1.2280    0.0000 </r>
       <r>    1.5445    0.0000 </r>
       <r>    1.5731    0.0000 </r>
       <r>    1.6067    0.0000 </r>
       <r>    1.6417    0.0000 </r>
       <r>    1.6583    0.0000 </r>
      </set>
      <set comment="kpoint 12">
       <r>   -9.4100    1.0000 </r>
       <r>   -3.5731    0.1667 </r>
       <r>   -3.5731    0.1667 </r>
       <r>   -3.5730    0.1663 </r>
       <r>   -0.2250    0.0000 </r>
       <r>    0.2921    0.0000 </r>
       <r>    0.3471    0.0000 </r>
       <r>    0.3985    0.0000 </r>
       <r>    0.4730    0.0000 </r>
       <r>    0.7281    0.0000 </r>
       <r>    0.8249    0.0000 </r>
       <r>    0.8556    0.0000 </r>
       <r>    0.9382    0.0000 </r>
       <r>    0.9569    0.0000 </r>
       <r>    1.0168    0.0000 </r>
       <r>    1.1260    0.0000 </r>
       <r>    1.2068    0.0000 </r>
       <r>    1.2512    0.0000 </r>
       <r>    1.3410    0.0000 </r>
       <r>    1.4500    0.0000 </r>
       <r>    1.4780    0.0000 </r>
       <r>    1.6083    0.0000 </r>
       <r>    1.6117    0.0000 </r>
       <r>    1.6721    0.0000 </r>
      </set>
      <set comment="kpoint 13">
       <r>   -9.4100    1.0000 </r>
       <r>   -3.5731    0.1667 </r>
       <r>   -3.5731    0.1667 </r>
       <r>   -3.5730    0.1663 </r>
       <r>   -0.2070    0.0000 </r>
       <r>    0.2255    0.0000 </r>
       <r>    0.3685    0.0000 </r>
       <r>    0.3976    0.0000 </r>
       <r>    0.4936    0.0000 </r>
       <r>    0.7301    0.0000 </r>
       <r>    0.7347    0.0000 </r>
       <r>    0.8562    0.0000 </r>
       <r>    0.9008    0.0000 </r>
       <r>    0.9768    0.0000 </r>
       <r>    1.0250    0.0000 </r>
       <r>    1.1466    0.0000 </r>
       <r>    1.3171    0.0000 </r>
       <r>    1.3443    0.0000 </r>
       <r>    1.3905    0.0000 </r>
       <r>    1.4058    0.0000 </r>
       <r>    1.4991    0.0000 </r>
       <r>    1.5530    0.0000 </r>
       <r>    1.6282    0.0000 </r>
       <r>    1.6883    0.0000 </r>
      </set>
      <set comment="kpoint 14">
       <r>   -9.4100    1.0000 </r>
       <r>   -3.5731    0.1667 </r>
       <r>   -3.5731    0.1667 </r>
       <r>   -3.5730    0.1663 </r>
       <r>   -0.1850    0.0000 </r>
       <r>    0.1588    0.0000 </r>
       <r>    0.3973    0.0000 </r>
       <r>    0.4275    0.0000 </r>
       <r>    0.5209    0.0000 </r>
       <r>    0.6503    0.0000 </r>
       <r>    0.6514    0.0000 </r>
       <r>    0.7862    0.0000 </r>
       <r>    1.0045    0.0000 </r>
       <r>    1.0492    0.0000 </r>
       <r>    1.0624    0.0000 </r>
       <r>    1.1718    0.0000 </r>
       <r>    1.2655    0.0000 </r>
       <r>    1.2717    0.0000 </r>
       <r>    1.4462    0.0000 </r>
       <r>    1.5141    0.0000 </r>
       <r>    1.5776    0.0000 </r>
       <r>    1.6014    0.0000 </r>
       <r>    1.6567    0.0000 </r>
       <r>    1.6796    0.0000 </r>
      </set>
      <set comment="kpoint 15">
       <r>   -9.4100    1.0000 </r>
       <r>   -3.5731    0.1668 </r>
       <r>   -3.5731    0.1667 </r>
       <r>   -3.5730    0.1663 </r>
       <r>   -0.1681    0.0000 </r>
       <r>    0.1181    0.0000 </r>
       <r>    0.4233    0.0000 </r>
       <r>    0.4637    0.0000 </r>
       <r>    0.5456    0.0000 </r>
       <r>    0.5856    0.0000 </r>
       <r>    0.6004    0.0000 </r>
       <r>    0.7389    0.0000 </r>
       <r>    1.0289    0.0000 </r>
       <r>    1.0922    0.0000 </r>
       <r>    1.1877    0.0000 </r>
       <r>    1.1936    0.0000 </r>
       <r>    1.2177    0.0000 </r>
       <r>    1.2480    0.0000 </r>
       <r>    1.3855    0.0000 </r>
       <r>    1.4575    0.0000 </r>
       <r>    1.6330    0.0000 </r>
       <r>    1.6909    0.0000 </r>
       <r>    1.7379    0.0000 </r>
       <r>    1.7630    0.0000 </r>
      </set>
      <set comment="kpoint 16">
       <r>   -9.4100    1.0000 </r>
       <r>   -3.5731    0.1667 </r>
       <r>   -3.5731    0.1667 </r>
       <r>   -3.5731    0.1666 </r>
       <r>   -0.2089    0.0000 </r>
       <r>    0.3068    0.0000 </r>
       <r>    0.3623    0.0000 </r>
       <r>    0.3988    0.0000 </r>
       <r>    0.4913    0.0000 </r>
       <r>    0.6309    0.0000 </r>
       <r>    0.8373    0.0000 </r>
       <r>    0.8568    0.0000 </r>
       <r>    0.9572    0.0000 </r>
       <r>    0.9691    0.0000 </r>
       <r>    1.0192    0.0000 </r>
       <r>    1.1014    0.0000 </r>
       <r>    1.1068    0.0000 </r>
       <r>    1.1494    0.0000 </r>
       <r>    1.2740    0.0000 </r>
       <r>    1.4596    0.0000 </r>
       <r>    1.4816    0.0000 </r>
       <r>    1.5820    0.0000 </r>
       <r>    1.6195    0.0000 </r>
       <r>    1.6924    0.0000 </r>
      </set>
      <set comment="kpoint 17">
       <r>   -9.4100    1.0000 </r>
       <r>   -3.5731    0.1667 </r>
       <r>   -3.5731    0.1666 </r>
       <r>   -3.5731    0.1666 </r>
       <r>   -0.1991    0.0000 </r>
       <r>    0.3000    0.0000 </r>
       <r>    0.3734    0.0000 </r>
       <r>    0.3838    0.0000 </r>
       <r>    0.4346    0.0000 </r>
       <r>    0.7508    0.0000 </r>
       <r>    0.8290    0.0000 </r>
       <r>    0.8320    0.0000 </r>
       <r>    0.8779    0.0000 </r>
       <r>    0.8914    0.0000 </r>
       <r>    0.9198    0.0000 </r>
       <r>    1.2203    0.0000 </r>
       <r>    1.2287    0.0000 </r>
       <r>    1.2776    0.0000 </r>
       <r>    1.2952    0.0000 </r>
       <r>    1.3541    0.0000 </r>
       <r>    1.3853    0.0000 </r>
       <r>    1.6914    0.0000 </r>
       <r>    1.6971    0.0000 </r>
       <r>    1.7438    0.0000 </r>
      </set>
      <set comment="kpoint 18">
       <r>   -9.4100    1.0000 </r>
       <r>   -3.5731    0.1667 </r>
       <r>   -3.5731    0.1667 </r>
       <r>   -3.5731    0.1667 </r>
       <r>   -0.1813    0.0000 </r>
       <r>    0.2495    0.0000 </r>
       <r>    0.3738    0.0000 </r>
       <r>    0.3946    0.0000 </r>
       <r>    0.4488    0.0000 </r>
       <r>    0.7267    0.0000 </r>
       <r>    0.7558    0.0000 </r>
       <r>    0.7948    0.0000 </r>
       <r>    0.8795    0.0000 </r>
       <r>    0.9214    0.0000 </r>
       <r>    0.9251    0.0000 </r>
       <r>    1.2393    0.0000 </r>
       <r>    1.2444    0.0000 </r>
       <r>    1.2895    0.0000 </r>
       <r>    1.3927    0.0000 </r>
       <r>    1.4171    0.0000 </r>
       <r>    1.4427    0.0000 </r>
       <r>    1.6731    0.0000 </r>
       <r>    1.7384    0.0000 </r>
       <r>    1.7389    0.0000 </r>
      </set>
      <set comment="kpoint 19">
       <r>   -9.4100    1.0000 </r>
       <r>   -3.5731    0.1667 </r>
       <r>   -3.5731    0.1667 </r>
       <r>   -3.5731    0.1667 </r>
       <r>   -0.1595    0.0000 </r>
       <r>    0.1858    0.0000 </r>
       <r>    0.3962    0.0000 </r>
       <r>    0.4230    0.0000 </r>
       <r>    0.4813    0.0000 </r>
       <r>    0.6494    0.0000 </r>
       <r>    0.6789    0.0000 </r>
       <r>    0.7129    0.0000 </r>
       <r>    0.9064    0.0000 </r>
       <r>    0.9561    0.0000 </r>
       <r>    1.0790    0.0000 </r>
       <r>    1.1639    0.0000 </r>
       <r>    1.1682    0.0000 </r>
       <r>    1.3185    0.0000 </r>
       <r>    1.5385    0.0000 </r>
       <r>    1.5418    0.0000 </r>
       <r>    1.5807    0.0000 </r>
       <r>    1.6469    0.0000 </r>
       <r>    1.6664    0.0000 </r>
       <r>    1.7657    0.0000 </r>
      </set>
      <set comment="kpoint 20">
       <r>   -9.4100    1.0000 </r>
       <r>   -3.5731    0.1667 </r>
       <r>   -3.5731    0.1667 </r>
       <r>   -3.5731    0.1667 </r>
       <r>   -0.1429    0.0000 </r>
       <r>    0.1460    0.0000 </r>
       <r>    0.4208    0.0000 </r>
       <r>    0.4484    0.0000 </r>
       <r>    0.5179    0.0000 </r>
       <r>    0.5924    0.0000 </r>
       <r>    0.6288    0.0000 </r>
       <r>    0.6565    0.0000 </r>
       <r>    0.9317    0.0000 </r>
       <r>    0.9963    0.0000 </r>
       <r>    1.0951    0.0000 </r>
       <r>    1.1134    0.0000 </r>
       <r>    1.2547    0.0000 </r>
       <r>    1.3401    0.0000 </r>
       <r>    1.4436    0.0000 </r>
       <r>    1.5778    0.0000 </r>
       <r>    1.6850    0.0000 </r>
       <r>    1.7198    0.0000 </r>
       <r>    1.7703    0.0000 </r>
       <r>    1.7992    0.0000 </r>
      </set>
      <set comment="kpoint 21">
       <r>   -9.4100    1.0000 </r>
       <r>   -3.5731    0.1670 </r>
       <r>   -3.5731    0.1666 </r>
       <r>   -3.5730    0.1666 </r>
       <r>   -0.1767    0.0000 </r>
       <r>    0.2426    0.0000 </r>
       <r>    0.3965    0.0000 </r>
       <r>    0.4130    0.0000 </r>
       <r>    0.5247    0.0000 </r>
       <r>    0.6666    0.0000 </r>
       <r>    0.7503    0.0000 </r>
       <r>    0.7611    0.0000 </r>
       <r>    0.8809    0.0000 </r>
       <r>    1.0014    0.0000 </r>
       <r>    1.0219    0.0000 </r>
       <r>    1.0485    0.0000 </r>
       <r>    1.1347    0.0000 </r>
       <r>    1.1791    0.0000 </r>
       <r>    1.3706    0.0000 </r>
       <r>    1.3735    0.0000 </r>
       <r>    1.4349    0.0000 </r>
       <r>    1.4956    0.0000 </r>
       <r>    1.5383    0.0000 </r>
       <r>    1.7291    0.0000 </r>
      </set>
      <set comment="kpoint 22">
       <r>   -9.4100    1.0000 </r>
       <r>   -3.5731    0.1670 </r>
       <r>   -3.5731    0.1666 </r>
       <r>   -3.5731    0.1666 </r>
       <r>   -0.1672    0.0000 </r>
       <r>    0.2514    0.0000 </r>
       <r>    0.3836    0.0000 </r>
       <r>    0.4074    0.0000 </r>
       <r>    0.4680    0.0000 </r>
       <r>    0.7270    0.0000 </r>
       <r>    0.7605    0.0000 </r>
       <r>    0.7943    0.0000 </r>
       <r>    0.8229    0.0000 </r>
       <r>    0.8953    0.0000 </r>
       <r>    0.9333    0.0000 </r>
       <r>    1.1466    0.0000 </r>
       <r>    1.2307    0.0000 </r>
       <r>    1.2725    0.0000 </r>
       <r>    1.2946    0.0000 </r>
       <r>    1.3198    0.0000 </r>
       <r>    1.4489    0.0000 </r>
       <r>    1.6319    0.0000 </r>
       <r>    1.6657    0.0000 </r>
       <r>    1.7365    0.0000 </r>
      </set>
      <set comment="kpoint 23">
       <r>   -9.4100    1.0000 </r>
       <r>   -3.5731    0.1670 </r>
       <r>   -3.5731    0.1666 </r>
       <r>   -3.5731    0.1666 </r>
       <r>   -0.1496    0.0000 </r>
       <r>    0.2580    0.0000 </r>
       <r>    0.3208    0.0000 </r>
       <r>    0.4283    0.0000 </r>
       <r>    0.4787    0.0000 </r>
       <r>    0.6508    0.0000 </r>
       <r>    0.7700    0.0000 </r>
       <r>    0.8122    0.0000 </r>
       <r>    0.8155    0.0000 </r>
       <r>    0.8281    0.0000 </r>
       <r>    0.9581    0.0000 </r>
       <r>    1.1506    0.0000 </r>
       <r>    1.1559    0.0000 </r>
       <r>    1.3080    0.0000 </r>
       <r>    1.4225    0.0000 </r>
       <r>    1.4485    0.0000 </r>
       <r>    1.4950    0.0000 </r>
       <r>    1.7307    0.0000 </r>
       <r>    1.7698    0.0000 </r>
       <r>    1.8175    0.0000 </r>
      </set>
      <set comment="kpoint 24">
       <r>   -9.4100    1.0000 </r>
       <r>   -3.5731    0.1670 </r>
       <r>   -3.5731    0.1667 </r>
       <r>   -3.5731    0.1666 </r>
       <r>   -0.1283    0.0000 </r>
       <r>    0.2194    0.0000 </r>
       <r>    0.3188    0.0000 </r>
       <r>    0.4560    0.0000 </r>
       <r>    0.5114    0.0000 </r>
       <r>    0.5763    0.0000 </r>
       <r>    0.7141    0.0000 </r>
       <r>    0.7314    0.0000 </r>
       <r>    0.8197    0.0000 </r>
       <r>    0.8609    0.0000 </r>
       <r>    1.0622    0.0000 </r>
       <r>    1.0710    0.0000 </r>
       <r>    1.1263    0.0000 </r>
       <r>    1.4369    0.0000 </r>
       <r>    1.5049    0.0000 </r>
       <r>    1.5745    0.0000 </r>
       <r>    1.6346    0.0000 </r>
       <r>    1.6676    0.0000 </r>
       <r>    1.7993    0.0000 </r>
       <r>    1.8305    0.0000 </r>
      </set>
      <set comment="kpoint 25">
       <r>   -9.4100    1.0000 </r>
       <r>   -3.5731    0.1670 </r>
       <r>   -3.5731    0.1667 </r>
       <r>   -3.5731    0.1666 </r>
       <r>   -0.1122    0.0000 </r>
       <r>    0.1825    0.0000 </r>
       <r>    0.3397    0.0000 </r>
       <r>    0.4805    0.0000 </r>
       <r>    0.5249    0.0000 </r>
       <r>    0.5519    0.0000 </r>
       <r>    0.6660    0.0000 </r>
       <r>    0.6666    0.0000 </r>
       <r>    0.8452    0.0000 </r>
       <r>    0.9016    0.0000 </r>
       <r>    1.0015    0.0000 </r>
       <r>    1.0186    0.0000 </r>
       <r>    1.2901    0.0000 </r>
       <r>    1.4531    0.0000 </r>
       <r>    1.5099    0.0000 </r>
       <r>    1.6415    0.0000 </r>
       <r>    1.7193    0.0000 </r>
       <r>    1.7358    0.0000 </r>
       <r>    1.8119    0.0000 </r>
       <r>    1.8317    0.0000 </r>
      </set>
      <set comment="kpoint 26">
       <r>   -9.4100    1.0000 </r>
       <r>   -3.5732    0.1673 </r>
       <r>   -3.5731    0.1666 </r>
       <r>   -3.5730    0.1666 </r>
       <r>   -0.1428    0.0000 </r>
       <r>    0.1756    0.0000 </r>
       <r>    0.4359    0.0000 </r>
       <r>    0.4552    0.0000 </r>
       <r>    0.5630    0.0000 </r>
       <r>    0.6746    0.0000 </r>
       <r>    0.6749    0.0000 </r>
       <r>    0.7092    0.0000 </r>
       <r>    0.8081    0.0000 </r>
       <r>    0.9446    0.0000 </r>
       <r>    1.0393    0.0000 </r>
       <r>    1.0922    0.0000 </r>
       <r>    1.1738    0.0000 </r>
       <r>    1.2257    0.0000 </r>
       <r>    1.2944    0.0000 </r>
       <r>    1.2985    0.0000 </r>
       <r>    1.4199    0.0000 </r>
       <r>    1.4285    0.0000 </r>
       <r>    1.6057    0.0000 </r>
       <r>    1.7742    0.0000 </r>
      </set>
      <set comment="kpoint 27">
       <r>   -9.4100    1.0000 </r>
       <r>   -3.5732    0.1673 </r>
       <r>   -3.5731    0.1666 </r>
       <r>   -3.5730    0.1666 </r>
       <r>   -0.1334    0.0000 </r>
       <r>    0.1867    0.0000 </r>
       <r>    0.4210    0.0000 </r>
       <r>    0.4466    0.0000 </r>
       <r>    0.5110    0.0000 </r>
       <r>    0.6501    0.0000 </r>
       <r>    0.6861    0.0000 </r>
       <r>    0.7366    0.0000 </r>
       <r>    0.8351    0.0000 </r>
       <r>    0.9343    0.0000 </r>
       <r>    0.9802    0.0000 </r>
       <r>    1.0721    0.0000 </r>
       <r>    1.1690    0.0000 </r>
       <r>    1.1892    0.0000 </r>
       <r>    1.3164    0.0000 </r>
       <r>    1.3669    0.0000 </r>
       <r>    1.5521    0.0000 </r>
       <r>    1.5587    0.0000 </r>
       <r>    1.6299    0.0000 </r>
       <r>    1.7796    0.0000 </r>
      </set>
      <set comment="kpoint 28">
       <r>   -9.4100    1.0000 </r>
       <r>   -3.5732    0.1673 </r>
       <r>   -3.5731    0.1666 </r>
       <r>   -3.5731    0.1666 </r>
       <r>   -0.1164    0.0000 </r>
       <r>    0.2074    0.0000 </r>
       <r>    0.3441    0.0000 </r>
       <r>    0.4669    0.0000 </r>
       <r>    0.5225    0.0000 </r>
       <r>    0.5741    0.0000 </r>
       <r>    0.7080    0.0000 </r>
       <r>    0.7430    0.0000 </r>
       <r>    0.8405    0.0000 </r>
       <r>    0.8584    0.0000 </r>
       <r>    0.9971    0.0000 </r>
       <r>    1.0719    0.0000 </r>
       <r>    1.0766    0.0000 </r>
       <r>    1.2355    0.0000 </r>
       <r>    1.4589    0.0000 </r>
       <r>    1.5159    0.0000 </r>
       <r>    1.6138    0.0000 </r>
       <r>    1.7072    0.0000 </r>
       <r>    1.7343    0.0000 </r>
       <r>    1.7794    0.0000 </r>
      </set>
      <set comment="kpoint 29">
       <r>   -9.4100    1.0000 </r>
       <r>   -3.5732    0.1673 </r>
       <r>   -3.5731    0.1667 </r>
       <r>   -3.5731    0.1666 </r>
       <r>   -0.0959    0.0000 </r>
       <r>    0.2315    0.0000 </r>
       <r>    0.2808    0.0000 </r>
       <r>    0.4935    0.0000 </r>
       <r>    0.4966    0.0000 </r>
       <r>    0.5580    0.0000 </r>
       <r>    0.7332    0.0000 </r>
       <r>    0.7695    0.0000 </r>
       <r>    0.7738    0.0000 </r>
       <r>    0.7770    0.0000 </r>
       <r>    0.9834    0.0000 </r>
       <r>    0.9898    0.0000 </r>
       <r>    1.1609    0.0000 </r>
       <r>    1.3931    0.0000 </r>
       <r>    1.6103    0.0000 </r>
       <r>    1.6120    0.0000 </r>
       <r>    1.6809    0.0000 </r>
       <r>    1.7076    0.0000 </r>
       <r>    1.8471    0.0000 </r>
       <r>    1.8807    0.0000 </r>
      </set>
      <set comment="kpoint 30">
       <r>   -9.4100    1.0000 </r>
       <r>   -3.5732    0.1673 </r>
       <r>   -3.5731    0.1667 </r>
       <r>   -3.5731    0.1666 </r>
       <r>   -0.0806    0.0000 </r>
       <r>    0.2257    0.0000 </r>
       <r>    0.2727    0.0000 </r>
       <r>    0.4468    0.0000 </r>
       <r>    0.5165    0.0000 </r>
       <r>    0.5968    0.0000 </r>
       <r>    0.7094    0.0000 </r>
       <r>    0.7106    0.0000 </r>
       <r>    0.7730    0.0000 </r>
       <r>    0.8165    0.0000 </r>
       <r>    0.9174    0.0000 </r>
       <r>    0.9352    0.0000 </r>
       <r>    1.3280    0.0000 </r>
       <r>    1.4991    0.0000 </r>
       <r>    1.5786    0.0000 </r>
       <r>    1.6371    0.0000 </r>
       <r>    1.7492    0.0000 </r>
       <r>    1.7518    0.0000 </r>
       <r>    1.8728    0.0000 </r>
       <r>    1.8778    0.0000 </r>
      </set>
      <set comment="kpoint 31">
       <r>   -9.4100    1.0000 </r>
       <r>   -3.5732    0.1675 </r>
       <r>   -3.5731    0.1666 </r>
       <r>   -3.5730    0.1665 </r>
       <r>   -0.1176    0.0000 </r>
       <r>    0.1328    0.0000 </r>
       <r>    0.4709    0.0000 </r>
       <r>    0.5029    0.0000 </r>
       <r>    0.5953    0.0000 </r>
       <r>    0.6073    0.0000 </r>
       <r>    0.6213    0.0000 </r>
       <r>    0.7455    0.0000 </r>
       <r>    0.7599    0.0000 </r>
       <r>    0.8869    0.0000 </r>
       <r>    1.0716    0.0000 </r>
       <r>    1.1440    0.0000 </r>
       <r>    1.2104    0.0000 </r>
       <r>    1.2266    0.0000 </r>
       <r>    1.2404    0.0000 </r>
       <r>    1.2808    0.0000 </r>
       <r>    1.3596    0.0000 </r>
       <r>    1.3675    0.0000 </r>
       <r>    1.7107    0.0000 </r>
       <r>    1.8515    0.0000 </r>
      </set>
      <set comment="kpoint 32">
       <r>   -9.4100    1.0000 </r>
       <r>   -3.5732    0.1675 </r>
       <r>   -3.5731    0.1666 </r>
       <r>   -3.5730    0.1666 </r>
       <r>   -0.1085    0.0000 </r>
       <r>    0.1445    0.0000 </r>
       <r>    0.4609    0.0000 </r>
       <r>    0.4811    0.0000 </r>
       <r>    0.5543    0.0000 </r>
       <r>    0.5891    0.0000 </r>
       <r>    0.6334    0.0000 </r>
       <r>    0.6762    0.0000 </r>
       <r>    0.8689    0.0000 </r>
       <r>    0.9704    0.0000 </r>
       <r>    1.0188    0.0000 </r>
       <r>    1.0349    0.0000 </r>
       <r>    1.1158    0.0000 </r>
       <r>    1.1159    0.0000 </r>
       <r>    1.3472    0.0000 </r>
       <r>    1.4197    0.0000 </r>
       <r>    1.4993    0.0000 </r>
       <r>    1.5076    0.0000 </r>
       <r>    1.7186    0.0000 </r>
       <r>    1.8518    0.0000 </r>
      </set>
      <set comment="kpoint 33">
       <r>   -9.4100    1.0000 </r>
       <r>   -3.5732    0.1675 </r>
       <r>   -3.5731    0.1666 </r>
       <r>   -3.5731    0.1666 </r>
       <r>   -0.0921    0.0000 </r>
       <r>    0.1672    0.0000 </r>
       <r>    0.3808    0.0000 </r>
       <r>    0.5004    0.0000 </r>
       <r>    0.5143    0.0000 </r>
       <r>    0.5723    0.0000 </r>
       <r>    0.6571    0.0000 </r>
       <r>    0.6758    0.0000 </r>
       <r>    0.8782    0.0000 </r>
       <r>    0.9044    0.0000 </r>
       <r>    0.9980    0.0000 </r>
       <r>    1.0143    0.0000 </r>
       <r>    1.0489    0.0000 </r>
       <r>    1.1796    0.0000 </r>
       <r>    1.4899    0.0000 </r>
       <r>    1.5690    0.0000 </r>
       <r>    1.6479    0.0000 </r>
       <r>    1.6596    0.0000 </r>
       <r>    1.7364    0.0000 </r>
       <r>    1.8264    0.0000 </r>
      </set>
      <set comment="kpoint 34">
       <r>   -9.4100    1.0000 </r>
       <r>   -3.5732    0.1675 </r>
       <r>   -3.5731    0.1666 </r>
       <r>   -3.5730    0.1666 </r>
       <r>   -0.0725    0.0000 </r>
       <r>    0.1984    0.0000 </r>
       <r>    0.3130    0.0000 </r>
       <r>    0.4379    0.0000 </r>
       <r>    0.5254    0.0000 </r>
       <r>    0.6062    0.0000 </r>
       <r>    0.6901    0.0000 </r>
       <r>    0.7075    0.0000 </r>
       <r>    0.8039    0.0000 </r>
       <r>    0.8244    0.0000 </r>
       <r>    0.9151    0.0000 </r>
       <r>    0.9293    0.0000 </r>
       <r>    1.1952    0.0000 </r>
       <r>    1.3431    0.0000 </r>
       <r>    1.6391    0.0000 </r>
       <r>    1.6946    0.0000 </r>
       <r>    1.7077    0.0000 </r>
       <r>    1.7699    0.0000 </r>
       <r>    1.8145    0.0000 </r>
       <r>    1.8245    0.0000 </r>
      </set>
      <set comment="kpoint 35">
       <r>   -9.4100    1.0000 </r>
       <r>   -3.5732    0.1675 </r>
       <r>   -3.5731    0.1667 </r>
       <r>   -3.5730    0.1666 </r>
       <r>   -0.0582    0.0000 </r>
       <r>    0.2289    0.0000 </r>
       <r>    0.2727    0.0000 </r>
       <r>    0.3846    0.0000 </r>
       <r>    0.5462    0.0000 </r>
       <r>    0.6457    0.0000 </r>
       <r>    0.7232    0.0000 </r>
       <r>    0.7477    0.0000 </r>
       <r>    0.7576    0.0000 </r>
       <r>    0.7594    0.0000 </r>
       <r>    0.8479    0.0000 </r>
       <r>    0.8708    0.0000 </r>
       <r>    1.3594    0.0000 </r>
       <r>    1.5118    0.0000 </r>
       <r>    1.5510    0.0000 </r>
       <r>    1.7149    0.0000 </r>
       <r>    1.7295    0.0000 </r>
       <r>    1.7751    0.0000 </r>
       <r>    1.9179    0.0000 </r>
       <r>    1.9246    0.0000 </r>
      </set>
      <set comment="kpoint 36">
       <r>   -9.4100    1.0000 </r>
       <r>   -3.5731    0.1667 </r>
       <r>   -3.5731    0.1667 </r>
       <r>   -3.5729    0.1659 </r>
       <r>   -0.2588    0.0000 </r>
       <r>    0.2170    0.0000 </r>
       <r>    0.3874    0.0000 </r>
       <r>    0.4518    0.0000 </r>
       <r>    0.5796    0.0000 </r>
       <r>    0.6891    0.0000 </r>
       <r>    0.8303    0.0000 </r>
       <r>    0.8362    0.0000 </r>
       <r>    0.9637    0.0000 </r>
       <r>    1.0280    0.0000 </r>
       <r>    1.1027    0.0000 </r>
       <r>    1.1618    0.0000 </r>
       <r>    1.2521    0.0000 </r>
       <r>    1.2684    0.0000 </r>
       <r>    1.3104    0.0000 </r>
       <r>    1.4125    0.0000 </r>
       <r>    1.4368    0.0000 </r>
       <r>    1.4954    0.0000 </r>
       <r>    1.5173    0.0000 </r>
       <r>    1.6243    0.0000 </r>
      </set>
      <set comment="kpoint 37">
       <r>   -9.4100    1.0000 </r>
       <r>   -3.5731    0.1667 </r>
       <r>   -3.5731    0.1667 </r>
       <r>   -3.5729    0.1659 </r>
       <r>   -0.2490    0.0000 </r>
       <r>    0.2224    0.0000 </r>
       <r>    0.3184    0.0000 </r>
       <r>    0.4377    0.0000 </r>
       <r>    0.6911    0.0000 </r>
       <r>    0.7048    0.0000 </r>
       <r>    0.7320    0.0000 </r>
       <r>    0.8427    0.0000 </r>
       <r>    0.9180    0.0000 </r>
       <r>    1.0914    0.0000 </r>
       <r>    1.1191    0.0000 </r>
       <r>    1.1909    0.0000 </r>
       <r>    1.2464    0.0000 </r>
       <r>    1.2969    0.0000 </r>
       <r>    1.3339    0.0000 </r>
       <r>    1.3460    0.0000 </r>
       <r>    1.4599    0.0000 </r>
       <r>    1.4981    0.0000 </r>
       <r>    1.5848    0.0000 </r>
       <r>    1.6299    0.0000 </r>
      </set>
      <set comment="kpoint 38">
       <r>   -9.4100    1.0000 </r>
       <r>   -3.5731    0.1667 </r>
       <r>   -3.5731    0.1667 </r>
       <r>   -3.5729    0.1659 </r>
       <r>   -0.2309    0.0000 </r>
       <r>    0.1967    0.0000 </r>
       <r>    0.2781    0.0000 </r>
       <r>    0.4575    0.0000 </r>
       <r>    0.6189    0.0000 </r>
       <r>    0.7168    0.0000 </r>
       <r>    0.8023    0.0000 </r>
       <r>    0.8608    0.0000 </r>
       <r>    0.8778    0.0000 </r>
       <r>    1.0886    0.0000 </r>
       <r>    1.1433    0.0000 </r>
       <r>    1.2319    0.0000 </r>
       <r>    1.2427    0.0000 </r>
       <r>    1.3016    0.0000 </r>
       <r>    1.3446    0.0000 </r>
       <r>    1.4531    0.0000 </r>
       <r>    1.4905    0.0000 </r>
       <r>    1.5132    0.0000 </r>
       <r>    1.5231    0.0000 </r>
       <r>    1.6389    0.0000 </r>
      </set>
      <set comment="kpoint 39">
       <r>   -9.4100    1.0000 </r>
       <r>   -3.5731    0.1668 </r>
       <r>   -3.5731    0.1667 </r>
       <r>   -3.5729    0.1659 </r>
       <r>   -0.2089    0.0000 </r>
       <r>    0.1351    0.0000 </r>
       <r>    0.3005    0.0000 </r>
       <r>    0.4864    0.0000 </r>
       <r>    0.5379    0.0000 </r>
       <r>    0.7271    0.0000 </r>
       <r>    0.7415    0.0000 </r>
       <r>    0.8898    0.0000 </r>
       <r>    1.0040    0.0000 </r>
       <r>    1.0432    0.0000 </r>
       <r>    1.1665    0.0000 </r>
       <r>    1.1729    0.0000 </r>
       <r>    1.3004    0.0000 </r>
       <r>    1.3629    0.0000 </r>
       <r>    1.4038    0.0000 </r>
       <r>    1.4622    0.0000 </r>
       <r>    1.4971    0.0000 </r>
       <r>    1.5346    0.0000 </r>
       <r>    1.5679    0.0000 </r>
       <r>    1.6054    0.0000 </r>
      </set>
      <set comment="kpoint 40">
       <r>   -9.4100    1.0000 </r>
       <r>   -3.5731    0.1668 </r>
       <r>   -3.5731    0.1667 </r>
       <r>   -3.5729    0.1659 </r>
       <r>   -0.1921    0.0000 </r>
       <r>    0.0948    0.0000 </r>
       <r>    0.3309    0.0000 </r>
       <r>    0.4713    0.0000 </r>
       <r>    0.5267    0.0000 </r>
       <r>    0.6701    0.0000 </r>
       <r>    0.7615    0.0000 </r>
       <r>    0.9144    0.0000 </r>
       <r>    0.9743    0.0000 </r>
       <r>    1.1043    0.0000 </r>
       <r>    1.1923    0.0000 </r>
       <r>    1.2174    0.0000 </r>
       <r>    1.3256    0.0000 </r>
       <r>    1.3656    0.0000 </r>
       <r>    1.4016    0.0000 </r>
       <r>    1.4248    0.0000 </r>
       <r>    1.4783    0.0000 </r>
       <r>    1.5384    0.0000 </r>
       <r>    1.5640    0.0000 </r>
       <r>    1.6091    0.0000 </r>
      </set>
      <set comment="kpoint 41">
       <r>   -9.4100    1.0000 </r>
       <r>   -3.5731    0.1667 </r>
       <r>   -3.5731    0.1666 </r>
       <r>   -3.5730    0.1660 </r>
       <r>   -0.2496    0.0000 </r>
       <r>    0.2260    0.0000 </r>
       <r>    0.3949    0.0000 </r>
       <r>    0.4606    0.0000 </r>
       <r>    0.5671    0.0000 </r>
       <r>    0.5963    0.0000 </r>
       <r>    0.8433    0.0000 </r>
       <r>    0.9487    0.0000 </r>
       <r>    0.9722    0.0000 </r>
       <r>    0.9989    0.0000 </r>
       <r>    1.0401    0.0000 </r>
       <r>    1.1611    0.0000 </r>
       <r>    1.1664    0.0000 </r>
       <r>    1.2073    0.0000 </r>
       <r>    1.3325    0.0000 </r>
       <r>    1.3938    0.0000 </r>
       <r>    1.4903    0.0000 </r>
       <r>    1.5677    0.0000 </r>
       <r>    1.5864    0.0000 </r>
       <r>    1.6262    0.0000 </r>
      </set>
      <set comment="kpoint 42">
       <r>   -9.4100    1.0000 </r>
       <r>   -3.5731    0.1667 </r>
       <r>   -3.5731    0.1667 </r>
       <r>   -3.5730    0.1660 </r>
       <r>   -0.2399    0.0000 </r>
       <r>    0.2313    0.0000 </r>
       <r>    0.3273    0.0000 </r>
       <r>    0.4457    0.0000 </r>
       <r>    0.5823    0.0000 </r>
       <r>    0.7081    0.0000 </r>
       <r>    0.7412    0.0000 </r>
       <r>    0.9248    0.0000 </r>
       <r>    0.9631    0.0000 </r>
       <r>    1.0035    0.0000 </r>
       <r>    1.0720    0.0000 </r>
       <r>    1.1238    0.0000 </r>
       <r>    1.1971    0.0000 </r>
       <r>    1.3069    0.0000 </r>
       <r>    1.4008    0.0000 </r>
       <r>    1.4106    0.0000 </r>
       <r>    1.4940    0.0000 </r>
       <r>    1.5116    0.0000 </r>
       <r>    1.5314    0.0000 </r>
       <r>    1.6048    0.0000 </r>
      </set>
      <set comment="kpoint 43">
       <r>   -9.4100    1.0000 </r>
       <r>   -3.5731    0.1667 </r>
       <r>   -3.5731    0.1667 </r>
       <r>   -3.5730    0.1660 </r>
       <r>   -0.2219    0.0000 </r>
       <r>    0.2058    0.0000 </r>
       <r>    0.2872    0.0000 </r>
       <r>    0.4653    0.0000 </r>
       <r>    0.6023    0.0000 </r>
       <r>    0.6284    0.0000 </r>
       <r>    0.8103    0.0000 </r>
       <r>    0.8833    0.0000 </r>
       <r>    0.9631    0.0000 </r>
       <r>    1.0054    0.0000 </r>
       <r>    1.0312    0.0000 </r>
       <r>    1.2158    0.0000 </r>
       <r>    1.2626    0.0000 </r>
       <r>    1.3457    0.0000 </r>
       <r>    1.4101    0.0000 </r>
       <r>    1.4147    0.0000 </r>
       <r>    1.4794    0.0000 </r>
       <r>    1.5325    0.0000 </r>
       <r>    1.5771    0.0000 </r>
       <r>    1.5982    0.0000 </r>
      </set>
      <set comment="kpoint 44">
       <r>   -9.4100    1.0000 </r>
       <r>   -3.5731    0.1668 </r>
       <r>   -3.5731    0.1667 </r>
       <r>   -3.5730    0.1660 </r>
       <r>   -0.1999    0.0000 </r>
       <r>    0.1443    0.0000 </r>
       <r>    0.3096    0.0000 </r>
       <r>    0.4942    0.0000 </r>
       <r>    0.5468    0.0000 </r>
       <r>    0.6290    0.0000 </r>
       <r>    0.7354    0.0000 </r>
       <r>    0.8975    0.0000 </r>
       <r>    1.0178    0.0000 </r>
       <r>    1.0415    0.0000 </r>
       <r>    1.0603    0.0000 </r>
       <r>    1.2405    0.0000 </r>
       <r>    1.2826    0.0000 </r>
       <r>    1.3182    0.0000 </r>
       <r>    1.4142    0.0000 </r>
       <r>    1.4722    0.0000 </r>
       <r>    1.4895    0.0000 </r>
       <r>    1.5526    0.0000 </r>
       <r>    1.6005    0.0000 </r>
       <r>    1.6499    0.0000 </r>
      </set>
      <set comment="kpoint 45">
       <r>   -9.4100    1.0000 </r>
       <r>   -3.5731    0.1668 </r>
       <r>   -3.5731    0.1667 </r>
       <r>   -3.5730    0.1660 </r>
       <r>   -0.1831    0.0000 </r>
       <r>    0.1042    0.0000 </r>
       <r>    0.3398    0.0000 </r>
       <r>    0.4806    0.0000 </r>
       <r>    0.5342    0.0000 </r>
       <r>    0.6510    0.0000 </r>
       <r>    0.6786    0.0000 </r>
       <r>    0.8544    0.0000 </r>
       <r>    1.0374    0.0000 </r>
       <r>    1.0878    0.0000 </r>
       <r>    1.1983    0.0000 </r>
       <r>    1.2215    0.0000 </r>
       <r>    1.2608    0.0000 </r>
       <r>    1.3091    0.0000 </r>
       <r>    1.4129    0.0000 </r>
       <r>    1.4286    0.0000 </r>
       <r>    1.4840    0.0000 </r>
       <r>    1.5806    0.0000 </r>
       <r>    1.5988    0.0000 </r>
       <r>    1.6573    0.0000 </r>
      </set>
      <set comment="kpoint 46">
       <r>   -9.4100    1.0000 </r>
       <r>   -3.5731    0.1667 </r>
       <r>   -3.5731    0.1666 </r>
       <r>   -3.5730    0.1663 </r>
       <r>   -0.2318    0.0000 </r>
       <r>    0.2433    0.0000 </r>
       <r>    0.4016    0.0000 </r>
       <r>    0.4705    0.0000 </r>
       <r>    0.4818    0.0000 </r>
       <r>    0.6100    0.0000 </r>
       <r>    0.8487    0.0000 </r>
       <r>    0.8798    0.0000 </r>
       <r>    0.9929    0.0000 </r>
       <r>    1.0237    0.0000 </r>
       <r>    1.0632    0.0000 </r>
       <r>    1.0938    0.0000 </r>
       <r>    1.1258    0.0000 </r>
       <r>    1.1992    0.0000 </r>
       <r>    1.2338    0.0000 </r>
       <r>    1.4749    0.0000 </r>
       <r>    1.5036    0.0000 </r>
       <r>    1.5495    0.0000 </r>
       <r>    1.6200    0.0000 </r>
       <r>    1.6625    0.0000 </r>
      </set>
      <set comment="kpoint 47">
       <r>   -9.4100    1.0000 </r>
       <r>   -3.5731    0.1667 </r>
       <r>   -3.5731    0.1667 </r>
       <r>   -3.5730    0.1663 </r>
       <r>   -0.2220    0.0000 </r>
       <r>    0.2485    0.0000 </r>
       <r>    0.3442    0.0000 </r>
       <r>    0.4486    0.0000 </r>
[...]
       <r>    1.0317    0.0000 </r>
       <r>    1.0694    0.0000 </r>
       <r>    1.1350    0.0000 </r>
       <r>    1.1573    0.0000 </r>
       <r>    1.2803    0.0000 </r>
       <r>    1.5647    0.0000 </r>
       <r>    1.6812    0.0000 </r>
       <r>    1.7142    0.0000 </r>
       <r>    1.7609    0.0000 </r>
      </set>
      <set comment="kpoint 172">
       <r>   -9.4100    1.0000 </r>
       <r>   -3.5732    0.1675 </r>
       <r>   -3.5731    0.1666 </r>
       <r>   -3.5730    0.1666 </r>
       <r>   -0.0852    0.0000 </r>
       <r>    0.1969    0.0000 </r>
       <r>    0.2647    0.0000 </r>
       <r>    0.3632    0.0000 </r>
       <r>    0.5236    0.0000 </r>
       <r>    0.6851    0.0000 </r>
       <r>    0.7307    0.0000 </r>
       <r>    0.8296    0.0000 </r>
       <r>    0.9143    0.0000 </r>
       <r>    0.9845    0.0000 </r>
       <r>    1.0541    0.0000 </r>
       <r>    1.1073    0.0000 </r>
       <r>    1.1298    0.0000 </r>
       <r>    1.1876    0.0000 </r>
       <r>    1.2304    0.0000 </r>
       <r>    1.3031    0.0000 </r>
       <r>    1.4710    0.0000 </r>
       <r>    1.6003    0.0000 </r>
       <r>    1.6274    0.0000 </r>
       <r>    1.7466    0.0000 </r>
      </set>
      <set comment="kpoint 173">
       <r>   -9.4100    1.0000 </r>
       <r>   -3.5732    0.1675 </r>
       <r>   -3.5731    0.1666 </r>
       <r>   -3.5731    0.1666 </r>
       <r>   -0.0697    0.0000 </r>
       <r>    0.2180    0.0000 </r>
       <r>    0.2886    0.0000 </r>
       <r>    0.3887    0.0000 </r>
       <r>    0.4341    0.0000 </r>
       <r>    0.5887    0.0000 </r>
       <r>    0.6322    0.0000 </r>
       <r>    0.7263    0.0000 </r>
       <r>    1.0108    0.0000 </r>
       <r>    1.0581    0.0000 </r>
       <r>    1.1347    0.0000 </r>
       <r>    1.1559    0.0000 </r>
       <r>    1.2207    0.0000 </r>
       <r>    1.2944    0.0000 </r>
       <r>    1.3083    0.0000 </r>
       <r>    1.3838    0.0000 </r>
       <r>    1.4151    0.0000 </r>
       <r>    1.5025    0.0000 </r>
       <r>    1.5415    0.0000 </r>
       <r>    1.6524    0.0000 </r>
      </set>
      <set comment="kpoint 174">
       <r>   -9.4100    1.0000 </r>
       <r>   -3.5732    0.1675 </r>
       <r>   -3.5731    0.1666 </r>
       <r>   -3.5731    0.1666 </r>
       <r>   -0.0516    0.0000 </r>
       <r>    0.2462    0.0000 </r>
       <r>    0.3220    0.0000 </r>
       <r>    0.3657    0.0000 </r>
       <r>    0.4258    0.0000 </r>
       <r>    0.5104    0.0000 </r>
       <r>    0.5479    0.0000 </r>
       <r>    0.6365    0.0000 </r>
       <r>    1.0419    0.0000 </r>
       <r>    1.1717    0.0000 </r>
       <r>    1.1801    0.0000 </r>
       <r>    1.2154    0.0000 </r>
       <r>    1.2957    0.0000 </r>
       <r>    1.3162    0.0000 </r>
       <r>    1.3949    0.0000 </r>
       <r>    1.4209    0.0000 </r>
       <r>    1.4500    0.0000 </r>
       <r>    1.5030    0.0000 </r>
       <r>    1.5660    0.0000 </r>
       <r>    1.5828    0.0000 </r>
      </set>
      <set comment="kpoint 175">
       <r>   -9.4100    1.0000 </r>
       <r>   -3.5732    0.1675 </r>
       <r>   -3.5731    0.1667 </r>
       <r>   -3.5731    0.1666 </r>
       <r>   -0.0386    0.0000 </r>
       <r>    0.2715    0.0000 </r>
       <r>    0.3251    0.0000 </r>
       <r>    0.3585    0.0000 </r>
       <r>    0.4546    0.0000 </r>
       <r>    0.4743    0.0000 </r>
       <r>    0.4891    0.0000 </r>
       <r>    0.5660    0.0000 </r>
       <r>    1.0693    0.0000 </r>
       <r>    1.2053    0.0000 </r>
       <r>    1.2128    0.0000 </r>
       <r>    1.2287    0.0000 </r>
       <r>    1.3395    0.0000 </r>
       <r>    1.3608    0.0000 </r>
       <r>    1.3735    0.0000 </r>
       <r>    1.4400    0.0000 </r>
       <r>    1.4933    0.0000 </r>
       <r>    1.5759    0.0000 </r>
       <r>    1.6043    0.0000 </r>
       <r>    1.6645    0.0000 </r>
      </set>
     </set>
    </set>
   </array>
  </eigenvalues>
  <separator name="orbital magnetization" >
   <v name="MAGDIPOLOUT">      0.00000000      0.00000000      0.00000000</v>
  </separator>
  <dos>
   <i name="efermi">     -3.60726440 </i>
   <total>
    <array>
     <dimension dim="1">gridpoints</dimension>
     <dimension dim="2">spin</dimension>
     <field>energy</field>
     <field>total</field>
     <field>integrated</field>
     <set>
      <set comment="spin 1">
       <r>    -9.9767     0.0000     0.0000 </r>
       <r>    -9.9351     0.0000     0.0000 </r>
       <r>    -9.8936     0.0000     0.0000 </r>
       <r>    -9.8520     0.0000     0.0000 </r>
       <r>    -9.8105     0.0000     0.0000 </r>
       <r>    -9.7689     0.0000     0.0000 </r>
       <r>    -9.7273     0.0000     0.0000 </r>
       <r>    -9.6858     0.0000     0.0000 </r>
       <r>    -9.6442     0.0000     0.0000 </r>
       <r>    -9.6027     0.0000     0.0000 </r>
       <r>    -9.5611     0.0005     0.0000 </r>
       <r>    -9.5195     0.0463     0.0019 </r>
       <r>    -9.4780     1.2625     0.0544 </r>
       <r>    -9.4364     9.6249     0.4544 </r>
       <r>    -9.3949    21.0903     1.3309 </r>
       <r>    -9.3533    13.4771     1.8911 </r>
       <r>    -9.3117     2.4900     1.9945 </r>
       <r>    -9.2702     0.1296     1.9999 </r>
       <r>    -9.2286     0.0018     2.0000 </r>
       <r>    -9.1871     0.0000     2.0000 </r>
       <r>    -9.1455     0.0000     2.0000 </r>
       <r>    -9.1039     0.0000     2.0000 </r>
       <r>    -9.0624     0.0000     2.0000 </r>
       <r>    -9.0208     0.0000     2.0000 </r>
       <r>    -8.9793     0.0000     2.0000 </r>
       <r>    -8.9377     0.0000     2.0000 </r>
       <r>    -8.8961     0.0000     2.0000 </r>
       <r>    -8.8546     0.0000     2.0000 </r>
       <r>    -8.8130     0.0000     2.0000 </r>
       <r>    -8.7715     0.0000     2.0000 </r>
       <r>    -8.7299     0.0000     2.0000 </r>
       <r>    -8.6883     0.0000     2.0000 </r>
       <r>    -8.6468     0.0000     2.0000 </r>
       <r>    -8.6052     0.0000     2.0000 </r>
       <r>    -8.5637     0.0000     2.0000 </r>
       <r>    -8.5221     0.0000     2.0000 </r>
       <r>    -8.4805     0.0000     2.0000 </r>
       <r>    -8.4390     0.0000     2.0000 </r>
       <r>    -8.3974     0.0000     2.0000 </r>
       <r>    -8.3559     0.0000     2.0000 </r>
       <r>    -8.3143     0.0000     2.0000 </r>
       <r>    -8.2727     0.0000     2.0000 </r>
       <r>    -8.2312     0.0000     2.0000 </r>
       <r>    -8.1896     0.0000     2.0000 </r>
       <r>    -8.1481     0.0000     2.0000 </r>
       <r>    -8.1065     0.0000     2.0000 </r>
       <r>    -8.0649     0.0000     2.0000 </r>
       <r>    -8.0234     0.0000     2.0000 </r>
       <r>    -7.9818     0.0000     2.0000 </r>
       <r>    -7.9402     0.0000     2.0000 </r>
       <r>    -7.8987     0.0000     2.0000 </r>
       <r>    -7.8571     0.0000     2.0000 </r>
       <r>    -7.8156     0.0000     2.0000 </r>
       <r>    -7.7740     0.0000     2.0000 </r>
       <r>    -7.7324     0.0000     2.0000 </r>
       <r>    -7.6909     0.0000     2.0000 </r>
       <r>    -7.6493     0.0000     2.0000 </r>
       <r>    -7.6078     0.0000     2.0000 </r>
       <r>    -7.5662     0.0000     2.0000 </r>
       <r>    -7.5246     0.0000     2.0000 </r>
       <r>    -7.4831     0.0000     2.0000 </r>
       <r>    -7.4415     0.0000     2.0000 </r>
       <r>    -7.4000     0.0000     2.0000 </r>
       <r>    -7.3584     0.0000     2.0000 </r>
       <r>    -7.3168     0.0000     2.0000 </r>
       <r>    -7.2753     0.0000     2.0000 </r>
       <r>    -7.2337     0.0000     2.0000 </r>
       <r>    -7.1922     0.0000     2.0000 </r>
       <r>    -7.1506     0.0000     2.0000 </r>
       <r>    -7.1090     0.0000     2.0000 </r>
       <r>    -7.0675     0.0000     2.0000 </r>
       <r>    -7.0259     0.0000     2.0000 </r>
       <r>    -6.9844     0.0000     2.0000 </r>
       <r>    -6.9428     0.0000     2.0000 </r>
       <r>    -6.9012     0.0000     2.0000 </r>
       <r>    -6.8597     0.0000     2.0000 </r>
       <r>    -6.8181     0.0000     2.0000 </r>
       <r>    -6.7766     0.0000     2.0000 </r>
       <r>    -6.7350     0.0000     2.0000 </r>
       <r>    -6.6934     0.0000     2.0000 </r>
       <r>    -6.6519     0.0000     2.0000 </r>
       <r>    -6.6103     0.0000     2.0000 </r>
       <r>    -6.5688     0.0000     2.0000 </r>
       <r>    -6.5272     0.0000     2.0000 </r>
       <r>    -6.4856     0.0000     2.0000 </r>
       <r>    -6.4441     0.0000     2.0000 </r>
       <r>    -6.4025     0.0000     2.0000 </r>
       <r>    -6.3610     0.0000     2.0000 </r>
       <r>    -6.3194     0.0000     2.0000 </r>
       <r>    -6.2778     0.0000     2.0000 </r>
       <r>    -6.2363     0.0000     2.0000 </r>
       <r>    -6.1947     0.0000     2.0000 </r>
       <r>    -6.1532     0.0000     2.0000 </r>
       <r>    -6.1116     0.0000     2.0000 </r>
       <r>    -6.0700     0.0000     2.0000 </r>
       <r>    -6.0285     0.0000     2.0000 </r>
       <r>    -5.9869     0.0000     2.0000 </r>
       <r>    -5.9454     0.0000     2.0000 </r>
       <r>    -5.9038     0.0000     2.0000 </r>
       <r>    -5.8622     0.0000     2.0000 </r>
       <r>    -5.8207     0.0000     2.0000 </r>
       <r>    -5.7791     0.0000     2.0000 </r>
       <r>    -5.7376     0.0000     2.0000 </r>
       <r>    -5.6960     0.0000     2.0000 </r>
       <r>    -5.6544     0.0000     2.0000 </r>
       <r>    -5.6129     0.0000     2.0000 </r>
       <r>    -5.5713     0.0000     2.0000 </r>
       <r>    -5.5298     0.0000     2.0000 </r>
       <r>    -5.4882     0.0000     2.0000 </r>
       <r>    -5.4466     0.0000     2.0000 </r>
       <r>    -5.4051     0.0000     2.0000 </r>
       <r>    -5.3635     0.0000     2.0000 </r>
       <r>    -5.3220     0.0000     2.0000 </r>
       <r>    -5.2804     0.0000     2.0000 </r>
       <r>    -5.2388     0.0000     2.0000 </r>
       <r>    -5.1973     0.0000     2.0000 </r>
       <r>    -5.1557     0.0000     2.0000 </r>
       <r>    -5.1142     0.0000     2.0000 </r>
       <r>    -5.0726     0.0000     2.0000 </r>
       <r>    -5.0310     0.0000     2.0000 </r>
       <r>    -4.9895     0.0000     2.0000 </r>
       <r>    -4.9479     0.0000     2.0000 </r>
       <r>    -4.9064     0.0000     2.0000 </r>
       <r>    -4.8648     0.0000     2.0000 </r>
       <r>    -4.8232     0.0000     2.0000 </r>
       <r>    -4.7817     0.0000     2.0000 </r>
       <r>    -4.7401     0.0000     2.0000 </r>
       <r>    -4.6985     0.0000     2.0000 </r>
       <r>    -4.6570     0.0000     2.0000 </r>
       <r>    -4.6154     0.0000     2.0000 </r>
       <r>    -4.5739     0.0000     2.0000 </r>
       <r>    -4.5323     0.0000     2.0000 </r>
       <r>    -4.4907     0.0000     2.0000 </r>
       <r>    -4.4492     0.0000     2.0000 </r>
       <r>    -4.4076     0.0000     2.0000 </r>
       <r>    -4.3661     0.0000     2.0000 </r>
       <r>    -4.3245     0.0000     2.0000 </r>
       <r>    -4.2829     0.0000     2.0000 </r>
       <r>    -4.2414     0.0000     2.0000 </r>
       <r>    -4.1998     0.0000     2.0000 </r>
       <r>    -4.1583     0.0000     2.0000 </r>
       <r>    -4.1167     0.0000     2.0000 </r>
       <r>    -4.0751     0.0000     2.0000 </r>
       <r>    -4.0336     0.0000     2.0000 </r>
       <r>    -3.9920     0.0000     2.0000 </r>
       <r>    -3.9505     0.0000     2.0000 </r>
       <r>    -3.9089     0.0000     2.0000 </r>
       <r>    -3.8673     0.0000     2.0000 </r>
       <r>    -3.8258     0.0000     2.0000 </r>
       <r>    -3.7842     0.0000     2.0000 </r>
       <r>    -3.7427     0.0001     2.0000 </r>
       <r>    -3.7011     0.0210     2.0009 </r>
       <r>    -3.6595     1.0213     2.0433 </r>
       <r>    -3.6180    13.6743     2.6116 </r>
       <r>    -3.5764    51.9997     4.7728 </r>
       <r>    -3.5349    57.4438     7.1601 </r>
       <r>    -3.4933    18.4705     7.9278 </r>
       <r>    -3.4517     1.6945     7.9982 </r>
       <r>    -3.4102     0.0430     8.0000 </r>
       <r>    -3.3686     0.0003     8.0000 </r>
       <r>    -3.3271     0.0000     8.0000 </r>
       <r>    -3.2855     0.0000     8.0000 </r>
       <r>    -3.2439     0.0000     8.0000 </r>
       <r>    -3.2024     0.0000     8.0000 </r>
       <r>    -3.1608     0.0000     8.0000 </r>
       <r>    -3.1193     0.0000     8.0000 </r>
       <r>    -3.0777     0.0000     8.0000 </r>
       <r>    -3.0361     0.0000     8.0000 </r>
       <r>    -2.9946     0.0000     8.0000 </r>
       <r>    -2.9530     0.0000     8.0000 </r>
       <r>    -2.9115     0.0000     8.0000 </r>
       <r>    -2.8699     0.0000     8.0000 </r>
       <r>    -2.8283     0.0000     8.0000 </r>
       <r>    -2.7868     0.0000     8.0000 </r>
       <r>    -2.7452     0.0000     8.0000 </r>
       <r>    -2.7037     0.0000     8.0000 </r>
       <r>    -2.6621     0.0000     8.0000 </r>
       <r>    -2.6205     0.0000     8.0000 </r>
       <r>    -2.5790     0.0000     8.0000 </r>
       <r>    -2.5374     0.0000     8.0000 </r>
       <r>    -2.4959     0.0000     8.0000 </r>
       <r>    -2.4543     0.0000     8.0000 </r>
       <r>    -2.4127     0.0000     8.0000 </r>
       <r>    -2.3712     0.0000     8.0000 </r>
       <r>    -2.3296     0.0000     8.0000 </r>
       <r>    -2.2881     0.0000     8.0000 </r>
       <r>    -2.2465     0.0000     8.0000 </r>
       <r>    -2.2049     0.0000     8.0000 </r>
       <r>    -2.1634     0.0000     8.0000 </r>
       <r>    -2.1218     0.0000     8.0000 </r>
       <r>    -2.0803     0.0000     8.0000 </r>
       <r>    -2.0387     0.0000     8.0000 </r>
       <r>    -1.9971     0.0000     8.0000 </r>
       <r>    -1.9556     0.0000     8.0000 </r>
       <r>    -1.9140     0.0000     8.0000 </r>
       <r>    -1.8725     0.0000     8.0000 </r>
       <r>    -1.8309     0.0000     8.0000 </r>
       <r>    -1.7893     0.0000     8.0000 </r>
       <r>    -1.7478     0.0000     8.0000 </r>
       <r>    -1.7062     0.0000     8.0000 </r>
       <r>    -1.6647     0.0000     8.0000 </r>
       <r>    -1.6231     0.0000     8.0000 </r>
       <r>    -1.5815     0.0000     8.0000 </r>
       <r>    -1.5400     0.0000     8.0000 </r>
       <r>    -1.4984     0.0000     8.0000 </r>
       <r>    -1.4568     0.0000     8.0000 </r>
       <r>    -1.4153     0.0000     8.0000 </r>
       <r>    -1.3737     0.0000     8.0000 </r>
       <r>    -1.3322     0.0000     8.0000 </r>
       <r>    -1.2906     0.0000     8.0000 </r>
       <r>    -1.2490     0.0000     8.0000 </r>
       <r>    -1.2075     0.0000     8.0000 </r>
       <r>    -1.1659     0.0000     8.0000 </r>
       <r>    -1.1244     0.0000     8.0000 </r>
       <r>    -1.0828     0.0000     8.0000 </r>
       <r>    -1.0412     0.0000     8.0000 </r>
       <r>    -0.9997     0.0000     8.0000 </r>
       <r>    -0.9581     0.0000     8.0000 </r>
       <r>    -0.9166     0.0000     8.0000 </r>
       <r>    -0.8750     0.0000     8.0000 </r>
       <r>    -0.8334     0.0000     8.0000 </r>
       <r>    -0.7919     0.0000     8.0000 </r>
       <r>    -0.7503     0.0000     8.0000 </r>
       <r>    -0.7088     0.0000     8.0000 </r>
       <r>    -0.6672     0.0000     8.0000 </r>
       <r>    -0.6256     0.0000     8.0000 </r>
       <r>    -0.5841     0.0000     8.0000 </r>
       <r>    -0.5425     0.0000     8.0000 </r>
       <r>    -0.5010     0.0000     8.0000 </r>
       <r>    -0.4594     0.0000     8.0000 </r>
       <r>    -0.4178     0.0000     8.0000 </r>
       <r>    -0.3763     0.0006     8.0000 </r>
       <r>    -0.3347     0.0299     8.0013 </r>
       <r>    -0.2932     0.4814     8.0213 </r>
       <r>    -0.2516     2.8666     8.1404 </r>
       <r>    -0.2100     7.4973     8.4520 </r>
       <r>    -0.1685    10.6697     8.8954 </r>
       <r>    -0.1269    10.4930     9.3315 </r>
       <r>    -0.0854     8.6222     9.6899 </r>
       <r>    -0.0438     5.3091     9.9105 </r>
       <r>    -0.0022     1.8779     9.9886 </r>
       <r>     0.0393     0.6517    10.0156 </r>
       <r>     0.0809     1.9782    10.0979 </r>
       <r>     0.1224     5.5518    10.3286 </r>
       <r>     0.1640    10.1809    10.7517 </r>
       <r>     0.2056    13.8922    11.3291 </r>
       <r>     0.2471    15.6114    11.9779 </r>
       <r>     0.2887    15.8063    12.6348 </r>
       <r>     0.3302    15.9290    13.2968 </r>
       <r>     0.3718    16.2160    13.9708 </r>
       <r>     0.4134    16.5138    14.6571 </r>
       <r>     0.4549    17.5449    15.3863 </r>
       <r>     0.4965    18.4952    16.1549 </r>
       <r>     0.5380    18.5067    16.9241 </r>
       <r>     0.5796    18.9742    17.7126 </r>
       <r>     0.6212    19.8962    18.5395 </r>
       <r>     0.6627    20.3756    19.3863 </r>
       <r>     0.7043    21.0019    20.2592 </r>
       <r>     0.7458    22.4026    21.1902 </r>
       <r>     0.7874    22.4633    22.1238 </r>
       <r>     0.8290    21.8879    23.0335 </r>
       <r>     0.8705    23.3129    24.0024 </r>
       <r>     0.9121    24.5541    25.0229 </r>
       <r>     0.9536    24.2653    26.0313 </r>
       <r>     0.9952    24.8607    27.0645 </r>
       <r>     1.0368    25.9246    28.1420 </r>
       <r>     1.0783    26.0408    29.2242 </r>
       <r>     1.1199    26.0985    30.3089 </r>
       <r>     1.1614    26.8397    31.4244 </r>
       <r>     1.2030    27.7409    32.5773 </r>
       <r>     1.2446    27.3732    33.7149 </r>
       <r>     1.2861    27.5112    34.8583 </r>
       <r>     1.3277    28.5859    36.0463 </r>
       <r>     1.3692    28.6583    37.2374 </r>
       <r>     1.4108    28.3521    38.4157 </r>
       <r>     1.4524    29.3525    39.6356 </r>
       <r>     1.4939    30.9236    40.9208 </r>
       <r>     1.5355    30.0875    42.1712 </r>
       <r>     1.5770    29.6053    43.4016 </r>
       <r>     1.6186    30.1232    44.6536 </r>
       <r>     1.6602    27.7805    45.8081 </r>
       <r>     1.7017    21.3101    46.6938 </r>
       <r>     1.7433    14.1274    47.2809 </r>
       <r>     1.7849     8.3731    47.6289 </r>
       <r>     1.8264     4.8213    47.8293 </r>
       <r>     1.8680     2.5851    47.9367 </r>
       <r>     1.9095     1.0948    47.9822 </r>
       <r>     1.9511     0.3471    47.9966 </r>
       <r>     1.9927     0.0733    47.9997 </r>
       <r>     2.0342     0.0071    48.0000 </r>
       <r>     2.0758     0.0002    48.0000 </r>
       <r>     2.1173     0.0000    48.0000 </r>
       <r>     2.1589     0.0000    48.0000 </r>
       <r>     2.2005     0.0000    48.0000 </r>
       <r>     2.2420     0.0000    48.0000 </r>
       <r>     2.2836     0.0000    48.0000 </r>
       <r>     2.3251     0.0000    48.0000 </r>
       <r>     2.3667     0.0000    48.0000 </r>
       <r>     2.4083     0.0000    48.0000 </r>
       <r>     2.4498     0.0000    48.0000 </r>
       <r>     2.4914     0.0000    48.0000 </r>
      </set>
     </set>
    </array>
   </total>
  </dos>
 </calculation>
 <structure name="finalpos" >
  <crystal>
   <varray name="basis" >
    <v>      15.00900000       0.00000000       0.00000000 </v>
    <v>       0.00000000      12.50750000       0.00000000 </v>
    <v>       0.00000000       0.00000000      18.01080000 </v>
   </varray>
   <i name="volume">   3381.07864573 </i>
   <varray name="rec_basis" >
    <v>       0.06662669       0.00000000       0.00000000 </v>
    <v>       0.00000000       0.07995203       0.00000000 </v>
    <v>       0.00000000       0.00000000       0.05552224 </v>
   </varray>
  </crystal>
  <varray name="positions" >
   <v>       0.52123000       0.54500000       0.63796000 </v>
  </varray>
 </structure>
</modeling>
