<?xml version="1.0" encoding="ISO-8859-1"?>
<modeling>
 <generator>
  <i name="program" type="string">vasp </i>
  <i name="version" type="string">6.4.3  </i>
  <i name="subversion" type="string">19Mar24 (build May 31 2024 16:31:43) complex                          parallel </i>
  <i name="platform" type="string">LinuxIFC </i>
  <i name="date" type="string">2024 10 30 </i>
  <i name="time" type="string">19:34:55 </i>
 </generator>
 <incar>
  <i type="string" name="SYSTEM">Kpoints</i>
  <i type="int" name="ISTART">     0</i>
  <i type="string" name="PREC">Accurate</i>
  <i type="string" name="ALGO">Normal</i>
  <i type="int" name="ISPIN">     1</i>
  <i type="int" name="ICHARG">     2</i>
  <i type="int" name="NELM">   100</i>
  <i type="int" name="IBRION">    -1</i>
  <i name="EDIFF">      0.00000100</i>
  <i name="EDIFFG">     -0.00100000</i>
  <i type="int" name="NSW">     0</i>
  <i type="int" name="ISIF">     2</i>
  <i name="ENCUT">    680.00000000</i>
  <i name="POTIM">      0.50000000</i>
  <i type="int" name="ISMEAR">     0</i>
  <i name="SIGMA">      0.05000000</i>
  <i type="logical" name="LWAVE"> F  </i>
  <i type="logical" name="LCHARG"> F  </i>
  <i type="string" name="GGA">PE</i>
 </incar>
 <primitive_cell>
  <structure name="primitive_cell" >
   <crystal>
    <varray name="basis" >
     <v>       5.69700000       0.00000000       0.00000000 </v>
     <v>       0.00000000       4.04790000       0.00000000 </v>
     <v>       0.00000000       0.00000000       6.20420000 </v>
    </varray>
    <i name="volume">    143.07435078 </i>
    <varray name="rec_basis" >
     <v>       0.17553098       0.00000000       0.00000000 </v>
     <v>       0.00000000       0.24704168       0.00000000 </v>
     <v>       0.00000000       0.00000000       0.16118114 </v>
    </varray>
   </crystal>
   <varray name="positions" >
    <v>       0.52123000       0.50000000       0.63796000 </v>
    <v>       0.47877000       0.50000000       0.36204000 </v>
    <v>       0.97877000       0.50000000       0.63796000 </v>
    <v>       0.02123000       0.50000000       0.36204000 </v>
    <v>       0.60090000       0.50000000       0.89991000 </v>
    <v>       0.39910000       0.50000000       0.10009000 </v>
    <v>       0.89910000       0.50000000       0.89991000 </v>
    <v>       0.10090000       0.50000000       0.10009000 </v>
    <v>       0.75000000       0.79171000       0.72973000 </v>
    <v>       0.25000000       0.20829000       0.27027000 </v>
    <v>       0.75000000       0.20829000       0.72973000 </v>
    <v>       0.25000000       0.79171000       0.27027000 </v>
    <v>       0.25000000       0.50000000       0.52367000 </v>
    <v>       0.75000000       0.50000000       0.47633000 </v>
   </varray>
  </structure>
  <varray name="primitive_index" >
   <v type="int" >        1 </v>
   <v type="int" >        2 </v>
   <v type="int" >        3 </v>
   <v type="int" >        4 </v>
   <v type="int" >        5 </v>
   <v type="int" >        6 </v>
   <v type="int" >        7 </v>
   <v type="int" >        8 </v>
   <v type="int" >        9 </v>
   <v type="int" >       10 </v>
   <v type="int" >       11 </v>
   <v type="int" >       12 </v>
   <v type="int" >       13 </v>
   <v type="int" >       14 </v>
  </varray>
 </primitive_cell>
 <kpoints>
  <generation param="Monkhorst-Pack">
   <v type="int" name="divisions">      10       14        9 </v>
   <v name="usershift">      0.00000000       0.00000000       0.00000000 </v>
   <v name="genvec1">      0.10000000       0.00000000       0.00000000 </v>
   <v name="genvec2">      0.00000000       0.07142857       0.00000000 </v>
   <v name="genvec3">      0.00000000       0.00000000       0.11111111 </v>
   <v name="shift">      0.50000000       0.50000000       0.00000000 </v>
  </generation>
  <varray name="kpointlist" >
   <v>       0.05000000       0.03571429       0.00000000 </v>
   <v>       0.15000000       0.03571429       0.00000000 </v>
   <v>       0.25000000       0.03571429       0.00000000 </v>
   <v>       0.35000000       0.03571429       0.00000000 </v>
   <v>       0.45000000       0.03571429       0.00000000 </v>
   <v>       0.05000000       0.10714286       0.00000000 </v>
   <v>       0.15000000       0.10714286       0.00000000 </v>
   <v>       0.25000000       0.10714286       0.00000000 </v>
   <v>       0.35000000       0.10714286       0.00000000 </v>
   <v>       0.45000000       0.10714286       0.00000000 </v>
   <v>       0.05000000       0.17857143       0.00000000 </v>
   <v>       0.15000000       0.17857143       0.00000000 </v>
   <v>       0.25000000       0.17857143       0.00000000 </v>
   <v>       0.35000000       0.17857143       0.00000000 </v>
   <v>       0.45000000       0.17857143       0.00000000 </v>
   <v>       0.05000000       0.25000000       0.00000000 </v>
   <v>       0.15000000       0.25000000       0.00000000 </v>
   <v>       0.25000000       0.25000000       0.00000000 </v>
   <v>       0.35000000       0.25000000       0.00000000 </v>
   <v>       0.45000000       0.25000000       0.00000000 </v>
   <v>       0.05000000       0.32142857       0.00000000 </v>
   <v>       0.15000000       0.32142857       0.00000000 </v>
   <v>       0.25000000       0.32142857       0.00000000 </v>
   <v>       0.35000000       0.32142857       0.00000000 </v>
   <v>       0.45000000       0.32142857       0.00000000 </v>
   <v>       0.05000000       0.39285714       0.00000000 </v>
   <v>       0.15000000       0.39285714       0.00000000 </v>
   <v>       0.25000000       0.39285714       0.00000000 </v>
   <v>       0.35000000       0.39285714       0.00000000 </v>
   <v>       0.45000000       0.39285714       0.00000000 </v>
   <v>       0.05000000       0.46428571       0.00000000 </v>
   <v>       0.15000000       0.46428571       0.00000000 </v>
   <v>       0.25000000       0.46428571       0.00000000 </v>
   <v>       0.35000000       0.46428571       0.00000000 </v>
   <v>       0.45000000       0.46428571       0.00000000 </v>
   <v>       0.05000000       0.03571429       0.11111111 </v>
   <v>       0.15000000       0.03571429       0.11111111 </v>
   <v>       0.25000000       0.03571429       0.11111111 </v>
   <v>       0.35000000       0.03571429       0.11111111 </v>
   <v>       0.45000000       0.03571429       0.11111111 </v>
   <v>       0.05000000       0.10714286       0.11111111 </v>
   <v>       0.15000000       0.10714286       0.11111111 </v>
   <v>       0.25000000       0.10714286       0.11111111 </v>
   <v>       0.35000000       0.10714286       0.11111111 </v>
   <v>       0.45000000       0.10714286       0.11111111 </v>
   <v>       0.05000000       0.17857143       0.11111111 </v>
   <v>       0.15000000       0.17857143       0.11111111 </v>
   <v>       0.25000000       0.17857143       0.11111111 </v>
   <v>       0.35000000       0.17857143       0.11111111 </v>
   <v>       0.45000000       0.17857143       0.11111111 </v>
   <v>       0.05000000       0.25000000       0.11111111 </v>
   <v>       0.15000000       0.25000000       0.11111111 </v>
   <v>       0.25000000       0.25000000       0.11111111 </v>
   <v>       0.35000000       0.25000000       0.11111111 </v>
   <v>       0.45000000       0.25000000       0.11111111 </v>
   <v>       0.05000000       0.32142857       0.11111111 </v>
   <v>       0.15000000       0.32142857       0.11111111 </v>
   <v>       0.25000000       0.32142857       0.11111111 </v>
   <v>       0.35000000       0.32142857       0.11111111 </v>
   <v>       0.45000000       0.32142857       0.11111111 </v>
   <v>       0.05000000       0.39285714       0.11111111 </v>
   <v>       0.15000000       0.39285714       0.11111111 </v>
   <v>       0.25000000       0.39285714       0.11111111 </v>
   <v>       0.35000000       0.39285714       0.11111111 </v>
   <v>       0.45000000       0.39285714       0.11111111 </v>
   <v>       0.05000000       0.46428571       0.11111111 </v>
   <v>       0.15000000       0.46428571       0.11111111 </v>
   <v>       0.25000000       0.46428571       0.11111111 </v>
   <v>       0.35000000       0.46428571       0.11111111 </v>
   <v>       0.45000000       0.46428571       0.11111111 </v>
   <v>       0.05000000       0.03571429       0.22222222 </v>
   <v>       0.15000000       0.03571429       0.22222222 </v>
   <v>       0.25000000       0.03571429       0.22222222 </v>
   <v>       0.35000000       0.03571429       0.22222222 </v>
   <v>       0.45000000       0.03571429       0.22222222 </v>
   <v>       0.05000000       0.10714286       0.22222222 </v>
   <v>       0.15000000       0.10714286       0.22222222 </v>
   <v>       0.25000000       0.10714286       0.22222222 </v>
   <v>       0.35000000       0.10714286       0.22222222 </v>
   <v>       0.45000000       0.10714286       0.22222222 </v>
   <v>       0.05000000       0.17857143       0.22222222 </v>
   <v>       0.15000000       0.17857143       0.22222222 </v>
   <v>       0.25000000       0.17857143       0.22222222 </v>
   <v>       0.35000000       0.17857143       0.22222222 </v>
   <v>       0.45000000       0.17857143       0.22222222 </v>
   <v>       0.05000000       0.25000000       0.22222222 </v>
   <v>       0.15000000       0.25000000       0.22222222 </v>
   <v>       0.25000000       0.25000000       0.22222222 </v>
   <v>       0.35000000       0.25000000       0.22222222 </v>
   <v>       0.45000000       0.25000000       0.22222222 </v>
   <v>       0.05000000       0.32142857       0.22222222 </v>
   <v>       0.15000000       0.32142857       0.22222222 </v>
   <v>       0.25000000       0.32142857       0.22222222 </v>
   <v>       0.35000000       0.32142857       0.22222222 </v>
   <v>       0.45000000       0.32142857       0.22222222 </v>
   <v>       0.05000000       0.39285714       0.22222222 </v>
   <v>       0.15000000       0.39285714       0.22222222 </v>
   <v>       0.25000000       0.39285714       0.22222222 </v>
   <v>       0.35000000       0.39285714       0.22222222 </v>
   <v>       0.45000000       0.39285714       0.22222222 </v>
   <v>       0.05000000       0.46428571       0.22222222 </v>
   <v>       0.15000000       0.46428571       0.22222222 </v>
   <v>       0.25000000       0.46428571       0.22222222 </v>
   <v>       0.35000000       0.46428571       0.22222222 </v>
   <v>       0.45000000       0.46428571       0.22222222 </v>
   <v>       0.05000000       0.03571429       0.33333333 </v>
   <v>       0.15000000       0.03571429       0.33333333 </v>
   <v>       0.25000000       0.03571429       0.33333333 </v>
   <v>       0.35000000       0.03571429       0.33333333 </v>
   <v>       0.45000000       0.03571429       0.33333333 </v>
   <v>       0.05000000       0.10714286       0.33333333 </v>
   <v>       0.15000000       0.10714286       0.33333333 </v>
   <v>       0.25000000       0.10714286       0.33333333 </v>
   <v>       0.35000000       0.10714286       0.33333333 </v>
   <v>       0.45000000       0.10714286       0.33333333 </v>
   <v>       0.05000000       0.17857143       0.33333333 </v>
   <v>       0.15000000       0.17857143       0.33333333 </v>
   <v>       0.25000000       0.17857143       0.33333333 </v>
   <v>       0.35000000       0.17857143       0.33333333 </v>
   <v>       0.45000000       0.17857143       0.33333333 </v>
   <v>       0.05000000       0.25000000       0.33333333 </v>
   <v>       0.15000000       0.25000000       0.33333333 </v>
   <v>       0.25000000       0.25000000       0.33333333 </v>
   <v>       0.35000000       0.25000000       0.33333333 </v>
   <v>       0.45000000       0.25000000       0.33333333 </v>
   <v>       0.05000000       0.32142857       0.33333333 </v>
   <v>       0.15000000       0.32142857       0.33333333 </v>
   <v>       0.25000000       0.32142857       0.33333333 </v>
   <v>       0.35000000       0.32142857       0.33333333 </v>
   <v>       0.45000000       0.32142857       0.33333333 </v>
   <v>       0.05000000       0.39285714       0.33333333 </v>
   <v>       0.15000000       0.39285714       0.33333333 </v>
   <v>       0.25000000       0.39285714       0.33333333 </v>
   <v>       0.35000000       0.39285714       0.33333333 </v>
   <v>       0.45000000       0.39285714       0.33333333 </v>
   <v>       0.05000000       0.46428571       0.33333333 </v>
   <v>       0.15000000       0.46428571       0.33333333 </v>
   <v>       0.25000000       0.46428571       0.33333333 </v>
   <v>       0.35000000       0.46428571       0.33333333 </v>
   <v>       0.45000000       0.46428571       0.33333333 </v>
   <v>       0.05000000       0.03571429       0.44444444 </v>
   <v>       0.15000000       0.03571429       0.44444444 </v>
   <v>       0.25000000       0.03571429       0.44444444 </v>
   <v>       0.35000000       0.03571429       0.44444444 </v>
   <v>       0.45000000       0.03571429       0.44444444 </v>
   <v>       0.05000000       0.10714286       0.44444444 </v>
   <v>       0.15000000       0.10714286       0.44444444 </v>
   <v>       0.25000000       0.10714286       0.44444444 </v>
   <v>       0.35000000       0.10714286       0.44444444 </v>
   <v>       0.45000000       0.10714286       0.44444444 </v>
   <v>       0.05000000       0.17857143       0.44444444 </v>
   <v>       0.15000000       0.17857143       0.44444444 </v>
   <v>       0.25000000       0.17857143       0.44444444 </v>
   <v>       0.35000000       0.17857143       0.44444444 </v>
   <v>       0.45000000       0.17857143       0.44444444 </v>
   <v>       0.05000000       0.25000000       0.44444444 </v>
   <v>       0.15000000       0.25000000       0.44444444 </v>
   <v>       0.25000000       0.25000000       0.44444444 </v>
   <v>       0.35000000       0.25000000       0.44444444 </v>
   <v>       0.45000000       0.25000000       0.44444444 </v>
   <v>       0.05000000       0.32142857       0.44444444 </v>
   <v>       0.15000000       0.32142857       0.44444444 </v>
   <v>       0.25000000       0.32142857       0.44444444 </v>
   <v>       0.35000000       0.32142857       0.44444444 </v>
   <v>       0.45000000       0.32142857       0.44444444 </v>
   <v>       0.05000000       0.39285714       0.44444444 </v>
   <v>       0.15000000       0.39285714       0.44444444 </v>
   <v>       0.25000000       0.39285714       0.44444444 </v>
   <v>       0.35000000       0.39285714       0.44444444 </v>
   <v>       0.45000000       0.39285714       0.44444444 </v>
   <v>       0.05000000       0.46428571       0.44444444 </v>
   <v>       0.15000000       0.46428571       0.44444444 </v>
   <v>       0.25000000       0.46428571       0.44444444 </v>
   <v>       0.35000000       0.46428571       0.44444444 </v>
   <v>       0.45000000       0.46428571       0.44444444 </v>
  </varray>
  <varray name="weights" >
   <v>       0.00317460 </v>
   <v>       0.00317460 </v>
   <v>       0.00317460 </v>
   <v>       0.00317460 </v>
   <v>       0.00317460 </v>
   <v>       0.00317460 </v>
   <v>       0.00317460 </v>
   <v>       0.00317460 </v>
   <v>       0.00317460 </v>
   <v>       0.00317460 </v>
   <v>       0.00317460 </v>
   <v>       0.00317460 </v>
   <v>       0.00317460 </v>
   <v>       0.00317460 </v>
   <v>       0.00317460 </v>
   <v>       0.00317460 </v>
   <v>       0.00317460 </v>
   <v>       0.00317460 </v>
   <v>       0.00317460 </v>
   <v>       0.00317460 </v>
   <v>       0.00317460 </v>
   <v>       0.00317460 </v>
   <v>       0.00317460 </v>
   <v>       0.00317460 </v>
   <v>       0.00317460 </v>
   <v>       0.00317460 </v>
   <v>       0.00317460 </v>
   <v>       0.00317460 </v>
   <v>       0.00317460 </v>
   <v>       0.00317460 </v>
   <v>       0.00317460 </v>
   <v>       0.00317460 </v>
   <v>       0.00317460 </v>
   <v>       0.00317460 </v>
   <v>       0.00317460 </v>
   <v>       0.00634921 </v>
   <v>       0.00634921 </v>
   <v>       0.00634921 </v>
   <v>       0.00634921 </v>
   <v>       0.00634921 </v>
   <v>       0.00634921 </v>
   <v>       0.00634921 </v>
   <v>       0.00634921 </v>
   <v>       0.00634921 </v>
   <v>       0.00634921 </v>
   <v>       0.00634921 </v>
   <v>       0.00634921 </v>
   <v>       0.00634921 </v>
   <v>       0.00634921 </v>
   <v>       0.00634921 </v>
   <v>       0.00634921 </v>
   <v>       0.00634921 </v>
   <v>       0.00634921 </v>
   <v>       0.00634921 </v>
   <v>       0.00634921 </v>
   <v>       0.00634921 </v>
   <v>       0.00634921 </v>
   <v>       0.00634921 </v>
   <v>       0.00634921 </v>
   <v>       0.00634921 </v>
   <v>       0.00634921 </v>
   <v>       0.00634921 </v>
   <v>       0.00634921 </v>
   <v>       0.00634921 </v>
   <v>       0.00634921 </v>
   <v>       0.00634921 </v>
   <v>       0.00634921 </v>
   <v>       0.00634921 </v>
   <v>       0.00634921 </v>
   <v>       0.00634921 </v>
   <v>       0.00634921 </v>
   <v>       0.00634921 </v>
   <v>       0.00634921 </v>
   <v>       0.00634921 </v>
   <v>       0.00634921 </v>
   <v>       0.00634921 </v>
   <v>       0.00634921 </v>
   <v>       0.00634921 </v>
   <v>       0.00634921 </v>
   <v>       0.00634921 </v>
   <v>       0.00634921 </v>
   <v>       0.00634921 </v>
   <v>       0.00634921 </v>
   <v>       0.00634921 </v>
   <v>       0.00634921 </v>
   <v>       0.00634921 </v>
   <v>       0.00634921 </v>
   <v>       0.00634921 </v>
   <v>       0.00634921 </v>
   <v>       0.00634921 </v>
   <v>       0.00634921 </v>
   <v>       0.00634921 </v>
   <v>       0.00634921 </v>
   <v>       0.00634921 </v>
   <v>       0.00634921 </v>
   <v>       0.00634921 </v>
   <v>       0.00634921 </v>
   <v>       0.00634921 </v>
   <v>       0.00634921 </v>
   <v>       0.00634921 </v>
   <v>       0.00634921 </v>
   <v>       0.00634921 </v>
   <v>       0.00634921 </v>
   <v>       0.00634921 </v>
   <v>       0.00634921 </v>
   <v>       0.00634921 </v>
   <v>       0.00634921 </v>
   <v>       0.00634921 </v>
   <v>       0.00634921 </v>
   <v>       0.00634921 </v>
   <v>       0.00634921 </v>
   <v>       0.00634921 </v>
   <v>       0.00634921 </v>
   <v>       0.00634921 </v>
   <v>       0.00634921 </v>
   <v>       0.00634921 </v>
   <v>       0.00634921 </v>
   <v>       0.00634921 </v>
   <v>       0.00634921 </v>
   <v>       0.00634921 </v>
   <v>       0.00634921 </v>
   <v>       0.00634921 </v>
   <v>       0.00634921 </v>
   <v>       0.00634921 </v>
   <v>       0.00634921 </v>
   <v>       0.00634921 </v>
   <v>       0.00634921 </v>
   <v>       0.00634921 </v>
   <v>       0.00634921 </v>
   <v>       0.00634921 </v>
   <v>       0.00634921 </v>
   <v>       0.00634921 </v>
   <v>       0.00634921 </v>
   <v>       0.00634921 </v>
   <v>       0.00634921 </v>
   <v>       0.00634921 </v>
   <v>       0.00634921 </v>
   <v>       0.00634921 </v>
   <v>       0.00634921 </v>
   <v>       0.00634921 </v>
   <v>       0.00634921 </v>
   <v>       0.00634921 </v>
   <v>       0.00634921 </v>
   <v>       0.00634921 </v>
   <v>       0.00634921 </v>
   <v>       0.00634921 </v>
   <v>       0.00634921 </v>
   <v>       0.00634921 </v>
   <v>       0.00634921 </v>
   <v>       0.00634921 </v>
   <v>       0.00634921 </v>
   <v>       0.00634921 </v>
   <v>       0.00634921 </v>
   <v>       0.00634921 </v>
   <v>       0.00634921 </v>
   <v>       0.00634921 </v>
   <v>       0.00634921 </v>
   <v>       0.00634921 </v>
   <v>       0.00634921 </v>
   <v>       0.00634921 </v>
   <v>       0.00634921 </v>
   <v>       0.00634921 </v>
   <v>       0.00634921 </v>
   <v>       0.00634921 </v>
   <v>       0.00634921 </v>
   <v>       0.00634921 </v>
   <v>       0.00634921 </v>
   <v>       0.00634921 </v>
   <v>       0.00634921 </v>
   <v>       0.00634921 </v>
   <v>       0.00634921 </v>
   <v>       0.00634921 </v>
   <v>       0.00634921 </v>
   <v>       0.00634921 </v>
   <v>       0.00634921 </v>
  </varray>
 </kpoints>
 <parameters>
  <separator name="general" >
   <i type="string" name="SYSTEM">Kpoints</i>
   <i type="logical" name="LCOMPAT"> F  </i>
  </separator>
  <separator name="electronic" >
   <i type="string" name="PREC">accura</i>
   <i name="ENMAX">    680.00000000</i>
   <i name="ENAUG">    535.51400000</i>
   <i name="EDIFF">      0.00000100</i>
   <i type="int" name="IALGO">    38</i>
   <i type="int" name="IWAVPR">    10</i>
   <i type="int" name="NBANDS">    48</i>
   <i type="int" name="NBANDSLOW">    -1</i>
   <i type="int" name="NBANDSHIGH">    -1</i>
   <i name="NELECT">     42.00000000</i>
   <i type="int" name="TURBO">     0</i>
   <i type="int" name="IRESTART">     0</i>
   <i type="int" name="NREBOOT">     0</i>
   <i type="int" name="NMIN">     0</i>
   <i name="EREF">      0.00000000</i>
   <separator name="electronic smearing" >
    <i type="int" name="ISMEAR">     0</i>
    <i name="SIGMA">      0.05000000</i>
    <i name="KSPACING">      0.50000000</i>
    <i type="logical" name="KGAMMA"> T  </i>
    <i type="logical" name="KBLOWUP"> T  </i>
   </separator>
   <separator name="electronic projectors" >
    <i type="logical" name="LREAL"> F  </i>
    <v name="ROPT">      0.00000000</v>
    <i type="int" name="LMAXPAW">  -100</i>
    <i type="int" name="LMAXMIX">     2</i>
    <i type="logical" name="NLSPLINE"> F  </i>
   </separator>
   <separator name="electronic startup" >
    <i type="int" name="ISTART">     0</i>
    <i type="int" name="ICHARG">     2</i>
    <i type="int" name="INIWAV">     1</i>
   </separator>
   <separator name="electronic spin" >
    <i type="int" name="ISPIN">     1</i>
    <i type="logical" name="LNONCOLLINEAR"> F  </i>
    <v name="MAGMOM">      1.00000000      1.00000000      1.00000000      1.00000000      1.00000000      1.00000000      1.00000000      1.00000000      1.00000000      1.00000000      1.00000000      1.00000000      1.00000000      1.00000000</v>
    <i name="NUPDOWN">     -1.00000000</i>
    <i type="logical" name="LSORBIT"> F  </i>
    <v name="SAXIS">      0.00000000      0.00000000      1.00000000</v>
    <i type="logical" name="LSPIRAL"> F  </i>
    <v name="QSPIRAL">      0.00000000      0.00000000      0.00000000</v>
    <i type="logical" name="LZEROZ"> F  </i>
   </separator>
   <separator name="electronic exchange-correlation" >
    <i type="logical" name="LASPH"> F  </i>
   </separator>
   <separator name="electronic convergence" >
    <i type="int" name="NELM">   100</i>
    <i type="int" name="NELMDL">    -5</i>
    <i type="int" name="NELMIN">     2</i>
    <i name="ENINI">    680.00000000</i>
    <separator name="electronic convergence detail" >
     <i type="logical" name="LDIAG"> T  </i>
     <i type="logical" name="LSUBROT"> F  </i>
     <i name="WEIMIN">      0.00000000</i>
     <i name="EBREAK">      0.00000001</i>
     <i name="DEPER">      0.30000000</i>
     <i type="int" name="NRMM">     4</i>
     <i name="TIME">      0.40000000</i>
    </separator>
   </separator>
   <separator name="electronic mixer" >
    <i name="AMIX">      0.40000000</i>
    <i name="BMIX">      1.00000000</i>
    <i name="AMIN">      0.10000000</i>
    <i name="AMIX_MAG">      1.60000000</i>
    <i name="BMIX_MAG">      1.00000000</i>
    <separator name="electronic mixer details" >
     <i type="int" name="IMIX">     4</i>
     <i type="logical" name="MIXFIRST"> F  </i>
     <i type="int" name="MAXMIX">   -45</i>
     <i name="WC">    100.00000000</i>
     <i type="int" name="INIMIX">     1</i>
     <i type="int" name="MIXPRE">     1</i>
     <i type="int" name="MREMOVE">     5</i>
    </separator>
   </separator>
   <separator name="electronic dipolcorrection" >
    <i type="logical" name="LDIPOL"> F  </i>
    <i type="logical" name="LMONO"> F  </i>
    <i type="int" name="IDIPOL">     0</i>
    <i name="EPSILON">      1.00000000</i>
    <v name="DIPOL">   -100.00000000   -100.00000000   -100.00000000</v>
    <i name="EFIELD">      0.00000000</i>
    <i type="logical" name="LVACPOTAV"> F  </i>
   </separator>
  </separator>
  <separator name="grids" >
   <i type="int" name="NGX">    48</i>
   <i type="int" name="NGY">    36</i>
   <i type="int" name="NGZ">    54</i>
   <i type="int" name="NGXF">    96</i>
   <i type="int" name="NGYF">    72</i>
   <i type="int" name="NGZF">   108</i>
   <i type="logical" name="ADDGRID"> F  </i>
  </separator>
  <separator name="ionic" >
   <i type="int" name="NSW">     0</i>
   <i type="int" name="IBRION">    -1</i>
   <i type="int" name="MDALGO">     0</i>
   <i type="int" name="ISIF">     2</i>
   <i name="PSTRESS">      0.00000000</i>
   <i name="EDIFFG">     -0.00100000</i>
   <i type="int" name="NFREE">     0</i>
   <i name="POTIM">      0.50000000</i>
   <i name="SMASS">     -3.00000000</i>
   <i name="SCALEE">      1.00000000</i>
  </separator>
  <separator name="ionic md" >
   <i name="TEBEG">      0.00010000</i>
   <i name="TEEND">      0.00010000</i>
   <i type="int" name="NBLOCK">     1</i>
   <i type="int" name="KBLOCK">     1</i>
   <i type="int" name="NPACO">   256</i>
   <i name="APACO">     10.00000000</i>
  </separator>
  <separator name="symmetry" >
   <i type="int" name="ISYM">     2</i>
   <i name="SYMPREC">      0.00001000</i>
  </separator>
  <separator name="dos" >
   <i type="int" name="LORBIT">     0</i>
   <v name="RWIGS">     -1.00000000</v>
   <i type="int" name="NEDOS">   301</i>
   <i name="EMIN">     10.00000000</i>
   <i name="EMAX">    -10.00000000</i>
   <i name="EFERMI">      0.00000000</i>
  </separator>
  <separator name="writing" >
   <i type="int" name="NWRITE">     2</i>
   <i type="logical" name="LWAVE"> F  </i>
   <i type="logical" name="LDOWNSAMPLE"> F  </i>
   <i type="logical" name="LCHARG"> F  </i>
   <i type="logical" name="LPARD"> F  </i>
   <i type="logical" name="LVTOT"> F  </i>
   <i type="logical" name="LVHAR"> F  </i>
   <i type="logical" name="LELF"> F  </i>
   <i type="logical" name="LOPTICS"> F  </i>
   <v name="STM">      0.00000000      0.00000000      0.00000000      0.00000000      0.00000000      0.00000000      0.00000000</v>
  </separator>
  <separator name="performance" >
   <i type="int" name="NPAR">    24</i>
   <i type="int" name="NSIM">     4</i>
   <i type="int" name="NBLK">    -1</i>
   <i type="logical" name="LPLANE"> T  </i>
   <i type="logical" name="LSCALAPACK"> T  </i>
   <i type="logical" name="LSCAAWARE"> F  </i>
   <i type="logical" name="LSCALU"> F  </i>
   <i type="logical" name="LASYNC"> F  </i>
   <i type="logical" name="LORBITALREAL"> F  </i>
  </separator>
  <separator name="miscellaneous" >
   <i type="int" name="IDIOT">     3</i>
   <i type="int" name="PHON_NSTRUCT">    -1</i>
   <i type="logical" name="LMUSIC"> F  </i>
   <v name="POMASS">     10.81100000</v>
   <v name="DARWINR">      0.00000000</v>
   <v name="DARWINV">      1.00000000</v>
   <i type="logical" name="LCORR"> T  </i>
  </separator>
  <i type="logical" name="GGA_COMPAT"> T  </i>
  <i type="logical" name="LBERRY"> F  </i>
  <i type="int" name="ICORELEVEL">     0</i>
  <i type="logical" name="LDAU"> F  </i>
  <i type="int" name="I_CONSTRAINED_M">     0</i>
  <separator name="electronic exchange-correlation" >
   <i type="string" name="GGA    ">PE</i>
   <i type="string" name="XC_C">1</i>
   <i type="int" name="VOSKOWN">     0</i>
   <i type="logical" name="LHFCALC"> F  </i>
   <i type="string" name="PRECFOCK"></i>
   <i type="logical" name="LSYMGRAD"> F  </i>
   <i type="logical" name="LHFONE"> F  </i>
   <i type="logical" name="LRHFCALC"> F  </i>
   <i type="logical" name="LTHOMAS"> F  </i>
   <i type="logical" name="LMODELHF"> F  </i>
   <i type="logical" name="LFOCKACE"> F  </i>
   <i name="ENCUT4O">     -1.00000000</i>
   <i type="int" name="EXXOEP">     0</i>
   <i type="int" name="FOURORBIT">     0</i>
   <i name="AEXX">      0.00000000</i>
   <i name="HFALPHA">      0.00000000</i>
   <i name="MCALPHA">      0.00000000</i>
   <i name="ALDAX">      1.00000000</i>
   <i name="AGGAX">      1.00000000</i>
   <i name="AMGGAX">      1.00000000</i>
   <i name="ALDAC">      1.00000000</i>
   <i name="AGGAC">      1.00000000</i>
   <i name="AMGGAC">      1.00000000</i>
   <i type="int" name="NKREDX">     1</i>
   <i type="int" name="NKREDY">     1</i>
   <i type="int" name="NKREDZ">     1</i>
   <i type="logical" name="SHIFTRED"> F  </i>
   <i type="logical" name="ODDONLY"> F  </i>
   <i type="logical" name="EVENONLY"> F  </i>
   <i type="int" name="LMAXFOCK">     0</i>
   <i type="int" name="NMAXFOCKAE">     0</i>
   <i type="logical" name="LFOCKAEDFT"> F  </i>
   <i name="HFSCREEN">      0.00000000</i>
   <i name="HFSCREENC">      0.00000000</i>
   <i type="int" name="NBANDSGWLOW">     0</i>
  </separator>
  <separator name="vdW DFT" >
   <i type="logical" name="LUSE_VDW"> F  </i>
   <i type="int" name="IVDW_NL">    -1</i>
   <i type="logical" name="LSPIN_VDW"> F  </i>
   <i name="ZAB_VDW">     -0.84910000</i>
   <i name="GAMMA_VDW">      1.39626340</i>
   <i name="ALPHA_VDW">      0.00000000</i>
   <i name="PARAM1">      0.12340000</i>
   <i name="PARAM2">      1.00000000</i>
   <i name="BPARAM">      6.30000000</i>
   <i name="CPARAM">      0.00930000</i>
  </separator>
  <separator name="model GW" >
   <i type="int" name="MODEL_GW">     0</i>
   <i name="MODEL_EPS0">      6.13175789</i>
   <i name="MODEL_ALPHA">      1.00000000</i>
  </separator>
  <separator name="linear response parameters" >
   <i type="logical" name="LEPSILON"> F  </i>
   <i type="logical" name="LRPA"> F  </i>
   <i type="logical" name="LNABLA"> F  </i>
   <i type="logical" name="LVEL"> F  </i>
   <i name="CSHIFT">      0.10000000</i>
   <i name="OMEGAMAX">     -1.00000000</i>
   <i name="DEG_THRESHOLD">      0.00200000</i>
   <i name="RTIME">     -0.10000000</i>
   <i name="WPLASMAI">      0.00000000</i>
   <v name="DFIELD">      0.00000000      0.00000000      0.00000000</v>
   <v name="WPLASMA">      0.00000000      0.00000000      0.00000000      0.00000000      0.00000000      0.00000000      0.00000000      0.00000000      0.00000000</v>
  </separator>
  <separator name="orbital magnetization" >
   <i type="logical" name="NUCIND"> F  </i>
   <v name="MAGPOS">      0.00000000      0.00000000      0.00000000</v>
   <i type="logical" name="LNICSALL"> T  </i>
   <i type="logical" name="ORBITALMAG"> F  </i>
   <i type="logical" name="LMAGBLOCH"> F  </i>
   <i type="logical" name="LCHIMAG"> F  </i>
   <i type="logical" name="LGAUGE"> T  </i>
   <i type="int" name="MAGATOM">     0</i>
   <v name="MAGDIPOL">      0.00000000      0.00000000      0.00000000</v>
   <v name="AVECCONST">      0.00000000      0.00000000      0.00000000</v>
  </separator>
  <separator name="response functions" >
   <i type="logical" name="LALL_IN_ONE"> F  </i>
   <i type="int" name="IALL_IN_ONE">    -1</i>
   <i type="int" name="NBANDS_WAVE">    -1</i>
   <i type="logical" name="LFINITE_TEMPERATURE"> F  </i>
   <i type="logical" name="LADDER"> F  </i>
   <i type="logical" name="LRPAFORCE"> F  </i>
   <i type="logical" name="LFXC"> F  </i>
   <i type="logical" name="LHARTREE"> T  </i>
   <i type="int" name="IBSE">     0</i>
   <v type="int" name="KPOINT">    -1     0     0     0</v>
   <i type="logical" name="LTCTC"> F  </i>
   <i type="logical" name="LTCTE"> F  </i>
   <i type="logical" name="LTETE"> F  </i>
   <i type="logical" name="LTRIPLET"> F  </i>
   <i type="logical" name="LFXCEPS"> F  </i>
   <i type="logical" name="LFXHEG"> F  </i>
   <i type="int" name="NATURALO">     2</i>
   <i type="logical" name="LHOLEGF"> F  </i>
   <i type="logical" name="L2ORDER"> F  </i>
   <i type="logical" name="LDMP1"> F  </i>
   <i type="logical" name="LMP2LT"> F  </i>
   <i type="logical" name="LSMP2LT"> F  </i>
   <i type="logical" name="LGWLF"> F  </i>
   <i name="ENCUTGW">     -1.60000002</i>
   <i name="ENCUTGWSOFT">     -1.60000002</i>
   <i name="ENCUTLF">     -1.00000000</i>
   <i type="logical" name="ESF_SPLINES"> F  </i>
   <i name="ESF_CONV">      0.01000000</i>
   <i type="int" name="ESF_NINTER">    15</i>
   <i type="int" name="LMAXMP2">    -1</i>
   <i name="SCISSOR">      0.00000000</i>
   <i type="int" name="NOMEGA">     0</i>
   <i type="int" name="NOMEGAR">     0</i>
   <i type="int" name="NBANDSGW">    -1</i>
   <i type="int" name="NBANDSO">    -1</i>
   <i type="int" name="NBANDSV">    -1</i>
   <i type="int" name="NELMGW">     1</i>
   <i type="int" name="NELMHF">     1</i>
   <i type="int" name="DIM">     3</i>
   <i type="int" name="IESPILON">     4</i>
   <i type="int" name="ANTIRES">     0</i>
   <i name="OMEGAMAX">    -30.00000000</i>
   <i name="OMEGAMIN">    -30.00000000</i>
   <i name="OMEGATL">   -200.00000000</i>
   <i type="int" name="OMEGAGRID">     0</i>
   <i name="CSHIFT">     -0.10000000</i>
   <i type="logical" name="LSELFENERGY"> F  </i>
   <i type="logical" name="LSPECTRAL"> F  </i>
   <i type="logical" name="LSPECTRALGW"> F  </i>
   <i type="logical" name="LSINGLES"> F  </i>
   <i type="logical" name="LFERMIGW"> F  </i>
   <i type="logical" name="ODDONLYGW"> F  </i>
   <i type="logical" name="EVENONLYGW"> F  </i>
   <i type="int" name="NKREDLFX">     1</i>
   <i type="int" name="NKREDLFY">     1</i>
   <i type="int" name="NKREDLFZ">     1</i>
   <i type="int" name="MAXMEM">  2800</i>
   <i type="int" name="TELESCOPE">     0</i>
   <i type="int" name="NTAUPAR">    -1</i>
   <i type="int" name="NOMEGAPAR">    -1</i>
   <i name="DAMP_NEWTON">      0.80000001</i>
   <i name="LAMBDA">      1.00000000</i>
  </separator>
  <separator name="External order field" >
   <i name="OFIELD_KAPPA">      0.00000000</i>
   <v name="OFIELD_K">      0.00000000      0.00000000      0.00000000</v>
   <i name="OFIELD_Q6_NEAR">      0.00000000</i>
   <i name="OFIELD_Q6_FAR">      0.00000000</i>
   <i name="OFIELD_A">      0.00000000</i>
  </separator>
  <separator name="optional k-points parameters" >
   <i type="int" name="KPOINTS_OPT_MODE">     1</i>
   <i type="logical" name="LKPOINTS_OPT"> F  </i>
  </separator>
 </parameters>
 <atominfo>
  <atoms>      14 </atoms>
  <types>       1 </types>
  <array name="atoms" >
   <dimension dim="1">ion</dimension>
   <field type="string">element</field>
   <field type="int">atomtype</field>
   <set>
    <rc><c>B </c><c>   1</c></rc>
    <rc><c>B </c><c>   1</c></rc>
    <rc><c>B </c><c>   1</c></rc>
    <rc><c>B </c><c>   1</c></rc>
    <rc><c>B </c><c>   1</c></rc>
    <rc><c>B </c><c>   1</c></rc>
    <rc><c>B </c><c>   1</c></rc>
    <rc><c>B </c><c>   1</c></rc>
    <rc><c>B </c><c>   1</c></rc>
    <rc><c>B </c><c>   1</c></rc>
    <rc><c>B </c><c>   1</c></rc>
    <rc><c>B </c><c>   1</c></rc>
    <rc><c>B </c><c>   1</c></rc>
    <rc><c>B </c><c>   1</c></rc>
   </set>
  </array>
  <array name="atomtypes" >
   <dimension dim="1">type</dimension>
   <field type="int">atomspertype</field>
   <field type="string">element</field>
   <field>mass</field>
   <field>valence</field>
   <field type="string">pseudopotential</field>
   <set>
    <rc><c>  14</c><c>B </c><c>     10.81100000</c><c>      3.00000000</c><c>  PAW_PBE B 06Sep2000                   </c></rc>
   </set>
  </array>
 </atominfo>
 <structure name="initialpos" >
  <crystal>
   <varray name="basis" >
    <v>       5.69700000       0.00000000       0.00000000 </v>
    <v>       0.00000000       4.04790000       0.00000000 </v>
    <v>       0.00000000       0.00000000       6.20420000 </v>
   </varray>
   <i name="volume">    143.07435078 </i>
   <varray name="rec_basis" >
    <v>       0.17553098       0.00000000       0.00000000 </v>
    <v>       0.00000000       0.24704168       0.00000000 </v>
    <v>       0.00000000       0.00000000       0.16118114 </v>
   </varray>
  </crystal>
  <varray name="positions" >
   <v>       0.52123000       0.50000000       0.63796000 </v>
   <v>       0.47877000       0.50000000       0.36204000 </v>
   <v>       0.97877000       0.50000000       0.63796000 </v>
   <v>       0.02123000       0.50000000       0.36204000 </v>
   <v>       0.60090000       0.50000000       0.89991000 </v>
   <v>       0.39910000       0.50000000       0.10009000 </v>
   <v>       0.89910000       0.50000000       0.89991000 </v>
   <v>       0.10090000       0.50000000       0.10009000 </v>
   <v>       0.75000000       0.79171000       0.72973000 </v>
   <v>       0.25000000       0.20829000       0.27027000 </v>
   <v>       0.75000000       0.20829000       0.72973000 </v>
   <v>       0.25000000       0.79171000       0.27027000 </v>
   <v>       0.25000000       0.50000000       0.52367000 </v>
   <v>       0.75000000       0.50000000       0.47633000 </v>
  </varray>
 </structure>
 <calculation>
  <scstep>
   <time name="dav">    6.66    6.66</time>
   <time name="total">    6.69    6.69</time>
   <energy>
    <i name="alphaZ">     94.24357992 </i>
    <i name="ewald">   -795.76658092 </i>
    <i name="hartreedc">   -271.33601302 </i>
    <i name="XCdc">     97.50108042 </i>
    <i name="pawpsdc">    608.99811708 </i>
    <i name="pawaedc">   -597.02363782 </i>
    <i name="eentropy">     -0.00291628 </i>
    <i name="bandstr">    -38.92244623 </i>
    <i name="atom">    996.37803370 </i>
    <i name="e_fr_energy">     94.06921686 </i>
    <i name="e_wo_entrp">     94.07213313 </i>
    <i name="e_0_energy">     94.07067499 </i>
   </energy>
  </scstep>
  <scstep>
   <time name="dav">    8.58    8.59</time>
   <time name="total">    8.58    8.59</time>
   <energy>
    <i name="e_fr_energy">    -91.14044130 </i>
    <i name="e_wo_entrp">    -91.13593157 </i>
    <i name="e_0_energy">    -91.13818643 </i>
   </energy>
  </scstep>
  <scstep>
   <time name="dav">    9.22    9.22</time>
   <time name="total">    9.22    9.22</time>
   <energy>
    <i name="e_fr_energy">    -97.61357139 </i>
    <i name="e_wo_entrp">    -97.60990422 </i>
    <i name="e_0_energy">    -97.61173780 </i>
   </energy>
  </scstep>
  <scstep>
   <time name="dav">    7.58    7.58</time>
   <time name="total">    7.58    7.58</time>
   <energy>
    <i name="e_fr_energy">    -97.65199764 </i>
    <i name="e_wo_entrp">    -97.64834219 </i>
    <i name="e_0_energy">    -97.65016992 </i>
   </energy>
  </scstep>
  <scstep>
   <time name="dav">    9.24    9.25</time>
   <time name="total">    9.37    9.38</time>
   <energy>
    <i name="e_fr_energy">    -97.65241938 </i>
    <i name="e_wo_entrp">    -97.64876397 </i>
    <i name="e_0_energy">    -97.65059167 </i>
   </energy>
  </scstep>
  <scstep>
   <time name="dav">    9.04    9.05</time>
   <time name="total">    9.18    9.19</time>
   <energy>
    <i name="e_fr_energy">    -92.23655427 </i>
    <i name="e_wo_entrp">    -92.23312245 </i>
    <i name="e_0_energy">    -92.23483836 </i>
   </energy>
  </scstep>
  <scstep>
   <time name="dav">    9.39    9.40</time>
   <time name="total">    9.53    9.53</time>
   <energy>
    <i name="e_fr_energy">    -90.58498668 </i>
    <i name="e_wo_entrp">    -90.58185161 </i>
    <i name="e_0_energy">    -90.58341915 </i>
   </energy>
  </scstep>
  <scstep>
   <time name="dav">    7.16    7.16</time>
   <time name="total">    7.29    7.30</time>
   <energy>
    <i name="e_fr_energy">    -90.59742614 </i>
    <i name="e_wo_entrp">    -90.59424867 </i>
    <i name="e_0_energy">    -90.59583740 </i>
   </energy>
  </scstep>
  <scstep>
   <time name="dav">    8.84    8.84</time>
   <time name="total">    8.97    8.97</time>
   <energy>
    <i name="e_fr_energy">    -90.61159202 </i>
    <i name="e_wo_entrp">    -90.60832836 </i>
    <i name="e_0_energy">    -90.60996019 </i>
   </energy>
  </scstep>
  <scstep>
   <time name="dav">    7.54    7.54</time>
   <time name="total">    7.68    7.68</time>
   <energy>
    <i name="e_fr_energy">    -90.61564537 </i>
    <i name="e_wo_entrp">    -90.61242780 </i>
    <i name="e_0_energy">    -90.61403659 </i>
   </energy>
  </scstep>
  <scstep>
   <time name="dav">    8.31    8.31</time>
   <time name="total">    8.45    8.45</time>
   <energy>
    <i name="e_fr_energy">    -90.61671595 </i>
    <i name="e_wo_entrp">    -90.61350917 </i>
    <i name="e_0_energy">    -90.61511256 </i>
   </energy>
  </scstep>
  <scstep>
   <time name="dav">    7.93    7.93</time>
   <time name="total">    8.07    8.07</time>
   <energy>
    <i name="e_fr_energy">    -90.61683177 </i>
    <i name="e_wo_entrp">    -90.61361878 </i>
    <i name="e_0_energy">    -90.61522528 </i>
   </energy>
  </scstep>
  <scstep>
   <time name="dav">    9.02    9.02</time>
   <time name="total">    9.16    9.16</time>
   <energy>
    <i name="e_fr_energy">    -90.61683663 </i>
    <i name="e_wo_entrp">    -90.61362337 </i>
    <i name="e_0_energy">    -90.61523000 </i>
   </energy>
  </scstep>
  <scstep>
   <time name="dav">    7.95    7.95</time>
   <time name="total">    7.96    7.97</time>
   <energy>
    <i name="alphaZ">     94.24357992 </i>
    <i name="ewald">   -795.76658092 </i>
    <i name="hartreedc">   -349.11833925 </i>
    <i name="XCdc">    101.59765789 </i>
    <i name="pawpsdc">   3732.48176210 </i>
    <i name="pawaedc">  -3721.66792528 </i>
    <i name="eentropy">     -0.00321338 </i>
    <i name="bandstr">   -148.76181210 </i>
    <i name="atom">    996.37803370 </i>
    <i name="e_fr_energy">    -90.61683732 </i>
    <i name="e_wo_entrp">    -90.61362393 </i>
    <i name="e_0_energy">    -90.61523062 </i>
   </energy>
  </scstep>
  <structure>
   <crystal>
    <varray name="basis" >
     <v>       5.69700000       0.00000000       0.00000000 </v>
     <v>       0.00000000       4.04790000       0.00000000 </v>
     <v>       0.00000000       0.00000000       6.20420000 </v>
    </varray>
    <i name="volume">    143.07435078 </i>
    <varray name="rec_basis" >
     <v>       0.17553098       0.00000000       0.00000000 </v>
     <v>       0.00000000       0.24704168       0.00000000 </v>
     <v>       0.00000000       0.00000000       0.16118114 </v>
    </varray>
   </crystal>
   <varray name="positions" >
    <v>       0.52123000       0.50000000       0.63796000 </v>
    <v>       0.47877000       0.50000000       0.36204000 </v>
    <v>       0.97877000       0.50000000       0.63796000 </v>
    <v>       0.02123000       0.50000000       0.36204000 </v>
    <v>       0.60090000       0.50000000       0.89991000 </v>
    <v>       0.39910000       0.50000000       0.10009000 </v>
    <v>       0.89910000       0.50000000       0.89991000 </v>
    <v>       0.10090000       0.50000000       0.10009000 </v>
    <v>       0.75000000       0.79171000       0.72973000 </v>
    <v>       0.25000000       0.20829000       0.27027000 </v>
    <v>       0.75000000       0.20829000       0.72973000 </v>
    <v>       0.25000000       0.79171000       0.27027000 </v>
    <v>       0.25000000       0.50000000       0.52367000 </v>
    <v>       0.75000000       0.50000000       0.47633000 </v>
   </varray>
  </structure>
  <varray name="forces" >
   <v>      -0.00274440       0.00000000       0.05126728 </v>
   <v>       0.00274440       0.00000000      -0.05126728 </v>
   <v>       0.00274440       0.00000000       0.05126728 </v>
   <v>      -0.00274440       0.00000000      -0.05126728 </v>
   <v>      -0.83217152       0.00000000       0.27678347 </v>
   <v>       0.83217152       0.00000000      -0.27678347 </v>
   <v>       0.83217152       0.00000000       0.27678347 </v>
   <v>      -0.83217152       0.00000000      -0.27678347 </v>
   <v>       0.00000000       0.06075667      -0.07895110 </v>
   <v>       0.00000000      -0.06075667       0.07895110 </v>
   <v>       0.00000000      -0.06075667      -0.07895110 </v>
   <v>      -0.00000000       0.06075667       0.07895110 </v>
   <v>      -0.00000000       0.00000000       0.06980741 </v>
   <v>      -0.00000000       0.00000000      -0.06980741 </v>
  </varray>
  <varray name="stress" >
   <v>      14.34863445       0.00000000       0.00000000 </v>
   <v>       0.00000000       0.96733398       0.00000000 </v>
   <v>       0.00000000       0.00000000      -6.80093962 </v>
  </varray>
  <energy>
   <i name="e_fr_energy">    -90.61683732 </i>
   <i name="e_wo_entrp">    -90.61362393 </i>
   <i name="e_0_energy">    -90.61523062 </i>
  </energy>
  <time name="totalsc">  123.45  123.50</time>
  <eigenvalues>
   <array>
    <dimension dim="1">band</dimension>
    <dimension dim="2">kpoint</dimension>
    <dimension dim="3">spin</dimension>
    <field>eigene</field>
    <field>occ</field>
    <set>
     <set comment="spin 1">
      <set comment="kpoint 1">
       <r>  -12.7248    1.0000 </r>
       <r>  -11.5829    1.0000 </r>
       <r>   -8.6580    1.0000 </r>
       <r>   -8.4212    1.0000 </r>
       <r>   -6.0637    1.0000 </r>
       <r>   -5.1301    1.0000 </r>
       <r>   -4.6658    1.0000 </r>
       <r>   -4.2750    1.0000 </r>
       <r>   -4.0330    1.0000 </r>
       <r>   -3.5439    1.0000 </r>
       <r>   -2.5936    1.0000 </r>
       <r>   -2.3246    1.0000 </r>
       <r>   -1.8335    1.0000 </r>
       <r>   -1.0960    1.0000 </r>
       <r>   -0.0699    1.0000 </r>
       <r>   -0.0397    1.0000 </r>
       <r>    0.1562    1.0000 </r>
       <r>    0.1777    1.0000 </r>
       <r>    0.5656    1.0000 </r>
       <r>    2.0186    0.0001 </r>
       <r>    2.0816    0.0000 </r>
       <r>    2.2169    0.0000 </r>
       <r>    5.4576    0.0000 </r>
       <r>    5.7487    0.0000 </r>
       <r>    5.8378    0.0000 </r>
       <r>    5.9588    0.0000 </r>
       <r>    6.8141    0.0000 </r>
       <r>    7.5481    0.0000 </r>
       <r>    7.8774    0.0000 </r>
       <r>    8.5351    0.0000 </r>
       <r>    8.8018    0.0000 </r>
       <r>    8.9493    0.0000 </r>
       <r>    9.0515    0.0000 </r>
       <r>   10.1229    0.0000 </r>
       <r>   11.1838    0.0000 </r>
       <r>   11.3338    0.0000 </r>
       <r>   11.6640    0.0000 </r>
       <r>   11.7812    0.0000 </r>
       <r>   11.9405    0.0000 </r>
       <r>   12.4028    0.0000 </r>
       <r>   12.8678    0.0000 </r>
       <r>   13.4515    0.0000 </r>
       <r>   13.4788    0.0000 </r>
       <r>   15.3806    0.0000 </r>
       <r>   15.5701    0.0000 </r>
       <r>   16.0606    0.0000 </r>
       <r>   16.3321    0.0000 </r>
       <r>   16.3552    0.0000 </r>
      </set>
      <set comment="kpoint 2">
       <r>  -12.6811    1.0000 </r>
       <r>  -11.6567    1.0000 </r>
       <r>   -8.6369    1.0000 </r>
       <r>   -8.4097    1.0000 </r>
       <r>   -5.9955    1.0000 </r>
       <r>   -5.4711    1.0000 </r>
       <r>   -4.7883    1.0000 </r>
       <r>   -4.0096    1.0000 </r>
       <r>   -3.7921    1.0000 </r>
       <r>   -3.2063    1.0000 </r>
       <r>   -2.6638    1.0000 </r>
       <r>   -2.3045    1.0000 </r>
       <r>   -1.9122    1.0000 </r>
       <r>   -1.4030    1.0000 </r>
       <r>   -0.0296    1.0000 </r>
       <r>   -0.0184    1.0000 </r>
       <r>    0.0937    1.0000 </r>
       <r>    0.1981    1.0000 </r>
       <r>    0.4705    1.0000 </r>
       <r>    1.9324    0.0842 </r>
       <r>    2.0037    0.0003 </r>
       <r>    2.0957    0.0000 </r>
       <r>    5.5463    0.0000 </r>
       <r>    5.7572    0.0000 </r>
       <r>    5.8656    0.0000 </r>
       <r>    6.3044    0.0000 </r>
       <r>    6.7286    0.0000 </r>
       <r>    7.1864    0.0000 </r>
       <r>    8.0873    0.0000 </r>
       <r>    8.6714    0.0000 </r>
       <r>    9.0587    0.0000 </r>
       <r>    9.1310    0.0000 </r>
       <r>    9.2037    0.0000 </r>
       <r>   10.2357    0.0000 </r>
       <r>   10.9415    0.0000 </r>
       <r>   11.1298    0.0000 </r>
       <r>   11.2567    0.0000 </r>
       <r>   11.6984    0.0000 </r>
       <r>   12.1577    0.0000 </r>
       <r>   12.4922    0.0000 </r>
       <r>   13.1204    0.0000 </r>
       <r>   13.1271    0.0000 </r>
       <r>   14.0103    0.0000 </r>
       <r>   14.8690    0.0000 </r>
       <r>   15.7495    0.0000 </r>
       <r>   15.8285    0.0000 </r>
       <r>   16.2258    0.0000 </r>
       <r>   16.5124    0.0000 </r>
      </set>
      <set comment="kpoint 3">
       <r>  -12.5954    1.0000 </r>
       <r>  -11.7896    1.0000 </r>
       <r>   -8.5933    1.0000 </r>
       <r>   -8.3950    1.0000 </r>
       <r>   -5.9740    1.0000 </r>
       <r>   -5.7977    1.0000 </r>
       <r>   -4.7424    1.0000 </r>
       <r>   -3.8822    1.0000 </r>
       <r>   -3.2811    1.0000 </r>
       <r>   -2.8327    1.0000 </r>
       <r>   -2.7140    1.0000 </r>
       <r>   -2.2640    1.0000 </r>
       <r>   -2.0229    1.0000 </r>
       <r>   -1.9072    1.0000 </r>
       <r>   -0.2193    1.0000 </r>
       <r>    0.0139    1.0000 </r>
       <r>    0.1436    1.0000 </r>
       <r>    0.1570    1.0000 </r>
       <r>    0.4403    1.0000 </r>
       <r>    1.7847    0.9974 </r>
       <r>    1.8660    0.6916 </r>
       <r>    1.8710    0.6406 </r>
       <r>    5.6672    0.0000 </r>
       <r>    5.7137    0.0000 </r>
       <r>    6.1746    0.0000 </r>
       <r>    6.6025    0.0000 </r>
       <r>    6.7630    0.0000 </r>
       <r>    6.9317    0.0000 </r>
       <r>    8.2382    0.0000 </r>
       <r>    8.8198    0.0000 </r>
       <r>    9.0000    0.0000 </r>
       <r>    9.5750    0.0000 </r>
       <r>    9.6477    0.0000 </r>
       <r>   10.2802    0.0000 </r>
       <r>   10.4855    0.0000 </r>
       <r>   10.6253    0.0000 </r>
       <r>   11.3770    0.0000 </r>
       <r>   11.8405    0.0000 </r>
       <r>   12.3926    0.0000 </r>
       <r>   12.5653    0.0000 </r>
       <r>   12.7926    0.0000 </r>
       <r>   12.9177    0.0000 </r>
       <r>   14.6360    0.0000 </r>
       <r>   14.9176    0.0000 </r>
       <r>   15.2253    0.0000 </r>
       <r>   15.9824    0.0000 </r>
       <r>   16.0015    0.0000 </r>
       <r>   16.2902    0.0000 </r>
      </set>
      <set comment="kpoint 4">
       <r>  -12.4719    1.0000 </r>
       <r>  -11.9590    1.0000 </r>
       <r>   -8.5315    1.0000 </r>
       <r>   -8.3918    1.0000 </r>
       <r>   -6.0547    1.0000 </r>
       <r>   -6.0308    1.0000 </r>
       <r>   -4.4150    1.0000 </r>
       <r>   -3.7132    1.0000 </r>
       <r>   -3.0268    1.0000 </r>
       <r>   -2.8966    1.0000 </r>
       <r>   -2.4440    1.0000 </r>
       <r>   -2.2527    1.0000 </r>
       <r>   -2.1456    1.0000 </r>
       <r>   -2.1240    1.0000 </r>
       <r>   -0.5183    1.0000 </r>
       <r>   -0.2452    1.0000 </r>
       <r>    0.1727    1.0000 </r>
       <r>    0.2481    1.0000 </r>
       <r>    0.6135    1.0000 </r>
       <r>    1.5302    1.0000 </r>
       <r>    1.6620    1.0000 </r>
       <r>    1.7227    1.0000 </r>
       <r>    5.6985    0.0000 </r>
       <r>    5.7525    0.0000 </r>
       <r>    6.5012    0.0000 </r>
       <r>    6.6728    0.0000 </r>
       <r>    6.6986    0.0000 </r>
       <r>    7.4127    0.0000 </r>
       <r>    8.3627    0.0000 </r>
       <r>    8.6886    0.0000 </r>
       <r>    8.8091    0.0000 </r>
       <r>    9.5345    0.0000 </r>
       <r>   10.0557    0.0000 </r>
       <r>   10.1181    0.0000 </r>
       <r>   10.3981    0.0000 </r>
       <r>   11.1487    0.0000 </r>
       <r>   11.4043    0.0000 </r>
       <r>   11.9455    0.0000 </r>
       <r>   12.2040    0.0000 </r>
       <r>   12.2751    0.0000 </r>
       <r>   12.5210    0.0000 </r>
       <r>   13.2570    0.0000 </r>
       <r>   14.7129    0.0000 </r>
       <r>   14.9765    0.0000 </r>
       <r>   15.2629    0.0000 </r>
       <r>   15.3743    0.0000 </r>
       <r>   15.5725    0.0000 </r>
       <r>   16.3768    0.0000 </r>
      </set>
      <set comment="kpoint 5">
       <r>  -12.3172    1.0000 </r>
       <r>  -12.1413    1.0000 </r>
       <r>   -8.4654    1.0000 </r>
       <r>   -8.4144    1.0000 </r>
       <r>   -6.1444    1.0000 </r>
       <r>   -6.1400    1.0000 </r>
       <r>   -3.8996    1.0000 </r>
       <r>   -3.5039    1.0000 </r>
       <r>   -3.3003    1.0000 </r>
       <r>   -3.2658    1.0000 </r>
       <r>   -2.3616    1.0000 </r>
       <r>   -2.2331    1.0000 </r>
       <r>   -1.9614    1.0000 </r>
       <r>   -1.9084    1.0000 </r>
       <r>   -0.7388    1.0000 </r>
       <r>   -0.6034    1.0000 </r>
       <r>    0.2559    1.0000 </r>
       <r>    0.2895    1.0000 </r>
       <r>    0.8742    1.0000 </r>
       <r>    1.1915    1.0000 </r>
       <r>    1.5814    1.0000 </r>
       <r>    1.6088    1.0000 </r>
       <r>    5.7265    0.0000 </r>
       <r>    5.7638    0.0000 </r>
       <r>    6.4798    0.0000 </r>
       <r>    6.5437    0.0000 </r>
       <r>    7.3678    0.0000 </r>
       <r>    8.0737    0.0000 </r>
       <r>    8.0953    0.0000 </r>
       <r>    8.4805    0.0000 </r>
       <r>    8.6192    0.0000 </r>
       <r>    8.7893    0.0000 </r>
       <r>   10.5011    0.0000 </r>
       <r>   10.5175    0.0000 </r>
       <r>   10.7608    0.0000 </r>
       <r>   11.2189    0.0000 </r>
       <r>   11.4034    0.0000 </r>
       <r>   11.5996    0.0000 </r>
       <r>   11.9332    0.0000 </r>
       <r>   12.4823    0.0000 </r>
       <r>   12.7164    0.0000 </r>
       <r>   13.2524    0.0000 </r>
       <r>   14.5905    0.0000 </r>
       <r>   14.7347    0.0000 </r>
       <r>   14.8691    0.0000 </r>
       <r>   14.9279    0.0000 </r>
       <r>   16.1015    0.0000 </r>
       <r>   16.4461    0.0000 </r>
      </set>
      <set comment="kpoint 6">
       <r>  -12.7008    1.0000 </r>
       <r>  -11.5613    1.0000 </r>
       <r>   -8.6392    1.0000 </r>
       <r>   -8.3981    1.0000 </r>
       <r>   -6.0370    1.0000 </r>
       <r>   -5.0963    1.0000 </r>
       <r>   -4.6437    1.0000 </r>
       <r>   -4.5731    1.0000 </r>
       <r>   -4.1770    1.0000 </r>
       <r>   -3.5210    1.0000 </r>
       <r>   -3.2869    1.0000 </r>
       <r>   -1.7937    1.0000 </r>
       <r>   -1.0915    1.0000 </r>
       <r>   -1.0348    1.0000 </r>
       <r>   -0.3037    1.0000 </r>
       <r>   -0.2757    1.0000 </r>
       <r>    0.1696    1.0000 </r>
       <r>    0.2480    1.0000 </r>
       <r>    0.6439    1.0000 </r>
       <r>    1.7508    0.9999 </r>
       <r>    1.8307    0.9329 </r>
       <r>    2.2691    0.0000 </r>
       <r>    5.5759    0.0000 </r>
       <r>    5.7075    0.0000 </r>
       <r>    5.7413    0.0000 </r>
       <r>    6.0066    0.0000 </r>
       <r>    7.1001    0.0000 </r>
       <r>    7.8337    0.0000 </r>
       <r>    8.0768    0.0000 </r>
       <r>    8.1875    0.0000 </r>
       <r>    8.8060    0.0000 </r>
       <r>    9.0988    0.0000 </r>
       <r>    9.1499    0.0000 </r>
       <r>   10.5751    0.0000 </r>
       <r>   11.2653    0.0000 </r>
       <r>   11.3988    0.0000 </r>
       <r>   11.5980    0.0000 </r>
       <r>   11.8840    0.0000 </r>
       <r>   12.0511    0.0000 </r>
       <r>   12.6830    0.0000 </r>
       <r>   12.8680    0.0000 </r>
       <r>   13.1883    0.0000 </r>
       <r>   13.1944    0.0000 </r>
       <r>   15.3304    0.0000 </r>
       <r>   15.3800    0.0000 </r>
       <r>   15.8573    0.0000 </r>
       <r>   15.8681    0.0000 </r>
       <r>   16.2194    0.0000 </r>
      </set>
      <set comment="kpoint 7">
       <r>  -12.6571    1.0000 </r>
       <r>  -11.6350    1.0000 </r>
       <r>   -8.6180    1.0000 </r>
       <r>   -8.3870    1.0000 </r>
       <r>   -5.9670    1.0000 </r>
       <r>   -5.4410    1.0000 </r>
       <r>   -4.7683    1.0000 </r>
       <r>   -4.4903    1.0000 </r>
       <r>   -3.7527    1.0000 </r>
       <r>   -3.3676    1.0000 </r>
       <r>   -3.1682    1.0000 </r>
       <r>   -1.7720    1.0000 </r>
       <r>   -1.3975    1.0000 </r>
       <r>   -1.1540    1.0000 </r>
       <r>   -0.2647    1.0000 </r>
       <r>   -0.1950    1.0000 </r>
       <r>    0.1372    1.0000 </r>
       <r>    0.2195    1.0000 </r>
       <r>    0.5412    1.0000 </r>
       <r>    1.6703    1.0000 </r>
       <r>    1.7543    0.9999 </r>
       <r>    2.1383    0.0000 </r>
       <r>    5.6517    0.0000 </r>
       <r>    5.8062    0.0000 </r>
       <r>    5.9348    0.0000 </r>
       <r>    6.1113    0.0000 </r>
       <r>    7.0166    0.0000 </r>
       <r>    7.5085    0.0000 </r>
       <r>    8.2227    0.0000 </r>
       <r>    8.3581    0.0000 </r>
       <r>    9.1298    0.0000 </r>
       <r>    9.1602    0.0000 </r>
       <r>    9.4157    0.0000 </r>
       <r>   10.5001    0.0000 </r>
       <r>   10.8727    0.0000 </r>
       <r>   11.0825    0.0000 </r>
       <r>   11.4534    0.0000 </r>
       <r>   11.8712    0.0000 </r>
       <r>   12.2708    0.0000 </r>
       <r>   12.7380    0.0000 </r>
       <r>   12.8662    0.0000 </r>
       <r>   13.1511    0.0000 </r>
       <r>   13.7276    0.0000 </r>
       <r>   14.9541    0.0000 </r>
       <r>   15.3976    0.0000 </r>
       <r>   15.7494    0.0000 </r>
       <r>   15.7951    0.0000 </r>
       <r>   16.3996    0.0000 </r>
      </set>
      <set comment="kpoint 8">
       <r>  -12.5717    1.0000 </r>
       <r>  -11.7676    1.0000 </r>
       <r>   -8.5742    1.0000 </r>
       <r>   -8.3730    1.0000 </r>
       <r>   -5.9426    1.0000 </r>
       <r>   -5.7673    1.0000 </r>
       <r>   -4.7258    1.0000 </r>
       <r>   -4.3817    1.0000 </r>
       <r>   -3.4897    1.0000 </r>
       <r>   -3.2268    1.0000 </r>
       <r>   -2.7017    1.0000 </r>
       <r>   -1.9027    1.0000 </r>
       <r>   -1.7277    1.0000 </r>
       <r>   -1.3172    1.0000 </r>
       <r>   -0.2216    1.0000 </r>
       <r>   -0.2176    1.0000 </r>
       <r>    0.0525    1.0000 </r>
       <r>    0.2066    1.0000 </r>
       <r>    0.4649    1.0000 </r>
       <r>    1.5353    1.0000 </r>
       <r>    1.6242    1.0000 </r>
       <r>    1.8900    0.4296 </r>
       <r>    5.8553    0.0000 </r>
       <r>    5.9338    0.0000 </r>
       <r>    6.0115    0.0000 </r>
       <r>    6.5601    0.0000 </r>
       <r>    6.8959    0.0000 </r>
       <r>    7.2806    0.0000 </r>
       <r>    8.4288    0.0000 </r>
       <r>    8.4913    0.0000 </r>
       <r>    9.1002    0.0000 </r>
       <r>    9.6128    0.0000 </r>
       <r>    9.8734    0.0000 </r>
       <r>   10.1241    0.0000 </r>
       <r>   10.3526    0.0000 </r>
       <r>   10.8228    0.0000 </r>
       <r>   11.5191    0.0000 </r>
       <r>   12.1057    0.0000 </r>
       <r>   12.3077    0.0000 </r>
       <r>   12.5546    0.0000 </r>
       <r>   12.9573    0.0000 </r>
       <r>   13.0227    0.0000 </r>
       <r>   14.3047    0.0000 </r>
       <r>   15.0855    0.0000 </r>
       <r>   15.1613    0.0000 </r>
       <r>   15.6449    0.0000 </r>
       <r>   15.7082    0.0000 </r>
       <r>   16.4199    0.0000 </r>
      </set>
      <set comment="kpoint 9">
       <r>  -12.4485    1.0000 </r>
       <r>  -11.9366    1.0000 </r>
       <r>   -8.5121    1.0000 </r>
       <r>   -8.3707    1.0000 </r>
       <r>   -6.0222    1.0000 </r>
       <r>   -5.9995    1.0000 </r>
       <r>   -4.4005    1.0000 </r>
       <r>   -4.2345    1.0000 </r>
       <r>   -3.6614    1.0000 </r>
       <r>   -2.8471    1.0000 </r>
       <r>   -2.3623    1.0000 </r>
       <r>   -2.2185    1.0000 </r>
       <r>   -1.6634    1.0000 </r>
       <r>   -1.4805    1.0000 </r>
       <r>   -0.4798    1.0000 </r>
       <r>   -0.3082    1.0000 </r>
       <r>    0.0845    1.0000 </r>
       <r>    0.1144    1.0000 </r>
       <r>    0.6242    1.0000 </r>
       <r>    1.3957    1.0000 </r>
       <r>    1.4788    1.0000 </r>
       <r>    1.5659    1.0000 </r>
       <r>    5.8734    0.0000 </r>
       <r>    6.0073    0.0000 </r>
       <r>    6.5167    0.0000 </r>
       <r>    6.8063    0.0000 </r>
       <r>    6.8792    0.0000 </r>
       <r>    7.3715    0.0000 </r>
       <r>    8.4174    0.0000 </r>
       <r>    8.5992    0.0000 </r>
       <r>    8.9390    0.0000 </r>
       <r>    9.3700    0.0000 </r>
       <r>   10.0717    0.0000 </r>
       <r>   10.0982    0.0000 </r>
       <r>   10.4409    0.0000 </r>
       <r>   11.2258    0.0000 </r>
       <r>   11.3634    0.0000 </r>
       <r>   11.8409    0.0000 </r>
       <r>   12.2925    0.0000 </r>
       <r>   12.5451    0.0000 </r>
       <r>   12.7210    0.0000 </r>
       <r>   13.4594    0.0000 </r>
       <r>   14.7651    0.0000 </r>
       <r>   14.7726    0.0000 </r>
       <r>   15.1533    0.0000 </r>
       <r>   15.3071    0.0000 </r>
       <r>   15.6513    0.0000 </r>
       <r>   16.3899    0.0000 </r>
      </set>
      <set comment="kpoint 10">
       <r>  -12.2941    1.0000 </r>
       <r>  -12.1186    1.0000 </r>
       <r>   -8.4457    1.0000 </r>
       <r>   -8.3941    1.0000 </r>
       <r>   -6.1123    1.0000 </r>
       <r>   -6.1074    1.0000 </r>
       <r>   -4.0554    1.0000 </r>
       <r>   -3.8923    1.0000 </r>
       <r>   -3.8512    1.0000 </r>
       <r>   -3.2874    1.0000 </r>
       <r>   -2.1083    1.0000 </r>
       <r>   -1.9144    1.0000 </r>
       <r>   -1.5953    1.0000 </r>
       <r>   -1.5926    1.0000 </r>
       <r>   -0.7006    1.0000 </r>
       <r>   -0.5996    1.0000 </r>
       <r>    0.1175    1.0000 </r>
       <r>    0.1487    1.0000 </r>
       <r>    0.8835    1.0000 </r>
       <r>    1.1979    1.0000 </r>
       <r>    1.3421    1.0000 </r>
       <r>    1.3663    1.0000 </r>
       <r>    5.9245    0.0000 </r>
       <r>    5.9902    0.0000 </r>
       <r>    6.7953    0.0000 </r>
       <r>    6.8458    0.0000 </r>
       <r>    7.1844    0.0000 </r>
       <r>    7.8969    0.0000 </r>
       <r>    7.9420    0.0000 </r>
       <r>    8.6246    0.0000 </r>
       <r>    8.6919    0.0000 </r>
       <r>    8.8048    0.0000 </r>
       <r>   10.3198    0.0000 </r>
       <r>   10.5681    0.0000 </r>
       <r>   10.8048    0.0000 </r>
       <r>   10.9092    0.0000 </r>
       <r>   11.5505    0.0000 </r>
       <r>   11.6588    0.0000 </r>
       <r>   12.0124    0.0000 </r>
       <r>   12.6515    0.0000 </r>
       <r>   13.0249    0.0000 </r>
       <r>   13.4838    0.0000 </r>
       <r>   14.5482    0.0000 </r>
       <r>   14.7329    0.0000 </r>
       <r>   14.8299    0.0000 </r>
       <r>   15.0475    0.0000 </r>
       <r>   16.1258    0.0000 </r>
       <r>   16.4203    0.0000 </r>
      </set>
      <set comment="kpoint 11">
       <r>  -12.6564    1.0000 </r>
       <r>  -11.5216    1.0000 </r>
       <r>   -8.6048    1.0000 </r>
       <r>   -8.3554    1.0000 </r>
       <r>   -5.9875    1.0000 </r>
       <r>   -5.1301    1.0000 </r>
       <r>   -5.0054    1.0000 </r>
       <r>   -4.6019    1.0000 </r>
       <r>   -4.1608    1.0000 </r>
       <r>   -3.9090    1.0000 </r>
       <r>   -3.4678    1.0000 </r>
       <r>   -1.2047    1.0000 </r>
       <r>   -1.0821    1.0000 </r>
       <r>   -0.6478    1.0000 </r>
       <r>   -0.5418    1.0000 </r>
       <r>   -0.1763    1.0000 </r>
       <r>    0.1908    1.0000 </r>
       <r>    0.3009    1.0000 </r>
       <r>    0.7224    1.0000 </r>
       <r>    1.3680    1.0000 </r>
       <r>    1.4316    1.0000 </r>
       <r>    2.3072    0.0000 </r>
       <r>    5.2866    0.0000 </r>
       <r>    5.4522    0.0000 </r>
       <r>    6.1225    0.0000 </r>
       <r>    6.1950    0.0000 </r>
       <r>    7.5356    0.0000 </r>
       <r>    7.6246    0.0000 </r>
       <r>    8.3163    0.0000 </r>
       <r>    8.7257    0.0000 </r>
       <r>    8.8818    0.0000 </r>
       <r>    9.2406    0.0000 </r>
       <r>    9.3705    0.0000 </r>
       <r>   10.8803    0.0000 </r>
       <r>   11.3171    0.0000 </r>
       <r>   11.5711    0.0000 </r>
       <r>   11.7000    0.0000 </r>
       <r>   12.0846    0.0000 </r>
       <r>   12.2673    0.0000 </r>
       <r>   12.7448    0.0000 </r>
       <r>   12.7582    0.0000 </r>
       <r>   13.0049    0.0000 </r>
       <r>   13.2231    0.0000 </r>
       <r>   14.6744    0.0000 </r>
       <r>   15.1596    0.0000 </r>
       <r>   15.3415    0.0000 </r>
       <r>   15.4291    0.0000 </r>
       <r>   15.9601    0.0000 </r>
      </set>
      <set comment="kpoint 12">
       <r>  -12.6130    1.0000 </r>
       <r>  -11.5949    1.0000 </r>
       <r>   -8.5833    1.0000 </r>
       <r>   -8.3450    1.0000 </r>
       <r>   -5.9141    1.0000 </r>
       <r>   -5.3929    1.0000 </r>
       <r>   -5.0313    1.0000 </r>
       <r>   -4.7306    1.0000 </r>
       <r>   -3.9752    1.0000 </r>
       <r>   -3.7106    1.0000 </r>
       <r>   -3.1288    1.0000 </r>
       <r>   -1.3893    1.0000 </r>
       <r>   -1.1783    1.0000 </r>
       <r>   -0.7549    1.0000 </r>
       <r>   -0.5038    1.0000 </r>
       <r>   -0.0952    1.0000 </r>
       <r>    0.1714    1.0000 </r>
       <r>    0.2446    1.0000 </r>
       <r>    0.6100    1.0000 </r>
       <r>    1.2889    1.0000 </r>
       <r>    1.3619    1.0000 </r>
       <r>    2.1714    0.0000 </r>
       <r>    5.3668    0.0000 </r>
       <r>    5.7982    0.0000 </r>
       <r>    6.1410    0.0000 </r>
       <r>    6.2370    0.0000 </r>
       <r>    7.4548    0.0000 </r>
       <r>    7.7811    0.0000 </r>
       <r>    8.0486    0.0000 </r>
       <r>    8.8166    0.0000 </r>
       <r>    9.2523    0.0000 </r>
       <r>    9.2855    0.0000 </r>
       <r>    9.6552    0.0000 </r>
       <r>   10.5157    0.0000 </r>
       <r>   10.7781    0.0000 </r>
       <r>   11.2750    0.0000 </r>
       <r>   11.7179    0.0000 </r>
       <r>   12.1969    0.0000 </r>
       <r>   12.4296    0.0000 </r>
       <r>   12.4995    0.0000 </r>
       <r>   13.1610    0.0000 </r>
       <r>   13.2716    0.0000 </r>
       <r>   13.4359    0.0000 </r>
       <r>   14.6845    0.0000 </r>
       <r>   14.8211    0.0000 </r>
       <r>   15.2824    0.0000 </r>
       <r>   15.4929    0.0000 </r>
       <r>   15.9862    0.0000 </r>
      </set>
      <set comment="kpoint 13">
       <r>  -12.5279    1.0000 </r>
       <r>  -11.7271    1.0000 </r>
       <r>   -8.5391    1.0000 </r>
       <r>   -8.3323    1.0000 </r>
       <r>   -5.8843    1.0000 </r>
       <r>   -5.7125    1.0000 </r>
       <r>   -4.9397    1.0000 </r>
       <r>   -4.6947    1.0000 </r>
       <r>   -4.0989    1.0000 </r>
       <r>   -3.1765    1.0000 </r>
       <r>   -2.6578    1.0000 </r>
       <r>   -1.8863    1.0000 </r>
       <r>   -1.1376    1.0000 </r>
       <r>   -0.8937    1.0000 </r>
       <r>   -0.4508    1.0000 </r>
       <r>   -0.0861    1.0000 </r>
       <r>    0.0134    1.0000 </r>
       <r>    0.2565    1.0000 </r>
       <r>    0.4949    1.0000 </r>
       <r>    1.1574    1.0000 </r>
       <r>    1.2436    1.0000 </r>
       <r>    1.9148    0.1897 </r>
       <r>    5.6881    0.0000 </r>
       <r>    6.0961    0.0000 </r>
       <r>    6.2745    0.0000 </r>
       <r>    6.3668    0.0000 </r>
       <r>    7.3524    0.0000 </r>
       <r>    7.8593    0.0000 </r>
       <r>    8.0150    0.0000 </r>
       <r>    8.9452    0.0000 </r>
       <r>    9.2460    0.0000 </r>
       <r>    9.7186    0.0000 </r>
       <r>    9.8507    0.0000 </r>
       <r>   10.1372    0.0000 </r>
       <r>   10.2531    0.0000 </r>
       <r>   11.0617    0.0000 </r>
       <r>   11.5858    0.0000 </r>
       <r>   12.1039    0.0000 </r>
       <r>   12.5082    0.0000 </r>
       <r>   12.8003    0.0000 </r>
       <r>   13.0433    0.0000 </r>
       <r>   13.4455    0.0000 </r>
       <r>   13.9584    0.0000 </r>
       <r>   14.5932    0.0000 </r>
       <r>   14.8708    0.0000 </r>
       <r>   15.3026    0.0000 </r>
       <r>   15.5120    0.0000 </r>
       <r>   16.1969    0.0000 </r>
      </set>
      <set comment="kpoint 14">
       <r>  -12.4052    1.0000 </r>
       <r>  -11.8954    1.0000 </r>
       <r>   -8.4766    1.0000 </r>
       <r>   -8.3317    1.0000 </r>
       <r>   -5.9616    1.0000 </r>
       <r>   -5.9418    1.0000 </r>
       <r>   -4.8037    1.0000 </r>
       <r>   -4.3737    1.0000 </r>
       <r>   -4.2636    1.0000 </r>
       <r>   -2.8084    1.0000 </r>
       <r>   -2.3213    1.0000 </r>
       <r>   -2.1774    1.0000 </r>
       <r>   -1.0810    1.0000 </r>
       <r>   -1.0305    1.0000 </r>
       <r>   -0.4561    1.0000 </r>
       <r>   -0.3721    1.0000 </r>
       <r>    0.0573    1.0000 </r>
       <r>    0.0612    1.0000 </r>
       <r>    0.6418    1.0000 </r>
       <r>    1.0278    1.0000 </r>
       <r>    1.1109    1.0000 </r>
       <r>    1.5798    1.0000 </r>
       <r>    6.1073    0.0000 </r>
       <r>    6.2233    0.0000 </r>
       <r>    6.3984    0.0000 </r>
       <r>    6.8016    0.0000 </r>
       <r>    7.2965    0.0000 </r>
       <r>    7.7805    0.0000 </r>
       <r>    8.0699    0.0000 </r>
       <r>    9.0448    0.0000 </r>
       <r>    9.1031    0.0000 </r>
       <r>    9.1756    0.0000 </r>
       <r>    9.8872    0.0000 </r>
       <r>   10.1861    0.0000 </r>
       <r>   10.7006    0.0000 </r>
       <r>   11.0771    0.0000 </r>
       <r>   11.3249    0.0000 </r>
       <r>   11.9500    0.0000 </r>
       <r>   12.3550    0.0000 </r>
       <r>   12.9847    0.0000 </r>
       <r>   13.0358    0.0000 </r>
       <r>   13.7896    0.0000 </r>
       <r>   14.3796    0.0000 </r>
       <r>   14.3955    0.0000 </r>
       <r>   15.0294    0.0000 </r>
       <r>   15.1227    0.0000 </r>
       <r>   15.6132    0.0000 </r>
       <r>   16.3742    0.0000 </r>
      </set>
      <set comment="kpoint 15">
       <r>  -12.2514    1.0000 </r>
       <r>  -12.0767    1.0000 </r>
       <r>   -8.4095    1.0000 </r>
       <r>   -8.3568    1.0000 </r>
       <r>   -6.0527    1.0000 </r>
       <r>   -6.0468    1.0000 </r>
       <r>   -4.6358    1.0000 </r>
       <r>   -4.4500    1.0000 </r>
       <r>   -3.8611    1.0000 </r>
       <r>   -3.2648    1.0000 </r>
       <r>   -2.0394    1.0000 </r>
       <r>   -1.8738    1.0000 </r>
       <r>   -1.1022    1.0000 </r>
       <r>   -1.0405    1.0000 </r>
       <r>   -0.6296    1.0000 </r>
       <r>   -0.6229    1.0000 </r>
       <r>    0.0077    1.0000 </r>
       <r>    0.0512    1.0000 </r>
       <r>    0.8992    1.0000 </r>
       <r>    0.9655    1.0000 </r>
       <r>    1.0063    1.0000 </r>
       <r>    1.2264    1.0000 </r>
       <r>    6.1990    0.0000 </r>
       <r>    6.3171    0.0000 </r>
       <r>    6.8762    0.0000 </r>
       <r>    7.2158    0.0000 </r>
       <r>    7.2744    0.0000 </r>
       <r>    7.6207    0.0000 </r>
       <r>    7.9276    0.0000 </r>
       <r>    8.4390    0.0000 </r>
       <r>    9.1008    0.0000 </r>
       <r>    9.1330    0.0000 </r>
       <r>   10.0110    0.0000 </r>
       <r>   10.4831    0.0000 </r>
       <r>   10.7071    0.0000 </r>
       <r>   10.9775    0.0000 </r>
       <r>   11.7308    0.0000 </r>
       <r>   11.7490    0.0000 </r>
       <r>   12.1334    0.0000 </r>
       <r>   12.9090    0.0000 </r>
       <r>   13.4148    0.0000 </r>
       <r>   13.7622    0.0000 </r>
       <r>   14.2272    0.0000 </r>
       <r>   14.3819    0.0000 </r>
       <r>   14.9922    0.0000 </r>
       <r>   15.1322    0.0000 </r>
       <r>   15.9896    0.0000 </r>
       <r>   16.2935    0.0000 </r>
      </set>
      <set comment="kpoint 16">
       <r>  -12.5990    1.0000 </r>
       <r>  -11.4702    1.0000 </r>
       <r>   -8.5609    1.0000 </r>
       <r>   -8.3002    1.0000 </r>
       <r>   -5.9232    1.0000 </r>
       <r>   -5.6110    1.0000 </r>
       <r>   -4.9352    1.0000 </r>
       <r>   -4.5456    1.0000 </r>
       <r>   -4.4292    1.0000 </r>
       <r>   -4.1215    1.0000 </r>
       <r>   -3.4057    1.0000 </r>
       <r>   -1.2203    1.0000 </r>
       <r>   -1.0679    1.0000 </r>
       <r>   -1.0024    1.0000 </r>
       <r>   -0.1945    1.0000 </r>
       <r>    0.2191    1.0000 </r>
       <r>    0.3443    1.0000 </r>
       <r>    0.5945    1.0000 </r>
       <r>    0.7861    1.0000 </r>
       <r>    0.9828    1.0000 </r>
       <r>    0.9970    1.0000 </r>
       <r>    2.3415    0.0000 </r>
       <r>    4.9430    0.0000 </r>
       <r>    5.1586    0.0000 </r>
       <r>    6.3554    0.0000 </r>
       <r>    6.5849    0.0000 </r>
       <r>    7.2661    0.0000 </r>
       <r>    7.9667    0.0000 </r>
       <r>    8.7001    0.0000 </r>
       <r>    9.0574    0.0000 </r>
       <r>    9.4635    0.0000 </r>
       <r>    9.5783    0.0000 </r>
       <r>    9.6517    0.0000 </r>
       <r>   10.7417    0.0000 </r>
       <r>   11.2676    0.0000 </r>
       <r>   11.9647    0.0000 </r>
       <r>   12.0163    0.0000 </r>
       <r>   12.2935    0.0000 </r>
       <r>   12.4220    0.0000 </r>
       <r>   12.4465    0.0000 </r>
       <r>   12.5635    0.0000 </r>
       <r>   12.9903    0.0000 </r>
       <r>   13.7920    0.0000 </r>
       <r>   13.8787    0.0000 </r>
       <r>   14.4163    0.0000 </r>
       <r>   15.1011    0.0000 </r>
       <r>   15.4016    0.0000 </r>
       <r>   15.8585    0.0000 </r>
      </set>
      <set comment="kpoint 17">
       <r>  -12.5557    1.0000 </r>
       <r>  -11.5432    1.0000 </r>
       <r>   -8.5389    1.0000 </r>
       <r>   -8.2907    1.0000 </r>
       <r>   -5.8452    1.0000 </r>
       <r>   -5.5763    1.0000 </r>
       <r>   -5.2724    1.0000 </r>
       <r>   -4.6806    1.0000 </r>
       <r>   -4.4948    1.0000 </r>
       <r>   -3.6567    1.0000 </r>
       <r>   -3.0671    1.0000 </r>
       <r>   -1.3832    1.0000 </r>
       <r>   -1.1628    1.0000 </r>
       <r>   -1.0172    1.0000 </r>
       <r>   -0.1959    1.0000 </r>
       <r>    0.2042    1.0000 </r>
       <r>    0.2763    1.0000 </r>
       <r>    0.5739    1.0000 </r>
       <r>    0.6648    1.0000 </r>
       <r>    0.9175    1.0000 </r>
       <r>    0.9555    1.0000 </r>
       <r>    2.2036    0.0000 </r>
       <r>    5.0390    0.0000 </r>
       <r>    5.4902    0.0000 </r>
       <r>    6.3016    0.0000 </r>
       <r>    6.7166    0.0000 </r>
       <r>    7.4016    0.0000 </r>
       <r>    7.9242    0.0000 </r>
       <r>    8.6330    0.0000 </r>
       <r>    9.1736    0.0000 </r>
       <r>    9.4273    0.0000 </r>
       <r>    9.7884    0.0000 </r>
       <r>    9.8958    0.0000 </r>
       <r>   10.3340    0.0000 </r>
       <r>   10.7054    0.0000 </r>
       <r>   11.7042    0.0000 </r>
       <r>   11.8841    0.0000 </r>
       <r>   12.2437    0.0000 </r>
       <r>   12.4771    0.0000 </r>
       <r>   12.6408    0.0000 </r>
       <r>   12.9594    0.0000 </r>
       <r>   13.3899    0.0000 </r>
       <r>   13.7898    0.0000 </r>
       <r>   13.9226    0.0000 </r>
       <r>   14.2530    0.0000 </r>
       <r>   15.0760    0.0000 </r>
       <r>   15.4306    0.0000 </r>
       <r>   15.7295    0.0000 </r>
      </set>
      <set comment="kpoint 18">
       <r>  -12.4711    1.0000 </r>
       <r>  -11.6747    1.0000 </r>
       <r>   -8.4942    1.0000 </r>
       <r>   -8.2799    1.0000 </r>
       <r>   -5.8079    1.0000 </r>
       <r>   -5.6605    1.0000 </r>
       <r>   -5.4207    1.0000 </r>
       <r>   -4.6548    1.0000 </r>
       <r>   -4.6172    1.0000 </r>
       <r>   -3.1172    1.0000 </r>
       <r>   -2.5974    1.0000 </r>
       <r>   -1.8673    1.0000 </r>
       <r>   -1.1021    1.0000 </r>
       <r>   -1.0359    1.0000 </r>
       <r>   -0.2143    1.0000 </r>
       <r>   -0.0501    1.0000 </r>
       <r>    0.3145    1.0000 </r>
       <r>    0.5060    1.0000 </r>
       <r>    0.5223    1.0000 </r>
       <r>    0.8290    1.0000 </r>
       <r>    0.8885    1.0000 </r>
       <r>    1.9433    0.0458 </r>
       <r>    5.3647    0.0000 </r>
       <r>    5.9650    0.0000 </r>
       <r>    6.2743    0.0000 </r>
       <r>    6.8295    0.0000 </r>
       <r>    7.5691    0.0000 </r>
       <r>    7.9444    0.0000 </r>
       <r>    8.5585    0.0000 </r>
       <r>    9.3627    0.0000 </r>
       <r>    9.3932    0.0000 </r>
       <r>    9.5905    0.0000 </r>
       <r>   10.0418    0.0000 </r>
       <r>   10.1107    0.0000 </r>
       <r>   10.5585    0.0000 </r>
       <r>   11.3858    0.0000 </r>
       <r>   11.3962    0.0000 </r>
       <r>   12.2371    0.0000 </r>
       <r>   12.7392    0.0000 </r>
       <r>   12.9548    0.0000 </r>
       <r>   13.1784    0.0000 </r>
       <r>   13.5204    0.0000 </r>
       <r>   13.7634    0.0000 </r>
       <r>   14.0149    0.0000 </r>
       <r>   14.3886    0.0000 </r>
       <r>   15.1674    0.0000 </r>
       <r>   15.3568    0.0000 </r>
       <r>   15.9907    0.0000 </r>
      </set>
      <set comment="kpoint 19">
       <r>  -12.3491    1.0000 </r>
       <r>  -11.8421    1.0000 </r>
       <r>   -8.4310    1.0000 </r>
       <r>   -8.2816    1.0000 </r>
       <r>   -5.8819    1.0000 </r>
       <r>   -5.8692    1.0000 </r>
       <r>   -5.3076    1.0000 </r>
       <r>   -4.7816    1.0000 </r>
       <r>   -4.3380    1.0000 </r>
       <r>   -2.7636    1.0000 </r>
       <r>   -2.2788    1.0000 </r>
       <r>   -2.1217    1.0000 </r>
       <r>   -1.0440    1.0000 </r>
       <r>   -1.0174    1.0000 </r>
       <r>   -0.3742    1.0000 </r>
       <r>   -0.3295    1.0000 </r>
       <r>    0.1514    1.0000 </r>
       <r>    0.3753    1.0000 </r>
       <r>    0.6617    1.0000 </r>
       <r>    0.7731    1.0000 </r>
       <r>    0.8223    1.0000 </r>
       <r>    1.6045    1.0000 </r>
       <r>    5.8921    0.0000 </r>
       <r>    6.3065    0.0000 </r>
       <r>    6.5440    0.0000 </r>
       <r>    6.7816    0.0000 </r>
       <r>    7.5685    0.0000 </r>
       <r>    8.0026    0.0000 </r>
       <r>    8.5124    0.0000 </r>
       <r>    8.9138    0.0000 </r>
       <r>    9.2701    0.0000 </r>
       <r>    9.5813    0.0000 </r>
       <r>    9.9031    0.0000 </r>
       <r>   10.3436    0.0000 </r>
       <r>   10.7931    0.0000 </r>
       <r>   11.0918    0.0000 </r>
       <r>   11.4419    0.0000 </r>
       <r>   12.1664    0.0000 </r>
       <r>   12.4206    0.0000 </r>
       <r>   13.1575    0.0000 </r>
       <r>   13.2787    0.0000 </r>
       <r>   13.6585    0.0000 </r>
       <r>   13.8993    0.0000 </r>
       <r>   14.1501    0.0000 </r>
       <r>   14.7564    0.0000 </r>
       <r>   14.9905    0.0000 </r>
       <r>   15.4327    0.0000 </r>
       <r>   16.3263    0.0000 </r>
      </set>
      <set comment="kpoint 20">
       <r>  -12.1962    1.0000 </r>
       <r>  -12.0224    1.0000 </r>
       <r>   -8.3630    1.0000 </r>
       <r>   -8.3088    1.0000 </r>
       <r>   -5.9753    1.0000 </r>
       <r>   -5.9674    1.0000 </r>
       <r>   -5.1462    1.0000 </r>
       <r>   -4.9646    1.0000 </r>
       <r>   -3.8289    1.0000 </r>
       <r>   -3.2346    1.0000 </r>
       <r>   -1.9825    1.0000 </r>
       <r>   -1.8278    1.0000 </r>
       <r>   -0.9808    1.0000 </r>
       <r>   -0.9215    1.0000 </r>
       <r>   -0.6719    1.0000 </r>
       <r>   -0.6288    1.0000 </r>
       <r>    0.1270    1.0000 </r>
       <r>    0.2275    1.0000 </r>
       <r>    0.7576    1.0000 </r>
       <r>    0.7735    1.0000 </r>
       <r>    0.9250    1.0000 </r>
       <r>    1.2481    1.0000 </r>
       <r>    6.4396    0.0000 </r>
       <r>    6.5532    0.0000 </r>
       <r>    6.6188    0.0000 </r>
       <r>    7.1341    0.0000 </r>
       <r>    7.2045    0.0000 </r>
       <r>    7.6912    0.0000 </r>
       <r>    8.5011    0.0000 </r>
       <r>    8.5654    0.0000 </r>
       <r>    9.4644    0.0000 </r>
       <r>    9.6372    0.0000 </r>
       <r>    9.8431    0.0000 </r>
       <r>   10.1402    0.0000 </r>
       <r>   10.8573    0.0000 </r>
       <r>   11.2318    0.0000 </r>
       <r>   11.8681    0.0000 </r>
       <r>   11.9431    0.0000 </r>
       <r>   12.2550    0.0000 </r>
       <r>   13.1456    0.0000 </r>
       <r>   13.4362    0.0000 </r>
       <r>   13.6220    0.0000 </r>
       <r>   13.8374    0.0000 </r>
       <r>   13.9461    0.0000 </r>
       <r>   15.0986    0.0000 </r>
       <r>   15.1161    0.0000 </r>
       <r>   15.6659    0.0000 </r>
       <r>   15.9679    0.0000 </r>
      </set>
      <set comment="kpoint 21">
       <r>  -12.5388    1.0000 </r>
[...]
       <r>   -2.3160    1.0000 </r>
       <r>   -2.1475    1.0000 </r>
       <r>   -1.9836    1.0000 </r>
       <r>   -1.4914    1.0000 </r>
       <r>   -0.7385    1.0000 </r>
       <r>   -0.2027    1.0000 </r>
       <r>    0.1651    1.0000 </r>
       <r>    0.3844    1.0000 </r>
       <r>    0.5123    1.0000 </r>
       <r>    1.5878    1.0000 </r>
       <r>    1.6151    1.0000 </r>
       <r>    1.8705    0.6458 </r>
       <r>    5.5108    0.0000 </r>
       <r>    6.1455    0.0000 </r>
       <r>    6.6661    0.0000 </r>
       <r>    7.2163    0.0000 </r>
       <r>    7.7803    0.0000 </r>
       <r>    8.2234    0.0000 </r>
       <r>    8.9899    0.0000 </r>
       <r>    9.1491    0.0000 </r>
       <r>    9.7186    0.0000 </r>
       <r>    9.9541    0.0000 </r>
       <r>   10.5848    0.0000 </r>
       <r>   11.0294    0.0000 </r>
       <r>   11.2042    0.0000 </r>
       <r>   11.4760    0.0000 </r>
       <r>   11.5648    0.0000 </r>
       <r>   11.9477    0.0000 </r>
       <r>   12.8352    0.0000 </r>
       <r>   13.1424    0.0000 </r>
       <r>   13.3658    0.0000 </r>
       <r>   13.7459    0.0000 </r>
       <r>   13.8700    0.0000 </r>
       <r>   14.1531    0.0000 </r>
       <r>   14.4742    0.0000 </r>
       <r>   14.9645    0.0000 </r>
       <r>   15.0914    0.0000 </r>
       <r>   15.3919    0.0000 </r>
      </set>
      <set comment="kpoint 175">
       <r>  -12.0208    1.0000 </r>
       <r>  -11.8817    1.0000 </r>
       <r>   -8.5472    1.0000 </r>
       <r>   -8.4349    1.0000 </r>
       <r>   -5.9267    1.0000 </r>
       <r>   -5.8205    1.0000 </r>
       <r>   -4.8922    1.0000 </r>
       <r>   -4.5687    1.0000 </r>
       <r>   -4.4140    1.0000 </r>
       <r>   -3.9759    1.0000 </r>
       <r>   -2.1996    1.0000 </r>
       <r>   -2.1381    1.0000 </r>
       <r>   -2.0583    1.0000 </r>
       <r>   -1.7740    1.0000 </r>
       <r>   -0.2203    1.0000 </r>
       <r>   -0.0067    1.0000 </r>
       <r>    0.3874    1.0000 </r>
       <r>    0.4753    1.0000 </r>
       <r>    0.5472    1.0000 </r>
       <r>    0.8734    1.0000 </r>
       <r>    1.6292    1.0000 </r>
       <r>    1.7288    1.0000 </r>
       <r>    5.8578    0.0000 </r>
       <r>    6.0434    0.0000 </r>
       <r>    6.8682    0.0000 </r>
       <r>    7.4051    0.0000 </r>
       <r>    7.4721    0.0000 </r>
       <r>    7.5749    0.0000 </r>
       <r>    9.3945    0.0000 </r>
       <r>    9.5784    0.0000 </r>
       <r>    9.7872    0.0000 </r>
       <r>    9.9647    0.0000 </r>
       <r>   10.4614    0.0000 </r>
       <r>   10.8113    0.0000 </r>
       <r>   11.2338    0.0000 </r>
       <r>   11.5069    0.0000 </r>
       <r>   11.5172    0.0000 </r>
       <r>   11.6103    0.0000 </r>
       <r>   13.0797    0.0000 </r>
       <r>   13.1857    0.0000 </r>
       <r>   13.7188    0.0000 </r>
       <r>   14.0515    0.0000 </r>
       <r>   14.1857    0.0000 </r>
       <r>   14.2885    0.0000 </r>
       <r>   14.5905    0.0000 </r>
       <r>   14.7346    0.0000 </r>
       <r>   14.8830    0.0000 </r>
       <r>   15.0441    0.0000 </r>
      </set>
     </set>
    </set>
   </array>
  </eigenvalues>
  <separator name="orbital magnetization" >
   <v name="MAGDIPOLOUT">      0.00000000      0.00000000      0.00000000</v>
  </separator>
  <dos>
   <i name="efermi">      1.88369888 </i>
   <total>
    <array>
     <dimension dim="1">gridpoints</dimension>
     <dimension dim="2">spin</dimension>
     <field>energy</field>
     <field>total</field>
     <field>integrated</field>
     <set>
      <set comment="spin 1">
       <r>   -14.1867     0.0000     0.0000 </r>
       <r>   -14.0795     0.0000     0.0000 </r>
       <r>   -13.9723     0.0000     0.0000 </r>
       <r>   -13.8651     0.0000     0.0000 </r>
       <r>   -13.7579     0.0000     0.0000 </r>
       <r>   -13.6507     0.0000     0.0000 </r>
       <r>   -13.5434     0.0000     0.0000 </r>
       <r>   -13.4362     0.0000     0.0000 </r>
       <r>   -13.3290     0.0000     0.0000 </r>
       <r>   -13.2218     0.0000     0.0000 </r>
       <r>   -13.1146     0.0000     0.0000 </r>
       <r>   -13.0074     0.0000     0.0000 </r>
       <r>   -12.9002     0.0000     0.0000 </r>
       <r>   -12.7930     0.0038     0.0004 </r>
       <r>   -12.6858     0.5086     0.0549 </r>
       <r>   -12.5786     2.3905     0.3112 </r>
       <r>   -12.4714     3.5642     0.6933 </r>
       <r>   -12.3642     4.3714     1.1619 </r>
       <r>   -12.2570     3.5390     1.5413 </r>
       <r>   -12.1498     2.7351     1.8345 </r>
       <r>   -12.0426     2.7511     2.1295 </r>
       <r>   -11.9354     2.5050     2.3980 </r>
       <r>   -11.8282     2.7710     2.6951 </r>
       <r>   -11.7210     3.4272     3.0625 </r>
       <r>   -11.6138     3.5355     3.4415 </r>
       <r>   -11.5066     3.1147     3.7754 </r>
       <r>   -11.3994     1.6672     3.9541 </r>
       <r>   -11.2922     0.4207     3.9992 </r>
       <r>   -11.1850     0.0072     4.0000 </r>
       <r>   -11.0778     0.0000     4.0000 </r>
       <r>   -10.9706     0.0000     4.0000 </r>
       <r>   -10.8634     0.0000     4.0000 </r>
       <r>   -10.7562     0.0000     4.0000 </r>
       <r>   -10.6490     0.0000     4.0000 </r>
       <r>   -10.5418     0.0000     4.0000 </r>
       <r>   -10.4346     0.0000     4.0000 </r>
       <r>   -10.3274     0.0000     4.0000 </r>
       <r>   -10.2201     0.0000     4.0000 </r>
       <r>   -10.1129     0.0000     4.0000 </r>
       <r>   -10.0057     0.0000     4.0000 </r>
       <r>    -9.8985     0.0000     4.0000 </r>
       <r>    -9.7913     0.0000     4.0000 </r>
       <r>    -9.6841     0.0000     4.0000 </r>
       <r>    -9.5769     0.0000     4.0000 </r>
       <r>    -9.4697     0.0000     4.0000 </r>
       <r>    -9.3625     0.0000     4.0000 </r>
       <r>    -9.2553     0.0000     4.0000 </r>
       <r>    -9.1481     0.0000     4.0000 </r>
       <r>    -9.0409     0.0000     4.0000 </r>
       <r>    -8.9337     0.0006     4.0001 </r>
       <r>    -8.8265     0.2765     4.0297 </r>
       <r>    -8.7193     2.0918     4.2540 </r>
       <r>    -8.6121     5.3338     4.8258 </r>
       <r>    -8.5049     6.9888     5.5750 </r>
       <r>    -8.3977     6.2964     6.2500 </r>
       <r>    -8.2905     5.3253     6.8209 </r>
       <r>    -8.1833     4.8353     7.3392 </r>
       <r>    -8.0761     3.8713     7.7542 </r>
       <r>    -7.9689     1.6646     7.9327 </r>
       <r>    -7.8617     0.5762     7.9945 </r>
       <r>    -7.7545     0.0516     8.0000 </r>
       <r>    -7.6473     0.0000     8.0000 </r>
       <r>    -7.5401     0.0000     8.0000 </r>
       <r>    -7.4329     0.0000     8.0000 </r>
       <r>    -7.3257     0.0000     8.0000 </r>
       <r>    -7.2185     0.0000     8.0000 </r>
       <r>    -7.1113     0.0000     8.0000 </r>
       <r>    -7.0041     0.0004     8.0000 </r>
       <r>    -6.8968     0.1131     8.0122 </r>
       <r>    -6.7896     0.2577     8.0398 </r>
       <r>    -6.6824     0.4263     8.0855 </r>
       <r>    -6.5752     0.7662     8.1676 </r>
       <r>    -6.4680     0.8510     8.2589 </r>
       <r>    -6.3608     1.4448     8.4138 </r>
       <r>    -6.2536     1.9634     8.6242 </r>
       <r>    -6.1464     3.0573     8.9520 </r>
       <r>    -6.0392     3.7837     9.3576 </r>
       <r>    -5.9320     4.1147     9.7987 </r>
       <r>    -5.8248     4.0450    10.2324 </r>
       <r>    -5.7176     3.8619    10.6464 </r>
       <r>    -5.6104     4.0726    11.0830 </r>
       <r>    -5.5032     4.2204    11.5354 </r>
       <r>    -5.3960     4.5454    12.0227 </r>
       <r>    -5.2888     4.5994    12.5157 </r>
       <r>    -5.1816     4.4910    12.9972 </r>
       <r>    -5.0744     3.8690    13.4120 </r>
       <r>    -4.9672     3.2276    13.7580 </r>
       <r>    -4.8600     2.9523    14.0745 </r>
       <r>    -4.7528     2.3370    14.3250 </r>
       <r>    -4.6456     2.8965    14.6355 </r>
       <r>    -4.5384     3.3691    14.9967 </r>
       <r>    -4.4312     3.4719    15.3689 </r>
       <r>    -4.3240     3.3318    15.7261 </r>
       <r>    -4.2168     2.9543    16.0428 </r>
       <r>    -4.1096     2.9076    16.3545 </r>
       <r>    -4.0024     2.9455    16.6702 </r>
       <r>    -3.8952     2.8602    16.9769 </r>
       <r>    -3.7880     3.1202    17.3114 </r>
       <r>    -3.6808     2.8742    17.6195 </r>
       <r>    -3.5736     2.7052    17.9095 </r>
       <r>    -3.4663     3.0652    18.2381 </r>
       <r>    -3.3591     2.6379    18.5209 </r>
       <r>    -3.2519     2.8620    18.8277 </r>
       <r>    -3.1447     2.7438    19.1218 </r>
       <r>    -3.0375     2.7401    19.4156 </r>
       <r>    -2.9303     3.0454    19.7421 </r>
       <r>    -2.8231     2.9747    20.0610 </r>
       <r>    -2.7159     2.4302    20.3215 </r>
       <r>    -2.6087     2.6573    20.6064 </r>
       <r>    -2.5015     3.0216    20.9303 </r>
       <r>    -2.3943     2.9851    21.2503 </r>
       <r>    -2.2871     3.1929    21.5926 </r>
       <r>    -2.1799     4.0095    22.0224 </r>
       <r>    -2.0727     3.6563    22.4144 </r>
       <r>    -1.9655     3.2746    22.7654 </r>
       <r>    -1.8583     5.1297    23.3153 </r>
       <r>    -1.7511     5.5774    23.9133 </r>
       <r>    -1.6439     5.6044    24.5141 </r>
       <r>    -1.5367     6.1841    25.1770 </r>
       <r>    -1.4295     6.1105    25.8321 </r>
       <r>    -1.3223     5.5673    26.4289 </r>
       <r>    -1.2151     4.6830    26.9310 </r>
       <r>    -1.1079     6.4980    27.6276 </r>
       <r>    -1.0007     3.9749    28.0537 </r>
       <r>    -0.8935     2.2702    28.2971 </r>
       <r>    -0.7863     2.6993    28.5864 </r>
       <r>    -0.6791     2.8801    28.8952 </r>
       <r>    -0.5719     4.5243    29.3802 </r>
       <r>    -0.4647     6.8638    30.1160 </r>
       <r>    -0.3575     5.6581    30.7226 </r>
       <r>    -0.2503     6.7061    31.4415 </r>
       <r>    -0.1430     6.3604    32.1234 </r>
       <r>    -0.0358     6.7466    32.8466 </r>
       <r>     0.0714     6.7554    33.5708 </r>
       <r>     0.1786     6.3003    34.2463 </r>
       <r>     0.2858     8.8053    35.1902 </r>
       <r>     0.3930     7.9832    36.0460 </r>
       <r>     0.5002     8.6977    36.9785 </r>
       <r>     0.6074     5.2405    37.5403 </r>
       <r>     0.7146     2.9335    37.8547 </r>
       <r>     0.8218     3.2943    38.2079 </r>
       <r>     0.9290     3.5872    38.5925 </r>
       <r>     1.0362     3.5601    38.9741 </r>
       <r>     1.1434     2.7912    39.2733 </r>
       <r>     1.2506     3.3929    39.6371 </r>
       <r>     1.3578     4.4987    40.1194 </r>
       <r>     1.4650     3.7773    40.5243 </r>
       <r>     1.5722     3.7250    40.9236 </r>
       <r>     1.6794     4.5766    41.4142 </r>
       <r>     1.7866     3.2270    41.7602 </r>
       <r>     1.8938     2.4806    42.0261 </r>
       <r>     2.0010     2.6595    42.3112 </r>
       <r>     2.1082     2.0925    42.5355 </r>
       <r>     2.2154     2.6528    42.8199 </r>
       <r>     2.3226     2.5696    43.0954 </r>
       <r>     2.4298     1.9341    43.3027 </r>
       <r>     2.5370     0.8489    43.3937 </r>
       <r>     2.6442     0.3782    43.4343 </r>
       <r>     2.7514     0.5723    43.4956 </r>
       <r>     2.8586     0.4196    43.5406 </r>
       <r>     2.9658     0.3056    43.5734 </r>
       <r>     3.0730     0.7601    43.6549 </r>
       <r>     3.1803     1.0135    43.7635 </r>
       <r>     3.2875     0.5352    43.8209 </r>
       <r>     3.3947     0.0128    43.8223 </r>
       <r>     3.5019     0.1322    43.8365 </r>
       <r>     3.6091     0.3960    43.8789 </r>
       <r>     3.7163     0.3293    43.9142 </r>
       <r>     3.8235     0.3731    43.9542 </r>
       <r>     3.9307     0.4010    43.9972 </r>
       <r>     4.0379     0.0261    44.0000 </r>
       <r>     4.1451     0.0000    44.0000 </r>
       <r>     4.2523     0.0313    44.0034 </r>
       <r>     4.3595     0.1762    44.0222 </r>
       <r>     4.4667     0.4025    44.0654 </r>
       <r>     4.5739     0.4710    44.1159 </r>
       <r>     4.6811     0.6340    44.1838 </r>
       <r>     4.7883     0.8890    44.2791 </r>
       <r>     4.8955     0.8414    44.3693 </r>
       <r>     5.0027     0.8574    44.4613 </r>
       <r>     5.1099     1.2772    44.5982 </r>
       <r>     5.2171     1.1524    44.7217 </r>
       <r>     5.3243     1.6332    44.8968 </r>
       <r>     5.4315     2.1914    45.1317 </r>
       <r>     5.5387     2.4872    45.3984 </r>
       <r>     5.6459     2.7890    45.6974 </r>
       <r>     5.7531     3.3687    46.0585 </r>
       <r>     5.8603     3.2186    46.4035 </r>
       <r>     5.9675     4.3141    46.8660 </r>
       <r>     6.0747     4.7578    47.3761 </r>
       <r>     6.1819     4.0452    47.8097 </r>
       <r>     6.2891     4.6237    48.3054 </r>
       <r>     6.3963     4.1515    48.7505 </r>
       <r>     6.5036     4.0186    49.1813 </r>
       <r>     6.6108     4.4789    49.6614 </r>
       <r>     6.7180     3.2273    50.0074 </r>
       <r>     6.8252     3.9981    50.4360 </r>
       <r>     6.9324     4.6132    50.9305 </r>
       <r>     7.0396     4.5507    51.4184 </r>
       <r>     7.1468     4.3409    51.8838 </r>
       <r>     7.2540     5.6006    52.4842 </r>
       <r>     7.3612     4.9219    53.0118 </r>
       <r>     7.4684     4.4532    53.4892 </r>
       <r>     7.5756     4.1906    53.9384 </r>
       <r>     7.6828     3.5661    54.3207 </r>
       <r>     7.7900     3.1249    54.6557 </r>
       <r>     7.8972     3.0096    54.9784 </r>
       <r>     8.0044     2.9785    55.2977 </r>
       <r>     8.1116     4.1687    55.7446 </r>
       <r>     8.2188     3.8872    56.1613 </r>
       <r>     8.3260     3.6900    56.5569 </r>
       <r>     8.4332     3.9906    56.9847 </r>
       <r>     8.5404     4.2156    57.4366 </r>
       <r>     8.6476     4.4581    57.9145 </r>
       <r>     8.7548     4.2209    58.3670 </r>
       <r>     8.8620     5.2650    58.9315 </r>
       <r>     8.9692     4.9428    59.4613 </r>
       <r>     9.0764     5.2923    60.0287 </r>
       <r>     9.1836     5.2371    60.5901 </r>
       <r>     9.2908     4.9702    61.1229 </r>
       <r>     9.3980     4.6898    61.6257 </r>
       <r>     9.5052     4.3700    62.0942 </r>
       <r>     9.6124     5.1051    62.6415 </r>
       <r>     9.7196     5.0268    63.1804 </r>
       <r>     9.8268     5.3002    63.7486 </r>
       <r>     9.9341     4.4799    64.2288 </r>
       <r>    10.0413     3.6355    64.6186 </r>
       <r>    10.1485     5.1769    65.1735 </r>
       <r>    10.2557     4.7143    65.6789 </r>
       <r>    10.3629     4.1174    66.1203 </r>
       <r>    10.4701     5.4164    66.7010 </r>
       <r>    10.5773     5.8100    67.3238 </r>
       <r>    10.6845     4.0655    67.7597 </r>
       <r>    10.7917     3.8849    68.1761 </r>
       <r>    10.8989     3.2364    68.5231 </r>
       <r>    11.0061     4.6665    69.0233 </r>
       <r>    11.1133     5.4832    69.6112 </r>
       <r>    11.2205     6.1891    70.2747 </r>
       <r>    11.3277     5.9941    70.9172 </r>
       <r>    11.4349     5.2847    71.4838 </r>
       <r>    11.5421     4.3017    71.9449 </r>
       <r>    11.6493     4.4733    72.4245 </r>
       <r>    11.7565     4.9328    72.9533 </r>
       <r>    11.8637     4.8052    73.4684 </r>
       <r>    11.9709     6.0354    74.1154 </r>
       <r>    12.0781     5.9593    74.7543 </r>
       <r>    12.1853     5.9921    75.3967 </r>
       <r>    12.2925     5.6157    75.9987 </r>
       <r>    12.3997     5.0083    76.5356 </r>
       <r>    12.5069     5.6879    77.1453 </r>
       <r>    12.6141     5.9882    77.7873 </r>
       <r>    12.7213     6.0213    78.4328 </r>
       <r>    12.8285     5.8894    79.0642 </r>
       <r>    12.9357     5.8636    79.6928 </r>
       <r>    13.0429     5.5953    80.2926 </r>
       <r>    13.1501     6.3480    80.9731 </r>
       <r>    13.2574     6.2663    81.6449 </r>
       <r>    13.3646     5.3853    82.2222 </r>
       <r>    13.4718     6.1338    82.8798 </r>
       <r>    13.5790     5.3427    83.4525 </r>
       <r>    13.6862     4.8109    83.9683 </r>
       <r>    13.7934     6.1270    84.6251 </r>
       <r>    13.9006     5.5264    85.2176 </r>
       <r>    14.0078     5.3442    85.7905 </r>
       <r>    14.1150     5.4757    86.3775 </r>
       <r>    14.2222     4.6871    86.8800 </r>
       <r>    14.3294     4.9048    87.4058 </r>
       <r>    14.4366     5.0186    87.9438 </r>
       <r>    14.5438     4.9610    88.4756 </r>
       <r>    14.6510     5.2722    89.0408 </r>
       <r>    14.7582     5.1679    89.5948 </r>
       <r>    14.8654     4.0930    90.0336 </r>
       <r>    14.9726     5.0782    90.5780 </r>
       <r>    15.0798     6.1855    91.2411 </r>
       <r>    15.1870     5.6416    91.8459 </r>
       <r>    15.2942     5.6718    92.4540 </r>
       <r>    15.4014     6.0289    93.1003 </r>
       <r>    15.5086     5.7359    93.7152 </r>
       <r>    15.6158     5.9515    94.3532 </r>
       <r>    15.7230     4.5958    94.8459 </r>
       <r>    15.8302     2.4710    95.1108 </r>
       <r>    15.9374     2.7055    95.4008 </r>
       <r>    16.0446     1.8626    95.6005 </r>
       <r>    16.1518     1.1455    95.7233 </r>
       <r>    16.2590     0.8884    95.8186 </r>
       <r>    16.3662     0.7000    95.8936 </r>
       <r>    16.4734     0.8127    95.9807 </r>
       <r>    16.5807     0.1783    95.9998 </r>
       <r>    16.6879     0.0017    96.0000 </r>
       <r>    16.7951     0.0000    96.0000 </r>
       <r>    16.9023     0.0000    96.0000 </r>
       <r>    17.0095     0.0000    96.0000 </r>
       <r>    17.1167     0.0000    96.0000 </r>
       <r>    17.2239     0.0000    96.0000 </r>
       <r>    17.3311     0.0000    96.0000 </r>
       <r>    17.4383     0.0000    96.0000 </r>
       <r>    17.5455     0.0000    96.0000 </r>
       <r>    17.6527     0.0000    96.0000 </r>
       <r>    17.7599     0.0000    96.0000 </r>
       <r>    17.8671     0.0000    96.0000 </r>
       <r>    17.9743     0.0000    96.0000 </r>
      </set>
     </set>
    </array>
   </total>
  </dos>
 </calculation>
 <structure name="finalpos" >
  <crystal>
   <varray name="basis" >
    <v>       5.69700000       0.00000000       0.00000000 </v>
    <v>       0.00000000       4.04790000       0.00000000 </v>
    <v>       0.00000000       0.00000000       6.20420000 </v>
   </varray>
   <i name="volume">    143.07435078 </i>
   <varray name="rec_basis" >
    <v>       0.17553098       0.00000000       0.00000000 </v>
    <v>       0.00000000       0.24704168       0.00000000 </v>
    <v>       0.00000000       0.00000000       0.16118114 </v>
   </varray>
  </crystal>
  <varray name="positions" >
   <v>       0.52123000       0.50000000       0.63796000 </v>
   <v>       0.47877000       0.50000000       0.36204000 </v>
   <v>       0.97877000       0.50000000       0.63796000 </v>
   <v>       0.02123000       0.50000000       0.36204000 </v>
   <v>       0.60090000       0.50000000       0.89991000 </v>
   <v>       0.39910000       0.50000000       0.10009000 </v>
   <v>       0.89910000       0.50000000       0.89991000 </v>
   <v>       0.10090000       0.50000000       0.10009000 </v>
   <v>       0.75000000       0.79171000       0.72973000 </v>
   <v>       0.25000000       0.20829000       0.27027000 </v>
   <v>       0.75000000       0.20829000       0.72973000 </v>
   <v>       0.25000000       0.79171000       0.27027000 </v>
   <v>       0.25000000       0.50000000       0.52367000 </v>
   <v>       0.75000000       0.50000000       0.47633000 </v>
  </varray>
 </structure>
</modeling>
