   1   1   0   0
  0.3375000E+04  0.1500000E-08  0.1250000E-08  0.1800000E-08  0.5000000E-15
  1.000000000000000E-004
  CAR 
 Convergence                             
      2.45257269     -9.97475488  301     -3.60674170      1.00000000
     -9.975  0.0000E+00  0.0000E+00
     -9.933  0.0000E+00  0.0000E+00
     -9.892  0.0000E+00  0.0000E+00
     -9.850  0.0000E+00  0.0000E+00
     -9.809  0.0000E+00  0.0000E+00
     -9.768  0.0000E+00  0.0000E+00
     -9.726  0.0000E+00  0.0000E+00
     -9.685  0.1822E-12  0.7550E-14
     -9.643  0.9664E-09  0.4004E-10
     -9.602  0.1342E-05  0.5564E-07
     -9.561  0.4908E-03  0.2039E-04
     -9.519  0.4800E-01  0.2009E-02
     -9.478  0.1284E+01  0.5520E-01
     -9.436  0.9673E+01  0.4559E+00
     -9.395  0.2110E+02  0.1330E+01
     -9.353  0.1352E+02  0.1890E+01
     -9.312  0.2523E+01  0.1994E+01
     -9.271  0.1336E+00  0.2000E+01
     -9.229  0.1951E-02  0.2000E+01
     -9.188  0.7660E-05  0.2000E+01
     -9.146  0.7946E-08  0.2000E+01
     -9.105  0.2155E-11  0.2000E+01
     -9.063  0.0000E+00  0.2000E+01
     -9.022  0.0000E+00  0.2000E+01
     -8.981  0.0000E+00  0.2000E+01
     -8.939  0.0000E+00  0.2000E+01
     -8.898  0.0000E+00  0.2000E+01
     -8.856  0.0000E+00  0.2000E+01
     -8.815  0.0000E+00  0.2000E+01
     -8.773  0.0000E+00  0.2000E+01
     -8.732  0.0000E+00  0.2000E+01
     -8.691  0.0000E+00  0.2000E+01
     -8.649  0.0000E+00  0.2000E+01
     -8.608  0.0000E+00  0.2000E+01
     -8.566  0.0000E+00  0.2000E+01
     -8.525  0.0000E+00  0.2000E+01
     -8.483  0.0000E+00  0.2000E+01
     -8.442  0.0000E+00  0.2000E+01
     -8.401  0.0000E+00  0.2000E+01
     -8.359  0.0000E+00  0.2000E+01
     -8.318  0.0000E+00  0.2000E+01
     -8.276  0.0000E+00  0.2000E+01
     -8.235  0.0000E+00  0.2000E+01
     -8.194  0.0000E+00  0.2000E+01
     -8.152  0.0000E+00  0.2000E+01
     -8.111  0.0000E+00  0.2000E+01
     -8.069  0.0000E+00  0.2000E+01
     -8.028  0.0000E+00  0.2000E+01
     -7.986  0.0000E+00  0.2000E+01
     -7.945  0.0000E+00  0.2000E+01
     -7.904  0.0000E+00  0.2000E+01
     -7.862  0.0000E+00  0.2000E+01
     -7.821  0.0000E+00  0.2000E+01
     -7.779  0.0000E+00  0.2000E+01
     -7.738  0.0000E+00  0.2000E+01
     -7.696  0.0000E+00  0.2000E+01
     -7.655  0.0000E+00  0.2000E+01
     -7.614  0.0000E+00  0.2000E+01
     -7.572  0.0000E+00  0.2000E+01
     -7.531  0.0000E+00  0.2000E+01
     -7.489  0.0000E+00  0.2000E+01
     -7.448  0.0000E+00  0.2000E+01
     -7.406  0.0000E+00  0.2000E+01
     -7.365  0.0000E+00  0.2000E+01
     -7.324  0.0000E+00  0.2000E+01
     -7.282  0.0000E+00  0.2000E+01
     -7.241  0.0000E+00  0.2000E+01
     -7.199  0.0000E+00  0.2000E+01
     -7.158  0.0000E+00  0.2000E+01
     -7.116  0.0000E+00  0.2000E+01
     -7.075  0.0000E+00  0.2000E+01
     -7.034  0.0000E+00  0.2000E+01
     -6.992  0.0000E+00  0.2000E+01
     -6.951  0.0000E+00  0.2000E+01
     -6.909  0.0000E+00  0.2000E+01
     -6.868  0.0000E+00  0.2000E+01
     -6.826  0.0000E+00  0.2000E+01
     -6.785  0.0000E+00  0.2000E+01
     -6.744  0.0000E+00  0.2000E+01
     -6.702  0.0000E+00  0.2000E+01
     -6.661  0.0000E+00  0.2000E+01
     -6.619  0.0000E+00  0.2000E+01
     -6.578  0.0000E+00  0.2000E+01
     -6.537  0.0000E+00  0.2000E+01
     -6.495  0.0000E+00  0.2000E+01
     -6.454  0.0000E+00  0.2000E+01
     -6.412  0.0000E+00  0.2000E+01
     -6.371  0.0000E+00  0.2000E+01
     -6.329  0.0000E+00  0.2000E+01
     -6.288  0.0000E+00  0.2000E+01
     -6.247  0.0000E+00  0.2000E+01
     -6.205  0.0000E+00  0.2000E+01
     -6.164  0.0000E+00  0.2000E+01
     -6.122  0.0000E+00  0.2000E+01
     -6.081  0.0000E+00  0.2000E+01
     -6.039  0.0000E+00  0.2000E+01
     -5.998  0.0000E+00  0.2000E+01
     -5.957  0.0000E+00  0.2000E+01
     -5.915  0.0000E+00  0.2000E+01
     -5.874  0.0000E+00  0.2000E+01
     -5.832  0.0000E+00  0.2000E+01
     -5.791  0.0000E+00  0.2000E+01
     -5.749  0.0000E+00  0.2000E+01
     -5.708  0.0000E+00  0.2000E+01
     -5.667  0.0000E+00  0.2000E+01
     -5.625  0.0000E+00  0.2000E+01
     -5.584  0.0000E+00  0.2000E+01
     -5.542  0.0000E+00  0.2000E+01
     -5.501  0.0000E+00  0.2000E+01
     -5.459  0.0000E+00  0.2000E+01
     -5.418  0.0000E+00  0.2000E+01
     -5.377  0.0000E+00  0.2000E+01
     -5.335  0.0000E+00  0.2000E+01
     -5.294  0.0000E+00  0.2000E+01
     -5.252  0.0000E+00  0.2000E+01
     -5.211  0.0000E+00  0.2000E+01
     -5.170  0.0000E+00  0.2000E+01
     -5.128  0.0000E+00  0.2000E+01
     -5.087  0.0000E+00  0.2000E+01
     -5.045  0.0000E+00  0.2000E+01
     -5.004  0.0000E+00  0.2000E+01
     -4.962  0.0000E+00  0.2000E+01
     -4.921  0.0000E+00  0.2000E+01
     -4.880  0.0000E+00  0.2000E+01
     -4.838  0.0000E+00  0.2000E+01
     -4.797  0.0000E+00  0.2000E+01
     -4.755  0.0000E+00  0.2000E+01
     -4.714  0.0000E+00  0.2000E+01
     -4.672  0.0000E+00  0.2000E+01
     -4.631  0.0000E+00  0.2000E+01
     -4.590  0.0000E+00  0.2000E+01
     -4.548  0.0000E+00  0.2000E+01
     -4.507  0.0000E+00  0.2000E+01
     -4.465  0.0000E+00  0.2000E+01
     -4.424  0.0000E+00  0.2000E+01
     -4.382  0.0000E+00  0.2000E+01
     -4.341  0.0000E+00  0.2000E+01
     -4.300  0.0000E+00  0.2000E+01
     -4.258  0.0000E+00  0.2000E+01
     -4.217  0.0000E+00  0.2000E+01
     -4.175  0.0000E+00  0.2000E+01
     -4.134  0.0000E+00  0.2000E+01
     -4.092  0.0000E+00  0.2000E+01
     -4.051  0.0000E+00  0.2000E+01
     -4.010  0.0000E+00  0.2000E+01
     -3.968  0.0000E+00  0.2000E+01
     -3.927  0.0000E+00  0.2000E+01
     -3.885  0.0000E+00  0.2000E+01
     -3.844  0.1185E-11  0.2000E+01
     -3.803  0.5635E-08  0.2000E+01
     -3.761  0.6987E-05  0.2000E+01
     -3.720  0.2284E-02  0.2000E+01
     -3.678  0.1999E+00  0.2008E+01
     -3.637  0.4798E+01  0.2207E+01
     -3.595  0.3251E+02  0.3554E+01
     -3.554  0.6392E+02  0.6202E+01
     -3.513  0.3691E+02  0.7731E+01
     -3.471  0.6199E+01  0.7988E+01
     -3.430  0.2948E+00  0.8000E+01
     -3.388  0.3854E-02  0.8000E+01
     -3.347  0.1353E-04  0.8000E+01
     -3.305  0.1253E-07  0.8000E+01
     -3.264  0.3028E-11  0.8000E+01
     -3.223  0.0000E+00  0.8000E+01
     -3.181  0.0000E+00  0.8000E+01
     -3.140  0.0000E+00  0.8000E+01
     -3.098  0.0000E+00  0.8000E+01
     -3.057  0.0000E+00  0.8000E+01
     -3.015  0.0000E+00  0.8000E+01
     -2.974  0.0000E+00  0.8000E+01
     -2.933  0.0000E+00  0.8000E+01
     -2.891  0.0000E+00  0.8000E+01
     -2.850  0.0000E+00  0.8000E+01
     -2.808  0.0000E+00  0.8000E+01
     -2.767  0.0000E+00  0.8000E+01
     -2.725  0.0000E+00  0.8000E+01
     -2.684  0.0000E+00  0.8000E+01
     -2.643  0.0000E+00  0.8000E+01
     -2.601  0.0000E+00  0.8000E+01
     -2.560  0.0000E+00  0.8000E+01
     -2.518  0.0000E+00  0.8000E+01
     -2.477  0.0000E+00  0.8000E+01
     -2.436  0.0000E+00  0.8000E+01
     -2.394  0.0000E+00  0.8000E+01
     -2.353  0.0000E+00  0.8000E+01
     -2.311  0.0000E+00  0.8000E+01
     -2.270  0.0000E+00  0.8000E+01
     -2.228  0.0000E+00  0.8000E+01
     -2.187  0.0000E+00  0.8000E+01
     -2.146  0.0000E+00  0.8000E+01
     -2.104  0.0000E+00  0.8000E+01
     -2.063  0.0000E+00  0.8000E+01
     -2.021  0.0000E+00  0.8000E+01
     -1.980  0.0000E+00  0.8000E+01
     -1.938  0.0000E+00  0.8000E+01
     -1.897  0.0000E+00  0.8000E+01
     -1.856  0.0000E+00  0.8000E+01
     -1.814  0.0000E+00  0.8000E+01
     -1.773  0.0000E+00  0.8000E+01
     -1.731  0.0000E+00  0.8000E+01
     -1.690  0.0000E+00  0.8000E+01
     -1.648  0.0000E+00  0.8000E+01
     -1.607  0.0000E+00  0.8000E+01
     -1.566  0.0000E+00  0.8000E+01
     -1.524  0.0000E+00  0.8000E+01
     -1.483  0.0000E+00  0.8000E+01
     -1.441  0.0000E+00  0.8000E+01
     -1.400  0.0000E+00  0.8000E+01
     -1.358  0.0000E+00  0.8000E+01
     -1.317  0.0000E+00  0.8000E+01
     -1.276  0.0000E+00  0.8000E+01
     -1.234  0.0000E+00  0.8000E+01
     -1.193  0.0000E+00  0.8000E+01
     -1.151  0.0000E+00  0.8000E+01
     -1.110  0.0000E+00  0.8000E+01
     -1.069  0.0000E+00  0.8000E+01
     -1.027  0.0000E+00  0.8000E+01
     -0.986  0.0000E+00  0.8000E+01
     -0.944  0.0000E+00  0.8000E+01
     -0.903  0.0000E+00  0.8000E+01
     -0.861  0.0000E+00  0.8000E+01
     -0.820  0.0000E+00  0.8000E+01
     -0.779  0.0000E+00  0.8000E+01
     -0.737  0.0000E+00  0.8000E+01
     -0.696  0.0000E+00  0.8000E+01
     -0.654  0.0000E+00  0.8000E+01
     -0.613  0.0000E+00  0.8000E+01
     -0.571  0.0000E+00  0.8000E+01
     -0.530  0.1052E-13  0.8000E+01
     -0.489  0.4685E-10  0.8000E+01
     -0.447  0.5760E-07  0.8000E+01
     -0.406  0.2031E-04  0.8000E+01
     -0.364  0.2162E-02  0.8000E+01
     -0.323  0.7401E-01  0.8003E+01
     -0.281  0.8790E+00  0.8040E+01
     -0.240  0.4046E+01  0.8207E+01
     -0.199  0.8678E+01  0.8567E+01
     -0.157  0.1091E+02  0.9019E+01
     -0.116  0.1007E+02  0.9436E+01
     -0.074  0.7886E+01  0.9762E+01
     -0.033  0.4347E+01  0.9943E+01
      0.009  0.1297E+01  0.9996E+01
      0.050  0.7166E+00  0.1003E+02
      0.091  0.2665E+01  0.1014E+02
      0.133  0.6654E+01  0.1041E+02
      0.174  0.1164E+02  0.1089E+02
      0.216  0.1438E+02  0.1149E+02
      0.257  0.1477E+02  0.1210E+02
      0.299  0.1575E+02  0.1275E+02
      0.340  0.1723E+02  0.1347E+02
      0.381  0.1683E+02  0.1416E+02
      0.423  0.1631E+02  0.1484E+02
      0.464  0.1633E+02  0.1552E+02
      0.506  0.1724E+02  0.1623E+02
      0.547  0.1901E+02  0.1702E+02
      0.588  0.2117E+02  0.1790E+02
      0.630  0.2324E+02  0.1886E+02
      0.671  0.2035E+02  0.1970E+02
      0.713  0.1573E+02  0.2035E+02
      0.754  0.1771E+02  0.2109E+02
      0.796  0.2524E+02  0.2213E+02
      0.837  0.2840E+02  0.2331E+02
      0.878  0.2594E+02  0.2438E+02
      0.920  0.2284E+02  0.2533E+02
      0.961  0.2162E+02  0.2622E+02
      1.003  0.2165E+02  0.2712E+02
      1.044  0.2297E+02  0.2807E+02
      1.086  0.2791E+02  0.2923E+02
      1.127  0.3105E+02  0.3052E+02
      1.168  0.2998E+02  0.3176E+02
      1.210  0.2725E+02  0.3289E+02
      1.251  0.2443E+02  0.3390E+02
      1.293  0.2560E+02  0.3496E+02
      1.334  0.2798E+02  0.3612E+02
      1.376  0.2826E+02  0.3729E+02
      1.417  0.2824E+02  0.3846E+02
      1.458  0.2991E+02  0.3970E+02
      1.500  0.3351E+02  0.4109E+02
      1.541  0.3428E+02  0.4251E+02
      1.583  0.2838E+02  0.4368E+02
      1.624  0.2493E+02  0.4471E+02
      1.666  0.2564E+02  0.4578E+02
      1.707  0.2247E+02  0.4671E+02
      1.748  0.1493E+02  0.4732E+02
      1.790  0.8233E+01  0.4767E+02
      1.831  0.4607E+01  0.4786E+02
      1.873  0.2262E+01  0.4795E+02
      1.914  0.9034E+00  0.4799E+02
      1.955  0.2591E+00  0.4800E+02
      1.997  0.3057E-01  0.4800E+02
      2.038  0.1109E-02  0.4800E+02
      2.080  0.1125E-04  0.4800E+02
      2.121  0.3071E-07  0.4800E+02
      2.163  0.2210E-10  0.4800E+02
      2.204  0.4166E-14  0.4800E+02
      2.245  0.0000E+00  0.4800E+02
      2.287  0.0000E+00  0.4800E+02
      2.328  0.0000E+00  0.4800E+02
      2.370  0.0000E+00  0.4800E+02
      2.411  0.0000E+00  0.4800E+02
      2.453  0.0000E+00  0.4800E+02
