<?xml version="1.0" encoding="ISO-8859-1"?>
<modeling>
 <generator>
  <i name="program" type="string">vasp </i>
  <i name="version" type="string">6.4.3  </i>
  <i name="subversion" type="string">19Mar24 (build May 31 2024 16:31:43) complex                          parallel </i>
  <i name="platform" type="string">LinuxIFC </i>
  <i name="date" type="string">2024 11 02 </i>
  <i name="time" type="string">01:41:13 </i>
 </generator>
 <incar>
  <i type="string" name="SYSTEM">Convergence</i>
  <i type="int" name="ISTART">     0</i>
  <i type="string" name="PREC">Accurate</i>
  <i type="string" name="ALGO">Normal</i>
  <i type="int" name="ISPIN">     1</i>
  <i type="int" name="ICHARG">     2</i>
  <i type="int" name="NELM">   100</i>
  <i type="int" name="IBRION">    -1</i>
  <i name="EDIFF">      0.00000100</i>
  <i name="EDIFFG">     -0.00100000</i>
  <i type="int" name="NSW">     0</i>
  <i type="int" name="ISIF">     2</i>
  <i name="ENCUT">    480.00000000</i>
  <i name="POTIM">      0.50000000</i>
  <i type="int" name="ISMEAR">     0</i>
  <i name="SIGMA">      0.05000000</i>
  <i type="logical" name="LWAVE"> F  </i>
  <i type="logical" name="LCHARG"> F  </i>
  <i type="string" name="GGA">PE</i>
 </incar>
 <primitive_cell>
  <structure name="primitive_cell" >
   <crystal>
    <varray name="basis" >
     <v>      15.00000000       0.00000000       0.00000000 </v>
     <v>       0.00000000      12.50000000       0.00000000 </v>
     <v>       0.00000000       0.00000000      18.00000000 </v>
    </varray>
    <i name="volume">   3375.00000000 </i>
    <varray name="rec_basis" >
     <v>       0.06666667       0.00000000       0.00000000 </v>
     <v>       0.00000000       0.08000000       0.00000000 </v>
     <v>       0.00000000       0.00000000       0.05555556 </v>
    </varray>
   </crystal>
   <varray name="positions" >
    <v>       0.52123000       0.54500000       0.63796000 </v>
   </varray>
  </structure>
  <varray name="primitive_index" >
   <v type="int" >        1 </v>
  </varray>
 </primitive_cell>
 <kpoints>
  <generation param="Monkhorst-Pack">
   <v type="int" name="divisions">       5        7        5 </v>
   <v name="usershift">      0.00000000       0.00000000       0.00000000 </v>
   <v name="genvec1">      0.20000000       0.00000000       0.00000000 </v>
   <v name="genvec2">      0.00000000       0.14285714       0.00000000 </v>
   <v name="genvec3">      0.00000000       0.00000000       0.20000000 </v>
   <v name="shift">      0.00000000       0.00000000       0.00000000 </v>
  </generation>
  <varray name="kpointlist" >
   <v>       0.00000000       0.00000000       0.00000000 </v>
   <v>       0.20000000       0.00000000       0.00000000 </v>
   <v>       0.40000000       0.00000000       0.00000000 </v>
   <v>       0.00000000       0.14285714       0.00000000 </v>
   <v>       0.20000000       0.14285714       0.00000000 </v>
   <v>       0.40000000       0.14285714       0.00000000 </v>
   <v>       0.00000000       0.28571429       0.00000000 </v>
   <v>       0.20000000       0.28571429       0.00000000 </v>
   <v>       0.40000000       0.28571429       0.00000000 </v>
   <v>       0.00000000       0.42857143       0.00000000 </v>
   <v>       0.20000000       0.42857143       0.00000000 </v>
   <v>       0.40000000       0.42857143       0.00000000 </v>
   <v>       0.00000000       0.00000000       0.20000000 </v>
   <v>       0.20000000       0.00000000       0.20000000 </v>
   <v>       0.40000000       0.00000000       0.20000000 </v>
   <v>       0.00000000       0.14285714       0.20000000 </v>
   <v>       0.20000000       0.14285714       0.20000000 </v>
   <v>       0.40000000       0.14285714       0.20000000 </v>
   <v>       0.00000000       0.28571429       0.20000000 </v>
   <v>       0.20000000       0.28571429       0.20000000 </v>
   <v>       0.40000000       0.28571429       0.20000000 </v>
   <v>       0.00000000       0.42857143       0.20000000 </v>
   <v>       0.20000000       0.42857143       0.20000000 </v>
   <v>       0.40000000       0.42857143       0.20000000 </v>
   <v>       0.00000000       0.00000000       0.40000000 </v>
   <v>       0.20000000       0.00000000       0.40000000 </v>
   <v>       0.40000000       0.00000000       0.40000000 </v>
   <v>       0.00000000       0.14285714       0.40000000 </v>
   <v>       0.20000000       0.14285714       0.40000000 </v>
   <v>       0.40000000       0.14285714       0.40000000 </v>
   <v>       0.00000000       0.28571429       0.40000000 </v>
   <v>       0.20000000       0.28571429       0.40000000 </v>
   <v>       0.40000000       0.28571429       0.40000000 </v>
   <v>       0.00000000       0.42857143       0.40000000 </v>
   <v>       0.20000000       0.42857143       0.40000000 </v>
   <v>       0.40000000       0.42857143       0.40000000 </v>
  </varray>
  <varray name="weights" >
   <v>       0.00571429 </v>
   <v>       0.01142857 </v>
   <v>       0.01142857 </v>
   <v>       0.01142857 </v>
   <v>       0.02285714 </v>
   <v>       0.02285714 </v>
   <v>       0.01142857 </v>
   <v>       0.02285714 </v>
   <v>       0.02285714 </v>
   <v>       0.01142857 </v>
   <v>       0.02285714 </v>
   <v>       0.02285714 </v>
   <v>       0.01142857 </v>
   <v>       0.02285714 </v>
   <v>       0.02285714 </v>
   <v>       0.02285714 </v>
   <v>       0.04571429 </v>
   <v>       0.04571429 </v>
   <v>       0.02285714 </v>
   <v>       0.04571429 </v>
   <v>       0.04571429 </v>
   <v>       0.02285714 </v>
   <v>       0.04571429 </v>
   <v>       0.04571429 </v>
   <v>       0.01142857 </v>
   <v>       0.02285714 </v>
   <v>       0.02285714 </v>
   <v>       0.02285714 </v>
   <v>       0.04571429 </v>
   <v>       0.04571429 </v>
   <v>       0.02285714 </v>
   <v>       0.04571429 </v>
   <v>       0.04571429 </v>
   <v>       0.02285714 </v>
   <v>       0.04571429 </v>
   <v>       0.04571429 </v>
  </varray>
 </kpoints>
 <parameters>
  <separator name="general" >
   <i type="string" name="SYSTEM">Convergence</i>
   <i type="logical" name="LCOMPAT"> F  </i>
  </separator>
  <separator name="electronic" >
   <i type="string" name="PREC">accura</i>
   <i name="ENMAX">    480.00000000</i>
   <i name="ENAUG">    535.51400000</i>
   <i name="EDIFF">      0.00000100</i>
   <i type="int" name="IALGO">    38</i>
   <i type="int" name="IWAVPR">    10</i>
   <i type="int" name="NBANDS">    24</i>
   <i type="int" name="NBANDSLOW">    -1</i>
   <i type="int" name="NBANDSHIGH">    -1</i>
   <i name="NELECT">      3.00000000</i>
   <i type="int" name="TURBO">     0</i>
   <i type="int" name="IRESTART">     0</i>
   <i type="int" name="NREBOOT">     0</i>
   <i type="int" name="NMIN">     0</i>
   <i name="EREF">      0.00000000</i>
   <separator name="electronic smearing" >
    <i type="int" name="ISMEAR">     0</i>
    <i name="SIGMA">      0.05000000</i>
    <i name="KSPACING">      0.50000000</i>
    <i type="logical" name="KGAMMA"> T  </i>
    <i type="logical" name="KBLOWUP"> T  </i>
   </separator>
   <separator name="electronic projectors" >
    <i type="logical" name="LREAL"> F  </i>
    <v name="ROPT">      0.00000000</v>
    <i type="int" name="LMAXPAW">  -100</i>
    <i type="int" name="LMAXMIX">     2</i>
    <i type="logical" name="NLSPLINE"> F  </i>
   </separator>
   <separator name="electronic startup" >
    <i type="int" name="ISTART">     0</i>
    <i type="int" name="ICHARG">     2</i>
    <i type="int" name="INIWAV">     1</i>
   </separator>
   <separator name="electronic spin" >
    <i type="int" name="ISPIN">     1</i>
    <i type="logical" name="LNONCOLLINEAR"> F  </i>
    <v name="MAGMOM">      1.00000000</v>
    <i name="NUPDOWN">     -1.00000000</i>
    <i type="logical" name="LSORBIT"> F  </i>
    <v name="SAXIS">      0.00000000      0.00000000      1.00000000</v>
    <i type="logical" name="LSPIRAL"> F  </i>
    <v name="QSPIRAL">      0.00000000      0.00000000      0.00000000</v>
    <i type="logical" name="LZEROZ"> F  </i>
   </separator>
   <separator name="electronic exchange-correlation" >
    <i type="logical" name="LASPH"> F  </i>
   </separator>
   <separator name="electronic convergence" >
    <i type="int" name="NELM">   100</i>
    <i type="int" name="NELMDL">    -5</i>
    <i type="int" name="NELMIN">     2</i>
    <i name="ENINI">    480.00000000</i>
    <separator name="electronic convergence detail" >
     <i type="logical" name="LDIAG"> T  </i>
     <i type="logical" name="LSUBROT"> F  </i>
     <i name="WEIMIN">      0.00000000</i>
     <i name="EBREAK">      0.00000001</i>
     <i name="DEPER">      0.30000000</i>
     <i type="int" name="NRMM">     4</i>
     <i name="TIME">      0.40000000</i>
    </separator>
   </separator>
   <separator name="electronic mixer" >
    <i name="AMIX">      0.40000000</i>
    <i name="BMIX">      1.00000000</i>
    <i name="AMIN">      0.10000000</i>
    <i name="AMIX_MAG">      1.60000000</i>
    <i name="BMIX_MAG">      1.00000000</i>
    <separator name="electronic mixer details" >
     <i type="int" name="IMIX">     4</i>
     <i type="logical" name="MIXFIRST"> F  </i>
     <i type="int" name="MAXMIX">   -45</i>
     <i name="WC">    100.00000000</i>
     <i type="int" name="INIMIX">     1</i>
     <i type="int" name="MIXPRE">     1</i>
     <i type="int" name="MREMOVE">     5</i>
    </separator>
   </separator>
   <separator name="electronic dipolcorrection" >
    <i type="logical" name="LDIPOL"> F  </i>
    <i type="logical" name="LMONO"> F  </i>
    <i type="int" name="IDIPOL">     0</i>
    <i name="EPSILON">      1.00000000</i>
    <v name="DIPOL">   -100.00000000   -100.00000000   -100.00000000</v>
    <i name="EFIELD">      0.00000000</i>
    <i type="logical" name="LVACPOTAV"> F  </i>
   </separator>
  </separator>
  <separator name="grids" >
   <i type="int" name="NGX">   108</i>
   <i type="int" name="NGY">    90</i>
   <i type="int" name="NGZ">   140</i>
   <i type="int" name="NGXF">   216</i>
   <i type="int" name="NGYF">   180</i>
   <i type="int" name="NGZF">   280</i>
   <i type="logical" name="ADDGRID"> F  </i>
  </separator>
  <separator name="ionic" >
   <i type="int" name="NSW">     0</i>
   <i type="int" name="IBRION">    -1</i>
   <i type="int" name="MDALGO">     0</i>
   <i type="int" name="ISIF">     2</i>
   <i name="PSTRESS">      0.00000000</i>
   <i name="EDIFFG">     -0.00100000</i>
   <i type="int" name="NFREE">     0</i>
   <i name="POTIM">      0.50000000</i>
   <i name="SMASS">     -3.00000000</i>
   <i name="SCALEE">      1.00000000</i>
  </separator>
  <separator name="ionic md" >
   <i name="TEBEG">      0.00010000</i>
   <i name="TEEND">      0.00010000</i>
   <i type="int" name="NBLOCK">     1</i>
   <i type="int" name="KBLOCK">     1</i>
   <i type="int" name="NPACO">   256</i>
   <i name="APACO">     10.00000000</i>
  </separator>
  <separator name="symmetry" >
   <i type="int" name="ISYM">     2</i>
   <i name="SYMPREC">      0.00001000</i>
  </separator>
  <separator name="dos" >
   <i type="int" name="LORBIT">     0</i>
   <v name="RWIGS">     -1.00000000</v>
   <i type="int" name="NEDOS">   301</i>
   <i name="EMIN">     10.00000000</i>
   <i name="EMAX">    -10.00000000</i>
   <i name="EFERMI">      0.00000000</i>
  </separator>
  <separator name="writing" >
   <i type="int" name="NWRITE">     2</i>
   <i type="logical" name="LWAVE"> F  </i>
   <i type="logical" name="LDOWNSAMPLE"> F  </i>
   <i type="logical" name="LCHARG"> F  </i>
   <i type="logical" name="LPARD"> F  </i>
   <i type="logical" name="LVTOT"> F  </i>
   <i type="logical" name="LVHAR"> F  </i>
   <i type="logical" name="LELF"> F  </i>
   <i type="logical" name="LOPTICS"> F  </i>
   <v name="STM">      0.00000000      0.00000000      0.00000000      0.00000000      0.00000000      0.00000000      0.00000000</v>
  </separator>
  <separator name="performance" >
   <i type="int" name="NPAR">    24</i>
   <i type="int" name="NSIM">     4</i>
   <i type="int" name="NBLK">    -1</i>
   <i type="logical" name="LPLANE"> T  </i>
   <i type="logical" name="LSCALAPACK"> T  </i>
   <i type="logical" name="LSCAAWARE"> F  </i>
   <i type="logical" name="LSCALU"> F  </i>
   <i type="logical" name="LASYNC"> F  </i>
   <i type="logical" name="LORBITALREAL"> F  </i>
  </separator>
  <separator name="miscellaneous" >
   <i type="int" name="IDIOT">     3</i>
   <i type="int" name="PHON_NSTRUCT">    -1</i>
   <i type="logical" name="LMUSIC"> F  </i>
   <v name="POMASS">     10.81100000</v>
   <v name="DARWINR">      0.00000000</v>
   <v name="DARWINV">      1.00000000</v>
   <i type="logical" name="LCORR"> T  </i>
  </separator>
  <i type="logical" name="GGA_COMPAT"> T  </i>
  <i type="logical" name="LBERRY"> F  </i>
  <i type="int" name="ICORELEVEL">     0</i>
  <i type="logical" name="LDAU"> F  </i>
  <i type="int" name="I_CONSTRAINED_M">     0</i>
  <separator name="electronic exchange-correlation" >
   <i type="string" name="GGA    ">PE</i>
   <i type="string" name="XC_C">1</i>
   <i type="int" name="VOSKOWN">     0</i>
   <i type="logical" name="LHFCALC"> F  </i>
   <i type="string" name="PRECFOCK"></i>
   <i type="logical" name="LSYMGRAD"> F  </i>
   <i type="logical" name="LHFONE"> F  </i>
   <i type="logical" name="LRHFCALC"> F  </i>
   <i type="logical" name="LTHOMAS"> F  </i>
   <i type="logical" name="LMODELHF"> F  </i>
   <i type="logical" name="LFOCKACE"> F  </i>
   <i name="ENCUT4O">     -1.00000000</i>
   <i type="int" name="EXXOEP">     0</i>
   <i type="int" name="FOURORBIT">     0</i>
   <i name="AEXX">      0.00000000</i>
   <i name="HFALPHA">      0.00000000</i>
   <i name="MCALPHA">      0.00000000</i>
   <i name="ALDAX">      1.00000000</i>
   <i name="AGGAX">      1.00000000</i>
   <i name="AMGGAX">      1.00000000</i>
   <i name="ALDAC">      1.00000000</i>
   <i name="AGGAC">      1.00000000</i>
   <i name="AMGGAC">      1.00000000</i>
   <i type="int" name="NKREDX">     1</i>
   <i type="int" name="NKREDY">     1</i>
   <i type="int" name="NKREDZ">     1</i>
   <i type="logical" name="SHIFTRED"> F  </i>
   <i type="logical" name="ODDONLY"> F  </i>
   <i type="logical" name="EVENONLY"> F  </i>
   <i type="int" name="LMAXFOCK">     0</i>
   <i type="int" name="NMAXFOCKAE">     0</i>
   <i type="logical" name="LFOCKAEDFT"> F  </i>
   <i name="HFSCREEN">      0.00000000</i>
   <i name="HFSCREENC">      0.00000000</i>
   <i type="int" name="NBANDSGWLOW">     0</i>
  </separator>
  <separator name="vdW DFT" >
   <i type="logical" name="LUSE_VDW"> F  </i>
   <i type="int" name="IVDW_NL">    -1</i>
   <i type="logical" name="LSPIN_VDW"> F  </i>
   <i name="ZAB_VDW">     -0.84910000</i>
   <i name="GAMMA_VDW">      1.39626340</i>
   <i name="ALPHA_VDW">      0.00000000</i>
   <i name="PARAM1">      0.12340000</i>
   <i name="PARAM2">      1.00000000</i>
   <i name="BPARAM">      6.30000000</i>
   <i name="CPARAM">      0.00930000</i>
  </separator>
  <separator name="model GW" >
   <i type="int" name="MODEL_GW">     0</i>
   <i name="MODEL_EPS0">   2025.00000000</i>
   <i name="MODEL_ALPHA">      1.00000000</i>
  </separator>
  <separator name="linear response parameters" >
   <i type="logical" name="LEPSILON"> F  </i>
   <i type="logical" name="LRPA"> F  </i>
   <i type="logical" name="LNABLA"> F  </i>
   <i type="logical" name="LVEL"> F  </i>
   <i name="CSHIFT">      0.10000000</i>
   <i name="OMEGAMAX">     -1.00000000</i>
   <i name="DEG_THRESHOLD">      0.00200000</i>
   <i name="RTIME">     -0.10000000</i>
   <i name="WPLASMAI">      0.00000000</i>
   <v name="DFIELD">      0.00000000      0.00000000      0.00000000</v>
   <v name="WPLASMA">      0.00000000      0.00000000      0.00000000      0.00000000      0.00000000      0.00000000      0.00000000      0.00000000      0.00000000</v>
  </separator>
  <separator name="orbital magnetization" >
   <i type="logical" name="NUCIND"> F  </i>
   <v name="MAGPOS">      0.00000000      0.00000000      0.00000000</v>
   <i type="logical" name="LNICSALL"> T  </i>
   <i type="logical" name="ORBITALMAG"> F  </i>
   <i type="logical" name="LMAGBLOCH"> F  </i>
   <i type="logical" name="LCHIMAG"> F  </i>
   <i type="logical" name="LGAUGE"> T  </i>
   <i type="int" name="MAGATOM">     0</i>
   <v name="MAGDIPOL">      0.00000000      0.00000000      0.00000000</v>
   <v name="AVECCONST">      0.00000000      0.00000000      0.00000000</v>
  </separator>
  <separator name="response functions" >
   <i type="logical" name="LALL_IN_ONE"> F  </i>
   <i type="int" name="IALL_IN_ONE">    -1</i>
   <i type="int" name="NBANDS_WAVE">    -1</i>
   <i type="logical" name="LFINITE_TEMPERATURE"> F  </i>
   <i type="logical" name="LADDER"> F  </i>
   <i type="logical" name="LRPAFORCE"> F  </i>
   <i type="logical" name="LFXC"> F  </i>
   <i type="logical" name="LHARTREE"> T  </i>
   <i type="int" name="IBSE">     0</i>
   <v type="int" name="KPOINT">    -1     0     0     0</v>
   <i type="logical" name="LTCTC"> F  </i>
   <i type="logical" name="LTCTE"> F  </i>
   <i type="logical" name="LTETE"> F  </i>
   <i type="logical" name="LTRIPLET"> F  </i>
   <i type="logical" name="LFXCEPS"> F  </i>
   <i type="logical" name="LFXHEG"> F  </i>
   <i type="int" name="NATURALO">     2</i>
   <i type="logical" name="LHOLEGF"> F  </i>
   <i type="logical" name="L2ORDER"> F  </i>
   <i type="logical" name="LDMP1"> F  </i>
   <i type="logical" name="LMP2LT"> F  </i>
   <i type="logical" name="LSMP2LT"> F  </i>
   <i type="logical" name="LGWLF"> F  </i>
   <i name="ENCUTGW">     -1.60000002</i>
   <i name="ENCUTGWSOFT">     -1.60000002</i>
   <i name="ENCUTLF">     -1.00000000</i>
   <i type="logical" name="ESF_SPLINES"> F  </i>
   <i name="ESF_CONV">      0.01000000</i>
   <i type="int" name="ESF_NINTER">    15</i>
   <i type="int" name="LMAXMP2">    -1</i>
   <i name="SCISSOR">      0.00000000</i>
   <i type="int" name="NOMEGA">     0</i>
   <i type="int" name="NOMEGAR">     0</i>
   <i type="int" name="NBANDSGW">    -1</i>
   <i type="int" name="NBANDSO">    -1</i>
   <i type="int" name="NBANDSV">    -1</i>
   <i type="int" name="NELMGW">     1</i>
   <i type="int" name="NELMHF">     1</i>
   <i type="int" name="DIM">     3</i>
   <i type="int" name="IESPILON">     4</i>
   <i type="int" name="ANTIRES">     0</i>
   <i name="OMEGAMAX">    -30.00000000</i>
   <i name="OMEGAMIN">    -30.00000000</i>
   <i name="OMEGATL">   -200.00000000</i>
   <i type="int" name="OMEGAGRID">     0</i>
   <i name="CSHIFT">     -0.10000000</i>
   <i type="logical" name="LSELFENERGY"> F  </i>
   <i type="logical" name="LSPECTRAL"> F  </i>
   <i type="logical" name="LSPECTRALGW"> F  </i>
   <i type="logical" name="LSINGLES"> F  </i>
   <i type="logical" name="LFERMIGW"> F  </i>
   <i type="logical" name="ODDONLYGW"> F  </i>
   <i type="logical" name="EVENONLYGW"> F  </i>
   <i type="int" name="NKREDLFX">     1</i>
   <i type="int" name="NKREDLFY">     1</i>
   <i type="int" name="NKREDLFZ">     1</i>
   <i type="int" name="MAXMEM">  2800</i>
   <i type="int" name="TELESCOPE">     0</i>
   <i type="int" name="NTAUPAR">    -1</i>
   <i type="int" name="NOMEGAPAR">    -1</i>
   <i name="DAMP_NEWTON">      0.80000001</i>
   <i name="LAMBDA">      1.00000000</i>
  </separator>
  <separator name="External order field" >
   <i name="OFIELD_KAPPA">      0.00000000</i>
   <v name="OFIELD_K">      0.00000000      0.00000000      0.00000000</v>
   <i name="OFIELD_Q6_NEAR">      0.00000000</i>
   <i name="OFIELD_Q6_FAR">      0.00000000</i>
   <i name="OFIELD_A">      0.00000000</i>
  </separator>
  <separator name="optional k-points parameters" >
   <i type="int" name="KPOINTS_OPT_MODE">     1</i>
   <i type="logical" name="LKPOINTS_OPT"> F  </i>
  </separator>
 </parameters>
 <atominfo>
  <atoms>       1 </atoms>
  <types>       1 </types>
  <array name="atoms" >
   <dimension dim="1">ion</dimension>
   <field type="string">element</field>
   <field type="int">atomtype</field>
   <set>
    <rc><c>B </c><c>   1</c></rc>
   </set>
  </array>
  <array name="atomtypes" >
   <dimension dim="1">type</dimension>
   <field type="int">atomspertype</field>
   <field type="string">element</field>
   <field>mass</field>
   <field>valence</field>
   <field type="string">pseudopotential</field>
   <set>
    <rc><c>   1</c><c>B </c><c>     10.81100000</c><c>      3.00000000</c><c>  PAW_PBE B 06Sep2000                   </c></rc>
   </set>
  </array>
 </atominfo>
 <structure name="initialpos" >
  <crystal>
   <varray name="basis" >
    <v>      15.00000000       0.00000000       0.00000000 </v>
    <v>       0.00000000      12.50000000       0.00000000 </v>
    <v>       0.00000000       0.00000000      18.00000000 </v>
   </varray>
   <i name="volume">   3375.00000000 </i>
   <varray name="rec_basis" >
    <v>       0.06666667       0.00000000       0.00000000 </v>
    <v>       0.00000000       0.08000000       0.00000000 </v>
    <v>       0.00000000       0.00000000       0.05555556 </v>
   </varray>
  </crystal>
  <varray name="positions" >
   <v>       0.52123000       0.54500000       0.63796000 </v>
  </varray>
 </structure>
 <calculation>
  <scstep>
   <time name="dav">   10.33   10.55</time>
   <time name="total">   10.70   10.93</time>
   <energy>
    <i name="alphaZ">      0.02038373 </i>
    <i name="ewald">    -11.82901664 </i>
    <i name="hartreedc">    -42.58396533 </i>
    <i name="XCdc">      4.75549673 </i>
    <i name="pawpsdc">     43.49986551 </i>
    <i name="pawaedc">    -42.64454556 </i>
    <i name="eentropy">     -0.01267218 </i>
    <i name="bandstr">    -14.68206087 </i>
    <i name="atom">     71.16900941 </i>
    <i name="e_fr_energy">      7.69249480 </i>
    <i name="e_wo_entrp">      7.70516698 </i>
    <i name="e_0_energy">      7.69883089 </i>
   </energy>
  </scstep>
  <scstep>
   <time name="dav">   16.93   17.27</time>
   <time name="total">   16.93   17.27</time>
   <energy>
    <i name="e_fr_energy">      0.06429428 </i>
    <i name="e_wo_entrp">      0.09539061 </i>
    <i name="e_0_energy">      0.07984244 </i>
   </energy>
  </scstep>
  <scstep>
   <time name="dav">   10.21   10.58</time>
   <time name="total">   10.21   10.58</time>
   <energy>
    <i name="e_fr_energy">     -0.05587228 </i>
    <i name="e_wo_entrp">     -0.00291694 </i>
    <i name="e_0_energy">     -0.02939461 </i>
   </energy>
  </scstep>
  <scstep>
   <time name="dav">   10.83   11.13</time>
   <time name="total">   10.83   11.14</time>
   <energy>
    <i name="e_fr_energy">     -0.05824459 </i>
    <i name="e_wo_entrp">     -0.00524327 </i>
    <i name="e_0_energy">     -0.03174393 </i>
   </energy>
  </scstep>
  <scstep>
   <time name="dav">   14.54   14.78</time>
   <time name="total">   15.35   15.62</time>
   <energy>
    <i name="e_fr_energy">     -0.05827182 </i>
    <i name="e_wo_entrp">     -0.00527048 </i>
    <i name="e_0_energy">     -0.03177115 </i>
   </energy>
  </scstep>
  <scstep>
   <time name="dav">   12.12   12.26</time>
   <time name="total">   12.47   12.62</time>
   <energy>
    <i name="alphaZ">      0.02038373 </i>
    <i name="ewald">    -11.82901664 </i>
    <i name="hartreedc">    -42.58394684 </i>
    <i name="XCdc">      4.75537666 </i>
    <i name="pawpsdc">     43.51339165 </i>
    <i name="pawaedc">    -42.65817934 </i>
    <i name="eentropy">     -0.05300134 </i>
    <i name="bandstr">    -22.39228934 </i>
    <i name="atom">     71.16900941 </i>
    <i name="e_fr_energy">     -0.05827205 </i>
    <i name="e_wo_entrp">     -0.00527071 </i>
    <i name="e_0_energy">     -0.03177138 </i>
   </energy>
  </scstep>
  <structure>
   <crystal>
    <varray name="basis" >
     <v>      15.00000000       0.00000000       0.00000000 </v>
     <v>       0.00000000      12.50000000       0.00000000 </v>
     <v>       0.00000000       0.00000000      18.00000000 </v>
    </varray>
    <i name="volume">   3375.00000000 </i>
    <varray name="rec_basis" >
     <v>       0.06666667       0.00000000       0.00000000 </v>
     <v>       0.00000000       0.08000000       0.00000000 </v>
     <v>       0.00000000       0.00000000       0.05555556 </v>
    </varray>
   </crystal>
   <varray name="positions" >
    <v>       0.52123000       0.54500000       0.63796000 </v>
   </varray>
  </structure>
  <varray name="forces" >
   <v>      -0.00000000       0.00000000       0.00000000 </v>
  </varray>
  <varray name="stress" >
   <v>      -0.00064755       0.00000000       0.00000000 </v>
   <v>       0.00000000      -0.00058964       0.00000000 </v>
   <v>       0.00000000       0.00000000      -0.00064269 </v>
  </varray>
  <energy>
   <i name="e_fr_energy">     -0.05827205 </i>
   <i name="e_wo_entrp">     -0.00527071 </i>
   <i name="e_0_energy">     -0.03177138 </i>
  </energy>
  <time name="totalsc">   86.29   88.01</time>
  <eigenvalues>
   <array>
    <dimension dim="1">band</dimension>
    <dimension dim="2">kpoint</dimension>
    <dimension dim="3">spin</dimension>
    <field>eigene</field>
    <field>occ</field>
    <set>
     <set comment="spin 1">
      <set comment="kpoint 1">
       <r>   -9.4099    1.0000 </r>
       <r>   -3.5725    0.1667 </r>
       <r>   -3.5725    0.1667 </r>
       <r>   -3.5724    0.1659 </r>
       <r>   -0.2643    0.0000 </r>
       <r>    0.2944    0.0000 </r>
       <r>    0.3071    0.0000 </r>
       <r>    0.4691    0.0000 </r>
       <r>    0.5355    0.0000 </r>
       <r>    0.7252    0.0000 </r>
       <r>    0.7851    0.0000 </r>
       <r>    0.9564    0.0000 </r>
       <r>    0.9861    0.0000 </r>
       <r>    0.9908    0.0000 </r>
       <r>    1.0261    0.0000 </r>
       <r>    1.2008    0.0000 </r>
       <r>    1.2546    0.0000 </r>
       <r>    1.3010    0.0000 </r>
       <r>    1.3040    0.0000 </r>
       <r>    1.3279    0.0000 </r>
       <r>    1.4740    0.0000 </r>
       <r>    1.4782    0.0000 </r>
       <r>    1.5098    0.0000 </r>
       <r>    1.6934    0.0000 </r>
      </set>
      <set comment="kpoint 2">
       <r>   -9.4099    1.0000 </r>
       <r>   -3.5725    0.1667 </r>
       <r>   -3.5725    0.1667 </r>
       <r>   -3.5724    0.1659 </r>
       <r>   -0.2450    0.0000 </r>
       <r>    0.2353    0.0000 </r>
       <r>    0.3293    0.0000 </r>
       <r>    0.3672    0.0000 </r>
       <r>    0.7424    0.0000 </r>
       <r>    0.7438    0.0000 </r>
       <r>    0.7492    0.0000 </r>
       <r>    0.8002    0.0000 </r>
       <r>    0.8151    0.0000 </r>
       <r>    1.1636    0.0000 </r>
       <r>    1.2192    0.0000 </r>
       <r>    1.2226    0.0000 </r>
       <r>    1.2304    0.0000 </r>
       <r>    1.3129    0.0000 </r>
       <r>    1.3156    0.0000 </r>
       <r>    1.3414    0.0000 </r>
       <r>    1.3461    0.0000 </r>
       <r>    1.6363    0.0000 </r>
       <r>    1.6459    0.0000 </r>
       <r>    1.6984    0.0000 </r>
      </set>
      <set comment="kpoint 3">
       <r>   -9.4099    1.0000 </r>
       <r>   -3.5726    0.1668 </r>
       <r>   -3.5725    0.1667 </r>
       <r>   -3.5724    0.1659 </r>
       <r>   -0.2028    0.0000 </r>
       <r>    0.1050    0.0000 </r>
       <r>    0.3853    0.0000 </r>
       <r>    0.4252    0.0000 </r>
       <r>    0.5885    0.0000 </r>
       <r>    0.5923    0.0000 </r>
       <r>    0.7861    0.0000 </r>
       <r>    0.8647    0.0000 </r>
       <r>    1.0360    0.0000 </r>
       <r>    1.0569    0.0000 </r>
       <r>    1.1409    0.0000 </r>
       <r>    1.2593    0.0000 </r>
       <r>    1.3587    0.0000 </r>
       <r>    1.3803    0.0000 </r>
       <r>    1.3934    0.0000 </r>
       <r>    1.5023    0.0000 </r>
       <r>    1.5211    0.0000 </r>
       <r>    1.5297    0.0000 </r>
       <r>    1.5585    0.0000 </r>
       <r>    1.5639    0.0000 </r>
      </set>
      <set comment="kpoint 4">
       <r>   -9.4099    1.0000 </r>
       <r>   -3.5725    0.1667 </r>
       <r>   -3.5725    0.1666 </r>
       <r>   -3.5725    0.1662 </r>
       <r>   -0.2461    0.0000 </r>
       <r>    0.3099    0.0000 </r>
       <r>    0.3250    0.0000 </r>
       <r>    0.4863    0.0000 </r>
       <r>    0.5087    0.0000 </r>
       <r>    0.5608    0.0000 </r>
       <r>    0.9667    0.0000 </r>
       <r>    0.9740    0.0000 </r>
       <r>    0.9953    0.0000 </r>
       <r>    1.0050    0.0000 </r>
       <r>    1.0443    0.0000 </r>
       <r>    1.0459    0.0000 </r>
       <r>    1.0693    0.0000 </r>
       <r>    1.1612    0.0000 </r>
       <r>    1.2513    0.0000 </r>
       <r>    1.5176    0.0000 </r>
       <r>    1.5653    0.0000 </r>
       <r>    1.6382    0.0000 </r>
       <r>    1.6451    0.0000 </r>
       <r>    1.6817    0.0000 </r>
      </set>
      <set comment="kpoint 5">
       <r>   -9.4099    1.0000 </r>
       <r>   -3.5725    0.1667 </r>
       <r>   -3.5725    0.1667 </r>
       <r>   -3.5725    0.1662 </r>
       <r>   -0.2268    0.0000 </r>
       <r>    0.2528    0.0000 </r>
       <r>    0.3472    0.0000 </r>
       <r>    0.3843    0.0000 </r>
       <r>    0.5332    0.0000 </r>
       <r>    0.7600    0.0000 </r>
       <r>    0.7671    0.0000 </r>
       <r>    0.8261    0.0000 </r>
       <r>    0.9537    0.0000 </r>
       <r>    1.0187    0.0000 </r>
       <r>    1.0455    0.0000 </r>
       <r>    1.0944    0.0000 </r>
       <r>    1.2670    0.0000 </r>
       <r>    1.3157    0.0000 </r>
       <r>    1.4108    0.0000 </r>
       <r>    1.4567    0.0000 </r>
       <r>    1.5065    0.0000 </r>
       <r>    1.5291    0.0000 </r>
       <r>    1.5563    0.0000 </r>
       <r>    1.6266    0.0000 </r>
      </set>
      <set comment="kpoint 6">
       <r>   -9.4099    1.0000 </r>
       <r>   -3.5726    0.1668 </r>
       <r>   -3.5725    0.1667 </r>
       <r>   -3.5725    0.1662 </r>
       <r>   -0.1849    0.0000 </r>
       <r>    0.1237    0.0000 </r>
       <r>    0.4027    0.0000 </r>
       <r>    0.4413    0.0000 </r>
       <r>    0.5837    0.0000 </r>
       <r>    0.6064    0.0000 </r>
       <r>    0.6112    0.0000 </r>
       <r>    0.8118    0.0000 </r>
       <r>    1.0716    0.0000 </r>
       <r>    1.0873    0.0000 </r>
       <r>    1.1250    0.0000 </r>
       <r>    1.1665    0.0000 </r>
       <r>    1.2829    0.0000 </r>
       <r>    1.2930    0.0000 </r>
       <r>    1.3610    0.0000 </r>
       <r>    1.5113    0.0000 </r>
       <r>    1.5558    0.0000 </r>
       <r>    1.6286    0.0000 </r>
       <r>    1.6594    0.0000 </r>
       <r>    1.6969    0.0000 </r>
      </set>
      <set comment="kpoint 7">
       <r>   -9.4099    1.0000 </r>
       <r>   -3.5726    0.1669 </r>
       <r>   -3.5725    0.1667 </r>
       <r>   -3.5725    0.1666 </r>
       <r>   -0.1946    0.0000 </r>
       <r>    0.2777    0.0000 </r>
       <r>    0.3776    0.0000 </r>
       <r>    0.4006    0.0000 </r>
       <r>    0.5361    0.0000 </r>
       <r>    0.6145    0.0000 </r>
       <r>    0.7925    0.0000 </r>
       <r>    0.8097    0.0000 </r>
       <r>    0.9476    0.0000 </r>
       <r>    1.0248    0.0000 </r>
       <r>    1.0368    0.0000 </r>
       <r>    1.0757    0.0000 </r>
       <r>    1.0825    0.0000 </r>
       <r>    1.1059    0.0000 </r>
       <r>    1.3474    0.0000 </r>
       <r>    1.4706    0.0000 </r>
       <r>    1.4739    0.0000 </r>
       <r>    1.4814    0.0000 </r>
       <r>    1.5375    0.0000 </r>
       <r>    1.7109    0.0000 </r>
      </set>
      <set comment="kpoint 8">
       <r>   -9.4099    1.0000 </r>
       <r>   -3.5726    0.1668 </r>
       <r>   -3.5725    0.1667 </r>
       <r>   -3.5725    0.1666 </r>
       <r>   -0.1756    0.0000 </r>
       <r>    0.2793    0.0000 </r>
       <r>    0.3502    0.0000 </r>
       <r>    0.3995    0.0000 </r>
       <r>    0.4512    0.0000 </r>
       <r>    0.7322    0.0000 </r>
       <r>    0.7989    0.0000 </r>
       <r>    0.8312    0.0000 </r>
       <r>    0.8433    0.0000 </r>
       <r>    0.8663    0.0000 </r>
       <r>    0.8851    0.0000 </r>
       <r>    1.2292    0.0000 </r>
       <r>    1.2366    0.0000 </r>
       <r>    1.2888    0.0000 </r>
       <r>    1.3392    0.0000 </r>
       <r>    1.3686    0.0000 </r>
       <r>    1.4029    0.0000 </r>
       <r>    1.7149    0.0000 </r>
       <r>    1.7360    0.0000 </r>
       <r>    1.7803    0.0000 </r>
      </set>
      <set comment="kpoint 9">
       <r>   -9.4099    1.0000 </r>
       <r>   -3.5726    0.1668 </r>
       <r>   -3.5725    0.1667 </r>
       <r>   -3.5725    0.1667 </r>
       <r>   -0.1347    0.0000 </r>
       <r>    0.1788    0.0000 </r>
       <r>    0.3701    0.0000 </r>
       <r>    0.4534    0.0000 </r>
       <r>    0.5138    0.0000 </r>
       <r>    0.5877    0.0000 </r>
       <r>    0.6671    0.0000 </r>
       <r>    0.6807    0.0000 </r>
       <r>    0.8766    0.0000 </r>
       <r>    0.9291    0.0000 </r>
       <r>    1.0761    0.0000 </r>
       <r>    1.0869    0.0000 </r>
       <r>    1.1903    0.0000 </r>
       <r>    1.4024    0.0000 </r>
       <r>    1.5391    0.0000 </r>
       <r>    1.6158    0.0000 </r>
       <r>    1.6347    0.0000 </r>
       <r>    1.6697    0.0000 </r>
       <r>    1.7483    0.0000 </r>
       <r>    1.8145    0.0000 </r>
      </set>
      <set comment="kpoint 10">
       <r>   -9.4099    1.0000 </r>
       <r>   -3.5726    0.1674 </r>
       <r>   -3.5725    0.1666 </r>
       <r>   -3.5725    0.1665 </r>
       <r>   -0.1291    0.0000 </r>
       <r>    0.1487    0.0000 </r>
       <r>    0.4546    0.0000 </r>
       <r>    0.4820    0.0000 </r>
       <r>    0.6058    0.0000 </r>
       <r>    0.6387    0.0000 </r>
       <r>    0.6429    0.0000 </r>
       <r>    0.7027    0.0000 </r>
       <r>    0.8120    0.0000 </r>
       <r>    0.8735    0.0000 </r>
       <r>    1.0924    0.0000 </r>
       <r>    1.1617    0.0000 </r>
       <r>    1.1661    0.0000 </r>
       <r>    1.2036    0.0000 </r>
       <r>    1.3097    0.0000 </r>
       <r>    1.3109    0.0000 </r>
       <r>    1.3380    0.0000 </r>
       <r>    1.3438    0.0000 </r>
       <r>    1.6688    0.0000 </r>
       <r>    1.8069    0.0000 </r>
      </set>
      <set comment="kpoint 11">
       <r>   -9.4099    1.0000 </r>
       <r>   -3.5726    0.1674 </r>
       <r>   -3.5725    0.1666 </r>
       <r>   -3.5725    0.1666 </r>
       <r>   -0.1111    0.0000 </r>
       <r>    0.1714    0.0000 </r>
       <r>    0.4041    0.0000 </r>
       <r>    0.4753    0.0000 </r>
       <r>    0.5366    0.0000 </r>
       <r>    0.5829    0.0000 </r>
       <r>    0.6665    0.0000 </r>
       <r>    0.6988    0.0000 </r>
       <r>    0.9023    0.0000 </r>
       <r>    0.9066    0.0000 </r>
       <r>    0.9780    0.0000 </r>
       <r>    1.0777    0.0000 </r>
       <r>    1.0883    0.0000 </r>
       <r>    1.1385    0.0000 </r>
       <r>    1.4049    0.0000 </r>
       <r>    1.4693    0.0000 </r>
       <r>    1.6003    0.0000 </r>
       <r>    1.6049    0.0000 </r>
       <r>    1.6934    0.0000 </r>
       <r>    1.8106    0.0000 </r>
      </set>
      <set comment="kpoint 12">
       <r>   -9.4099    1.0000 </r>
       <r>   -3.5726    0.1674 </r>
       <r>   -3.5725    0.1667 </r>
       <r>   -3.5725    0.1666 </r>
       <r>   -0.0732    0.0000 </r>
       <r>    0.2287    0.0000 </r>
       <r>    0.2723    0.0000 </r>
       <r>    0.4337    0.0000 </r>
       <r>    0.5247    0.0000 </r>
       <r>    0.6038    0.0000 </r>
       <r>    0.7262    0.0000 </r>
       <r>    0.7591    0.0000 </r>
       <r>    0.7596    0.0000 </r>
       <r>    0.7650    0.0000 </r>
       <r>    0.9107    0.0000 </r>
       <r>    0.9237    0.0000 </r>
       <r>    1.2638    0.0000 </r>
       <r>    1.4501    0.0000 </r>
       <r>    1.6198    0.0000 </r>
       <r>    1.6852    0.0000 </r>
       <r>    1.7021    0.0000 </r>
       <r>    1.7947    0.0000 </r>
       <r>    1.8465    0.0000 </r>
       <r>    1.8877    0.0000 </r>
      </set>
      <set comment="kpoint 13">
       <r>   -9.4099    1.0000 </r>
       <r>   -3.5725    0.1667 </r>
       <r>   -3.5725    0.1667 </r>
       <r>   -3.5724    0.1659 </r>
       <r>   -0.2549    0.0000 </r>
       <r>    0.1564    0.0000 </r>
       <r>    0.4652    0.0000 </r>
       <r>    0.4803    0.0000 </r>
       <r>    0.5729    0.0000 </r>
       <r>    0.7348    0.0000 </r>
       <r>    0.7982    0.0000 </r>
       <r>    0.8260    0.0000 </r>
       <r>    0.8463    0.0000 </r>
       <r>    1.0907    0.0000 </r>
       <r>    1.1270    0.0000 </r>
       <r>    1.1599    0.0000 </r>
       <r>    1.2256    0.0000 </r>
       <r>    1.3253    0.0000 </r>
       <r>    1.3348    0.0000 </r>
       <r>    1.3846    0.0000 </r>
       <r>    1.4930    0.0000 </r>
       <r>    1.4958    0.0000 </r>
       <r>    1.5403    0.0000 </r>
       <r>    1.5456    0.0000 </r>
      </set>
      <set comment="kpoint 14">
       <r>   -9.4099    1.0000 </r>
       <r>   -3.5725    0.1667 </r>
       <r>   -3.5725    0.1667 </r>
       <r>   -3.5724    0.1659 </r>
       <r>   -0.2359    0.0000 </r>
       <r>    0.1748    0.0000 </r>
       <r>    0.2809    0.0000 </r>
       <r>    0.5274    0.0000 </r>
       <r>    0.6085    0.0000 </r>
       <r>    0.7530    0.0000 </r>
       <r>    0.7863    0.0000 </r>
       <r>    0.8251    0.0000 </r>
       <r>    0.9574    0.0000 </r>
       <r>    1.1031    0.0000 </r>
       <r>    1.1091    0.0000 </r>
       <r>    1.1728    0.0000 </r>
       <r>    1.1902    0.0000 </r>
       <r>    1.2659    0.0000 </r>
       <r>    1.3707    0.0000 </r>
       <r>    1.4290    0.0000 </r>
       <r>    1.4719    0.0000 </r>
       <r>    1.5227    0.0000 </r>
       <r>    1.5690    0.0000 </r>
       <r>    1.5795    0.0000 </r>
      </set>
      <set comment="kpoint 15">
       <r>   -9.4099    1.0000 </r>
       <r>   -3.5726    0.1668 </r>
       <r>   -3.5725    0.1667 </r>
       <r>   -3.5724    0.1659 </r>
       <r>   -0.1948    0.0000 </r>
       <r>    0.1196    0.0000 </r>
       <r>    0.2586    0.0000 </r>
       <r>    0.4311    0.0000 </r>
       <r>    0.6000    0.0000 </r>
       <r>    0.7841    0.0000 </r>
       <r>    0.7941    0.0000 </r>
       <r>    0.8769    0.0000 </r>
       <r>    1.0489    0.0000 </r>
       <r>    1.0709    0.0000 </r>
       <r>    1.1542    0.0000 </r>
       <r>    1.1737    0.0000 </r>
       <r>    1.2273    0.0000 </r>
       <r>    1.3754    0.0000 </r>
       <r>    1.3757    0.0000 </r>
       <r>    1.4114    0.0000 </r>
       <r>    1.4659    0.0000 </r>
       <r>    1.5228    0.0000 </r>
       <r>    1.5249    0.0000 </r>
       <r>    1.6171    0.0000 </r>
      </set>
      <set comment="kpoint 16">
       <r>   -9.4099    1.0000 </r>
       <r>   -3.5725    0.1667 </r>
       <r>   -3.5725    0.1666 </r>
       <r>   -3.5725    0.1662 </r>
       <r>   -0.2368    0.0000 </r>
       <r>    0.1748    0.0000 </r>
       <r>    0.4676    0.0000 </r>
       <r>    0.4973    0.0000 </r>
       <r>    0.5385    0.0000 </r>
       <r>    0.5923    0.0000 </r>
       <r>    0.8421    0.0000 </r>
       <r>    0.8442    0.0000 </r>
       <r>    0.8905    0.0000 </r>
       <r>    1.0399    0.0000 </r>
       <r>    1.1432    0.0000 </r>
       <r>    1.1846    0.0000 </r>
       <r>    1.2017    0.0000 </r>
       <r>    1.2328    0.0000 </r>
       <r>    1.2697    0.0000 </r>
       <r>    1.3659    0.0000 </r>
       <r>    1.4151    0.0000 </r>
       <r>    1.5342    0.0000 </r>
       <r>    1.5635    0.0000 </r>
       <r>    1.6960    0.0000 </r>
      </set>
      <set comment="kpoint 17">
       <r>   -9.4099    1.0000 </r>
       <r>   -3.5725    0.1667 </r>
       <r>   -3.5725    0.1667 </r>
       <r>   -3.5725    0.1662 </r>
       <r>   -0.2178    0.0000 </r>
       <r>    0.1931    0.0000 </r>
       <r>    0.2988    0.0000 </r>
       <r>    0.5237    0.0000 </r>
       <r>    0.5630    0.0000 </r>
       <r>    0.6282    0.0000 </r>
       <r>    0.8084    0.0000 </r>
       <r>    0.8850    0.0000 </r>
       <r>    0.9602    0.0000 </r>
       <r>    0.9995    0.0000 </r>
       <r>    1.0677    0.0000 </r>
       <r>    1.1387    0.0000 </r>
       <r>    1.2263    0.0000 </r>
       <r>    1.3192    0.0000 </r>
       <r>    1.3535    0.0000 </r>
       <r>    1.4321    0.0000 </r>
       <r>    1.4879    0.0000 </r>
       <r>    1.4965    0.0000 </r>
       <r>    1.5516    0.0000 </r>
       <r>    1.6728    0.0000 </r>
      </set>
      <set comment="kpoint 18">
       <r>   -9.4099    1.0000 </r>
       <r>   -3.5726    0.1668 </r>
       <r>   -3.5725    0.1667 </r>
       <r>   -3.5725    0.1662 </r>
       <r>   -0.1770    0.0000 </r>
       <r>    0.1382    0.0000 </r>
       <r>    0.2768    0.0000 </r>
       <r>    0.4498    0.0000 </r>
       <r>    0.5808    0.0000 </r>
       <r>    0.6287    0.0000 </r>
       <r>    0.7891    0.0000 </r>
       <r>    0.8390    0.0000 </r>
       <r>    0.9589    0.0000 </r>
       <r>    1.1105    0.0000 </r>
       <r>    1.1239    0.0000 </r>
       <r>    1.1505    0.0000 </r>
       <r>    1.3060    0.0000 </r>
       <r>    1.3487    0.0000 </r>
       <r>    1.4067    0.0000 </r>
       <r>    1.4668    0.0000 </r>
       <r>    1.5012    0.0000 </r>
       <r>    1.5239    0.0000 </r>
       <r>    1.5516    0.0000 </r>
       <r>    1.6301    0.0000 </r>
      </set>
      <set comment="kpoint 19">
       <r>   -9.4099    1.0000 </r>
       <r>   -3.5726    0.1669 </r>
       <r>   -3.5725    0.1667 </r>
       <r>   -3.5725    0.1666 </r>
       <r>   -0.1856    0.0000 </r>
       <r>    0.2246    0.0000 </r>
       <r>    0.3152    0.0000 </r>
       <r>    0.5467    0.0000 </r>
       <r>    0.5505    0.0000 </r>
       <r>    0.6409    0.0000 </r>
       <r>    0.6631    0.0000 </r>
       <r>    0.8949    0.0000 </r>
       <r>    0.9268    0.0000 </r>
       <r>    0.9716    0.0000 </r>
       <r>    0.9724    0.0000 </r>
       <r>    1.0732    0.0000 </r>
       <r>    1.2299    0.0000 </r>
       <r>    1.2837    0.0000 </r>
       <r>    1.3199    0.0000 </r>
       <r>    1.3395    0.0000 </r>
       <r>    1.3726    0.0000 </r>
       <r>    1.4298    0.0000 </r>
       <r>    1.6651    0.0000 </r>
       <r>    1.6863    0.0000 </r>
      </set>
      <set comment="kpoint 20">
       <r>   -9.4099    1.0000 </r>
       <r>   -3.5726    0.1668 </r>
       <r>   -3.5725    0.1667 </r>
       <r>   -3.5725    0.1666 </r>
       <r>   -0.1669    0.0000 </r>
       <r>    0.2421    0.0000 </r>
       <r>    0.3307    0.0000 </r>
       <r>    0.3651    0.0000 </r>
       <r>    0.5973    0.0000 </r>
       <r>    0.6726    0.0000 </r>
       <r>    0.6957    0.0000 </r>
       <r>    0.7724    0.0000 </r>
       <r>    0.8701    0.0000 </r>
       <r>    1.0135    0.0000 </r>
       <r>    1.0408    0.0000 </r>
       <r>    1.1048    0.0000 </r>
       <r>    1.1988    0.0000 </r>
       <r>    1.2783    0.0000 </r>
       <r>    1.3723    0.0000 </r>
       <r>    1.4390    0.0000 </r>
       <r>    1.4616    0.0000 </r>
       <r>    1.5441    0.0000 </r>
       <r>    1.6247    0.0000 </r>
       <r>    1.7492    0.0000 </r>
      </set>
      <set comment="kpoint 21">
       <r>   -9.4099    1.0000 </r>
       <r>   -3.5726    0.1668 </r>
       <r>   -3.5725    0.1667 </r>
       <r>   -3.5725    0.1667 </r>
       <r>   -0.1270    0.0000 </r>
       <r>    0.1931    0.0000 </r>
       <r>    0.3275    0.0000 </r>
       <r>    0.3924    0.0000 </r>
       <r>    0.5036    0.0000 </r>
       <r>    0.6158    0.0000 </r>
       <r>    0.6733    0.0000 </r>
       <r>    0.7585    0.0000 </r>
       <r>    0.8636    0.0000 </r>
       <r>    0.9245    0.0000 </r>
       <r>    1.0951    0.0000 </r>
       <r>    1.1975    0.0000 </r>
       <r>    1.2778    0.0000 </r>
       <r>    1.4003    0.0000 </r>
       <r>    1.4538    0.0000 </r>
       <r>    1.5334    0.0000 </r>
       <r>    1.6063    0.0000 </r>
       <r>    1.6342    0.0000 </r>
       <r>    1.6911    0.0000 </r>
       <r>    1.7079    0.0000 </r>
      </set>
      <set comment="kpoint 22">
       <r>   -9.4099    1.0000 </r>
       <r>   -3.5726    0.1674 </r>
       <r>   -3.5725    0.1666 </r>
       <r>   -3.5725    0.1666 </r>
       <r>   -0.1211    0.0000 </r>
       <r>    0.1622    0.0000 </r>
       <r>    0.3253    0.0000 </r>
       <r>    0.4885    0.0000 </r>
       <r>    0.6152    0.0000 </r>
       <r>    0.6410    0.0000 </r>
       <r>    0.7333    0.0000 </r>
       <r>    0.8083    0.0000 </r>
       <r>    0.8248    0.0000 </r>
       <r>    0.9103    0.0000 </r>
       <r>    0.9841    0.0000 </r>
       <r>    1.0246    0.0000 </r>
       <r>    1.1605    0.0000 </r>
       <r>    1.1682    0.0000 </r>
       <r>    1.3264    0.0000 </r>
       <r>    1.3796    0.0000 </r>
       <r>    1.4810    0.0000 </r>
       <r>    1.5179    0.0000 </r>
       <r>    1.5183    0.0000 </r>
       <r>    1.6608    0.0000 </r>
      </set>
      <set comment="kpoint 23">
       <r>   -9.4099    1.0000 </r>
       <r>   -3.5726    0.1674 </r>
       <r>   -3.5725    0.1666 </r>
       <r>   -3.5725    0.1666 </r>
       <r>   -0.1033    0.0000 </r>
       <r>    0.1847    0.0000 </r>
       <r>    0.3448    0.0000 </r>
       <r>    0.4351    0.0000 </r>
       <r>    0.5088    0.0000 </r>
       <r>    0.6188    0.0000 </r>
       <r>    0.6901    0.0000 </r>
       <r>    0.7787    0.0000 </r>
       <r>    0.8653    0.0000 </r>
       <r>    0.9305    0.0000 </r>
       <r>    0.9477    0.0000 </r>
       <r>    1.1236    0.0000 </r>
       <r>    1.1404    0.0000 </r>
       <r>    1.2726    0.0000 </r>
       <r>    1.2996    0.0000 </r>
       <r>    1.4459    0.0000 </r>
       <r>    1.5030    0.0000 </r>
       <r>    1.6209    0.0000 </r>
       <r>    1.6872    0.0000 </r>
       <r>    1.7330    0.0000 </r>
      </set>
      <set comment="kpoint 24">
       <r>   -9.4099    1.0000 </r>
       <r>   -3.5726    0.1674 </r>
       <r>   -3.5725    0.1667 </r>
       <r>   -3.5725    0.1666 </r>
       <r>   -0.0663    0.0000 </r>
       <r>    0.2412    0.0000 </r>
       <r>    0.2858    0.0000 </r>
       <r>    0.4170    0.0000 </r>
       <r>    0.4485    0.0000 </r>
       <r>    0.5853    0.0000 </r>
       <r>    0.6076    0.0000 </r>
       <r>    0.7507    0.0000 </r>
       <r>    0.7701    0.0000 </r>
       <r>    0.9370    0.0000 </r>
       <r>    0.9549    0.0000 </r>
       <r>    1.1135    0.0000 </r>
       <r>    1.2741    0.0000 </r>
       <r>    1.4598    0.0000 </r>
       <r>    1.5221    0.0000 </r>
       <r>    1.6160    0.0000 </r>
       <r>    1.6373    0.0000 </r>
       <r>    1.7026    0.0000 </r>
       <r>    1.7555    0.0000 </r>
       <r>    1.8065    0.0000 </r>
      </set>
      <set comment="kpoint 25">
       <r>   -9.4099    1.0000 </r>
       <r>   -3.5725    0.1667 </r>
       <r>   -3.5725    0.1667 </r>
       <r>   -3.5724    0.1659 </r>
       <r>   -0.2368    0.0000 </r>
       <r>    0.0688    0.0000 </r>
       <r>    0.5035    0.0000 </r>
       <r>    0.5529    0.0000 </r>
       <r>    0.6951    0.0000 </r>
       <r>    0.7345    0.0000 </r>
       <r>    0.7539    0.0000 </r>
       <r>    0.7881    0.0000 </r>
       <r>    0.8273    0.0000 </r>
       <r>    1.0029    0.0000 </r>
       <r>    1.0079    0.0000 </r>
       <r>    1.0740    0.0000 </r>
       <r>    1.3473    0.0000 </r>
       <r>    1.3689    0.0000 </r>
       <r>    1.4474    0.0000 </r>
       <r>    1.4980    0.0000 </r>
       <r>    1.5167    0.0000 </r>
       <r>    1.5667    0.0000 </r>
       <r>    1.5908    0.0000 </r>
       <r>    1.6370    0.0000 </r>
      </set>
      <set comment="kpoint 26">
       <r>   -9.4099    1.0000 </r>
       <r>   -3.5725    0.1667 </r>
       <r>   -3.5725    0.1667 </r>
       <r>   -3.5724    0.1659 </r>
       <r>   -0.2186    0.0000 </r>
       <r>    0.0937    0.0000 </r>
       <r>    0.3062    0.0000 </r>
       <r>    0.4976    0.0000 </r>
       <r>    0.7546    0.0000 </r>
       <r>    0.7712    0.0000 </r>
       <r>    0.8212    0.0000 </r>
       <r>    0.8512    0.0000 </r>
       <r>    0.9812    0.0000 </r>
       <r>    1.0315    0.0000 </r>
       <r>    1.0656    0.0000 </r>
       <r>    1.0992    0.0000 </r>
       <r>    1.1873    0.0000 </r>
       <r>    1.2097    0.0000 </r>
       <r>    1.3159    0.0000 </r>
       <r>    1.4277    0.0000 </r>
       <r>    1.4371    0.0000 </r>
       <r>    1.5135    0.0000 </r>
       <r>    1.6604    0.0000 </r>
       <r>    1.6842    0.0000 </r>
      </set>
      <set comment="kpoint 27">
       <r>   -9.4099    1.0000 </r>
       <r>   -3.5726    0.1668 </r>
       <r>   -3.5725    0.1667 </r>
       <r>   -3.5724    0.1659 </r>
       <r>   -0.1800    0.0000 </r>
       <r>    0.1515    0.0000 </r>
       <r>    0.1770    0.0000 </r>
       <r>    0.3250    0.0000 </r>
       <r>    0.8092    0.0000 </r>
       <r>    0.8248    0.0000 </r>
       <r>    0.9010    0.0000 </r>
       <r>    1.0023    0.0000 </r>
       <r>    1.0723    0.0000 </r>
       <r>    1.0773    0.0000 </r>
       <r>    1.0982    0.0000 </r>
       <r>    1.1059    0.0000 </r>
       <r>    1.1685    0.0000 </r>
       <r>    1.2065    0.0000 </r>
       <r>    1.2593    0.0000 </r>
       <r>    1.2814    0.0000 </r>
       <r>    1.3362    0.0000 </r>
       <r>    1.3944    0.0000 </r>
       <r>    1.5422    0.0000 </r>
       <r>    1.7156    0.0000 </r>
      </set>
      <set comment="kpoint 28">
       <r>   -9.4099    1.0000 </r>
       <r>   -3.5725    0.1667 </r>
       <r>   -3.5725    0.1666 </r>
       <r>   -3.5725    0.1662 </r>
       <r>   -0.2189    0.0000 </r>
       <r>    0.0878    0.0000 </r>
       <r>    0.5202    0.0000 </r>
       <r>    0.5261    0.0000 </r>
       <r>    0.5911    0.0000 </r>
       <r>    0.7005    0.0000 </r>
       <r>    0.7534    0.0000 </r>
       <r>    0.7898    0.0000 </r>
       <r>    0.8095    0.0000 </r>
       <r>    1.0454    0.0000 </r>
       <r>    1.0638    0.0000 </r>
       <r>    1.1799    0.0000 </r>
       <r>    1.2931    0.0000 </r>
       <r>    1.3090    0.0000 </r>
       <r>    1.3729    0.0000 </r>
       <r>    1.3894    0.0000 </r>
       <r>    1.4776    0.0000 </r>
       <r>    1.4882    0.0000 </r>
       <r>    1.5039    0.0000 </r>
       <r>    1.6680    0.0000 </r>
      </set>
      <set comment="kpoint 29">
       <r>   -9.4099    1.0000 </r>
       <r>   -3.5725    0.1667 </r>
       <r>   -3.5725    0.1667 </r>
       <r>   -3.5725    0.1662 </r>
       <r>   -0.2007    0.0000 </r>
       <r>    0.1126    0.0000 </r>
       <r>    0.3238    0.0000 </r>
       <r>    0.5161    0.0000 </r>
       <r>    0.5621    0.0000 </r>
       <r>    0.7616    0.0000 </r>
       <r>    0.8121    0.0000 </r>
       <r>    0.8430    0.0000 </r>
       <r>    1.0003    0.0000 </r>
       <r>    1.0257    0.0000 </r>
       <r>    1.0870    0.0000 </r>
       <r>    1.1000    0.0000 </r>
       <r>    1.1798    0.0000 </r>
       <r>    1.2305    0.0000 </r>
       <r>    1.3446    0.0000 </r>
       <r>    1.4637    0.0000 </r>
       <r>    1.4808    0.0000 </r>
       <r>    1.5055    0.0000 </r>
       <r>    1.5775    0.0000 </r>
       <r>    1.6789    0.0000 </r>
      </set>
      <set comment="kpoint 30">
       <r>   -9.4099    1.0000 </r>
       <r>   -3.5726    0.1668 </r>
       <r>   -3.5725    0.1667 </r>
       <r>   -3.5725    0.1662 </r>
       <r>   -0.1623    0.0000 </r>
       <r>    0.1702    0.0000 </r>
       <r>    0.1955    0.0000 </r>
       <r>    0.3442    0.0000 </r>
       <r>    0.6095    0.0000 </r>
       <r>    0.8221    0.0000 </r>
       <r>    0.8583    0.0000 </r>
       <r>    0.8894    0.0000 </r>
       <r>    1.0127    0.0000 </r>
       <r>    1.0506    0.0000 </r>
       <r>    1.1079    0.0000 </r>
       <r>    1.1378    0.0000 </r>
       <r>    1.1767    0.0000 </r>
       <r>    1.3136    0.0000 </r>
       <r>    1.3948    0.0000 </r>
       <r>    1.4025    0.0000 </r>
       <r>    1.4188    0.0000 </r>
       <r>    1.5262    0.0000 </r>
       <r>    1.5653    0.0000 </r>
       <r>    1.5980    0.0000 </r>
      </set>
      <set comment="kpoint 31">
       <r>   -9.4099    1.0000 </r>
       <r>   -3.5726    0.1669 </r>
       <r>   -3.5725    0.1667 </r>
       <r>   -3.5725    0.1666 </r>
       <r>   -0.1684    0.0000 </r>
       <r>    0.1442    0.0000 </r>
       <r>    0.3361    0.0000 </r>
       <r>    0.5539    0.0000 </r>
       <r>    0.5684    0.0000 </r>
       <r>    0.6399    0.0000 </r>
       <r>    0.7796    0.0000 </r>
       <r>    0.8095    0.0000 </r>
       <r>    0.8673    0.0000 </r>
       <r>    0.9928    0.0000 </r>
       <r>    1.0532    0.0000 </r>
       <r>    1.1149    0.0000 </r>
       <r>    1.1846    0.0000 </r>
       <r>    1.2239    0.0000 </r>
       <r>    1.2844    0.0000 </r>
       <r>    1.3875    0.0000 </r>
       <r>    1.4705    0.0000 </r>
       <r>    1.5236    0.0000 </r>
       <r>    1.5315    0.0000 </r>
       <r>    1.6623    0.0000 </r>
      </set>
      <set comment="kpoint 32">
       <r>   -9.4099    1.0000 </r>
       <r>   -3.5726    0.1668 </r>
       <r>   -3.5725    0.1667 </r>
       <r>   -3.5725    0.1666 </r>
       <r>   -0.1505    0.0000 </r>
       <r>    0.1689    0.0000 </r>
       <r>    0.3463    0.0000 </r>
       <r>    0.3928    0.0000 </r>
       <r>    0.5575    0.0000 </r>
       <r>    0.5990    0.0000 </r>
       <r>    0.7975    0.0000 </r>
       <r>    0.8434    0.0000 </r>
       <r>    0.9016    0.0000 </r>
       <r>    0.9855    0.0000 </r>
       <r>    1.0748    0.0000 </r>
       <r>    1.1529    0.0000 </r>
       <r>    1.2456    0.0000 </r>
       <r>    1.2656    0.0000 </r>
       <r>    1.3179    0.0000 </r>
       <r>    1.4146    0.0000 </r>
       <r>    1.4917    0.0000 </r>
       <r>    1.5403    0.0000 </r>
       <r>    1.5818    0.0000 </r>
       <r>    1.6651    0.0000 </r>
      </set>
      <set comment="kpoint 33">
       <r>   -9.4099    1.0000 </r>
       <r>   -3.5726    0.1668 </r>
       <r>   -3.5725    0.1667 </r>
       <r>   -3.5725    0.1667 </r>
       <r>   -0.1130    0.0000 </r>
       <r>    0.2250    0.0000 </r>
       <r>    0.2504    0.0000 </r>
       <r>    0.4008    0.0000 </r>
       <r>    0.4117    0.0000 </r>
       <r>    0.6442    0.0000 </r>
       <r>    0.6640    0.0000 </r>
       <r>    0.8134    0.0000 </r>
       <r>    0.9101    0.0000 </r>
       <r>    1.0918    0.0000 </r>
       <r>    1.1675    0.0000 </r>
       <r>    1.2215    0.0000 </r>
       <r>    1.3132    0.0000 </r>
       <r>    1.3612    0.0000 </r>
       <r>    1.4306    0.0000 </r>
       <r>    1.4741    0.0000 </r>
       <r>    1.5053    0.0000 </r>
       <r>    1.5611    0.0000 </r>
       <r>    1.6469    0.0000 </r>
       <r>    1.6673    0.0000 </r>
      </set>
      <set comment="kpoint 34">
       <r>   -9.4099    1.0000 </r>
       <r>   -3.5726    0.1674 </r>
       <r>   -3.5725    0.1666 </r>
       <r>   -3.5725    0.1666 </r>
       <r>   -0.1062    0.0000 </r>
       <r>    0.1941    0.0000 </r>
       <r>    0.2385    0.0000 </r>
       <r>    0.3901    0.0000 </r>
       <r>    0.6336    0.0000 </r>
       <r>    0.7296    0.0000 </r>
       <r>    0.8539    0.0000 </r>
       <r>    0.8566    0.0000 </r>
       <r>    0.8980    0.0000 </r>
       <r>    0.8986    0.0000 </r>
       <r>    0.9599    0.0000 </r>
       <r>    1.0326    0.0000 </r>
       <r>    1.0643    0.0000 </r>
       <r>    1.1153    0.0000 </r>
       <r>    1.1927    0.0000 </r>
       <r>    1.3648    0.0000 </r>
       <r>    1.5362    0.0000 </r>
       <r>    1.6024    0.0000 </r>
       <r>    1.7028    0.0000 </r>
       <r>    1.7430    0.0000 </r>
      </set>
      <set comment="kpoint 35">
       <r>   -9.4099    1.0000 </r>
       <r>   -3.5726    0.1674 </r>
       <r>   -3.5725    0.1666 </r>
       <r>   -3.5725    0.1666 </r>
       <r>   -0.0890    0.0000 </r>
       <r>    0.2160    0.0000 </r>
       <r>    0.2627    0.0000 </r>
       <r>    0.4151    0.0000 </r>
       <r>    0.4586    0.0000 </r>
       <r>    0.6487    0.0000 </r>
       <r>    0.6701    0.0000 </r>
       <r>    0.8191    0.0000 </r>
       <r>    0.9269    0.0000 </r>
       <r>    0.9709    0.0000 </r>
       <r>    1.0917    0.0000 </r>
       <r>    1.1570    0.0000 </r>
       <r>    1.1741    0.0000 </r>
       <r>    1.2445    0.0000 </r>
       <r>    1.3222    0.0000 </r>
       <r>    1.3648    0.0000 </r>
       <r>    1.4101    0.0000 </r>
       <r>    1.5219    0.0000 </r>
       <r>    1.6159    0.0000 </r>
       <r>    1.7370    0.0000 </r>
      </set>
      <set comment="kpoint 36">
       <r>   -9.4099    1.0000 </r>
       <r>   -3.5726    0.1674 </r>
       <r>   -3.5725    0.1667 </r>
       <r>   -3.5725    0.1666 </r>
       <r>   -0.0539    0.0000 </r>
       <r>    0.2700    0.0000 </r>
       <r>    0.3157    0.0000 </r>
       <r>    0.3348    0.0000 </r>
       <r>    0.4702    0.0000 </r>
       <r>    0.5063    0.0000 </r>
       <r>    0.5075    0.0000 </r>
       <r>    0.6447    0.0000 </r>
       <r>    0.9885    0.0000 </r>
       <r>    1.1604    0.0000 </r>
       <r>    1.1772    0.0000 </r>
       <r>    1.2402    0.0000 </r>
       <r>    1.3043    0.0000 </r>
       <r>    1.3410    0.0000 </r>
       <r>    1.4351    0.0000 </r>
       <r>    1.4563    0.0000 </r>
       <r>    1.4958    0.0000 </r>
       <r>    1.5668    0.0000 </r>
       <r>    1.6256    0.0000 </r>
       <r>    1.6586    0.0000 </r>
      </set>
     </set>
    </set>
   </array>
  </eigenvalues>
  <separator name="orbital magnetization" >
   <v name="MAGDIPOLOUT">      0.00000000      0.00000000      0.00000000</v>
  </separator>
  <dos>
   <i name="efermi">     -3.60674170 </i>
   <total>
    <array>
     <dimension dim="1">gridpoints</dimension>
     <dimension dim="2">spin</dimension>
     <field>energy</field>
     <field>total</field>
     <field>integrated</field>
     <set>
      <set comment="spin 1">
       <r>    -9.9748     0.0000     0.0000 </r>
       <r>    -9.9333     0.0000     0.0000 </r>
       <r>    -9.8919     0.0000     0.0000 </r>
       <r>    -9.8505     0.0000     0.0000 </r>
       <r>    -9.8091     0.0000     0.0000 </r>
       <r>    -9.7676     0.0000     0.0000 </r>
       <r>    -9.7262     0.0000     0.0000 </r>
       <r>    -9.6848     0.0000     0.0000 </r>
       <r>    -9.6434     0.0000     0.0000 </r>
       <r>    -9.6019     0.0000     0.0000 </r>
       <r>    -9.5605     0.0005     0.0000 </r>
       <r>    -9.5191     0.0480     0.0020 </r>
       <r>    -9.4777     1.2841     0.0552 </r>
       <r>    -9.4362     9.6729     0.4559 </r>
       <r>    -9.3948    21.0992     1.3299 </r>
       <r>    -9.3534    13.5179     1.8899 </r>
       <r>    -9.3120     2.5225     1.9944 </r>
       <r>    -9.2705     0.1336     1.9999 </r>
       <r>    -9.2291     0.0020     2.0000 </r>
       <r>    -9.1877     0.0000     2.0000 </r>
       <r>    -9.1463     0.0000     2.0000 </r>
       <r>    -9.1048     0.0000     2.0000 </r>
       <r>    -9.0634     0.0000     2.0000 </r>
       <r>    -9.0220     0.0000     2.0000 </r>
       <r>    -8.9806     0.0000     2.0000 </r>
       <r>    -8.9391     0.0000     2.0000 </r>
       <r>    -8.8977     0.0000     2.0000 </r>
       <r>    -8.8563     0.0000     2.0000 </r>
       <r>    -8.8149     0.0000     2.0000 </r>
       <r>    -8.7734     0.0000     2.0000 </r>
       <r>    -8.7320     0.0000     2.0000 </r>
       <r>    -8.6906     0.0000     2.0000 </r>
       <r>    -8.6492     0.0000     2.0000 </r>
       <r>    -8.6077     0.0000     2.0000 </r>
       <r>    -8.5663     0.0000     2.0000 </r>
       <r>    -8.5249     0.0000     2.0000 </r>
       <r>    -8.4835     0.0000     2.0000 </r>
       <r>    -8.4421     0.0000     2.0000 </r>
       <r>    -8.4006     0.0000     2.0000 </r>
       <r>    -8.3592     0.0000     2.0000 </r>
       <r>    -8.3178     0.0000     2.0000 </r>
       <r>    -8.2764     0.0000     2.0000 </r>
       <r>    -8.2349     0.0000     2.0000 </r>
       <r>    -8.1935     0.0000     2.0000 </r>
       <r>    -8.1521     0.0000     2.0000 </r>
       <r>    -8.1107     0.0000     2.0000 </r>
       <r>    -8.0692     0.0000     2.0000 </r>
       <r>    -8.0278     0.0000     2.0000 </r>
       <r>    -7.9864     0.0000     2.0000 </r>
       <r>    -7.9450     0.0000     2.0000 </r>
       <r>    -7.9035     0.0000     2.0000 </r>
       <r>    -7.8621     0.0000     2.0000 </r>
       <r>    -7.8207     0.0000     2.0000 </r>
       <r>    -7.7793     0.0000     2.0000 </r>
       <r>    -7.7378     0.0000     2.0000 </r>
       <r>    -7.6964     0.0000     2.0000 </r>
       <r>    -7.6550     0.0000     2.0000 </r>
       <r>    -7.6136     0.0000     2.0000 </r>
       <r>    -7.5721     0.0000     2.0000 </r>
       <r>    -7.5307     0.0000     2.0000 </r>
       <r>    -7.4893     0.0000     2.0000 </r>
       <r>    -7.4479     0.0000     2.0000 </r>
       <r>    -7.4064     0.0000     2.0000 </r>
       <r>    -7.3650     0.0000     2.0000 </r>
       <r>    -7.3236     0.0000     2.0000 </r>
       <r>    -7.2822     0.0000     2.0000 </r>
       <r>    -7.2407     0.0000     2.0000 </r>
       <r>    -7.1993     0.0000     2.0000 </r>
       <r>    -7.1579     0.0000     2.0000 </r>
       <r>    -7.1165     0.0000     2.0000 </r>
       <r>    -7.0750     0.0000     2.0000 </r>
       <r>    -7.0336     0.0000     2.0000 </r>
       <r>    -6.9922     0.0000     2.0000 </r>
       <r>    -6.9508     0.0000     2.0000 </r>
       <r>    -6.9093     0.0000     2.0000 </r>
       <r>    -6.8679     0.0000     2.0000 </r>
       <r>    -6.8265     0.0000     2.0000 </r>
       <r>    -6.7851     0.0000     2.0000 </r>
       <r>    -6.7436     0.0000     2.0000 </r>
       <r>    -6.7022     0.0000     2.0000 </r>
       <r>    -6.6608     0.0000     2.0000 </r>
       <r>    -6.6194     0.0000     2.0000 </r>
       <r>    -6.5780     0.0000     2.0000 </r>
       <r>    -6.5365     0.0000     2.0000 </r>
       <r>    -6.4951     0.0000     2.0000 </r>
       <r>    -6.4537     0.0000     2.0000 </r>
       <r>    -6.4123     0.0000     2.0000 </r>
       <r>    -6.3708     0.0000     2.0000 </r>
       <r>    -6.3294     0.0000     2.0000 </r>
       <r>    -6.2880     0.0000     2.0000 </r>
       <r>    -6.2466     0.0000     2.0000 </r>
       <r>    -6.2051     0.0000     2.0000 </r>
       <r>    -6.1637     0.0000     2.0000 </r>
       <r>    -6.1223     0.0000     2.0000 </r>
       <r>    -6.0809     0.0000     2.0000 </r>
       <r>    -6.0394     0.0000     2.0000 </r>
       <r>    -5.9980     0.0000     2.0000 </r>
       <r>    -5.9566     0.0000     2.0000 </r>
       <r>    -5.9152     0.0000     2.0000 </r>
       <r>    -5.8737     0.0000     2.0000 </r>
       <r>    -5.8323     0.0000     2.0000 </r>
       <r>    -5.7909     0.0000     2.0000 </r>
       <r>    -5.7495     0.0000     2.0000 </r>
       <r>    -5.7080     0.0000     2.0000 </r>
       <r>    -5.6666     0.0000     2.0000 </r>
       <r>    -5.6252     0.0000     2.0000 </r>
       <r>    -5.5838     0.0000     2.0000 </r>
       <r>    -5.5423     0.0000     2.0000 </r>
       <r>    -5.5009     0.0000     2.0000 </r>
       <r>    -5.4595     0.0000     2.0000 </r>
       <r>    -5.4181     0.0000     2.0000 </r>
       <r>    -5.3766     0.0000     2.0000 </r>
       <r>    -5.3352     0.0000     2.0000 </r>
       <r>    -5.2938     0.0000     2.0000 </r>
       <r>    -5.2524     0.0000     2.0000 </r>
       <r>    -5.2109     0.0000     2.0000 </r>
       <r>    -5.1695     0.0000     2.0000 </r>
       <r>    -5.1281     0.0000     2.0000 </r>
       <r>    -5.0867     0.0000     2.0000 </r>
       <r>    -5.0452     0.0000     2.0000 </r>
       <r>    -5.0038     0.0000     2.0000 </r>
       <r>    -4.9624     0.0000     2.0000 </r>
       <r>    -4.9210     0.0000     2.0000 </r>
       <r>    -4.8796     0.0000     2.0000 </r>
       <r>    -4.8381     0.0000     2.0000 </r>
       <r>    -4.7967     0.0000     2.0000 </r>
       <r>    -4.7553     0.0000     2.0000 </r>
       <r>    -4.7139     0.0000     2.0000 </r>
       <r>    -4.6724     0.0000     2.0000 </r>
       <r>    -4.6310     0.0000     2.0000 </r>
       <r>    -4.5896     0.0000     2.0000 </r>
       <r>    -4.5482     0.0000     2.0000 </r>
       <r>    -4.5067     0.0000     2.0000 </r>
       <r>    -4.4653     0.0000     2.0000 </r>
       <r>    -4.4239     0.0000     2.0000 </r>
       <r>    -4.3825     0.0000     2.0000 </r>
       <r>    -4.3410     0.0000     2.0000 </r>
       <r>    -4.2996     0.0000     2.0000 </r>
       <r>    -4.2582     0.0000     2.0000 </r>
       <r>    -4.2168     0.0000     2.0000 </r>
       <r>    -4.1753     0.0000     2.0000 </r>
       <r>    -4.1339     0.0000     2.0000 </r>
       <r>    -4.0925     0.0000     2.0000 </r>
       <r>    -4.0511     0.0000     2.0000 </r>
       <r>    -4.0096     0.0000     2.0000 </r>
       <r>    -3.9682     0.0000     2.0000 </r>
       <r>    -3.9268     0.0000     2.0000 </r>
       <r>    -3.8854     0.0000     2.0000 </r>
       <r>    -3.8439     0.0000     2.0000 </r>
       <r>    -3.8025     0.0000     2.0000 </r>
       <r>    -3.7611     0.0000     2.0000 </r>
       <r>    -3.7197     0.0023     2.0001 </r>
       <r>    -3.6782     0.1999     2.0084 </r>
       <r>    -3.6368     4.7984     2.2071 </r>
       <r>    -3.5954    32.5130     3.5540 </r>
       <r>    -3.5540    63.9169     6.2017 </r>
       <r>    -3.5125    36.9140     7.7308 </r>
       <r>    -3.4711     6.1990     7.9876 </r>
       <r>    -3.4297     0.2948     7.9998 </r>
       <r>    -3.3883     0.0039     8.0000 </r>
       <r>    -3.3468     0.0000     8.0000 </r>
       <r>    -3.3054     0.0000     8.0000 </r>
       <r>    -3.2640     0.0000     8.0000 </r>
       <r>    -3.2226     0.0000     8.0000 </r>
       <r>    -3.1811     0.0000     8.0000 </r>
       <r>    -3.1397     0.0000     8.0000 </r>
       <r>    -3.0983     0.0000     8.0000 </r>
       <r>    -3.0569     0.0000     8.0000 </r>
       <r>    -3.0155     0.0000     8.0000 </r>
       <r>    -2.9740     0.0000     8.0000 </r>
       <r>    -2.9326     0.0000     8.0000 </r>
       <r>    -2.8912     0.0000     8.0000 </r>
       <r>    -2.8498     0.0000     8.0000 </r>
       <r>    -2.8083     0.0000     8.0000 </r>
       <r>    -2.7669     0.0000     8.0000 </r>
       <r>    -2.7255     0.0000     8.0000 </r>
       <r>    -2.6841     0.0000     8.0000 </r>
       <r>    -2.6426     0.0000     8.0000 </r>
       <r>    -2.6012     0.0000     8.0000 </r>
       <r>    -2.5598     0.0000     8.0000 </r>
       <r>    -2.5184     0.0000     8.0000 </r>
       <r>    -2.4769     0.0000     8.0000 </r>
       <r>    -2.4355     0.0000     8.0000 </r>
       <r>    -2.3941     0.0000     8.0000 </r>
       <r>    -2.3527     0.0000     8.0000 </r>
       <r>    -2.3112     0.0000     8.0000 </r>
       <r>    -2.2698     0.0000     8.0000 </r>
       <r>    -2.2284     0.0000     8.0000 </r>
       <r>    -2.1870     0.0000     8.0000 </r>
       <r>    -2.1455     0.0000     8.0000 </r>
       <r>    -2.1041     0.0000     8.0000 </r>
       <r>    -2.0627     0.0000     8.0000 </r>
       <r>    -2.0213     0.0000     8.0000 </r>
       <r>    -1.9798     0.0000     8.0000 </r>
       <r>    -1.9384     0.0000     8.0000 </r>
       <r>    -1.8970     0.0000     8.0000 </r>
       <r>    -1.8556     0.0000     8.0000 </r>
       <r>    -1.8141     0.0000     8.0000 </r>
       <r>    -1.7727     0.0000     8.0000 </r>
       <r>    -1.7313     0.0000     8.0000 </r>
       <r>    -1.6899     0.0000     8.0000 </r>
       <r>    -1.6484     0.0000     8.0000 </r>
       <r>    -1.6070     0.0000     8.0000 </r>
       <r>    -1.5656     0.0000     8.0000 </r>
       <r>    -1.5242     0.0000     8.0000 </r>
       <r>    -1.4827     0.0000     8.0000 </r>
       <r>    -1.4413     0.0000     8.0000 </r>
       <r>    -1.3999     0.0000     8.0000 </r>
       <r>    -1.3585     0.0000     8.0000 </r>
       <r>    -1.3171     0.0000     8.0000 </r>
       <r>    -1.2756     0.0000     8.0000 </r>
       <r>    -1.2342     0.0000     8.0000 </r>
       <r>    -1.1928     0.0000     8.0000 </r>
       <r>    -1.1514     0.0000     8.0000 </r>
       <r>    -1.1099     0.0000     8.0000 </r>
       <r>    -1.0685     0.0000     8.0000 </r>
       <r>    -1.0271     0.0000     8.0000 </r>
       <r>    -0.9857     0.0000     8.0000 </r>
       <r>    -0.9442     0.0000     8.0000 </r>
       <r>    -0.9028     0.0000     8.0000 </r>
       <r>    -0.8614     0.0000     8.0000 </r>
       <r>    -0.8200     0.0000     8.0000 </r>
       <r>    -0.7785     0.0000     8.0000 </r>
       <r>    -0.7371     0.0000     8.0000 </r>
       <r>    -0.6957     0.0000     8.0000 </r>
       <r>    -0.6543     0.0000     8.0000 </r>
       <r>    -0.6128     0.0000     8.0000 </r>
       <r>    -0.5714     0.0000     8.0000 </r>
       <r>    -0.5300     0.0000     8.0000 </r>
       <r>    -0.4886     0.0000     8.0000 </r>
       <r>    -0.4471     0.0000     8.0000 </r>
       <r>    -0.4057     0.0000     8.0000 </r>
       <r>    -0.3643     0.0022     8.0001 </r>
       <r>    -0.3229     0.0740     8.0032 </r>
       <r>    -0.2814     0.8790     8.0396 </r>
       <r>    -0.2400     4.0456     8.2072 </r>
       <r>    -0.1986     8.6784     8.5667 </r>
       <r>    -0.1572    10.9127     9.0187 </r>
       <r>    -0.1157    10.0681     9.4358 </r>
       <r>    -0.0743     7.8859     9.7624 </r>
       <r>    -0.0329     4.3471     9.9425 </r>
       <r>     0.0085     1.2969     9.9962 </r>
       <r>     0.0500     0.7166    10.0259 </r>
       <r>     0.0914     2.6652    10.1363 </r>
       <r>     0.1328     6.6541    10.4120 </r>
       <r>     0.1742    11.6401    10.8942 </r>
       <r>     0.2157    14.3770    11.4897 </r>
       <r>     0.2571    14.7743    12.1017 </r>
       <r>     0.2985    15.7481    12.7541 </r>
       <r>     0.3399    17.2260    13.4677 </r>
       <r>     0.3814    16.8316    14.1649 </r>
       <r>     0.4228    16.3072    14.8404 </r>
       <r>     0.4642    16.3285    15.5168 </r>
       <r>     0.5056    17.2381    16.2309 </r>
       <r>     0.5470    19.0119    17.0185 </r>
       <r>     0.5885    21.1720    17.8955 </r>
       <r>     0.6299    23.2404    18.8582 </r>
       <r>     0.6713    20.3548    19.7014 </r>
       <r>     0.7127    15.7305    20.3530 </r>
       <r>     0.7542    17.7101    21.0867 </r>
       <r>     0.7956    25.2371    22.1321 </r>
       <r>     0.8370    28.4019    23.3086 </r>
       <r>     0.8784    25.9440    24.3833 </r>
       <r>     0.9199    22.8368    25.3293 </r>
       <r>     0.9613    21.6151    26.2247 </r>
       <r>     1.0027    21.6490    27.1215 </r>
       <r>     1.0441    22.9695    28.0730 </r>
       <r>     1.0856    27.9117    29.2292 </r>
       <r>     1.1270    31.0476    30.5154 </r>
       <r>     1.1684    29.9799    31.7573 </r>
       <r>     1.2098    27.2476    32.8860 </r>
       <r>     1.2513    24.4345    33.8982 </r>
       <r>     1.2927    25.6026    34.9587 </r>
       <r>     1.3341    27.9794    36.1178 </r>
       <r>     1.3755    28.2563    37.2883 </r>
       <r>     1.4170    28.2447    38.4583 </r>
       <r>     1.4584    29.9055    39.6971 </r>
       <r>     1.4998    33.5069    41.0851 </r>
       <r>     1.5412    34.2819    42.5052 </r>
       <r>     1.5827    28.3763    43.6807 </r>
       <r>     1.6241    24.9307    44.7134 </r>
       <r>     1.6655    25.6382    45.7755 </r>
       <r>     1.7069    22.4715    46.7064 </r>
       <r>     1.7484    14.9322    47.3249 </r>
       <r>     1.7898     8.2331    47.6660 </r>
       <r>     1.8312     4.6071    47.8568 </r>
       <r>     1.8726     2.2623    47.9505 </r>
       <r>     1.9141     0.9034    47.9880 </r>
       <r>     1.9555     0.2591    47.9987 </r>
       <r>     1.9969     0.0306    48.0000 </r>
       <r>     2.0383     0.0011    48.0000 </r>
       <r>     2.0798     0.0000    48.0000 </r>
       <r>     2.1212     0.0000    48.0000 </r>
       <r>     2.1626     0.0000    48.0000 </r>
       <r>     2.2040     0.0000    48.0000 </r>
       <r>     2.2455     0.0000    48.0000 </r>
       <r>     2.2869     0.0000    48.0000 </r>
       <r>     2.3283     0.0000    48.0000 </r>
       <r>     2.3697     0.0000    48.0000 </r>
       <r>     2.4111     0.0000    48.0000 </r>
       <r>     2.4526     0.0000    48.0000 </r>
      </set>
     </set>
    </array>
   </total>
  </dos>
 </calculation>
 <structure name="finalpos" >
  <crystal>
   <varray name="basis" >
    <v>      15.00000000       0.00000000       0.00000000 </v>
    <v>       0.00000000      12.50000000       0.00000000 </v>
    <v>       0.00000000       0.00000000      18.00000000 </v>
   </varray>
   <i name="volume">   3375.00000000 </i>
   <varray name="rec_basis" >
    <v>       0.06666667       0.00000000       0.00000000 </v>
    <v>       0.00000000       0.08000000       0.00000000 </v>
    <v>       0.00000000       0.00000000       0.05555556 </v>
   </varray>
  </crystal>
  <varray name="positions" >
   <v>       0.52123000       0.54500000       0.63796000 </v>
  </varray>
 </structure>
</modeling>
