  14  14   0   0
  0.1021960E+02  0.5697000E-09  0.4047900E-09  0.6204200E-09  0.5000000E-15
  1.000000000000000E-004
  CAR 
 Kpoints                                 
     18.04981040    -14.19784157  301      1.88551460      1.00000000
    -14.198  0.0000E+00  0.0000E+00
    -14.090  0.0000E+00  0.0000E+00
    -13.983  0.0000E+00  0.0000E+00
    -13.875  0.0000E+00  0.0000E+00
    -13.768  0.0000E+00  0.0000E+00
    -13.660  0.0000E+00  0.0000E+00
    -13.553  0.0000E+00  0.0000E+00
    -13.445  0.0000E+00  0.0000E+00
    -13.338  0.0000E+00  0.0000E+00
    -13.230  0.0000E+00  0.0000E+00
    -13.123  0.0000E+00  0.0000E+00
    -13.015  0.1026E-16  0.1103E-17
    -12.908  0.1083E-07  0.1164E-08
    -12.800  0.2229E-02  0.2396E-03
    -12.693  0.4256E+00  0.4599E-01
    -12.585  0.2278E+01  0.2909E+00
    -12.478  0.3524E+01  0.6697E+00
    -12.370  0.4343E+01  0.1137E+01
    -12.263  0.3559E+01  0.1519E+01
    -12.155  0.2868E+01  0.1827E+01
    -12.048  0.2633E+01  0.2111E+01
    -11.941  0.2588E+01  0.2389E+01
    -11.833  0.2746E+01  0.2684E+01
    -11.726  0.3330E+01  0.3042E+01
    -11.618  0.3620E+01  0.3431E+01
    -11.511  0.3116E+01  0.3766E+01
    -11.403  0.1716E+01  0.3950E+01
    -11.296  0.4535E+00  0.3999E+01
    -11.188  0.8723E-02  0.4000E+01
    -11.081  0.3301E-06  0.4000E+01
    -10.973  0.3154E-14  0.4000E+01
    -10.866  0.0000E+00  0.4000E+01
    -10.758  0.0000E+00  0.4000E+01
    -10.651  0.0000E+00  0.4000E+01
    -10.543  0.0000E+00  0.4000E+01
    -10.436  0.0000E+00  0.4000E+01
    -10.328  0.0000E+00  0.4000E+01
    -10.221  0.0000E+00  0.4000E+01
    -10.113  0.0000E+00  0.4000E+01
    -10.006  0.0000E+00  0.4000E+01
     -9.898  0.0000E+00  0.4000E+01
     -9.791  0.0000E+00  0.4000E+01
     -9.683  0.0000E+00  0.4000E+01
     -9.576  0.0000E+00  0.4000E+01
     -9.468  0.0000E+00  0.4000E+01
     -9.361  0.0000E+00  0.4000E+01
     -9.253  0.0000E+00  0.4000E+01
     -9.146  0.0000E+00  0.4000E+01
     -9.038  0.1138E-08  0.4000E+01
     -8.931  0.7283E-03  0.4000E+01
     -8.823  0.3046E+00  0.4033E+01
     -8.716  0.2173E+01  0.4266E+01
     -8.608  0.5427E+01  0.4850E+01
     -8.501  0.7010E+01  0.5603E+01
     -8.393  0.6214E+01  0.6271E+01
     -8.286  0.5295E+01  0.6840E+01
     -8.178  0.4867E+01  0.7363E+01
     -8.071  0.3726E+01  0.7764E+01
     -7.963  0.1615E+01  0.7938E+01
     -7.856  0.5403E+00  0.7996E+01
     -7.748  0.4004E-01  0.8000E+01
     -7.641  0.2373E-04  0.8000E+01
     -7.533  0.5695E-11  0.8000E+01
     -7.426  0.0000E+00  0.8000E+01
     -7.318  0.0000E+00  0.8000E+01
     -7.211  0.3064E-14  0.8000E+01
     -7.103  0.2589E-06  0.8000E+01
     -6.996  0.4110E-02  0.8000E+01
     -6.888  0.1079E+00  0.8012E+01
     -6.781  0.2975E+00  0.8044E+01
     -6.673  0.4592E+00  0.8093E+01
     -6.566  0.7246E+00  0.8171E+01
     -6.458  0.8947E+00  0.8267E+01
     -6.351  0.1505E+01  0.8429E+01
     -6.243  0.2074E+01  0.8652E+01
     -6.136  0.3130E+01  0.8989E+01
     -6.028  0.3834E+01  0.9401E+01
     -5.921  0.4106E+01  0.9842E+01
     -5.813  0.3918E+01  0.1026E+02
     -5.706  0.4155E+01  0.1071E+02
     -5.598  0.4025E+01  0.1114E+02
     -5.491  0.4125E+01  0.1159E+02
     -5.383  0.4417E+01  0.1206E+02
     -5.276  0.4845E+01  0.1258E+02
     -5.168  0.4342E+01  0.1305E+02
     -5.061  0.3882E+01  0.1347E+02
     -4.954  0.3336E+01  0.1382E+02
     -4.846  0.2449E+01  0.1409E+02
     -4.739  0.2407E+01  0.1435E+02
     -4.631  0.3090E+01  0.1468E+02
     -4.524  0.3573E+01  0.1506E+02
     -4.416  0.3439E+01  0.1543E+02
     -4.309  0.3157E+01  0.1577E+02
     -4.201  0.2825E+01  0.1608E+02
     -4.094  0.2966E+01  0.1639E+02
     -3.986  0.2997E+01  0.1672E+02
     -3.879  0.2951E+01  0.1703E+02
     -3.771  0.2982E+01  0.1735E+02
     -3.664  0.3027E+01  0.1768E+02
     -3.556  0.2663E+01  0.1797E+02
     -3.449  0.2833E+01  0.1827E+02
     -3.341  0.2851E+01  0.1858E+02
     -3.234  0.2726E+01  0.1887E+02
     -3.126  0.2675E+01  0.1916E+02
     -3.019  0.3033E+01  0.1948E+02
     -2.911  0.3093E+01  0.1982E+02
     -2.804  0.2650E+01  0.2010E+02
     -2.696  0.2521E+01  0.2037E+02
     -2.589  0.2598E+01  0.2065E+02
     -2.481  0.2968E+01  0.2097E+02
     -2.374  0.3270E+01  0.2132E+02
     -2.266  0.3687E+01  0.2172E+02
     -2.159  0.3426E+01  0.2209E+02
     -2.051  0.3365E+01  0.2245E+02
     -1.944  0.4165E+01  0.2290E+02
     -1.836  0.4939E+01  0.2343E+02
     -1.729  0.5462E+01  0.2401E+02
     -1.621  0.5970E+01  0.2466E+02
     -1.514  0.6151E+01  0.2532E+02
     -1.406  0.5855E+01  0.2595E+02
     -1.299  0.5778E+01  0.2657E+02
     -1.191  0.5209E+01  0.2713E+02
     -1.084  0.5117E+01  0.2768E+02
     -0.976  0.3823E+01  0.2809E+02
     -0.869  0.2822E+01  0.2839E+02
     -0.761  0.2195E+01  0.2863E+02
     -0.654  0.3615E+01  0.2902E+02
     -0.546  0.5204E+01  0.2958E+02
     -0.439  0.6004E+01  0.3022E+02
     -0.331  0.6283E+01  0.3090E+02
     -0.224  0.6350E+01  0.3158E+02
     -0.116  0.6832E+01  0.3231E+02
     -0.009  0.6711E+01  0.3303E+02
      0.099  0.6368E+01  0.3372E+02
      0.206  0.7019E+01  0.3447E+02
      0.314  0.8466E+01  0.3538E+02
      0.421  0.8394E+01  0.3629E+02
      0.529  0.8386E+01  0.3719E+02
      0.636  0.4342E+01  0.3765E+02
      0.744  0.2755E+01  0.3795E+02
      0.851  0.3143E+01  0.3829E+02
      0.959  0.3252E+01  0.3864E+02
      1.066  0.3792E+01  0.3904E+02
      1.174  0.3508E+01  0.3942E+02
      1.281  0.3503E+01  0.3980E+02
      1.389  0.4071E+01  0.4024E+02
      1.496  0.3716E+01  0.4064E+02
      1.604  0.4087E+01  0.4107E+02
      1.711  0.3645E+01  0.4147E+02
      1.818  0.3011E+01  0.4179E+02
      1.926  0.3123E+01  0.4213E+02
      2.033  0.2791E+01  0.4243E+02
      2.141  0.2259E+01  0.4267E+02
      2.248  0.2354E+01  0.4292E+02
      2.356  0.2077E+01  0.4314E+02
      2.463  0.1381E+01  0.4329E+02
      2.571  0.7334E+00  0.4337E+02
      2.678  0.6727E+00  0.4344E+02
      2.786  0.7679E+00  0.4353E+02
      2.893  0.6066E+00  0.4359E+02
      3.001  0.4339E+00  0.4364E+02
      3.108  0.4065E+00  0.4368E+02
      3.216  0.5608E+00  0.4374E+02
      3.323  0.4945E+00  0.4380E+02
      3.431  0.3022E+00  0.4383E+02
      3.538  0.3146E+00  0.4386E+02
      3.646  0.3997E+00  0.4391E+02
      3.753  0.3283E+00  0.4394E+02
      3.861  0.2136E+00  0.4396E+02
      3.968  0.2576E+00  0.4399E+02
      4.076  0.8178E-01  0.4400E+02
      4.183  0.1515E-02  0.4400E+02
      4.291  0.7849E-01  0.4401E+02
      4.398  0.2643E+00  0.4404E+02
      4.506  0.3803E+00  0.4408E+02
      4.613  0.5621E+00  0.4414E+02
      4.721  0.7433E+00  0.4422E+02
      4.828  0.8331E+00  0.4431E+02
      4.936  0.8894E+00  0.4440E+02
      5.043  0.1011E+01  0.4451E+02
      5.151  0.1162E+01  0.4464E+02
      5.258  0.1418E+01  0.4479E+02
      5.366  0.1762E+01  0.4498E+02
      5.473  0.2253E+01  0.4522E+02
      5.581  0.2646E+01  0.4551E+02
      5.688  0.2959E+01  0.4582E+02
      5.796  0.3386E+01  0.4619E+02
      5.903  0.3760E+01  0.4659E+02
      6.011  0.4242E+01  0.4705E+02
      6.118  0.4549E+01  0.4754E+02
      6.226  0.4546E+01  0.4803E+02
      6.333  0.4135E+01  0.4847E+02
      6.441  0.4130E+01  0.4891E+02
      6.548  0.4475E+01  0.4939E+02
      6.656  0.3749E+01  0.4980E+02
      6.763  0.3596E+01  0.5018E+02
      6.871  0.4055E+01  0.5062E+02
      6.978  0.4568E+01  0.5111E+02
      7.086  0.4734E+01  0.5162E+02
      7.193  0.5255E+01  0.5218E+02
      7.301  0.4840E+01  0.5271E+02
      7.408  0.4609E+01  0.5320E+02
      7.516  0.4391E+01  0.5367E+02
      7.623  0.4052E+01  0.5411E+02
      7.731  0.3321E+01  0.5446E+02
      7.838  0.3098E+01  0.5480E+02
      7.946  0.3182E+01  0.5514E+02
      8.053  0.3424E+01  0.5551E+02
      8.161  0.3688E+01  0.5590E+02
      8.268  0.3881E+01  0.5632E+02
      8.376  0.4057E+01  0.5676E+02
      8.483  0.4181E+01  0.5721E+02
      8.590  0.3952E+01  0.5763E+02
      8.698  0.4420E+01  0.5811E+02
      8.805  0.4881E+01  0.5863E+02
      8.913  0.5196E+01  0.5919E+02
      9.020  0.5216E+01  0.5975E+02
      9.128  0.4748E+01  0.6026E+02
      9.235  0.5279E+01  0.6083E+02
      9.343  0.5012E+01  0.6137E+02
      9.450  0.4605E+01  0.6186E+02
      9.558  0.4653E+01  0.6236E+02
      9.665  0.4763E+01  0.6287E+02
      9.773  0.5201E+01  0.6343E+02
      9.880  0.4992E+01  0.6397E+02
      9.988  0.4989E+01  0.6451E+02
     10.095  0.3736E+01  0.6491E+02
     10.203  0.4471E+01  0.6539E+02
     10.310  0.4176E+01  0.6584E+02
     10.418  0.5382E+01  0.6642E+02
     10.525  0.5628E+01  0.6702E+02
     10.633  0.4706E+01  0.6753E+02
     10.740  0.4411E+01  0.6800E+02
     10.848  0.3644E+01  0.6839E+02
     10.955  0.3618E+01  0.6878E+02
     11.063  0.4880E+01  0.6931E+02
     11.170  0.5717E+01  0.6992E+02
     11.278  0.6473E+01  0.7062E+02
     11.385  0.5349E+01  0.7119E+02
     11.493  0.4809E+01  0.7171E+02
     11.600  0.4705E+01  0.7221E+02
     11.708  0.4717E+01  0.7272E+02
     11.815  0.4882E+01  0.7325E+02
     11.923  0.5245E+01  0.7381E+02
     12.030  0.6227E+01  0.7448E+02
     12.138  0.5957E+01  0.7512E+02
     12.245  0.5271E+01  0.7569E+02
     12.353  0.5418E+01  0.7627E+02
     12.460  0.5549E+01  0.7687E+02
     12.568  0.6055E+01  0.7752E+02
     12.675  0.5854E+01  0.7815E+02
     12.783  0.5821E+01  0.7877E+02
     12.890  0.5913E+01  0.7941E+02
     12.998  0.5990E+01  0.8005E+02
     13.105  0.6030E+01  0.8070E+02
     13.213  0.6318E+01  0.8138E+02
     13.320  0.5784E+01  0.8200E+02
     13.428  0.5484E+01  0.8259E+02
     13.535  0.5508E+01  0.8318E+02
     13.643  0.5350E+01  0.8376E+02
     13.750  0.5426E+01  0.8434E+02
     13.858  0.5752E+01  0.8496E+02
     13.965  0.5749E+01  0.8558E+02
     14.073  0.5246E+01  0.8614E+02
     14.180  0.4797E+01  0.8666E+02
     14.288  0.5340E+01  0.8723E+02
     14.395  0.4643E+01  0.8773E+02
     14.503  0.4993E+01  0.8826E+02
     14.610  0.5357E+01  0.8884E+02
     14.718  0.5070E+01  0.8939E+02
     14.825  0.4189E+01  0.8984E+02
     14.933  0.4635E+01  0.9033E+02
     15.040  0.5943E+01  0.9097E+02
     15.148  0.5802E+01  0.9160E+02
     15.255  0.6073E+01  0.9225E+02
     15.363  0.5640E+01  0.9286E+02
     15.470  0.5902E+01  0.9349E+02
     15.577  0.6083E+01  0.9414E+02
     15.685  0.4720E+01  0.9465E+02
     15.792  0.3576E+01  0.9504E+02
     15.900  0.2436E+01  0.9530E+02
     16.007  0.2084E+01  0.9552E+02
     16.115  0.1317E+01  0.9566E+02
     16.222  0.1069E+01  0.9578E+02
     16.330  0.9313E+00  0.9588E+02
     16.437  0.7615E+00  0.9596E+02
     16.545  0.3240E+00  0.9600E+02
     16.652  0.4391E-01  0.9600E+02
     16.760  0.5225E-03  0.9600E+02
     16.867  0.4285E-08  0.9600E+02
     16.975  0.5400E-17  0.9600E+02
     17.082  0.0000E+00  0.9600E+02
     17.190  0.0000E+00  0.9600E+02
     17.297  0.0000E+00  0.9600E+02
     17.405  0.0000E+00  0.9600E+02
     17.512  0.0000E+00  0.9600E+02
     17.620  0.0000E+00  0.9600E+02
     17.727  0.0000E+00  0.9600E+02
     17.835  0.0000E+00  0.9600E+02
     17.942  0.0000E+00  0.9600E+02
     18.050  0.0000E+00  0.9600E+02
