   14   14    1    1
  0.1021318E+02  0.5700971E-09  0.4044058E-09  0.6201871E-09  0.5000000E-15
  1.000000000000000E-004
  CAR 
 PDoS                                    
     42   1260     48
 
  0.2500000E-01  0.1785714E-01  0.2777778E-01  0.7936508E-03
      1        -12.697082   1.000000
      2        -11.521487   1.000000
      3         -8.658395   1.000000
      4         -8.363941   1.000000
      5         -6.059611   1.000000
      6         -5.127431   1.000000
      7         -4.669192   1.000000
      8         -4.345809   1.000000
      9         -3.951504   1.000000
     10         -3.506391   1.000000
     11         -2.379254   1.000000
     12         -2.365404   1.000000
     13         -1.967918   1.000000
     14         -1.080262   1.000000
     15         -0.041406   1.000000
     16          0.027324   1.000000
     17          0.040951   1.000000
     18          0.079407   1.000000
     19          0.655922   1.000000
     20          2.098804   0.004679
     21          2.136231   0.000880
     22          2.267966   0.000000
     23          5.515121   0.000000
     24          5.708781   0.000000
     25          5.751397   0.000000
     26          5.976329   0.000000
     27          6.740255   0.000000
     28          7.626399   0.000000
     29          7.797916   0.000000
     30          8.599926   0.000000
     31          8.831126   0.000000
     32          8.928629   0.000000
     33          9.058615   0.000000
     34         10.056000   0.000000
     35         11.203087   0.000000
     36         11.387170   0.000000
     37         11.521417   0.000000
     38         11.721646   0.000000
     39         11.963160   0.000000
     40         12.310840   0.000000
     41         12.946336   0.000000
     42         13.343945   0.000000
     43         13.534443   0.000000
     44         15.501681   0.000000
     45         15.530728   0.000000
     46         15.937578   0.000000
     47         16.310076   0.000000
     48         16.435496   0.000000
 
  0.7500000E-01  0.1785714E-01  0.2777778E-01  0.7936508E-03
      1        -12.685950   1.000000
      2        -11.541178   1.000000
      3         -8.652459   1.000000
      4         -8.360363   1.000000
      5         -6.038552   1.000000
      6         -5.246099   1.000000
      7         -4.726012   1.000000
      8         -4.192856   1.000000
      9         -3.934924   1.000000
     10         -3.407295   1.000000
     11         -2.380874   1.000000
     12         -2.374535   1.000000
     13         -1.993077   1.000000
     14         -1.162038   1.000000
     15         -0.045396   1.000000
     16          0.008449   1.000000
     17          0.062498   1.000000
     18          0.094428   1.000000
     19          0.630078   1.000000
     20          2.060822   0.019624
     21          2.128007   0.001299
     22          2.235831   0.000003
     23          5.533747   0.000000
     24          5.709577   0.000000
     25          5.757122   0.000000
     26          6.072231   0.000000
     27          6.717908   0.000000
     28          7.442130   0.000000
     29          7.938125   0.000000
     30          8.638083   0.000000
     31          8.904545   0.000000
     32          8.996994   0.000000
     33          9.079023   0.000000
     34         10.075291   0.000000
     35         11.220776   0.000000
     36         11.279692   0.000000
     37         11.506310   0.000000
     38         11.542257   0.000000
     39         12.020658   0.000000
     40         12.333501   0.000000
     41         13.037774   0.000000
     42         13.410196   0.000000
     43         13.555042   0.000000
     44         15.226608   0.000000
     45         15.589007   0.000000
     46         16.107193   0.000000
     47         16.213439   0.000000
     48         16.349394   0.000000
 
  0.1250000E+00  0.1785714E-01  0.2777778E-01  0.7936508E-03
      1        -12.663799   1.000000
      2        -11.579467   1.000000
      3         -8.640337   1.000000
      4         -8.353930   1.000000
      5         -6.005778   1.000000
      6         -5.409832   1.000000
      7         -4.794810   1.000000
      8         -3.978371   1.000000
      9         -3.894644   1.000000
     10         -3.236799   1.000000
     11         -2.414482   1.000000
     12         -2.365001   1.000000
     13         -2.036979   1.000000
     14         -1.316856   1.000000
     15         -0.092360   1.000000
     16          0.014414   1.000000
     17          0.099661   1.000000
     18          0.120858   1.000000
     19          0.578844   1.000000
     20          2.000843   0.112501
     21          2.098960   0.004649
     22          2.172000   0.000140
     23          5.563964   0.000000
     24          5.706559   0.000000
     25          5.806200   0.000000
     26          6.233408   0.000000
     27          6.676388   0.000000
     28          7.260075   0.000000
     29          8.048593   0.000000
     30          8.708718   0.000000
     31          9.027967   0.000000
     32          9.062424   0.000000
     33          9.180870   0.000000
     34         10.120348   0.000000
     35         11.075642   0.000000
     36         11.258465   0.000000
     37         11.265246   0.000000
     38         11.507257   0.000000
     39         12.128164   0.000000
     40         12.379666   0.000000
     41         13.163544   0.000000
     42         13.239916   0.000000
     43         13.837577   0.000000
     44         14.940689   0.000000
     45         15.690860   0.000000
     46         15.939046   0.000000
     47         16.224712   0.000000
     48         16.420918   0.000000
 
  0.1750000E+00  0.1785714E-01  0.2777778E-01  0.7936508E-03
      1        -12.630853   1.000000
      2        -11.634321   1.000000
      3         -8.621724   1.000000
      4         -8.346013   1.000000
      5         -5.979751   1.000000
      6         -5.575561   1.000000
      7         -4.834622   1.000000
      8         -3.868765   1.000000
      9         -3.706970   1.000000
     10         -3.023642   1.000000
     11         -2.470530   1.000000
     12         -2.350354   1.000000
     13         -2.088973   1.000000
     14         -1.530189   1.000000
     15         -0.180528   1.000000
     16          0.043471   1.000000
     17          0.140058   1.000000
     18          0.158436   1.000000
     19          0.509355   1.000000
     20          1.926367   0.436404
     21          2.046057   0.031958
     22          2.080221   0.009748
     23          5.590831   0.000000
     24          5.709428   0.000000
     25          5.914890   0.000000
     26          6.440108   0.000000
     27          6.621608   0.000000
     28          7.093623   0.000000
     29          8.137383   0.000000
     30          8.798980   0.000000
     31          9.045593   0.000000
     32          9.220307   0.000000
     33          9.373884   0.000000
     34         10.206470   0.000000
     35         10.795612   0.000000
     36         10.958963   0.000000
     37         11.313671   0.000000
     38         11.554448   0.000000
     39         12.251737   0.000000
     40         12.470478   0.000000
     41         13.002002   0.000000
     42         13.226559   0.000000
     43         14.175221   0.000000
     44         14.747851   0.000000
     45         15.649300   0.000000
     46         15.822644   0.000000
     47         16.224070   0.000000
     48         16.509822   0.000000
 
  0.2250000E+00  0.1785714E-01  0.2777778E-01  0.7936508E-03
      1        -12.587465   1.000000
      2        -11.703027   1.000000
      3         -8.596602   1.000000
      4         -8.338523   1.000000
      5         -5.981905   1.000000
      6         -5.725321   1.000000
      7         -4.812242   1.000000
      8         -3.805236   1.000000
      9         -3.450417   1.000000
     10         -2.788750   1.000000
     11         -2.550908   1.000000
     12         -2.330315   1.000000
     13         -2.139035   1.000000
     14         -1.784463   1.000000
     15         -0.295674   1.000000
     16          0.080017   1.000000
     17          0.144896   1.000000
     18          0.212902   1.000000
     19          0.452629   1.000000
     20          1.843967   0.842604
     21          1.943818   0.342045
     22          1.992287   0.137344
     23          5.601363   0.000000
     24          5.731847   0.000000
     25          6.081456   0.000000
     26          6.561218   0.000000
     27          6.680028   0.000000
     28          6.950992   0.000000
     29          8.212135   0.000000
     30          8.881394   0.000000
     31          9.011919   0.000000
     32          9.426217   0.000000
     33          9.605884   0.000000
     34         10.349332   0.000000
     35         10.462722   0.000000
     36         10.672793   0.000000
     37         11.379555   0.000000
     38         11.659828   0.000000
     39         12.330877   0.000000
     40         12.647450   0.000000
     41         12.726068   0.000000
     42         13.135565   0.000000
     43         14.520106   0.000000
     44         14.729368   0.000000
     45         15.358286   0.000000
     46         15.958392   0.000000
     47         16.080404   0.000000
     48         16.323134   0.000000
 
  0.2750000E+00  0.1785714E-01  0.2777778E-01  0.7936508E-03
      1        -12.534125   1.000000
      2        -11.782514   1.000000
      3         -8.565464   1.000000
      4         -8.333743   1.000000
      5         -6.020340   1.000000
      6         -5.851607   1.000000
      7         -4.712886   1.000000
      8         -3.730133   1.000000
      9         -3.199901   1.000000
     10         -2.664808   1.000000
     11         -2.536381   1.000000
     12         -2.308329   1.000000
     13         -2.182915   1.000000
     14         -2.053359   1.000000
     15         -0.430416   1.000000
     16          0.044992   1.000000
     17          0.146156   1.000000
     18          0.270240   1.000000
     19          0.462754   1.000000
     20          1.759766   0.985954
     21          1.798721   0.950026
     22          1.913033   0.511361
     23          5.604369   0.000000
     24          5.762022   0.000000
     25          6.301646   0.000000
     26          6.505132   0.000000
     27          6.812511   0.000000
     28          6.966276   0.000000
     29          8.276776   0.000000
     30          8.893914   0.000000
     31          8.966275   0.000000
     32          9.644888   0.000000
     33          9.860185   0.000000
     34         10.089050   0.000000
     35         10.441536   0.000000
     36         10.591931   0.000000
     37         11.436513   0.000000
     38         11.819820   0.000000
     39         12.371282   0.000000
     40         12.422619   0.000000
     41         12.836191   0.000000
     42         12.957978   0.000000
     43         14.751105   0.000000
     44         14.936192   0.000000
     45         15.091123   0.000000
     46         15.827882   0.000000
     47         15.907346   0.000000
     48         16.150024   0.000000
 
  0.3250000E+00  0.1785714E-01  0.2777778E-01  0.7936508E-03
      1        -12.471463   1.000000
      2        -11.869591   1.000000
      3         -8.529488   1.000000
      4         -8.334052   1.000000
      5         -6.079583   1.000000
      6         -5.955467   1.000000
      7         -4.543536   1.000000
      8         -3.642205   1.000000
      9         -2.991098   1.000000
     10         -2.782832   1.000000
     11         -2.386785   1.000000
     12         -2.312110   1.000000
     13         -2.225726   1.000000
     14         -2.183614   1.000000
     15         -0.574965   1.000000
     16         -0.106264   1.000000
     17          0.196840   1.000000
     18          0.321505   1.000000
     19          0.536510   1.000000
     20          1.627082   0.999977
     21          1.690472   0.999253
     22          1.830679   0.883595
     23          5.612652   0.000000
     24          5.782358   0.000000
     25          6.462767   0.000000
     26          6.569339   0.000000
     27          6.717380   0.000000
     28          7.252754   0.000000
     29          8.333892   0.000000
     30          8.817108   0.000000
     31          8.874382   0.000000
     32          9.707169   0.000000
     33          9.870059   0.000000
     34         10.119419   0.000000
     35         10.363597   0.000000
     36         10.887851   0.000000
     37         11.457600   0.000000
     38         12.023035   0.000000
     39         12.107365   0.000000
     40         12.375395   0.000000
     41         12.610861   0.000000
     42         13.163304   0.000000
     43         14.727741   0.000000
     44         14.972815   0.000000
     45         15.279771   0.000000
     46         15.438467   0.000000
     47         15.567704   0.000000
     48         16.284535   0.000000
 
  0.3750000E+00  0.1785714E-01  0.2777778E-01  0.7936508E-03
      1        -12.400290   1.000000
      2        -11.961193   1.000000
      3         -8.490536   1.000000
      4         -8.341537   1.000000
      5         -6.134737   1.000000
      6         -6.041483   1.000000
      7         -4.320630   1.000000
      8         -3.542095   1.000000
      9         -2.951989   1.000000
     10         -2.913710   1.000000
     11         -2.515194   1.000000
     12         -2.265051   1.000000
     13         -2.171854   1.000000
     14         -2.050681   1.000000
     15         -0.711140   1.000000
     16         -0.295850   1.000000
     17          0.252410   1.000000
     18          0.359508   1.000000
     19          0.645702   1.000000
     20          1.450730   1.000000
     21          1.632415   0.999968
     22          1.750593   0.989984
     23          5.631146   0.000000
     24          5.783686   0.000000
     25          6.441862   0.000000
     26          6.633882   0.000000
     27          6.877379   0.000000
     28          7.563204   0.000000
     29          8.386879   0.000000
     30          8.635763   0.000000
     31          8.740724   0.000000
     32          9.329646   0.000000
     33         10.096090   0.000000
     34         10.353584   0.000000
     35         10.444366   0.000000
     36         11.250866   0.000000
     37         11.431147   0.000000
     38         11.788347   0.000000
     39         12.171936   0.000000
     40         12.260543   0.000000
     41         12.523461   0.000000
     42         13.347047   0.000000
     43         14.561066   0.000000
     44         14.959422   0.000000
     45         15.045505   0.000000
     46         15.266972   0.000000
     47         15.626603   0.000000
     48         16.406173   0.000000
 
  0.4250000E+00  0.1785714E-01  0.2777778E-01  0.7936508E-03
      1        -12.321626   1.000000
      2        -12.054517   1.000000
      3         -8.451091   1.000000
      4         -8.357498   1.000000
      5         -6.169328   1.000000
      6         -6.109600   1.000000
      7         -4.059490   1.000000
      8         -3.431066   1.000000
      9         -3.174474   1.000000
     10         -3.048242   1.000000
     11         -2.462526   1.000000
     12         -2.299177   1.000000
     13         -2.057251   1.000000
     14         -1.901668   1.000000
     15         -0.802292   1.000000
     16         -0.495741   1.000000
     17          0.304924   1.000000
     18          0.378062   1.000000
     19          0.778438   1.000000
     20          1.270858   1.000000
     21          1.600468   0.999996
     22          1.680072   0.999555
     23          5.659801   0.000000
     24          5.765344   0.000000
     25          6.444867   0.000000
     26          6.565169   0.000000
     27          7.216821   0.000000
     28          7.884143   0.000000
     29          8.327694   0.000000
     30          8.440460   0.000000
     31          8.647932   0.000000
     32          8.958742   0.000000
     33         10.318398   0.000000
     34         10.542200   0.000000
     35         10.630578   0.000000
     36         11.368730   0.000000
     37         11.483659   0.000000
     38         11.650286   0.000000
     39         11.882210   0.000000
     40         12.422364   0.000000
     41         12.587266   0.000000
     42         13.346394   0.000000
     43         14.506993   0.000000
     44         14.710185   0.000000
     45         14.934026   0.000000
     46         15.026740   0.000000
     47         15.939304   0.000000
     48         16.463620   0.000000
 
  0.4750000E+00  0.1785714E-01  0.2777778E-01  0.7936508E-03
      1        -12.236722   1.000000
      2        -12.147082   1.000000
      3         -8.413998   1.000000
      4         -8.382052   1.000000
      5         -6.176731   1.000000
      6         -6.156038   1.000000
      7         -3.772539   1.000000
      8         -3.471899   1.000000
      9         -3.309297   1.000000
     10         -3.181396   1.000000
     11         -2.392042   1.000000
     12         -2.340032   1.000000
     13         -1.930926   1.000000
     14         -1.858155   1.000000
     15         -0.795312   1.000000
     16         -0.677411   1.000000
     17          0.347643   1.000000
     18          0.373735   1.000000
     19          0.929558   1.000000
     20          1.095194   1.000000
     21          1.598759   0.999996
     22          1.626957   0.999977
     23          5.695571   0.000000
     24          5.733202   0.000000
     25          6.469013   0.000000
     26          6.510029   0.000000
     27          7.577045   0.000000
     28          7.936009   0.000000
     29          8.256436   0.000000
     30          8.499696   0.000000
     31          8.564638   0.000000
     32          8.600812   0.000000
     33         10.511254   0.000000
     34         10.612286   0.000000
     35         10.870290   0.000000
     36         11.150156   0.000000
     37         11.433795   0.000000
     38         11.606120   0.000000
     39         12.032954   0.000000
     40         12.309641   0.000000
     41         12.844399   0.000000
     42         13.133292   0.000000
     43         14.564559   0.000000
     44         14.616390   0.000000
     45         14.807912   0.000000
     46         14.876121   0.000000
     47         16.210824   0.000000
     48         16.401492   0.000000
 
  0.2500000E-01  0.5357143E-01  0.2777778E-01  0.7936508E-03
      1        -12.690857   1.000000
      2        -11.515858   1.000000
      3         -8.653517   1.000000
      4         -8.357917   1.000000
      5         -6.052824   1.000000
      6         -5.118257   1.000000
      7         -4.663557   1.000000
      8         -4.363203   1.000000
      9         -4.084263   1.000000
     10         -3.499641   1.000000
     11         -2.727597   1.000000
     12         -2.206515   1.000000
     13         -1.578283   1.000000
     14         -1.079047   1.000000
     15         -0.130855   1.000000
     16         -0.035892   1.000000
     17          0.073097   1.000000
     18          0.085486   1.000000
     19          0.686061   1.000000
     20          2.027862   0.055306
     21          2.051125   0.027150
     22          2.296861   0.000000
     23          5.580006   0.000000
     24          5.659355   0.000000
     25          5.802132   0.000000
     26          5.915373   0.000000
     27          6.817328   0.000000
     28          7.705565   0.000000
     29          7.875309   0.000000
     30          8.418507   0.000000
     31          8.855686   0.000000
     32          8.988190   0.000000
     33          9.073050   0.000000
     34         10.206042   0.000000
     35         11.262915   0.000000
     36         11.368419   0.000000
     37         11.545040   0.000000
     38         11.706993   0.000000
     39         11.988116   0.000000
     40         12.383309   0.000000
     41         12.942312   0.000000
     42         13.272968   0.000000
     43         13.451245   0.000000
     44         15.476797   0.000000
     45         15.499107   0.000000
     46         15.932978   0.000000
     47         16.268823   0.000000
     48         16.338992   0.000000
 
  0.7500000E-01  0.5357143E-01  0.2777778E-01  0.7936508E-03
      1        -12.679734   1.000000
      2        -11.535543   1.000000
      3         -8.647570   1.000000
      4         -8.354370   1.000000
      5         -6.031655   1.000000
      6         -5.237697   1.000000
      7         -4.720604   1.000000
      8         -4.229816   1.000000
      9         -4.047767   1.000000
     10         -3.400712   1.000000
     11         -2.744528   1.000000
     12         -2.201400   1.000000
     13         -1.603956   1.000000
     14         -1.160783   1.000000
     15         -0.126538   1.000000
     16         -0.026880   1.000000
     17          0.059711   1.000000
     18          0.101076   1.000000
     19          0.660121   1.000000
     20          1.986819   0.155050
     21          2.046898   0.031115
     22          2.263505   0.000000
     23          5.597748   0.000000
     24          5.672795   0.000000
     25          5.793994   0.000000
     26          6.013428   0.000000
     27          6.795094   0.000000
     28          7.524040   0.000000
     29          8.012714   0.000000
     30          8.457514   0.000000
     31          8.932879   0.000000
     32          9.059231   0.000000
     33          9.092551   0.000000
     34         10.212377   0.000000
     35         11.248206   0.000000
     36         11.291072   0.000000
     37         11.521361   0.000000
     38         11.539613   0.000000
     39         12.045890   0.000000
     40         12.405236   0.000000
     41         13.037009   0.000000
     42         13.327977   0.000000
     43         13.482377   0.000000
     44         15.240873   0.000000
     45         15.531364   0.000000
     46         16.045150   0.000000
     47         16.173491   0.000000
     48         16.333761   0.000000
 
  0.1250000E+00  0.5357143E-01  0.2777778E-01  0.7936508E-03
      1        -12.657594   1.000000
      2        -11.573817   1.000000
      3         -8.635422   1.000000
      4         -8.347992   1.000000
      5         -5.998644   1.000000
      6         -5.401876   1.000000
      7         -4.789613   1.000000
      8         -4.110345   1.000000
      9         -3.913025   1.000000
     10         -3.230777   1.000000
     11         -2.778194   1.000000
     12         -2.191100   1.000000
     13         -1.650747   1.000000
     14         -1.315412   1.000000
     15         -0.135872   1.000000
     16         -0.025154   1.000000
     17          0.065509   1.000000
     18          0.128387   1.000000
     19          0.608769   1.000000
     20          1.926598   0.435121
     21          2.020002   0.068866
     22          2.197334   0.000033
     23          5.625153   0.000000
     24          5.713995   0.000000
     25          5.802055   0.000000
     26          6.173883   0.000000
     27          6.753845   0.000000
     28          7.346211   0.000000
     29          8.120141   0.000000
     30          8.529953   0.000000
     31          9.040132   0.000000
     32          9.141811   0.000000
     33          9.204384   0.000000
     34         10.231171   0.000000
     35         11.050600   0.000000
     36         11.244450   0.000000
     37         11.318075   0.000000
     38         11.551303   0.000000
     39         12.154003   0.000000
     40         12.449984   0.000000
     41         13.157091   0.000000
     42         13.167630   0.000000
     43         13.758875   0.000000
     44         14.968657   0.000000
     45         15.619645   0.000000
     46         15.934742   0.000000
     47         16.110827   0.000000
     48         16.436756   0.000000
 
  0.1750000E+00  0.5357143E-01  0.2777778E-01  0.7936508E-03
      1        -12.624664   1.000000
      2        -11.628647   1.000000
      3         -8.616778   1.000000
      4         -8.340156   1.000000
      5         -5.972260   1.000000
      6         -5.567760   1.000000
      7         -4.829782   1.000000
      8         -4.045505   1.000000
      9         -3.681712   1.000000
     10         -3.020961   1.000000
     11         -2.825983   1.000000
     12         -2.175508   1.000000
     13         -1.711653   1.000000
     14         -1.528361   1.000000
     15         -0.193566   1.000000
     16         -0.016789   1.000000
     17          0.102493   1.000000
     18          0.163372   1.000000
     19          0.538476   1.000000
     20          1.852554   0.811592
     21          1.971394   0.212765
     22          2.100273   0.004403
     23          5.646500   0.000000
     24          5.755880   0.000000
     25          5.878643   0.000000
     26          6.376944   0.000000
     27          6.699597   0.000000
     28          7.186667   0.000000
     29          8.206316   0.000000
     30          8.623643   0.000000
     31          9.076495   0.000000
     32          9.289380   0.000000
     33          9.403930   0.000000
     34         10.277449   0.000000
     35         10.769911   0.000000
     36         10.941044   0.000000
     37         11.368901   0.000000
     38         11.613660   0.000000
     39         12.282232   0.000000
     40         12.534517   0.000000
     41         12.923273   0.000000
     42         13.232944   0.000000
     43         14.076767   0.000000
     44         14.798944   0.000000
     45         15.628373   0.000000
     46         15.776592   0.000000
     47         16.099788   0.000000
     48         16.522462   0.000000
 
  0.2250000E+00  0.5357143E-01  0.2777778E-01  0.7936508E-03
      1        -12.581303   1.000000
      2        -11.697323   1.000000
      3         -8.591623   1.000000
      4         -8.332765   1.000000
      5         -5.974059   1.000000
      6         -5.717517   1.000000
      7         -4.807833   1.000000
      8         -3.982992   1.000000
      9         -3.425410   1.000000
     10         -2.911946   1.000000
     11         -2.766358   1.000000
     12         -2.154795   1.000000
     13         -1.789964   1.000000
     14         -1.771629   1.000000
     15         -0.296518   1.000000
     16          0.002774   1.000000
     17          0.141393   1.000000
     18          0.197070   1.000000
     19          0.475865   1.000000
     20          1.770624   0.979446
     21          1.902071   0.572798
     22          1.978357   0.185304
     23          5.652490   0.000000
     24          5.792725   0.000000
     25          6.036875   0.000000
     26          6.602800   0.000000
     27          6.643436   0.000000
     28          7.057844   0.000000
     29          8.278938   0.000000
     30          8.715400   0.000000
     31          9.058824   0.000000
     32          9.483821   0.000000
     33          9.643410   0.000000
     34         10.334572   0.000000
     35         10.464011   0.000000
     36         10.673672   0.000000
     37         11.428335   0.000000
     38         11.733119   0.000000
     39         12.372110   0.000000
     40         12.631641   0.000000
     41         12.719887   0.000000
     42         13.143801   0.000000
     43         14.380591   0.000000
     44         14.826531   0.000000
     45         15.378306   0.000000
     46         15.839578   0.000000
     47         16.013322   0.000000
     48         16.368290   0.000000
 
  0.2750000E+00  0.5357143E-01  0.2777778E-01  0.7936508E-03
      1        -12.527991   1.000000
      2        -11.776770   1.000000
      3         -8.560451   1.000000
      4         -8.328096   1.000000
      5         -6.012270   1.000000
      6         -5.843696   1.000000
      7         -4.708824   1.000000
      8         -3.911464   1.000000
      9         -3.172202   1.000000
     10         -2.989127   1.000000
     11         -2.527446   1.000000
     12         -2.140118   1.000000
     13         -2.045381   1.000000
     14         -1.847254   1.000000
     15         -0.425821   1.000000
     16         -0.012508   1.000000
     17          0.148160   1.000000
     18          0.237710   1.000000
     19          0.474249   1.000000
     20          1.687144   0.999366
     21          1.797271   0.952103
     22          1.857567   0.791861
     23          5.654540   0.000000
     24          5.827629   0.000000
     25          6.254441   0.000000
     26          6.584023   0.000000
     27          6.795191   0.000000
     28          7.020615   0.000000
     29          8.341612   0.000000
     30          8.765247   0.000000
     31          9.003839   0.000000
     32          9.689261   0.000000
     33          9.895408   0.000000
     34         10.052383   0.000000
     35         10.372185   0.000000
     36         10.658191   0.000000
     37         11.474563   0.000000
     38         11.903804   0.000000
     39         12.346941   0.000000
     40         12.420767   0.000000
     41         12.870298   0.000000
     42         12.986877   0.000000
     43         14.628595   0.000000
     44         15.018812   0.000000
     45         15.131882   0.000000
     46         15.729948   0.000000
     47         15.842119   0.000000
     48         16.223565   0.000000
 
  0.3250000E+00  0.5357143E-01  0.2777778E-01  0.7936508E-03
      1        -12.465358   1.000000
      2        -11.863802   1.000000
      3         -8.524438   1.000000
      4         -8.328522   1.000000
      5         -6.071428   1.000000
      6         -5.947412   1.000000
      7         -4.539714   1.000000
      8         -3.829463   1.000000