 vasp.6.4.3 19Mar24 (build May 31 2024 16:31:43) complex                        
  
 executed on             LinuxIFC date 2024.11.11  15:25:59
 running   24 mpi-ranks, with    1 threads/rank, on    1 nodes
 distrk:  each k-point on   24 cores,    1 groups
 distr:  one band on NCORE=   1 cores,   24 groups


--------------------------------------------------------------------------------------------------------


 INCAR:
   SYSTEM = PDoS
   ISTART = 1
   ICHARG = 11
   PREC = Accurate
   LORBIT = 11
   NEDOS = 4000
   ENCUT = 600
   LCHARG = .FALSE.
   LWAVE = .FALSE.
   ALGO = Normal
   EDIFF = 1E-6
   EDIFFG = -1E-3
   SIGMA = 0.1
   ISMEAR = 0
   SYMPREC = 1E-6
   NSW = 0
   IBRION = -1
   POTIM = .5

 POTCAR:    PAW_PBE B 06Sep2000                   
 POTCAR:    PAW_PBE B 06Sep2000                   
   SHA256 =  a32ced30f5ae56fd4d10b4325ff17eb3e4e38ee0f4288bc219fb012fddfa6e97 B/POTCAR              
   COPYR  = (c) Copyright 06Sep2000 Georg Kresse                                                    
   COPYR  = This file is part of the software VASP. Any use, copying, and all other rights are regul
   COPYR  = If you do not have a valid VASP license, you may not use, copy or distribute this file. 
   VRHFIN =B: s2p1                                                                                  
   LEXCH  = PE                                                                                      
   EATOM  =    71.1703 eV,    5.2309 Ry                                                             
                                                                                                    
   TITEL  = PAW_PBE B 06Sep2000                                                                     
   LULTRA =        F    use ultrasoft PP ?                                                          
   IUNSCR =        1    unscreen: 0-lin 1-nonlin 2-no                                               
   RPACOR =    1.200    partial core radius                                                         
   POMASS =   10.811; ZVAL   =    3.000    mass and valenz                                          
   RCORE  =    1.700    outmost cutoff radius                                                       
   RWIGS  =    1.710; RWIGS  =    0.905    wigner-seitz radius (au A)                               
   ENMAX  =  318.614; ENMIN  =  238.960 eV                                                          
   ICORE  =        2    local potential                                                             
   LCOR   =        T    correct aug charges                                                         
   LPAW   =        T    paw PP                                                                      
   EAUG   =  535.514                                                                                
   DEXC   =    0.000                                                                                
   RMAX   =    1.732    core radius for proj-oper                                                   
   RAUG   =    1.300    factor for augmentation sphere                                              
   RDEP   =    1.757    radius for radial grids                                                     
   RDEPT  =    1.436    core radius for aug-charge                                                  
                                                                                                    
   Atomic configuration                                                                             
    4 entries                                                                                       
     n  l   j            E        occ.                                                              
     1  0  0.50      -180.5896   2.0000                                                             
     2  0  0.50        -9.4431   2.0000                                                             
     2  1  0.50        -3.6068   1.0000                                                             
     3  2  1.50        -4.0817   0.0000                                                             
   Description                                                                                      
     l       E           TYP  RCUT    TYP  RCUT                                                     
     0     -9.4430752     23  1.500                                                                 
     0      0.8675899     23  1.500                                                                 
     1     -3.6067955     23  1.700                                                                 
     1      6.1086146     23  1.700                                                                 
     2     -4.0817478      7  1.700                                                                 
  local pseudopotential read in
  partial core-charges read in
  partial kinetic energy density read in
  atomic valenz-charges read in
  non local Contribution for L=           0  read in
    real space projection operators read in
  non local Contribution for L=           0  read in
    real space projection operators read in
  non local Contribution for L=           1  read in
    real space projection operators read in
  non local Contribution for L=           1  read in
    real space projection operators read in
    PAW grid and wavefunctions read in
 
   number of l-projection  operators is LMAX  =           4
   number of lm-projection operators is LMMAX =           8
 
  PAW_PBE B 06Sep2000                   :
 energy of atom  1       EATOM=  -71.1703
 kinetic energy error for atom=    0.0007 (will be added to EATOM!!)
 
 
 POSCAR: o-B14
  positions in direct lattice
  No initial velocities read in


 exchange-correlation table for PE
   RHO(1)=    0.500       N(1)  =     2000
   RHO(2)=  100.500       N(2)  =     4000
 


--------------------------------------------------------------------------------------------------------


 ion  position               nearest neighbor table
   1  0.521  0.500  0.638-  14 1.65   5 1.68  13 1.70   2 1.73   9 1.85  11 1.85
   2  0.479  0.500  0.362-  13 1.65   6 1.68  14 1.70   1 1.73  10 1.85  12 1.85
   3  0.979  0.500  0.638-  14 1.65   7 1.68  13 1.70   4 1.73   9 1.85  11 1.85
   4  0.021  0.500  0.362-  13 1.65   8 1.68  14 1.70   3 1.73  10 1.85  12 1.85
   5  0.597  0.500  0.900-   6 1.67   1 1.68   7 1.74   9 1.81  11 1.81
   6  0.403  0.500  0.100-   5 1.67   2 1.68   8 1.74  10 1.81  12 1.81
   7  0.903  0.500  0.900-   8 1.67   3 1.68   5 1.74   9 1.81  11 1.81
   8  0.097  0.500  0.100-   7 1.67   4 1.68   6 1.74  10 1.81  12 1.81
   9  0.750  0.792  0.730-  11 1.69   7 1.81   5 1.81   3 1.85   1 1.85  14 1.97
  10  0.250  0.208  0.270-  12 1.69   8 1.81   6 1.81   4 1.85   2 1.85  13 1.97
  11  0.750  0.208  0.730-   9 1.69   7 1.81   5 1.81   3 1.85   1 1.85  14 1.97
  12  0.250  0.792  0.270-  10 1.69   8 1.81   6 1.81   4 1.85   2 1.85  13 1.97
  13  0.250  0.500  0.524-   2 1.65   4 1.65   3 1.70   1 1.70  10 1.97  12 1.97
  14  0.750  0.500  0.476-   1 1.65   3 1.65   2 1.70   4 1.70   9 1.97  11 1.97
 
  LATTYP: Found a simple orthorhombic cell.
 ALAT       =     4.0440580961
 B/A-ratio  =     1.4097153303
 C/A-ratio  =     1.5335761871
  
  Lattice vectors:
  
 A1 = (   0.0000000000,  -4.0440580961,   0.0000000000)
 A2 = (   5.7009706948,   0.0000000000,   0.0000000000)
 A3 = (   0.0000000000,   0.0000000000,   6.2018711955)


Analysis of symmetry for initial positions (statically):
=====================================================================
 Subroutine PRICEL returns:
 Original cell was already a primitive cell.
 

 Routine SETGRP: Setting up the symmetry group for a 
 simple orthorhombic supercell.


 Subroutine GETGRP returns: Found  8 space group operations
 (whereof  4 operations were pure point group operations)
 out of a pool of  8 trial point group operations.


The static configuration has the point symmetry C_2h.
 The point group associated with its full space group is D_2h.


Analysis of symmetry for dynamics (positions and initial velocities):
=====================================================================
 Subroutine PRICEL returns:
 Original cell was already a primitive cell.
 

 Routine SETGRP: Setting up the symmetry group for a 
 simple orthorhombic supercell.


 Subroutine GETGRP returns: Found  8 space group operations
 (whereof  4 operations were pure point group operations)
 out of a pool of  8 trial point group operations.


The dynamic configuration has the point symmetry C_2h.
 The point group associated with its full space group is D_2h.


 Subroutine INISYM returns: Found  8 space group operations
 (whereof  4 operations are pure point group operations),
 and found     1 'primitive' translations


----------------------------------------------------------------------------------------

                                     Primitive cell                                     

  volume of cell :     142.9845

  direct lattice vectors                    reciprocal lattice vectors
     5.700970695  0.000000000  0.000000000     0.175408725  0.000000000  0.000000000
     0.000000000  4.044058096  0.000000000     0.000000000  0.247276368  0.000000000
     0.000000000  0.000000000  6.201871195     0.000000000  0.000000000  0.161241659

  length of vectors
     5.700970695  4.044058096  6.201871195     0.175408725  0.247276368  0.161241659

  position of ions in fractional coordinates (direct lattice)
     0.521289885  0.500000000  0.637957702
     0.478710115  0.500000000  0.362042298
     0.978710115  0.500000000  0.637957702
     0.021289885  0.500000000  0.362042298
     0.597449662  0.500000000  0.899868316
     0.402550338  0.500000000  0.100131684
     0.902550338  0.500000000  0.899868316
     0.097449662  0.500000000  0.100131684
     0.750000000  0.791564932  0.729579396
     0.250000000  0.208435068  0.270420604
     0.750000000  0.208435068  0.729579396
     0.250000000  0.791564932  0.270420604
     0.250000000  0.500000000  0.523993035
     0.750000000  0.500000000  0.476006965

  ion indices of the primitive-cell ions
   primitive index   ion index
                 1           1
                 2           2
                 3           3
                 4           4
                 5           5
                 6           6
                 7           7
                 8           8
                 9           9
                10          10
                11          11
                12          12
                13          13
                14          14

----------------------------------------------------------------------------------------

 
 
 KPOINTS: k-points                                

Automatic generation of k-mesh.
 Grid dimensions read from file:
 generate k-points for:   20   28   18

 Generating k-lattice:

  Cartesian coordinates                     Fractional coordinates (reciprocal lattice)
     0.008770436  0.000000000  0.000000000     0.050000000  0.000000000  0.000000000
     0.000000000  0.008831299  0.000000000     0.000000000  0.035714286  0.000000000
     0.000000000  0.000000000  0.008957870     0.000000000  0.000000000  0.055555556

  Length of vectors
     0.008770436  0.008831299  0.008957870

  Shift w.r.t. Gamma in fractional coordinates (k-lattice)
     0.500000000  0.500000000  0.500000000

 
 Subroutine IBZKPT returns following result:
 ===========================================
 
 Found   1260 irreducible k-points:
 
 Following reciprocal coordinates:
            Coordinates               Weight
  0.025000  0.017857  0.027778      8.000000
  0.075000  0.017857  0.027778      8.000000
  0.125000  0.017857  0.027778      8.000000
  0.175000  0.017857  0.027778      8.000000
  0.225000  0.017857  0.027778      8.000000
  0.275000  0.017857  0.027778      8.000000
  0.325000  0.017857  0.027778      8.000000
  0.375000  0.017857  0.027778      8.000000
  0.425000  0.017857  0.027778      8.000000
  0.475000  0.017857  0.027778      8.000000
  0.025000  0.053571  0.027778      8.000000
  0.075000  0.053571  0.027778      8.000000
  0.125000  0.053571  0.027778      8.000000
  0.175000  0.053571  0.027778      8.000000
  0.225000  0.053571  0.027778      8.000000
  0.275000  0.053571  0.027778      8.000000
  0.325000  0.053571  0.027778      8.000000
  0.375000  0.053571  0.027778      8.000000
  0.425000  0.053571  0.027778      8.000000
  0.475000  0.053571  0.027778      8.000000
  0.025000  0.089286  0.027778      8.000000
  0.075000  0.089286  0.027778      8.000000
  0.125000  0.089286  0.027778      8.000000
  0.175000  0.089286  0.027778      8.000000
  0.225000  0.089286  0.027778      8.000000
  0.275000  0.089286  0.027778      8.000000
  0.325000  0.089286  0.027778      8.000000
  0.375000  0.089286  0.027778      8.000000
  0.425000  0.089286  0.027778      8.000000
  0.475000  0.089286  0.027778      8.000000
  0.025000  0.125000  0.027778      8.000000
  0.075000  0.125000  0.027778      8.000000
  0.125000  0.125000  0.027778      8.000000
  0.175000  0.125000  0.027778      8.000000
  0.225000  0.125000  0.027778      8.000000
  0.275000  0.125000  0.027778      8.000000
  0.325000  0.125000  0.027778      8.000000
  0.375000  0.125000  0.027778      8.000000
  0.425000  0.125000  0.027778      8.000000
  0.475000  0.125000  0.027778      8.000000
  0.025000  0.160714  0.027778      8.000000
  0.075000  0.160714  0.027778      8.000000
  0.125000  0.160714  0.027778      8.000000
  0.175000  0.160714  0.027778      8.000000
  0.225000  0.160714  0.027778      8.000000
  0.275000  0.160714  0.027778      8.000000
  0.325000  0.160714  0.027778      8.000000
  0.375000  0.160714  0.027778      8.000000
  0.425000  0.160714  0.027778      8.000000
  0.475000  0.160714  0.027778      8.000000
  0.025000  0.196429  0.027778      8.000000
  0.075000  0.196429  0.027778      8.000000
  0.125000  0.196429  0.027778      8.000000
  0.175000  0.196429  0.027778      8.000000
  0.225000  0.196429  0.027778      8.000000
  0.275000  0.196429  0.027778      8.000000
  0.325000  0.196429  0.027778      8.000000
  0.375000  0.196429  0.027778      8.000000
  0.425000  0.196429  0.027778      8.000000
  0.475000  0.196429  0.027778      8.000000
  0.025000  0.232143  0.027778      8.000000
  0.075000  0.232143  0.027778      8.000000
  0.125000  0.232143  0.027778      8.000000
  0.175000  0.232143  0.027778      8.000000
  0.225000  0.232143  0.027778      8.000000
  0.275000  0.232143  0.027778      8.000000
  0.325000  0.232143  0.027778      8.000000
  0.375000  0.232143  0.027778      8.000000
  0.425000  0.232143  0.027778      8.000000
  0.475000  0.232143  0.027778      8.000000
  0.025000  0.267857  0.027778      8.000000
  0.075000  0.267857  0.027778      8.000000
  0.125000  0.267857  0.027778      8.000000
  0.175000  0.267857  0.027778      8.000000
  0.225000  0.267857  0.027778      8.000000
  0.275000  0.267857  0.027778      8.000000
  0.325000  0.267857  0.027778      8.000000
  0.375000  0.267857  0.027778      8.000000
  0.425000  0.267857  0.027778      8.000000
  0.475000  0.267857  0.027778      8.000000
  0.025000  0.303571  0.027778      8.000000
  0.075000  0.303571  0.027778      8.000000
  0.125000  0.303571  0.027778      8.000000
  0.175000  0.303571  0.027778      8.000000
  0.225000  0.303571  0.027778      8.000000
  0.275000  0.303571  0.027778      8.000000
  0.325000  0.303571  0.027778      8.000000
  0.375000  0.303571  0.027778      8.000000
  0.425000  0.303571  0.027778      8.000000
  0.475000  0.303571  0.027778      8.000000
  0.025000  0.339286  0.027778      8.000000
  0.075000  0.339286  0.027778      8.000000
  0.125000  0.339286  0.027778      8.000000
  0.175000  0.339286  0.027778      8.000000
  0.225000  0.339286  0.027778      8.000000
  0.275000  0.339286  0.027778      8.000000
  0.325000  0.339286  0.027778      8.000000
  0.375000  0.339286  0.027778      8.000000
  0.425000  0.339286  0.027778      8.000000
  0.475000  0.339286  0.027778      8.000000
  0.025000  0.375000  0.027778      8.000000
  0.075000  0.375000  0.027778      8.000000
  0.125000  0.375000  0.027778      8.000000
  0.175000  0.375000  0.027778      8.000000
  0.225000  0.375000  0.027778      8.000000
  0.275000  0.375000  0.027778      8.000000
  0.325000  0.375000  0.027778      8.000000
  0.375000  0.375000  0.027778      8.000000
  0.425000  0.375000  0.027778      8.000000
  0.475000  0.375000  0.027778      8.000000
  0.025000  0.410714  0.027778      8.000000
  0.075000  0.410714  0.027778      8.000000
  0.125000  0.410714  0.027778      8.000000
  0.175000  0.410714  0.027778      8.000000
  0.225000  0.410714  0.027778      8.000000
  0.275000  0.410714  0.027778      8.000000
  0.325000  0.410714  0.027778      8.000000
  0.375000  0.410714  0.027778      8.000000
  0.425000  0.410714  0.027778      8.000000
  0.475000  0.410714  0.027778      8.000000
  0.025000  0.446429  0.027778      8.000000
  0.075000  0.446429  0.027778      8.000000
  0.125000  0.446429  0.027778      8.000000
  0.175000  0.446429  0.027778      8.000000
  0.225000  0.446429  0.027778      8.000000
  0.275000  0.446429  0.027778      8.000000
  0.325000  0.446429  0.027778      8.000000
  0.375000  0.446429  0.027778      8.000000
  0.425000  0.446429  0.027778      8.000000
  0.475000  0.446429  0.027778      8.000000
  0.025000  0.482143  0.027778      8.000000
  0.075000  0.482143  0.027778      8.000000
  0.125000  0.482143  0.027778      8.000000
  0.175000  0.482143  0.027778      8.000000
  0.225000  0.482143  0.027778      8.000000
  0.275000  0.482143  0.027778      8.000000
  0.325000  0.482143  0.027778      8.000000
  0.375000  0.482143  0.027778      8.000000
  0.425000  0.482143  0.027778      8.000000
  0.475000  0.482143  0.027778      8.000000
  0.025000  0.017857  0.083333      8.000000
  0.075000  0.017857  0.083333      8.000000
  0.125000  0.017857  0.083333      8.000000
  0.175000  0.017857  0.083333      8.000000
  0.225000  0.017857  0.083333      8.000000
  0.275000  0.017857  0.083333      8.000000
  0.325000  0.017857  0.083333      8.000000
  0.375000  0.017857  0.083333      8.000000
  0.425000  0.017857  0.083333      8.000000
  0.475000  0.017857  0.083333      8.000000
  0.025000  0.053571  0.083333      8.000000
  0.075000  0.053571  0.083333      8.000000
  0.125000  0.053571  0.083333      8.000000
  0.175000  0.053571  0.083333      8.000000
  0.225000  0.053571  0.083333      8.000000
  0.275000  0.053571  0.083333      8.000000
  0.325000  0.053571  0.083333      8.000000
  0.375000  0.053571  0.083333      8.000000
  0.425000  0.053571  0.083333      8.000000
  0.475000  0.053571  0.083333      8.000000
  0.025000  0.089286  0.083333      8.000000
  0.075000  0.089286  0.083333      8.000000
  0.125000  0.089286  0.083333      8.000000
  0.175000  0.089286  0.083333      8.000000
  0.225000  0.089286  0.083333      8.000000
  0.275000  0.089286  0.083333      8.000000
  0.325000  0.089286  0.083333      8.000000
  0.375000  0.089286  0.083333      8.000000
  0.425000  0.089286  0.083333      8.000000
  0.475000  0.089286  0.083333      8.000000
  0.025000  0.125000  0.083333      8.000000
  0.075000  0.125000  0.083333      8.000000
  0.125000  0.125000  0.083333      8.000000
  0.175000  0.125000  0.083333      8.000000
  0.225000  0.125000  0.083333      8.000000
  0.275000  0.125000  0.083333      8.000000
  0.325000  0.125000  0.083333      8.000000
  0.375000  0.125000  0.083333      8.000000
  0.425000  0.125000  0.083333      8.000000
  0.475000  0.125000  0.083333      8.000000
  0.025000  0.160714  0.083333      8.000000
  0.075000  0.160714  0.083333      8.000000
  0.125000  0.160714  0.083333      8.000000
  0.175000  0.160714  0.083333      8.000000
  0.225000  0.160714  0.083333      8.000000
  0.275000  0.160714  0.083333      8.000000
  0.325000  0.160714  0.083333      8.000000
  0.375000  0.160714  0.083333      8.000000
  0.425000  0.160714  0.083333      8.000000
  0.475000  0.160714  0.083333      8.000000
  0.025000  0.196429  0.083333      8.000000
  0.075000  0.196429  0.083333      8.000000
  0.125000  0.196429  0.083333      8.000000
  0.175000  0.196429  0.083333      8.000000
  0.225000  0.196429  0.083333      8.000000
  0.275000  0.196429  0.083333      8.000000
  0.325000  0.196429  0.083333      8.000000
  0.375000  0.196429  0.083333      8.000000
  0.425000  0.196429  0.083333      8.000000
  0.475000  0.196429  0.083333      8.000000
  0.025000  0.232143  0.083333      8.000000
  0.075000  0.232143  0.083333      8.000000
  0.125000  0.232143  0.083333      8.000000
  0.175000  0.232143  0.083333      8.000000
  0.225000  0.232143  0.083333      8.000000
  0.275000  0.232143  0.083333      8.000000
  0.325000  0.232143  0.083333      8.000000
  0.375000  0.232143  0.083333      8.000000
  0.425000  0.232143  0.083333      8.000000
  0.475000  0.232143  0.083333      8.000000
  0.025000  0.267857  0.083333      8.000000
  0.075000  0.267857  0.083333      8.000000
  0.125000  0.267857  0.083333      8.000000
  0.175000  0.267857  0.083333      8.000000
  0.225000  0.267857  0.083333      8.000000
  0.275000  0.267857  0.083333      8.000000
  0.325000  0.267857  0.083333      8.000000
  0.375000  0.267857  0.083333      8.000000
  0.425000  0.267857  0.083333      8.000000
  0.475000  0.267857  0.083333      8.000000
  0.025000  0.303571  0.083333      8.000000
  0.075000  0.303571  0.083333      8.000000
  0.125000  0.303571  0.083333      8.000000
  0.175000  0.303571  0.083333      8.000000
  0.225000  0.303571  0.083333      8.000000
  0.275000  0.303571  0.083333      8.000000
  0.325000  0.303571  0.083333      8.000000
  0.375000  0.303571  0.083333      8.000000
  0.425000  0.303571  0.083333      8.000000
  0.475000  0.303571  0.083333      8.000000
  0.025000  0.339286  0.083333      8.000000
  0.075000  0.339286  0.083333      8.000000
  0.125000  0.339286  0.083333      8.000000
  0.175000  0.339286  0.083333      8.000000
  0.225000  0.339286  0.083333      8.000000
  0.275000  0.339286  0.083333      8.000000
  0.325000  0.339286  0.083333      8.000000
  0.375000  0.339286  0.083333      8.000000
  0.425000  0.339286  0.083333      8.000000
  0.475000  0.339286  0.083333      8.000000
  0.025000  0.375000  0.083333      8.000000
  0.075000  0.375000  0.083333      8.000000
  0.125000  0.375000  0.083333      8.000000
  0.175000  0.375000  0.083333      8.000000
  0.225000  0.375000  0.083333      8.000000
  0.275000  0.375000  0.083333      8.000000
  0.325000  0.375000  0.083333      8.000000
  0.375000  0.375000  0.083333      8.000000
  0.425000  0.375000  0.083333      8.000000
  0.475000  0.375000  0.083333      8.000000
  0.025000  0.410714  0.083333      8.000000
  0.075000  0.410714  0.083333      8.000000
  0.125000  0.410714  0.083333      8.000000
  0.175000  0.410714  0.083333      8.000000
  0.225000  0.410714  0.083333      8.000000
  0.275000  0.410714  0.083333      8.000000
  0.325000  0.410714  0.083333      8.000000
  0.375000  0.410714  0.083333      8.000000
  0.425000  0.410714  0.083333      8.000000
  0.475000  0.410714  0.083333      8.000000
  0.025000  0.446429  0.083333      8.000000
  0.075000  0.446429  0.083333      8.000000
  0.125000  0.446429  0.083333      8.000000
  0.175000  0.446429  0.083333      8.000000
  0.225000  0.446429  0.083333      8.000000
  0.275000  0.446429  0.083333      8.000000
  0.325000  0.446429  0.083333      8.000000
  0.375000  0.446429  0.083333      8.000000
  0.425000  0.446429  0.083333      8.000000
  0.475000  0.446429  0.083333      8.000000
  0.025000  0.482143  0.083333      8.000000
  0.075000  0.482143  0.083333      8.000000
  0.125000  0.482143  0.083333      8.000000
  0.175000  0.482143  0.083333      8.000000
  0.225000  0.482143  0.083333      8.000000
  0.275000  0.482143  0.083333      8.000000
  0.325000  0.482143  0.083333      8.000000
  0.375000  0.482143  0.083333      8.000000
  0.425000  0.482143  0.083333      8.000000
  0.475000  0.482143  0.083333      8.000000
  0.025000  0.017857  0.138889      8.000000
  0.075000  0.017857  0.138889      8.000000
  0.125000  0.017857  0.138889      8.000000
  0.175000  0.017857  0.138889      8.000000
  0.225000  0.017857  0.138889      8.000000
  0.275000  0.017857  0.138889      8.000000
  0.325000  0.017857  0.138889      8.000000
  0.375000  0.017857  0.138889      8.000000
  0.425000  0.017857  0.138889      8.000000
  0.475000  0.017857  0.138889      8.000000
  0.025000  0.053571  0.138889      8.000000
  0.075000  0.053571  0.138889      8.000000
  0.125000  0.053571  0.138889      8.000000
  0.175000  0.053571  0.138889      8.000000
  0.225000  0.053571  0.138889      8.000000
  0.275000  0.053571  0.138889      8.000000
  0.325000  0.053571  0.138889      8.000000
  0.375000  0.053571  0.138889      8.000000
  0.425000  0.053571  0.138889      8.000000
  0.475000  0.053571  0.138889      8.000000
  0.025000  0.089286  0.138889      8.000000
  0.075000  0.089286  0.138889      8.000000
  0.125000  0.089286  0.138889      8.000000
  0.175000  0.089286  0.138889      8.000000
  0.225000  0.089286  0.138889      8.000000
  0.275000  0.089286  0.138889      8.000000
  0.325000  0.089286  0.138889      8.000000
  0.375000  0.089286  0.138889      8.000000
  0.425000  0.089286  0.138889      8.000000
  0.475000  0.089286  0.138889      8.000000
  0.025000  0.125000  0.138889      8.000000
  0.075000  0.125000  0.138889      8.000000
  0.125000  0.125000  0.138889      8.000000
  0.175000  0.125000  0.138889      8.000000
  0.225000  0.125000  0.138889      8.000000
  0.275000  0.125000  0.138889      8.000000
  0.325000  0.125000  0.138889      8.000000
  0.375000  0.125000  0.138889      8.000000
  0.425000  0.125000  0.138889      8.000000
  0.475000  0.125000  0.138889      8.000000
  0.025000  0.160714  0.138889      8.000000
  0.075000  0.160714  0.138889      8.000000
  0.125000  0.160714  0.138889      8.000000
  0.175000  0.160714  0.138889      8.000000
  0.225000  0.160714  0.138889      8.000000
  0.275000  0.160714  0.138889      8.000000
  0.325000  0.160714  0.138889      8.000000
  0.375000  0.160714  0.138889      8.000000
  0.425000  0.160714  0.138889      8.000000
  0.475000  0.160714  0.138889      8.000000
  0.025000  0.196429  0.138889      8.000000
  0.075000  0.196429  0.138889      8.000000
  0.125000  0.196429  0.138889      8.000000
  0.175000  0.196429  0.138889      8.000000
  0.225000  0.196429  0.138889      8.000000
  0.275000  0.196429  0.138889      8.000000
  0.325000  0.196429  0.138889      8.000000
  0.375000  0.196429  0.138889      8.000000
  0.425000  0.196429  0.138889      8.000000
  0.475000  0.196429  0.138889      8.000000
  0.025000  0.232143  0.138889      8.000000
  0.075000  0.232143  0.138889      8.000000
  0.125000  0.232143  0.138889      8.000000
  0.175000  0.232143  0.138889      8.000000
  0.225000  0.232143  0.138889      8.000000
  0.275000  0.232143  0.138889      8.000000
  0.325000  0.232143  0.138889      8.000000
  0.375000  0.232143  0.138889      8.000000
  0.425000  0.232143  0.138889      8.000000
  0.475000  0.232143  0.138889      8.000000
  0.025000  0.267857  0.138889      8.000000
  0.075000  0.267857  0.138889      8.000000
  0.125000  0.267857  0.138889      8.000000
  0.175000  0.267857  0.138889      8.000000
  0.225000  0.267857  0.138889      8.000000
  0.275000  0.267857  0.138889      8.000000
  0.325000  0.267857  0.138889      8.000000
  0.375000  0.267857  0.138889      8.000000
  0.425000  0.267857  0.138889      8.000000
  0.475000  0.267857  0.138889      8.000000
  0.025000  0.303571  0.138889      8.000000
  0.075000  0.303571  0.138889      8.000000
  0.125000  0.303571  0.138889      8.000000
  0.175000  0.303571  0.138889      8.000000
  0.225000  0.303571  0.138889      8.000000
  0.275000  0.303571  0.138889      8.000000
  0.325000  0.303571  0.138889      8.000000
  0.375000  0.303571  0.138889      8.000000
  0.425000  0.303571  0.138889      8.000000
  0.475000  0.303571  0.138889      8.000000
  0.025000  0.339286  0.138889      8.000000
  0.075000  0.339286  0.138889      8.000000
  0.125000  0.339286  0.138889      8.000000
  0.175000  0.339286  0.138889      8.000000
  0.225000  0.339286  0.138889      8.000000
  0.275000  0.339286  0.138889      8.000000
  0.325000  0.339286  0.138889      8.000000
  0.375000  0.339286  0.138889      8.000000
  0.425000  0.339286  0.138889      8.000000
  0.475000  0.339286  0.138889      8.000000
  0.025000  0.375000  0.138889      8.000000
  0.075000  0.375000  0.138889      8.000000
  0.125000  0.375000  0.138889      8.000000
  0.175000  0.375000  0.138889      8.000000
  0.225000  0.375000  0.138889      8.000000
  0.275000  0.375000  0.138889      8.000000
  0.325000  0.375000  0.138889      8.000000
  0.375000  0.375000  0.138889      8.000000
  0.425000  0.375000  0.138889      8.000000
  0.475000  0.375000  0.138889      8.000000
  0.025000  0.410714  0.138889      8.000000
  0.075000  0.410714  0.138889      8.000000
  0.125000  0.410714  0.138889      8.000000
  0.175000  0.410714  0.138889      8.000000
  0.225000  0.410714  0.138889      8.000000
  0.275000  0.410714  0.138889      8.000000
  0.325000  0.410714  0.138889      8.000000
  0.375000  0.410714  0.138889      8.000000
  0.425000  0.410714  0.138889      8.000000
  0.475000  0.410714  0.138889      8.000000
  0.025000  0.446429  0.138889      8.000000
  0.075000  0.446429  0.138889      8.000000
  0.125000  0.446429  0.138889      8.000000
  0.175000  0.446429  0.138889      8.000000
  0.225000  0.446429  0.138889      8.000000
  0.275000  0.446429  0.138889      8.000000
  0.325000  0.446429  0.138889      8.000000
  0.375000  0.446429  0.138889      8.000000
  0.425000  0.446429  0.138889      8.000000
  0.475000  0.446429  0.138889      8.000000
  0.025000  0.482143  0.138889      8.000000
  0.075000  0.482143  0.138889      8.000000
  0.125000  0.482143  0.138889      8.000000
  0.175000  0.482143  0.138889      8.000000
  0.225000  0.482143  0.138889      8.000000
  0.275000  0.482143  0.138889      8.000000
  0.325000  0.482143  0.138889      8.000000
  0.375000  0.482143  0.138889      8.000000
  0.425000  0.482143  0.138889      8.000000
  0.475000  0.482143  0.138889      8.000000
  0.025000  0.017857  0.194444      8.000000
  0.075000  0.017857  0.194444      8.000000
  0.125000  0.017857  0.194444      8.000000
  0.175000  0.017857  0.194444      8.000000
  0.225000  0.017857  0.194444      8.000000
  0.275000  0.017857  0.194444      8.000000
  0.325000  0.017857  0.194444      8.000000
  0.375000  0.017857  0.194444      8.000000
  0.425000  0.017857  0.194444      8.000000
  0.475000  0.017857  0.194444      8.000000
  0.025000  0.053571  0.194444      8.000000
  0.075000  0.053571  0.194444      8.000000
  0.125000  0.053571  0.194444      8.000000
  0.175000  0.053571  0.194444      8.000000
  0.225000  0.053571  0.194444      8.000000
  0.275000  0.053571  0.194444      8.000000
  0.325000  0.053571  0.194444      8.000000
  0.375000  0.053571  0.194444      8.000000
  0.425000  0.053571  0.194444      8.000000
  0.475000  0.053571  0.194444      8.000000
  0.025000  0.089286  0.194444      8.000000
  0.075000  0.089286  0.194444      8.000000
  0.125000  0.089286  0.194444      8.000000
  0.175000  0.089286  0.194444      8.000000
  0.225000  0.089286  0.194444      8.000000
  0.275000  0.089286  0.194444      8.000000
  0.325000  0.089286  0.194444      8.000000
  0.375000  0.089286  0.194444      8.000000
  0.425000  0.089286  0.194444      8.000000
  0.475000  0.089286  0.194444      8.000000
  0.025000  0.125000  0.194444      8.000000
  0.075000  0.125000  0.194444      8.000000
  0.125000  0.125000  0.194444      8.000000
  0.175000  0.125000  0.194444      8.000000
  0.225000  0.125000  0.194444      8.000000
  0.275000  0.125000  0.194444      8.000000
  0.325000  0.125000  0.194444      8.000000
  0.375000  0.125000  0.194444      8.000000
  0.425000  0.125000  0.194444      8.000000
  0.475000  0.125000  0.194444      8.000000
  0.025000  0.160714  0.194444      8.000000
  0.075000  0.160714  0.194444      8.000000
  0.125000  0.160714  0.194444      8.000000
  0.175000  0.160714  0.194444      8.000000
  0.225000  0.160714  0.194444      8.000000
  0.275000  0.160714  0.194444      8.000000
  0.325000  0.160714  0.194444      8.000000
  0.375000  0.160714  0.194444      8.000000
  0.425000  0.160714  0.194444      8.000000
  0.475000  0.160714  0.194444      8.000000
  0.025000  0.196429  0.194444      8.000000
  0.075000  0.196429  0.194444      8.000000
  0.125000  0.196429  0.194444      8.000000
  0.175000  0.196429  0.194444      8.000000
  0.225000  0.196429  0.194444      8.000000
  0.275000  0.196429  0.194444      8.000000
  0.325000  0.196429  0.194444      8.000000
  0.375000  0.196429  0.194444      8.000000
  0.425000  0.196429  0.194444      8.000000
  0.475000  0.196429  0.194444      8.000000
  0.025000  0.232143  0.194444      8.000000
  0.075000  0.232143  0.194444      8.000000
  0.125000  0.232143  0.194444      8.000000
  0.175000  0.232143  0.194444      8.000000
  0.225000  0.232143  0.194444      8.000000
  0.275000  0.232143  0.194444      8.000000
  0.325000  0.232143  0.194444      8.000000
  0.375000  0.232143  0.194444      8.000000
  0.425000  0.232143  0.194444      8.000000
  0.475000  0.232143  0.194444      8.000000
  0.025000  0.267857  0.194444      8.000000
  0.075000  0.267857  0.194444      8.000000
  0.125000  0.267857  0.194444      8.000000
  0.175000  0.267857  0.194444      8.000000
  0.225000  0.267857  0.194444      8.000000
  0.275000  0.267857  0.194444      8.000000
  0.325000  0.267857  0.194444      8.000000
  0.375000  0.267857  0.194444      8.000000
  0.425000  0.267857  0.194444      8.000000
  0.475000  0.267857  0.194444      8.000000
  0.025000  0.303571  0.194444      8.000000
  0.075000  0.303571  0.194444      8.000000
  0.125000  0.303571  0.194444      8.000000
  0.175000  0.303571  0.194444      8.000000
  0.225000  0.303571  0.194444      8.000000
  0.275000  0.303571  0.194444      8.000000
  0.325000  0.303571  0.194444      8.000000
  0.375000  0.303571  0.194444      8.000000
  0.425000  0.303571  0.194444      8.000000
  0.475000  0.303571  0.194444      8.000000
  0.025000  0.339286  0.194444      8.000000
  0.075000  0.339286  0.194444      8.000000
  0.125000  0.339286  0.194444      8.000000
  0.175000  0.339286  0.194444      8.000000
  0.225000  0.339286  0.194444      8.000000
  0.275000  0.339286  0.194444      8.000000
  0.325000  0.339286  0.194444      8.000000
  0.375000  0.339286  0.194444      8.000000
  0.425000  0.339286  0.194444      8.000000
  0.475000  0.339286  0.194444      8.000000
  0.025000  0.375000  0.194444      8.000000
  0.075000  0.375000  0.194444      8.000000
  0.125000  0.375000  0.194444      8.000000
  0.175000  0.375000  0.194444      8.000000
  0.225000  0.375000  0.194444      8.000000
  0.275000  0.375000  0.194444      8.000000
  0.325000  0.375000  0.194444      8.000000
  0.375000  0.375000  0.194444      8.000000
  0.425000  0.375000  0.194444      8.000000
  0.475000  0.375000  0.194444      8.000000
  0.025000  0.410714  0.194444      8.000000
  0.075000  0.410714  0.194444      8.000000
  0.125000  0.410714  0.194444      8.000000
  0.175000  0.410714  0.194444      8.000000
  0.225000  0.410714  0.194444      8.000000
  0.275000  0.410714  0.194444      8.000000
  0.325000  0.410714  0.194444      8.000000
  0.375000  0.410714  0.194444      8.000000
  0.425000  0.410714  0.194444      8.000000
  0.475000  0.410714  0.194444      8.000000
  0.025000  0.446429  0.194444      8.000000
  0.075000  0.446429  0.194444      8.000000
  0.125000  0.446429  0.194444      8.000000
  0.175000  0.446429  0.194444      8.000000
  0.225000  0.446429  0.194444      8.000000
  0.275000  0.446429  0.194444      8.000000
  0.325000  0.446429  0.194444      8.000000
  0.375000  0.446429  0.194444      8.000000
  0.425000  0.446429  0.194444      8.000000
  0.475000  0.446429  0.194444      8.000000
  0.025000  0.482143  0.194444      8.000000
  0.075000  0.482143  0.194444      8.000000
  0.125000  0.482143  0.194444      8.000000
  0.175000  0.482143  0.194444      8.000000
  0.225000  0.482143  0.194444      8.000000
  0.275000  0.482143  0.194444      8.000000
  0.325000  0.482143  0.194444      8.000000
  0.375000  0.482143  0.194444      8.000000
  0.425000  0.482143  0.194444      8.000000
  0.475000  0.482143  0.194444      8.000000
  0.025000  0.017857  0.250000      8.000000
  0.075000  0.017857  0.250000      8.000000
  0.125000  0.017857  0.250000      8.000000
  0.175000  0.017857  0.250000      8.000000
  0.225000  0.017857  0.250000      8.000000
  0.275000  0.017857  0.250000      8.000000
  0.325000  0.017857  0.250000      8.000000
  0.375000  0.017857  0.250000      8.000000
  0.425000  0.017857  0.250000      8.000000
  0.475000  0.017857  0.250000      8.000000
  0.025000  0.053571  0.250000      8.000000
  0.075000  0.053571  0.250000      8.000000
  0.125000  0.053571  0.250000      8.000000
  0.175000  0.053571  0.250000      8.000000
  0.225000  0.053571  0.250000      8.000000
  0.275000  0.053571  0.250000      8.000000
  0.325000  0.053571  0.250000      8.000000
  0.375000  0.053571  0.250000      8.000000
  0.425000  0.053571  0.250000      8.000000
  0.475000  0.053571  0.250000      8.000000
  0.025000  0.089286  0.250000      8.000000
  0.075000  0.089286  0.250000      8.000000
  0.125000  0.089286  0.250000      8.000000
  0.175000  0.089286  0.250000      8.000000
  0.225000  0.089286  0.250000      8.000000
  0.275000  0.089286  0.250000      8.000000
  0.325000  0.089286  0.250000      8.000000
  0.375000  0.089286  0.250000      8.000000
  0.425000  0.089286  0.250000      8.000000
  0.475000  0.089286  0.250000      8.000000
  0.025000  0.125000  0.250000      8.000000
  0.075000  0.125000  0.250000      8.000000
  0.125000  0.125000  0.250000      8.000000
  0.175000  0.125000  0.250000      8.000000
  0.225000  0.125000  0.250000      8.000000
  0.275000  0.125000  0.250000      8.000000
  0.325000  0.125000  0.250000      8.000000
  0.375000  0.125000  0.250000      8.000000
  0.425000  0.125000  0.250000      8.000000
  0.475000  0.125000  0.250000      8.000000
  0.025000  0.160714  0.250000      8.000000
  0.075000  0.160714  0.250000      8.000000
  0.125000  0.160714  0.250000      8.000000
  0.175000  0.160714  0.250000      8.000000
  0.225000  0.160714  0.250000      8.000000
  0.275000  0.160714  0.250000      8.000000
  0.325000  0.160714  0.250000      8.000000
  0.375000  0.160714  0.250000      8.000000
  0.425000  0.160714  0.250000      8.000000
  0.475000  0.160714  0.250000      8.000000
  0.025000  0.196429  0.250000      8.000000
  0.075000  0.196429  0.250000      8.000000
  0.125000  0.196429  0.250000      8.000000
  0.175000  0.196429  0.250000      8.000000
  0.225000  0.196429  0.250000      8.000000
  0.275000  0.196429  0.250000      8.000000
  0.325000  0.196429  0.250000      8.000000
  0.375000  0.196429  0.250000      8.000000
  0.425000  0.196429  0.250000      8.000000
  0.475000  0.196429  0.250000      8.000000
  0.025000  0.232143  0.250000      8.000000
  0.075000  0.232143  0.250000      8.000000
  0.125000  0.232143  0.250000      8.000000
  0.175000  0.232143  0.250000      8.000000
  0.225000  0.232143  0.250000      8.000000
  0.275000  0.232143  0.250000      8.000000
  0.325000  0.232143  0.250000      8.000000
  0.375000  0.232143  0.250000      8.000000
  0.425000  0.232143  0.250000      8.000000
  0.475000  0.232143  0.250000      8.000000
  0.025000  0.267857  0.250000      8.000000
  0.075000  0.267857  0.250000      8.000000
  0.125000  0.267857  0.250000      8.000000
  0.175000  0.267857  0.250000      8.000000
  0.225000  0.267857  0.250000      8.000000
  0.275000  0.267857  0.250000      8.000000
  0.325000  0.267857  0.250000      8.000000
  0.375000  0.267857  0.250000      8.000000
  0.425000  0.267857  0.250000      8.000000
  0.475000  0.267857  0.250000      8.000000
  0.025000  0.303571  0.250000      8.000000
  0.075000  0.303571  0.250000      8.000000
  0.125000  0.303571  0.250000      8.000000
  0.175000  0.303571  0.250000      8.000000
  0.225000  0.303571  0.250000      8.000000
  0.275000  0.303571  0.250000      8.000000
  0.325000  0.303571  0.250000      8.000000
  0.375000  0.303571  0.250000      8.000000
  0.425000  0.303571  0.250000      8.000000
  0.475000  0.303571  0.250000      8.000000
  0.025000  0.339286  0.250000      8.000000
  0.075000  0.339286  0.250000      8.000000
  0.125000  0.339286  0.250000      8.000000
  0.175000  0.339286  0.250000      8.000000
  0.225000  0.339286  0.250000      8.000000
  0.275000  0.339286  0.250000      8.000000
  0.325000  0.339286  0.250000      8.000000
  0.375000  0.339286  0.250000      8.000000
  0.425000  0.339286  0.250000      8.000000
  0.475000  0.339286  0.250000      8.000000
  0.025000  0.375000  0.250000      8.000000
  0.075000  0.375000  0.250000      8.000000
  0.125000  0.375000  0.250000      8.000000
  0.175000  0.375000  0.250000      8.000000
  0.225000  0.375000  0.250000      8.000000
  0.275000  0.375000  0.250000      8.000000
  0.325000  0.375000  0.250000      8.000000
  0.375000  0.375000  0.250000      8.000000
  0.425000  0.375000  0.250000      8.000000
  0.475000  0.375000  0.250000      8.000000
  0.025000  0.410714  0.250000      8.000000
  0.075000  0.410714  0.250000      8.000000
  0.125000  0.410714  0.250000      8.000000
  0.175000  0.410714  0.250000      8.000000
  0.225000  0.410714  0.250000      8.000000
  0.275000  0.410714  0.250000      8.000000
  0.325000  0.410714  0.250000      8.000000
  0.375000  0.410714  0.250000      8.000000
  0.425000  0.410714  0.250000      8.000000
  0.475000  0.410714  0.250000      8.000000
  0.025000  0.446429  0.250000      8.000000
  0.075000  0.446429  0.250000      8.000000
  0.125000  0.446429  0.250000      8.000000
  0.175000  0.446429  0.250000      8.000000
  0.225000  0.446429  0.250000      8.000000
  0.275000  0.446429  0.250000      8.000000
  0.325000  0.446429  0.250000      8.000000
  0.375000  0.446429  0.250000      8.000000
  0.425000  0.446429  0.250000      8.000000
  0.475000  0.446429  0.250000      8.000000
  0.025000  0.482143  0.250000      8.000000
  0.075000  0.482143  0.250000      8.000000
  0.125000  0.482143  0.250000      8.000000
  0.175000  0.482143  0.250000      8.000000
  0.225000  0.482143  0.250000      8.000000
  0.275000  0.482143  0.250000      8.000000
  0.325000  0.482143  0.250000      8.000000
  0.375000  0.482143  0.250000      8.000000
  0.425000  0.482143  0.250000      8.000000
  0.475000  0.482143  0.250000      8.000000
  0.025000  0.017857  0.305556      8.000000
  0.075000  0.017857  0.305556      8.000000
  0.125000  0.017857  0.305556      8.000000
  0.175000  0.017857  0.305556      8.000000
  0.225000  0.017857  0.305556      8.000000
  0.275000  0.017857  0.305556      8.000000
  0.325000  0.017857  0.305556      8.000000
  0.375000  0.017857  0.305556      8.000000
  0.425000  0.017857  0.305556      8.000000
  0.475000  0.017857  0.305556      8.000000
  0.025000  0.053571  0.305556      8.000000
  0.075000  0.053571  0.305556      8.000000
  0.125000  0.053571  0.305556      8.000000
  0.175000  0.053571  0.305556      8.000000
  0.225000  0.053571  0.305556      8.000000
  0.275000  0.053571  0.305556      8.000000
  0.325000  0.053571  0.305556      8.000000
  0.375000  0.053571  0.305556      8.000000
  0.425000  0.053571  0.305556      8.000000
  0.475000  0.053571  0.305556      8.000000
  0.025000  0.089286  0.305556      8.000000
  0.075000  0.089286  0.305556      8.000000
  0.125000  0.089286  0.305556      8.000000
  0.175000  0.089286  0.305556      8.000000
  0.225000  0.089286  0.305556      8.000000
  0.275000  0.089286  0.305556      8.000000
  0.325000  0.089286  0.305556      8.000000
  0.375000  0.089286  0.305556      8.000000
  0.425000  0.089286  0.305556      8.000000
  0.475000  0.089286  0.305556      8.000000
  0.025000  0.125000  0.305556      8.000000
  0.075000  0.125000  0.305556      8.000000
  0.125000  0.125000  0.305556      8.000000
  0.175000  0.125000  0.305556      8.000000
  0.225000  0.125000  0.305556      8.000000
  0.275000  0.125000  0.305556      8.000000
  0.325000  0.125000  0.305556      8.000000
  0.375000  0.125000  0.305556      8.000000
  0.425000  0.125000  0.305556      8.000000
  0.475000  0.125000  0.305556      8.000000
  0.025000  0.160714  0.305556      8.000000
  0.075000  0.160714  0.305556      8.000000
  0.125000  0.160714  0.305556      8.000000
  0.175000  0.160714  0.305556      8.000000
  0.225000  0.160714  0.305556      8.000000
  0.275000  0.160714  0.305556      8.000000
  0.325000  0.160714  0.305556      8.000000
  0.375000  0.160714  0.305556      8.000000
  0.425000  0.160714  0.305556      8.000000
  0.475000  0.160714  0.305556      8.000000
  0.025000  0.196429  0.305556      8.000000
  0.075000  0.196429  0.305556      8.000000
  0.125000  0.196429  0.305556      8.000000
  0.175000  0.196429  0.305556      8.000000
  0.225000  0.196429  0.305556      8.000000
  0.275000  0.196429  0.305556      8.000000
  0.325000  0.196429  0.305556      8.000000
  0.375000  0.196429  0.305556      8.000000
  0.425000  0.196429  0.305556      8.000000
  0.475000  0.196429  0.305556      8.000000
  0.025000  0.232143  0.305556      8.000000
  0.075000  0.232143  0.305556      8.000000
  0.125000  0.232143  0.305556      8.000000
  0.175000  0.232143  0.305556      8.000000
  0.225000  0.232143  0.305556      8.000000
  0.275000  0.232143  0.305556      8.000000
  0.325000  0.232143  0.305556      8.000000
  0.375000  0.232143  0.305556      8.000000
  0.425000  0.232143  0.305556      8.000000
  0.475000  0.232143  0.305556      8.000000
  0.025000  0.267857  0.305556      8.000000
  0.075000  0.267857  0.305556      8.000000
  0.125000  0.267857  0.305556      8.000000
  0.175000  0.267857  0.305556      8.000000
  0.225000  0.267857  0.305556      8.000000
  0.275000  0.267857  0.305556      8.000000
  0.325000  0.267857  0.305556      8.000000
  0.375000  0.267857  0.305556      8.000000
  0.425000  0.267857  0.305556      8.000000
  0.475000  0.267857  0.305556      8.000000
  0.025000  0.303571  0.305556      8.000000
  0.075000  0.303571  0.305556      8.000000
  0.125000  0.303571  0.305556      8.000000
  0.175000  0.303571  0.305556      8.000000
  0.225000  0.303571  0.305556      8.000000
  0.275000  0.303571  0.305556      8.000000
  0.325000  0.303571  0.305556      8.000000
  0.375000  0.303571  0.305556      8.000000
  0.425000  0.303571  0.305556      8.000000
  0.475000  0.303571  0.305556      8.000000
  0.025000  0.339286  0.305556      8.000000
  0.075000  0.339286  0.305556      8.000000
  0.125000  0.339286  0.305556      8.000000
  0.175000  0.339286  0.305556      8.000000
  0.225000  0.339286  0.305556      8.000000
  0.275000  0.339286  0.305556      8.000000
  0.325000  0.339286  0.305556      8.000000
  0.375000  0.339286  0.305556      8.000000
  0.425000  0.339286  0.305556      8.000000
  0.475000  0.339286  0.305556      8.000000
  0.025000  0.375000  0.305556      8.000000
  0.075000  0.375000  0.305556      8.000000
  0.125000  0.375000  0.305556      8.000000
  0.175000  0.375000  0.305556      8.000000
  0.225000  0.375000  0.305556      8.000000
  0.275000  0.375000  0.305556      8.000000
  0.325000  0.375000  0.305556      8.000000
  0.375000  0.375000  0.305556      8.000000
  0.425000  0.375000  0.305556      8.000000
  0.475000  0.375000  0.305556      8.000000
  0.025000  0.410714  0.305556      8.000000
  0.075000  0.410714  0.305556      8.000000
  0.125000  0.410714  0.305556      8.000000
  0.175000  0.410714  0.305556      8.000000
  0.225000  0.410714  0.305556      8.000000
  0.275000  0.410714  0.305556      8.000000
  0.325000  0.410714  0.305556      8.000000
  0.375000  0.410714  0.305556      8.000000
  0.425000  0.410714  0.305556      8.000000
  0.475000  0.410714  0.305556      8.000000
  0.025000  0.446429  0.305556      8.000000
  0.075000  0.446429  0.305556      8.000000
  0.125000  0.446429  0.305556      8.000000
  0.175000  0.446429  0.305556      8.000000
  0.225000  0.446429  0.305556      8.000000
  0.275000  0.446429  0.305556      8.000000
  0.325000  0.446429  0.305556      8.000000
  0.375000  0.446429  0.305556      8.000000
  0.425000  0.446429  0.305556      8.000000
  0.475000  0.446429  0.305556      8.000000
  0.025000  0.482143  0.305556      8.000000
  0.075000  0.482143  0.305556      8.000000
  0.125000  0.482143  0.305556      8.000000
  0.175000  0.482143  0.305556      8.000000
  0.225000  0.482143  0.305556      8.000000
  0.275000  0.482143  0.305556      8.000000
  0.325000  0.482143  0.305556      8.000000
  0.375000  0.482143  0.305556      8.000000
  0.425000  0.482143  0.305556      8.000000
  0.475000  0.482143  0.305556      8.000000
  0.025000  0.017857  0.361111      8.000000
  0.075000  0.017857  0.361111      8.000000
  0.125000  0.017857  0.361111      8.000000
  0.175000  0.017857  0.361111      8.000000
  0.225000  0.017857  0.361111      8.000000
  0.275000  0.017857  0.361111      8.000000
  0.325000  0.017857  0.361111      8.000000
  0.375000  0.017857  0.361111      8.000000
  0.425000  0.017857  0.361111      8.000000
  0.475000  0.017857  0.361111      8.000000
  0.025000  0.053571  0.361111      8.000000
  0.075000  0.053571  0.361111      8.000000
  0.125000  0.053571  0.361111      8.000000
  0.175000  0.053571  0.361111      8.000000
  0.225000  0.053571  0.361111      8.000000
  0.275000  0.053571  0.361111      8.000000
  0.325000  0.053571  0.361111      8.000000
  0.375000  0.053571  0.361111      8.000000
  0.425000  0.053571  0.361111      8.000000
  0.475000  0.053571  0.361111      8.000000
  0.025000  0.089286  0.361111      8.000000
  0.075000  0.089286  0.361111      8.000000
  0.125000  0.089286  0.361111      8.000000
  0.175000  0.089286  0.361111      8.000000
  0.225000  0.089286  0.361111      8.000000
  0.275000  0.089286  0.361111      8.000000
  0.325000  0.089286  0.361111      8.000000
  0.375000  0.089286  0.361111      8.000000
  0.425000  0.089286  0.361111      8.000000
  0.475000  0.089286  0.361111      8.000000
  0.025000  0.125000  0.361111      8.000000
  0.075000  0.125000  0.361111      8.000000
  0.125000  0.125000  0.361111      8.000000
  0.175000  0.125000  0.361111      8.000000
  0.225000  0.125000  0.361111      8.000000
  0.275000  0.125000  0.361111      8.000000
  0.325000  0.125000  0.361111      8.000000
  0.375000  0.125000  0.361111      8.000000
  0.425000  0.125000  0.361111      8.000000
  0.475000  0.125000  0.361111      8.000000
  0.025000  0.160714  0.361111      8.000000
  0.075000  0.160714  0.361111      8.000000
  0.125000  0.160714  0.361111      8.000000
  0.175000  0.160714  0.361111      8.000000
  0.225000  0.160714  0.361111      8.000000
  0.275000  0.160714  0.361111      8.000000
  0.325000  0.160714  0.361111      8.000000
  0.375000  0.160714  0.361111      8.000000
  0.425000  0.160714  0.361111      8.000000
  0.475000  0.160714  0.361111      8.000000
  0.025000  0.196429  0.361111      8.000000
  0.075000  0.196429  0.361111      8.000000
  0.125000  0.196429  0.361111      8.000000
  0.175000  0.196429  0.361111      8.000000
  0.225000  0.196429  0.361111      8.000000
  0.275000  0.196429  0.361111      8.000000
  0.325000  0.196429  0.361111      8.000000
  0.375000  0.196429  0.361111      8.000000
  0.425000  0.196429  0.361111      8.000000
  0.475000  0.196429  0.361111      8.000000
  0.025000  0.232143  0.361111      8.000000
  0.075000  0.232143  0.361111      8.000000
  0.125000  0.232143  0.361111      8.000000
  0.175000  0.232143  0.361111      8.000000
  0.225000  0.232143  0.361111      8.000000
  0.275000  0.232143  0.361111      8.000000
  0.325000  0.232143  0.361111      8.000000
  0.375000  0.232143  0.361111      8.000000
  0.425000  0.232143  0.361111      8.000000
  0.475000  0.232143  0.361111      8.000000
  0.025000  0.267857  0.361111      8.000000
  0.075000  0.267857  0.361111      8.000000
  0.125000  0.267857  0.361111      8.000000
  0.175000  0.267857  0.361111      8.000000
  0.225000  0.267857  0.361111      8.000000
  0.275000  0.267857  0.361111      8.000000
  0.325000  0.267857  0.361111      8.000000
  0.375000  0.267857  0.361111      8.000000
  0.425000  0.267857  0.361111      8.000000
  0.475000  0.267857  0.361111      8.000000
  0.025000  0.303571  0.361111      8.000000
  0.075000  0.303571  0.361111      8.000000
  0.125000  0.303571  0.361111      8.000000
  0.175000  0.303571  0.361111      8.000000
  0.225000  0.303571  0.361111      8.000000
  0.275000  0.303571  0.361111      8.000000
  0.325000  0.303571  0.361111      8.000000
  0.375000  0.303571  0.361111      8.000000
  0.425000  0.303571  0.361111      8.000000
  0.475000  0.303571  0.361111      8.000000
  0.025000  0.339286  0.361111      8.000000
  0.075000  0.339286  0.361111      8.000000
  0.125000  0.339286  0.361111      8.000000
  0.175000  0.339286  0.361111      8.000000
  0.225000  0.339286  0.361111      8.000000
  0.275000  0.339286  0.361111      8.000000
  0.325000  0.339286  0.361111      8.000000
  0.375000  0.339286  0.361111      8.000000
  0.425000  0.339286  0.361111      8.000000
  0.475000  0.339286  0.361111      8.000000
  0.025000  0.375000  0.361111      8.000000
  0.075000  0.375000  0.361111      8.000000
  0.125000  0.375000  0.361111      8.000000
  0.175000  0.375000  0.361111      8.000000
  0.225000  0.375000  0.361111      8.000000
  0.275000  0.375000  0.361111      8.000000
  0.325000  0.375000  0.361111      8.000000
  0.375000  0.375000  0.361111      8.000000
  0.425000  0.375000  0.361111      8.000000
  0.475000  0.375000  0.361111      8.000000
  0.025000  0.410714  0.361111      8.000000
  0.075000  0.410714  0.361111      8.000000
  0.125000  0.410714  0.361111      8.000000
  0.175000  0.410714  0.361111      8.000000
  0.225000  0.410714  0.361111      8.000000
  0.275000  0.410714  0.361111      8.000000
  0.325000  0.410714  0.361111      8.000000
  0.375000  0.410714  0.361111      8.000000
  0.425000  0.410714  0.361111      8.000000
  0.475000  0.410714  0.361111      8.000000
  0.025000  0.446429  0.361111      8.000000
  0.075000  0.446429  0.361111      8.000000
  0.125000  0.446429  0.361111      8.000000
  0.175000  0.446429  0.361111      8.000000
  0.225000  0.446429  0.361111      8.000000
  0.275000  0.446429  0.361111      8.000000
  0.325000  0.446429  0.361111      8.000000
  0.375000  0.446429  0.361111      8.000000
  0.425000  0.446429  0.361111      8.000000
  0.475000  0.446429  0.361111      8.000000
  0.025000  0.482143  0.361111      8.000000
  0.075000  0.482143  0.361111      8.000000
  0.125000  0.482143  0.361111      8.000000
  0.175000  0.482143  0.361111      8.000000
  0.225000  0.482143  0.361111      8.000000
  0.275000  0.482143  0.361111      8.000000
  0.325000  0.482143  0.361111      8.000000
  0.375000  0.482143  0.361111      8.000000
  0.425000  0.482143  0.361111      8.000000
  0.475000  0.482143  0.361111      8.000000
  0.025000  0.017857  0.416667      8.000000
  0.075000  0.017857  0.416667      8.000000
  0.125000  0.017857  0.416667      8.000000
  0.175000  0.017857  0.416667      8.000000
  0.225000  0.017857  0.416667      8.000000
  0.275000  0.017857  0.416667      8.000000
  0.325000  0.017857  0.416667      8.000000
  0.375000  0.017857  0.416667      8.000000
  0.425000  0.017857  0.416667      8.000000
  0.475000  0.017857  0.416667      8.000000
  0.025000  0.053571  0.416667      8.000000
  0.075000  0.053571  0.416667      8.000000
  0.125000  0.053571  0.416667      8.000000
  0.175000  0.053571  0.416667      8.000000
  0.225000  0.053571  0.416667      8.000000
  0.275000  0.053571  0.416667      8.000000
  0.325000  0.053571  0.416667      8.000000
  0.375000  0.053571  0.416667      8.000000
  0.425000  0.053571  0.416667      8.000000
  0.475000  0.053571  0.416667      8.000000
  0.025000  0.089286  0.416667      8.000000
  0.075000  0.089286  0.416667      8.000000
  0.125000  0.089286  0.416667      8.000000
  0.175000  0.089286  0.416667      8.000000
  0.225000  0.089286  0.416667      8.000000
  0.275000  0.089286  0.416667      8.000000
  0.325000  0.089286  0.416667      8.000000
  0.375000  0.089286  0.416667      8.000000
  0.425000  0.089286  0.416667      8.000000
  0.475000  0.089286  0.416667      8.000000
  0.025000  0.125000  0.416667      8.000000
  0.075000  0.125000  0.416667      8.000000
  0.125000  0.125000  0.416667      8.000000
  0.175000  0.125000  0.416667      8.000000
  0.225000  0.125000  0.416667      8.000000
  0.275000  0.125000  0.416667      8.000000
  0.325000  0.125000  0.416667      8.000000
  0.375000  0.125000  0.416667      8.000000
  0.425000  0.125000  0.416667      8.000000
  0.475000  0.125000  0.416667      8.000000
  0.025000  0.160714  0.416667      8.000000
  0.075000  0.160714  0.416667      8.000000
  0.125000  0.160714  0.416667      8.000000
  0.175000  0.160714  0.416667      8.000000
  0.225000  0.160714  0.416667      8.000000
  0.275000  0.160714  0.416667      8.000000
  0.325000  0.160714  0.416667      8.000000
  0.375000  0.160714  0.416667      8.000000
  0.425000  0.160714  0.416667      8.000000
  0.475000  0.160714  0.416667      8.000000
  0.025000  0.196429  0.416667      8.000000
  0.075000  0.196429  0.416667      8.000000
  0.125000  0.196429  0.416667      8.000000
  0.175000  0.196429  0.416667      8.000000
  0.225000  0.196429  0.416667      8.000000
  0.275000  0.196429  0.416667      8.000000
  0.325000  0.196429  0.416667      8.000000
  0.375000  0.196429  0.416667      8.000000
  0.425000  0.196429  0.416667      8.000000
  0.475000  0.196429  0.416667      8.000000
  0.025000  0.232143  0.416667      8.000000
  0.075000  0.232143  0.416667      8.000000
  0.125000  0.232143  0.416667      8.000000
  0.175000  0.232143  0.416667      8.000000
  0.225000  0.232143  0.416667      8.000000
  0.275000  0.232143  0.416667      8.000000
  0.325000  0.232143  0.416667      8.000000
  0.375000  0.232143  0.416667      8.000000
  0.425000  0.232143  0.416667      8.000000
  0.475000  0.232143  0.416667      8.000000
  0.025000  0.267857  0.416667      8.000000
  0.075000  0.267857  0.416667      8.000000
  0.125000  0.267857  0.416667      8.000000
  0.175000  0.267857  0.416667      8.000000
  0.225000  0.267857  0.416667      8.000000
  0.275000  0.267857  0.416667      8.000000
  0.325000  0.267857  0.416667      8.000000
  0.375000  0.267857  0.416667      8.000000
  0.425000  0.267857  0.416667      8.000000
  0.475000  0.267857  0.416667      8.000000
  0.025000  0.303571  0.416667      8.000000
  0.075000  0.303571  0.416667      8.000000
  0.125000  0.303571  0.416667      8.000000
  0.175000  0.303571  0.416667      8.000000
  0.225000  0.303571  0.416667      8.000000
  0.275000  0.303571  0.416667      8.000000
  0.325000  0.303571  0.416667      8.000000
  0.375000  0.303571  0.416667      8.000000
  0.425000  0.303571  0.416667      8.000000
  0.475000  0.303571  0.416667      8.000000
  0.025000  0.339286  0.416667      8.000000
  0.075000  0.339286  0.416667      8.000000
  0.125000  0.339286  0.416667      8.000000
  0.175000  0.339286  0.416667      8.000000
  0.225000  0.339286  0.416667      8.000000
  0.275000  0.339286  0.416667      8.000000
  0.325000  0.339286  0.416667      8.000000
  0.375000  0.339286  0.416667      8.000000
  0.425000  0.339286  0.416667      8.000000
  0.475000  0.339286  0.416667      8.000000
  0.025000  0.375000  0.416667      8.000000
  0.075000  0.375000  0.416667      8.000000
  0.125000  0.375000  0.416667      8.000000
  0.175000  0.375000  0.416667      8.000000
  0.225000  0.375000  0.416667      8.000000
  0.275000  0.375000  0.416667      8.000000
  0.325000  0.375000  0.416667      8.000000
  0.375000  0.375000  0.416667      8.000000
  0.425000  0.375000  0.416667      8.000000
  0.475000  0.375000  0.416667      8.000000
  0.025000  0.410714  0.416667      8.000000
  0.075000  0.410714  0.416667      8.000000
  0.125000  0.410714  0.416667      8.000000
  0.175000  0.410714  0.416667      8.000000
  0.225000  0.410714  0.416667      8.000000
  0.275000  0.410714  0.416667      8.000000
  0.325000  0.410714  0.416667      8.000000
  0.375000  0.410714  0.416667      8.000000
  0.425000  0.410714  0.416667      8.000000
  0.475000  0.410714  0.416667      8.000000
  0.025000  0.446429  0.416667      8.000000
  0.075000  0.446429  0.416667      8.000000
  0.125000  0.446429  0.416667      8.000000
  0.175000  0.446429  0.416667      8.000000
  0.225000  0.446429  0.416667      8.000000
  0.275000  0.446429  0.416667      8.000000
  0.325000  0.446429  0.416667      8.000000
  0.375000  0.446429  0.416667      8.000000
  0.425000  0.446429  0.416667      8.000000
  0.475000  0.446429  0.416667      8.000000
  0.025000  0.482143  0.416667      8.000000
  0.075000  0.482143  0.416667      8.000000
  0.125000  0.482143  0.416667      8.000000
  0.175000  0.482143  0.416667      8.000000
  0.225000  0.482143  0.416667      8.000000
  0.275000  0.482143  0.416667      8.000000
  0.325000  0.482143  0.416667      8.000000
  0.375000  0.482143  0.416667      8.000000
  0.425000  0.482143  0.416667      8.000000
  0.475000  0.482143  0.416667      8.000000
  0.025000  0.017857  0.472222      8.000000
  0.075000  0.017857  0.472222      8.000000
  0.125000  0.017857  0.472222      8.000000
  0.175000  0.017857  0.472222      8.000000
  0.225000  0.017857  0.472222      8.000000
  0.275000  0.017857  0.472222      8.000000
  0.325000  0.017857  0.472222      8.000000
  0.375000  0.017857  0.472222      8.000000
  0.425000  0.017857  0.472222      8.000000
  0.475000  0.017857  0.472222      8.000000
  0.025000  0.053571  0.472222      8.000000
  0.075000  0.053571  0.472222      8.000000
  0.125000  0.053571  0.472222      8.000000
  0.175000  0.053571  0.472222      8.000000
  0.225000  0.053571  0.472222      8.000000
  0.275000  0.053571  0.472222      8.000000
  0.325000  0.053571  0.472222      8.000000
  0.375000  0.053571  0.472222      8.000000
  0.425000  0.053571  0.472222      8.000000
  0.475000  0.053571  0.472222      8.000000
  0.025000  0.089286  0.472222      8.000000
  0.075000  0.089286  0.472222      8.000000
  0.125000  0.089286  0.472222      8.000000
  0.175000  0.089286  0.472222      8.000000
  0.225000  0.089286  0.472222      8.000000
  0.275000  0.089286  0.472222      8.000000
  0.325000  0.089286  0.472222      8.000000
  0.375000  0.089286  0.472222      8.000000
  0.425000  0.089286  0.472222      8.000000
  0.475000  0.089286  0.472222      8.000000
  0.025000  0.125000  0.472222      8.000000
  0.075000  0.125000  0.472222      8.000000
  0.125000  0.125000  0.472222      8.000000
  0.175000  0.125000  0.472222      8.000000
  0.225000  0.125000  0.472222      8.000000
  0.275000  0.125000  0.472222      8.000000
  0.325000  0.125000  0.472222      8.000000
  0.375000  0.125000  0.472222      8.000000
  0.425000  0.125000  0.472222      8.000000
  0.475000  0.125000  0.472222      8.000000
  0.025000  0.160714  0.472222      8.000000
  0.075000  0.160714  0.472222      8.000000
  0.125000  0.160714  0.472222      8.000000
  0.175000  0.160714  0.472222      8.000000
  0.225000  0.160714  0.472222      8.000000
  0.275000  0.160714  0.472222      8.000000
  0.325000  0.160714  0.472222      8.000000
  0.375000  0.160714  0.472222      8.000000
  0.425000  0.160714  0.472222      8.000000
  0.475000  0.160714  0.472222      8.000000
  0.025000  0.196429  0.472222      8.000000
  0.075000  0.196429  0.472222      8.000000
  0.125000  0.196429  0.472222      8.000000
  0.175000  0.196429  0.472222      8.000000
  0.225000  0.196429  0.472222      8.000000
  0.275000  0.196429  0.472222      8.000000
  0.325000  0.196429  0.472222      8.000000
  0.375000  0.196429  0.472222      8.000000
  0.425000  0.196429  0.472222      8.000000
  0.475000  0.196429  0.472222      8.000000
  0.025000  0.232143  0.472222      8.000000
  0.075000  0.232143  0.472222      8.000000
  0.125000  0.232143  0.472222      8.000000
  0.175000  0.232143  0.472222      8.000000
  0.225000  0.232143  0.472222      8.000000
  0.275000  0.232143  0.472222      8.000000
  0.325000  0.232143  0.472222      8.000000
  0.375000  0.232143  0.472222      8.000000
  0.425000  0.232143  0.472222      8.000000
  0.475000  0.232143  0.472222      8.000000
  0.025000  0.267857  0.472222      8.000000
  0.075000  0.267857  0.472222      8.000000
  0.125000  0.267857  0.472222      8.000000
  0.175000  0.267857  0.472222      8.000000
  0.225000  0.267857  0.472222      8.000000
  0.275000  0.267857  0.472222      8.000000
  0.325000  0.267857  0.472222      8.000000
  0.375000  0.267857  0.472222      8.000000
  0.425000  0.267857  0.472222      8.000000
  0.475000  0.267857  0.472222      8.000000
  0.025000  0.303571  0.472222      8.000000
  0.075000  0.303571  0.472222      8.000000
  0.125000  0.303571  0.472222      8.000000
  0.175000  0.303571  0.472222      8.000000
  0.225000  0.303571  0.472222      8.000000
  0.275000  0.303571  0.472222      8.000000
  0.325000  0.303571  0.472222      8.000000
  0.375000  0.303571  0.472222      8.000000
  0.425000  0.303571  0.472222      8.000000
  0.475000  0.303571  0.472222      8.000000
  0.025000  0.339286  0.472222      8.000000
  0.075000  0.339286  0.472222      8.000000
  0.125000  0.339286  0.472222      8.000000
  0.175000  0.339286  0.472222      8.000000
  0.225000  0.339286  0.472222      8.000000
  0.275000  0.339286  0.472222      8.000000
  0.325000  0.339286  0.472222      8.000000
  0.375000  0.339286  0.472222      8.000000
  0.425000  0.339286  0.472222      8.000000
  0.475000  0.339286  0.472222      8.000000
  0.025000  0.375000  0.472222      8.000000
  0.075000  0.375000  0.472222      8.000000
  0.125000  0.375000  0.472222      8.000000
  0.175000  0.375000  0.472222      8.000000
  0.225000  0.375000  0.472222      8.000000
  0.275000  0.375000  0.472222      8.000000
  0.325000  0.375000  0.472222      8.000000
  0.375000  0.375000  0.472222      8.000000
  0.425000  0.375000  0.472222      8.000000
  0.475000  0.375000  0.472222      8.000000
  0.025000  0.410714  0.472222      8.000000
  0.075000  0.410714  0.472222      8.000000
  0.125000  0.410714  0.472222      8.000000
  0.175000  0.410714  0.472222      8.000000
  0.225000  0.410714  0.472222      8.000000
  0.275000  0.410714  0.472222      8.000000
  0.325000  0.410714  0.472222      8.000000
  0.375000  0.410714  0.472222      8.000000
  0.425000  0.410714  0.472222      8.000000
  0.475000  0.410714  0.472222      8.000000
  0.025000  0.446429  0.472222      8.000000
  0.075000  0.446429  0.472222      8.000000
  0.125000  0.446429  0.472222      8.000000
  0.175000  0.446429  0.472222      8.000000
  0.225000  0.446429  0.472222      8.000000
  0.275000  0.446429  0.472222      8.000000
  0.325000  0.446429  0.472222      8.000000
  0.375000  0.446429  0.472222      8.000000
  0.425000  0.446429  0.472222      8.000000
  0.475000  0.446429  0.472222      8.000000
  0.025000  0.482143  0.472222      8.000000
  0.075000  0.482143  0.472222      8.000000
  0.125000  0.482143  0.472222      8.000000
  0.175000  0.482143  0.472222      8.000000
  0.225000  0.482143  0.472222      8.000000
  0.275000  0.482143  0.472222      8.000000
  0.325000  0.482143  0.472222      8.000000
  0.375000  0.482143  0.472222      8.000000
  0.425000  0.482143  0.472222      8.000000
  0.475000  0.482143  0.472222      8.000000
 
 Following cartesian coordinates:
            Coordinates               Weight
  0.004385  0.004416  0.004479      8.000000
  0.013156  0.004416  0.004479      8.000000
  0.021926  0.004416  0.004479      8.000000
  0.030697  0.004416  0.004479      8.000000
  0.039467  0.004416  0.004479      8.000000
  0.048237  0.004416  0.004479      8.000000
  0.057008  0.004416  0.004479      8.000000
  0.065778  0.004416  0.004479      8.000000
  0.074549  0.004416  0.004479      8.000000
  0.083319  0.004416  0.004479      8.000000
  0.004385  0.013247  0.004479      8.000000
  0.013156  0.013247  0.004479      8.000000
  0.021926  0.013247  0.004479      8.000000
  0.030697  0.013247  0.004479      8.000000
  0.039467  0.013247  0.004479      8.000000
  0.048237  0.013247  0.004479      8.000000
  0.057008  0.013247  0.004479      8.000000
  0.065778  0.013247  0.004479      8.000000
  0.074549  0.013247  0.004479      8.000000
  0.083319  0.013247  0.004479      8.000000
  0.004385  0.022078  0.004479      8.000000
  0.013156  0.022078  0.004479      8.000000
  0.021926  0.022078  0.004479      8.000000
  0.030697  0.022078  0.004479      8.000000
  0.039467  0.022078  0.004479      8.000000
  0.048237  0.022078  0.004479      8.000000
  0.057008  0.022078  0.004479      8.000000
  0.065778  0.022078  0.004479      8.000000
  0.074549  0.022078  0.004479      8.000000
  0.083319  0.022078  0.004479      8.000000
  0.004385  0.030910  0.004479      8.000000
  0.013156  0.030910  0.004479      8.000000
  0.021926  0.030910  0.004479      8.000000
  0.030697  0.030910  0.004479      8.000000
  0.039467  0.030910  0.004479      8.000000
  0.048237  0.030910  0.004479      8.000000
  0.057008  0.030910  0.004479      8.000000
  0.065778  0.030910  0.004479      8.000000
  0.074549  0.030910  0.004479      8.000000
  0.083319  0.030910  0.004479      8.000000
  0.004385  0.039741  0.004479      8.000000
  0.013156  0.039741  0.004479      8.000000
  0.021926  0.039741  0.004479      8.000000
  0.030697  0.039741  0.004479      8.000000
  0.039467  0.039741  0.004479      8.000000
  0.048237  0.039741  0.004479      8.000000
  0.057008  0.039741  0.004479      8.000000
  0.065778  0.039741  0.004479      8.000000
  0.074549  0.039741  0.004479      8.000000
  0.083319  0.039741  0.004479      8.000000
  0.004385  0.048572  0.004479      8.000000
  0.013156  0.048572  0.004479      8.000000
  0.021926  0.048572  0.004479      8.000000
  0.030697  0.048572  0.004479      8.000000
  0.039467  0.048572  0.004479      8.000000
  0.048237  0.048572  0.004479      8.000000
  0.057008  0.048572  0.004479      8.000000
  0.065778  0.048572  0.004479      8.000000
  0.074549  0.048572  0.004479      8.000000
  0.083319  0.048572  0.004479      8.000000
  0.004385  0.057403  0.004479      8.000000
  0.013156  0.057403  0.004479      8.000000
  0.021926  0.057403  0.004479      8.000000
  0.030697  0.057403  0.004479      8.000000
  0.039467  0.057403  0.004479      8.000000
  0.048237  0.057403  0.004479      8.000000
  0.057008  0.057403  0.004479      8.000000
  0.065778  0.057403  0.004479      8.000000
  0.074549  0.057403  0.004479      8.000000
  0.083319  0.057403  0.004479      8.000000
  0.004385  0.066235  0.004479      8.000000
  0.013156  0.066235  0.004479      8.000000
  0.021926  0.066235  0.004479      8.000000
  0.030697  0.066235  0.004479      8.000000
  0.039467  0.066235  0.004479      8.000000
  0.048237  0.066235  0.004479      8.000000
  0.057008  0.066235  0.004479      8.000000
  0.065778  0.066235  0.004479      8.000000
  0.074549  0.066235  0.004479      8.000000
  0.083319  0.066235  0.004479      8.000000
  0.004385  0.075066  0.004479      8.000000
  0.013156  0.075066  0.004479      8.000000
  0.021926  0.075066  0.004479      8.000000
  0.030697  0.075066  0.004479      8.000000
  0.039467  0.075066  0.004479      8.000000
  0.048237  0.075066  0.004479      8.000000
  0.057008  0.075066  0.004479      8.000000
  0.065778  0.075066  0.004479      8.000000
  0.074549  0.075066  0.004479      8.000000
  0.083319  0.075066  0.004479      8.000000
  0.004385  0.083897  0.004479      8.000000
  0.013156  0.083897  0.004479      8.000000
  0.021926  0.083897  0.004479      8.000000
  0.030697  0.083897  0.004479      8.000000
  0.039467  0.083897  0.004479      8.000000
  0.048237  0.083897  0.004479      8.000000
  0.057008  0.083897  0.004479      8.000000
  0.065778  0.083897  0.004479      8.000000
  0.074549  0.083897  0.004479      8.000000
  0.083319  0.083897  0.004479      8.000000
  0.004385  0.092729  0.004479      8.000000
  0.013156  0.092729  0.004479      8.000000
  0.021926  0.092729  0.004479      8.000000
  0.030697  0.092729  0.004479      8.000000
  0.039467  0.092729  0.004479      8.000000
  0.048237  0.092729  0.004479      8.000000
  0.057008  0.092729  0.004479      8.000000
  0.065778  0.092729  0.004479      8.000000
  0.074549  0.092729  0.004479      8.000000
  0.083319  0.092729  0.004479      8.000000
  0.004385  0.101560  0.004479      8.000000
  0.013156  0.101560  0.004479      8.000000
  0.021926  0.101560  0.004479      8.000000
  0.030697  0.101560  0.004479      8.000000
  0.039467  0.101560  0.004479      8.000000
  0.048237  0.101560  0.004479      8.000000
  0.057008  0.101560  0.004479      8.000000
  0.065778  0.101560  0.004479      8.000000
  0.074549  0.101560  0.004479      8.000000
  0.083319  0.101560  0.004479      8.000000
  0.004385  0.110391  0.004479      8.000000
  0.013156  0.110391  0.004479      8.000000
  0.021926  0.110391  0.004479      8.000000
  0.030697  0.110391  0.004479      8.000000
  0.039467  0.110391  0.004479      8.000000
  0.048237  0.110391  0.004479      8.000000
  0.057008  0.110391  0.004479      8.000000
  0.065778  0.110391  0.004479      8.000000
  0.074549  0.110391  0.004479      8.000000
  0.083319  0.110391  0.004479      8.000000
  0.004385  0.119223  0.004479      8.000000
  0.013156  0.119223  0.004479      8.000000
  0.021926  0.119223  0.004479      8.000000
  0.030697  0.119223  0.004479      8.000000
  0.039467  0.119223  0.004479      8.000000
  0.048237  0.119223  0.004479      8.000000
  0.057008  0.119223  0.004479      8.000000
  0.065778  0.119223  0.004479      8.000000
  0.074549  0.119223  0.004479      8.000000
  0.083319  0.119223  0.004479      8.000000
  0.004385  0.004416  0.013437      8.000000
  0.013156  0.004416  0.013437      8.000000
  0.021926  0.004416  0.013437      8.000000
  0.030697  0.004416  0.013437      8.000000
  0.039467  0.004416  0.013437      8.000000
  0.048237  0.004416  0.013437      8.000000
  0.057008  0.004416  0.013437      8.000000
  0.065778  0.004416  0.013437      8.000000
  0.074549  0.004416  0.013437      8.000000
  0.083319  0.004416  0.013437      8.000000
  0.004385  0.013247  0.013437      8.000000
  0.013156  0.013247  0.013437      8.000000
  0.021926  0.013247  0.013437      8.000000
  0.030697  0.013247  0.013437      8.000000
  0.039467  0.013247  0.013437      8.000000
  0.048237  0.013247  0.013437      8.000000
  0.057008  0.013247  0.013437      8.000000
  0.065778  0.013247  0.013437      8.000000
  0.074549  0.013247  0.013437      8.000000
  0.083319  0.013247  0.013437      8.000000
  0.004385  0.022078  0.013437      8.000000
  0.013156  0.022078  0.013437      8.000000
  0.021926  0.022078  0.013437      8.000000
  0.030697  0.022078  0.013437      8.000000
  0.039467  0.022078  0.013437      8.000000
  0.048237  0.022078  0.013437      8.000000
  0.057008  0.022078  0.013437      8.000000
  0.065778  0.022078  0.013437      8.000000
  0.074549  0.022078  0.013437      8.000000
  0.083319  0.022078  0.013437      8.000000
  0.004385  0.030910  0.013437      8.000000
  0.013156  0.030910  0.013437      8.000000
  0.021926  0.030910  0.013437      8.000000
  0.030697  0.030910  0.013437      8.000000
  0.039467  0.030910  0.013437      8.000000
  0.048237  0.030910  0.013437      8.000000
  0.057008  0.030910  0.013437      8.000000
  0.065778  0.030910  0.013437      8.000000
  0.074549  0.030910  0.013437      8.000000
  0.083319  0.030910  0.013437      8.000000
  0.004385  0.039741  0.013437      8.000000
  0.013156  0.039741  0.013437      8.000000
  0.021926  0.039741  0.013437      8.000000
  0.030697  0.039741  0.013437      8.000000
  0.039467  0.039741  0.013437      8.000000
  0.048237  0.039741  0.013437      8.000000
  0.057008  0.039741  0.013437      8.000000
  0.065778  0.039741  0.013437      8.000000
  0.074549  0.039741  0.013437      8.000000
  0.083319  0.039741  0.013437      8.000000
  0.004385  0.048572  0.013437      8.000000
  0.013156  0.048572  0.013437      8.000000
  0.021926  0.048572  0.013437      8.000000
  0.030697  0.048572  0.013437      8.000000
  0.039467  0.048572  0.013437      8.000000
  0.048237  0.048572  0.013437      8.000000
  0.057008  0.048572  0.013437      8.000000
  0.065778  0.048572  0.013437      8.000000
  0.074549  0.048572  0.013437      8.000000
  0.083319  0.048572  0.013437      8.000000
  0.004385  0.057403  0.013437      8.000000
  0.013156  0.057403  0.013437      8.000000
  0.021926  0.057403  0.013437      8.000000
  0.030697  0.057403  0.013437      8.000000
  0.039467  0.057403  0.013437      8.000000
  0.048237  0.057403  0.013437      8.000000
  0.057008  0.057403  0.013437      8.000000
  0.065778  0.057403  0.013437      8.000000
  0.074549  0.057403  0.013437      8.000000
  0.083319  0.057403  0.013437      8.000000
  0.004385  0.066235  0.013437      8.000000
  0.013156  0.066235  0.013437      8.000000
  0.021926  0.066235  0.013437      8.000000
  0.030697  0.066235  0.013437      8.000000
  0.039467  0.066235  0.013437      8.000000
  0.048237  0.066235  0.013437      8.000000
  0.057008  0.066235  0.013437      8.000000
  0.065778  0.066235  0.013437      8.000000
  0.074549  0.066235  0.013437      8.000000
  0.083319  0.066235  0.013437      8.000000
  0.004385  0.075066  0.013437      8.000000
  0.013156  0.075066  0.013437      8.000000
  0.021926  0.075066  0.013437      8.000000
  0.030697  0.075066  0.013437      8.000000
  0.039467  0.075066  0.013437      8.000000
  0.048237  0.075066  0.013437      8.000000
  0.057008  0.075066  0.013437      8.000000
  0.065778  0.075066  0.013437      8.000000
  0.074549  0.075066  0.013437      8.000000
  0.083319  0.075066  0.013437      8.000000
  0.004385  0.083897  0.013437      8.000000
  0.013156  0.083897  0.013437      8.000000
  0.021926  0.083897  0.013437      8.000000
  0.030697  0.083897  0.013437      8.000000
  0.039467  0.083897  0.013437      8.000000
  0.048237  0.083897  0.013437      8.000000
  0.057008  0.083897  0.013437      8.000000
  0.065778  0.083897  0.013437      8.000000
  0.074549  0.083897  0.013437      8.000000
  0.083319  0.083897  0.013437      8.000000
  0.004385  0.092729  0.013437      8.000000
  0.013156  0.092729  0.013437      8.000000
  0.021926  0.092729  0.013437      8.000000
  0.030697  0.092729  0.013437      8.000000
  0.039467  0.092729  0.013437      8.000000
  0.048237  0.092729  0.013437      8.000000
  0.057008  0.092729  0.013437      8.000000
  0.065778  0.092729  0.013437      8.000000
  0.074549  0.092729  0.013437      8.000000
  0.083319  0.092729  0.013437      8.000000
  0.004385  0.101560  0.013437      8.000000
  0.013156  0.101560  0.013437      8.000000
  0.021926  0.101560  0.013437      8.000000
  0.030697  0.101560  0.013437      8.000000
  0.039467  0.101560  0.013437      8.000000
  0.048237  0.101560  0.013437      8.000000
  0.057008  0.101560  0.013437      8.000000
[...]
     38      12.2135      0.00000
     39      12.4688      0.00000
     40      12.6060      0.00000
     41      13.2521      0.00000
     42      13.4231      0.00000
     43      13.7114      0.00000
     44      13.7877      0.00000
     45      14.2127      0.00000
     46      14.6299      0.00000
     47      15.3849      0.00000
     48      15.4734      0.00000

 k-point  1256 :       0.2750    0.4821    0.4722
  band No.  band energies     occupation 
      1     -12.1866      2.00000
      2     -11.6019      2.00000
      3      -8.5709      2.00000
      4      -8.0920      2.00000
      5      -6.0998      2.00000
      6      -5.7816      2.00000
      7      -5.6742      2.00000
      8      -5.0899      2.00000
      9      -3.8183      2.00000
     10      -2.9926      2.00000
     11      -2.4434      2.00000
     12      -2.0411      2.00000
     13      -1.8298      2.00000
     14      -1.3317      2.00000
     15      -1.0827      2.00000
     16      -0.4028      2.00000
     17       0.0167      2.00000
     18       0.1735      2.00000
     19       0.3596      2.00000
     20       1.7515      1.97925
     21       2.0163      0.15206
     22       2.2117      0.00003
     23       5.2066      0.00000
     24       6.2631      0.00000
     25       6.6329      0.00000
     26       7.0562      0.00000
     27       7.9934      0.00000
     28       8.6073      0.00000
     29       8.7308      0.00000
     30       8.8420      0.00000
     31       9.6354      0.00000
     32       9.8829      0.00000
     33      10.7525      0.00000
     34      11.0222      0.00000
     35      11.3206      0.00000
     36      11.4440      0.00000
     37      11.7779      0.00000
     38      12.0730      0.00000
     39      12.6418      0.00000
     40      12.7989      0.00000
     41      13.4952      0.00000
     42      13.6363      0.00000
     43      13.8017      0.00000
     44      13.9307      0.00000
     45      14.0080      0.00000
     46      14.7923      0.00000
     47      15.3497      0.00000
     48      15.4317      0.00000

 k-point  1257 :       0.3250    0.4821    0.4722
  band No.  band energies     occupation 
      1     -12.1329      2.00000
      2     -11.6613      2.00000
      3      -8.5779      2.00000
      4      -8.1841      2.00000
      5      -6.0511      2.00000
      6      -5.7063      2.00000
      7      -5.5101      2.00000
      8      -4.9739      2.00000
      9      -3.9819      2.00000
     10      -3.2907      2.00000
     11      -2.3477      2.00000
     12      -2.1213      2.00000
     13      -1.9441      2.00000
     14      -1.4039      2.00000
     15      -0.8895      2.00000
     16      -0.2523      2.00000
     17       0.1684      2.00000
     18       0.3068      2.00000
     19       0.3999      2.00000
     20       1.7192      1.99439
     21       1.7864      1.93113
     22       1.9465      0.65634
     23       5.4088      0.00000
     24       6.1897      0.00000
     25       6.6001      0.00000
     26       7.2642      0.00000
     27       7.8967      0.00000
     28       8.4085      0.00000
     29       8.9108      0.00000
     30       9.0116      0.00000
     31       9.6770      0.00000
     32       9.8033      0.00000
     33      10.6434      0.00000
     34      11.0017      0.00000
     35      11.2594      0.00000
     36      11.4578      0.00000
     37      11.6924      0.00000
     38      11.9318      0.00000
     39      12.7826      0.00000
     40      13.0618      0.00000
     41      13.5077      0.00000
     42      13.7806      0.00000
     43      13.8344      0.00000
     44      14.0681      0.00000
     45      14.2267      0.00000
     46      14.9215      0.00000
     47      15.1826      0.00000
     48      15.4284      0.00000

 k-point  1258 :       0.3750    0.4821    0.4722
  band No.  band energies     occupation 
      1     -12.0728      2.00000
      2     -11.7266      2.00000
      3      -8.5671      2.00000
      4      -8.2739      2.00000
      5      -5.9985      2.00000
      6      -5.7435      2.00000
      7      -5.2263      2.00000
      8      -4.8440      2.00000
      9      -4.1467      2.00000
     10      -3.5984      2.00000
     11      -2.2380      2.00000
     12      -2.1744      2.00000
     13      -2.0412      2.00000
     14      -1.5358      2.00000
     15      -0.6312      2.00000
     16      -0.1179      2.00000
     17       0.3006      2.00000
     18       0.4122      2.00000
     19       0.4319      2.00000
     20       1.3784      2.00000
     21       1.6951      1.99813
     22       1.8730      1.44784
     23       5.6072      0.00000
     24       6.1201      0.00000
     25       6.6341      0.00000
     26       7.4073      0.00000
     27       7.7820      0.00000
     28       8.0449      0.00000
     29       9.1198      0.00000
     30       9.3299      0.00000
     31       9.6741      0.00000
     32       9.8065      0.00000
     33      10.5133      0.00000
     34      11.0425      0.00000
     35      11.1246      0.00000
     36      11.4812      0.00000
     37      11.6214      0.00000
     38      11.7934      0.00000
     39      12.9287      0.00000
     40      13.3071      0.00000
     41      13.3365      0.00000
     42      13.9758      0.00000
     43      14.0887      0.00000
     44      14.2323      0.00000
     45      14.3727      0.00000
     46      14.9491      0.00000
     47      15.0086      0.00000
     48      15.2990      0.00000

 k-point  1259 :       0.4250    0.4821    0.4722
  band No.  band energies     occupation 
      1     -12.0075      2.00000
      2     -11.7960      2.00000
      3      -8.5383      2.00000
      4      -8.3575      2.00000
      5      -5.9438      2.00000
      6      -5.7872      2.00000
      7      -4.9412      2.00000
      8      -4.6951      2.00000
      9      -4.3099      2.00000
     10      -3.9090      2.00000
     11      -2.2026      2.00000
     12      -2.1180      2.00000
     13      -2.1123      2.00000
     14      -1.6835      2.00000
     15      -0.3552      2.00000
     16      -0.0190      2.00000
     17       0.4059      2.00000
     18       0.4582      2.00000
     19       0.4804      2.00000
     20       1.0021      2.00000
     21       1.6873      1.99872
     22       1.8023      1.88918
     23       5.7732      0.00000
     24       6.0516      0.00000
     25       6.7628      0.00000
     26       7.4966      0.00000
     27       7.6600      0.00000
     28       7.6937      0.00000
     29       9.3188      0.00000
     30       9.5940      0.00000
     31       9.7059      0.00000
     32       9.8235      0.00000
     33      10.4104      0.00000
     34      10.9090      0.00000
     35      11.1389      0.00000
     36      11.5069      0.00000
     37      11.5678      0.00000
     38      11.6420      0.00000
     39      13.0617      0.00000
     40      13.2201      0.00000
     41      13.6185      0.00000
     42      14.1069      0.00000
     43      14.2520      0.00000
     44      14.3681      0.00000
     45      14.4943      0.00000
     46      14.7673      0.00000
     47      14.9663      0.00000
     48      15.1045      0.00000

 k-point  1260 :       0.4750    0.4821    0.4722
  band No.  band energies     occupation 
      1     -11.9384      2.00000
      2     -11.8672      2.00000
      3      -8.4924      2.00000
      4      -8.4313      2.00000
      5      -5.8890      2.00000
      6      -5.8362      2.00000
      7      -4.6886      2.00000
      8      -4.5388      2.00000
      9      -4.4368      2.00000
     10      -4.2111      2.00000
     11      -2.2005      2.00000
     12      -2.1719      2.00000
     13      -1.9774      2.00000
     14      -1.8330      2.00000
     15      -0.1117      2.00000
     16       0.0057      2.00000
     17       0.4758      2.00000
     18       0.5018      2.00000
     19       0.5165      2.00000
     20       0.6926      2.00000
     21       1.7026      1.99734
     22       1.7427      1.98522
     23       5.8931      0.00000
     24       5.9796      0.00000
     25       6.9942      0.00000
     26       7.3055      0.00000
     27       7.5579      0.00000
     28       7.6163      0.00000
     29       9.4882      0.00000
     30       9.6073      0.00000
     31       9.8037      0.00000
     32       9.8642      0.00000
     33      10.4455      0.00000
     34      10.6574      0.00000
     35      11.2754      0.00000
     36      11.4407      0.00000
     37      11.5327      0.00000
     38      11.5615      0.00000
     39      13.1531      0.00000
     40      13.1941      0.00000
     41      13.9071      0.00000
     42      14.1549      0.00000
     43      14.2474      0.00000
     44      14.3004      0.00000
     45      14.7050      0.00000
     46      14.7388      0.00000
     47      14.8174      0.00000
     48      14.9160      0.00000


--------------------------------------------------------------------------------------------------------


 soft charge-density along one line, spin component           1
         0         1         2         3         4         5         6         7         8         9
 total charge-density along one line
 
 pseudopotential strength for first ion, spin component:           1
  6.445   9.813  -0.000  -0.009   0.005  -0.000  -0.014   0.008
  9.813  14.936  -0.000  -0.013   0.008  -0.000  -0.021   0.011
 -0.000  -0.000  -2.174  -0.000  -0.000  -3.694  -0.000  -0.000
 -0.009  -0.013  -0.000  -2.178  -0.001  -0.000  -3.704  -0.002
  0.005   0.008  -0.000  -0.001  -2.177  -0.000  -0.002  -3.702
 -0.000  -0.000  -3.694  -0.000  -0.000  -6.079  -0.000  -0.000
 -0.014  -0.021  -0.000  -3.704  -0.002  -0.000  -6.101  -0.004
  0.008   0.011  -0.000  -0.002  -3.702  -0.000  -0.004  -6.096
 total augmentation occupancy for first ion, spin component:           1
  2.000   0.000   0.000   0.000   0.000   0.000   0.000   0.000
  0.000   0.000   0.000   0.000   0.000   0.000   0.000   0.000
  0.000   0.000   0.333   0.000   0.000   0.000   0.000   0.000
  0.000   0.000   0.000   0.333   0.000   0.000   0.000   0.000
  0.000   0.000   0.000   0.000   0.333   0.000   0.000   0.000
  0.000   0.000   0.000   0.000   0.000   0.000   0.000   0.000
  0.000   0.000   0.000   0.000   0.000   0.000   0.000   0.000
  0.000   0.000   0.000   0.000   0.000   0.000   0.000   0.000


------------------------ aborting loop because EDIFF is reached ----------------------------------------





 total charge

# of ion       s       p       d       tot
------------------------------------------
    1        0.709   1.369   0.000   2.078
    2        0.709   1.369   0.000   2.078
    3        0.709   1.369   0.000   2.078
    4        0.709   1.369   0.000   2.078
    5        0.716   1.300   0.000   2.015
    6        0.716   1.300   0.000   2.015
    7        0.716   1.300   0.000   2.015
    8        0.716   1.300   0.000   2.015
    9        0.702   1.230   0.000   1.931
   10        0.702   1.230   0.000   1.931
   11        0.702   1.230   0.000   1.931
   12        0.702   1.230   0.000   1.931
   13        0.716   1.378   0.000   2.094
   14        0.716   1.378   0.000   2.094
--------------------------------------------------
tot          9.936  18.348   0.000  28.285
 
    CHARGE:  cpu time      0.5759: real time      0.5789
    FORLOC:  cpu time      0.0013: real time      0.0014
    FORNL :  cpu time      5.8518: real time      5.8712
    STRESS:  cpu time     27.2316: real time     27.3217
    FORCOR:  cpu time      0.0108: real time      0.0109
    FORHAR:  cpu time      0.0032: real time      0.0033
    OFIELD:  cpu time      0.0000: real time      0.0000

  FORCE on cell =-STRESS in cart. coord.  units (eV):
  Direction    XX          YY          ZZ          XY          YZ          ZX
  --------------------------------------------------------------------------------------
  Alpha Z    94.30281    94.30281    94.30281
  Ewald     -93.12989  -561.95728  -143.70902    -0.00000    -0.00000     0.00000
  Hartree   186.65333     4.26955   155.77013    -0.00000    -0.00000    -0.00000
  E(xc)    -134.85293  -135.83497  -134.82569     0.00000    -0.00000     0.00000
  Local    -491.13122   131.30886  -408.67836     0.00000     0.00000    -0.00000
  n-local    -8.83543   -10.96919    -9.33454    -0.00414    -0.00412     0.05544
  augment     1.34840     1.39236     1.36854     0.00000     0.00000     0.00000
  Kinetic   445.60869   477.52933   445.17193     0.23161     0.05215    -1.03860
  Fock        0.00000     0.00000     0.00000     0.00000     0.00000     0.00000
  -------------------------------------------------------------------------------------
  Total      -0.03623     0.04146     0.06579     0.00000     0.00000    -0.00000
  in kB      -0.40602     0.46460     0.73719     0.00000     0.00000    -0.00000
  external pressure =        0.27 kB  Pullay stress =        0.00 kB


 VOLUME and BASIS-vectors are now :
 -----------------------------------------------------------------------------
  energy-cutoff  :      600.00
  volume of cell :      142.98
      direct lattice vectors                 reciprocal lattice vectors
     5.700970695  0.000000000  0.000000000     0.175408725  0.000000000  0.000000000
     0.000000000  4.044058096  0.000000000     0.000000000  0.247276368  0.000000000
     0.000000000  0.000000000  6.201871195     0.000000000  0.000000000  0.161241659

  length of vectors
     5.700970695  4.044058096  6.201871195     0.175408725  0.247276368  0.161241659


 FORCES acting on ions
    electron-ion (+dipol)            ewald-force                    non-local-force                 convergence-correction
 -----------------------------------------------------------------------------------------------
   0.492E+02 0.925E-12 -.247E+02   -.511E+02 0.185E-14 0.280E+02   0.184E+01 0.209E-18 -.334E+01   0.426E-02 -.157E-12 -.132E-02
   -.492E+02 -.222E-12 0.247E+02   0.511E+02 0.687E-16 -.280E+02   -.184E+01 -.205E-18 0.334E+01   -.426E-02 -.772E-13 0.132E-02
   -.492E+02 0.907E-12 -.247E+02   0.511E+02 -.149E-14 0.280E+02   -.184E+01 -.176E-18 -.334E+01   -.426E-02 0.802E-13 -.132E-02
   0.492E+02 0.153E-13 0.247E+02   -.511E+02 -.171E-14 -.280E+02   0.184E+01 0.215E-18 0.334E+01   0.426E-02 -.918E-13 0.132E-02
   0.291E+02 -.338E-12 -.508E+02   -.315E+02 0.387E-14 0.550E+02   0.247E+01 -.925E-19 -.423E+01   0.218E-02 -.271E-12 -.275E-02
   -.291E+02 0.414E-12 0.508E+02   0.315E+02 0.345E-14 -.550E+02   -.247E+01 0.256E-19 0.423E+01   -.218E-02 -.229E-12 0.275E-02
   -.291E+02 -.134E-11 -.508E+02   0.315E+02 0.431E-14 0.550E+02   -.247E+01 0.841E-19 -.423E+01   -.218E-02 -.175E-12 -.275E-02
   0.291E+02 0.512E-13 0.508E+02   -.315E+02 0.344E-14 -.550E+02   0.247E+01 -.553E-19 0.423E+01   0.218E-02 -.258E-12 0.275E-02
   0.266E-13 -.552E+02 -.161E+02   0.938E-14 0.606E+02 0.172E+02   -.934E-19 -.542E+01 -.111E+01   0.236E-13 0.411E-02 -.116E-02
   0.143E-13 0.552E+02 0.161E+02   0.312E-14 -.606E+02 -.172E+02   -.817E-18 0.542E+01 0.111E+01   0.222E-12 -.411E-02 0.116E-02
   0.264E-13 0.552E+02 -.161E+02   0.561E-14 -.606E+02 0.172E+02   0.211E-17 0.542E+01 -.111E+01   -.162E-12 -.411E-02 -.116E-02
   0.148E-13 -.552E+02 0.161E+02   -.935E-15 0.606E+02 -.172E+02   0.248E-17 -.542E+01 0.111E+01   0.261E-12 0.411E-02 0.116E-02
   0.445E-14 0.360E-12 -.621E+02   -.559E-13 0.564E-16 0.647E+02   0.215E-18 0.332E-18 -.258E+01   0.327E-12 -.447E-13 -.607E-02
   0.203E-14 -.894E-13 0.621E+02   -.571E-13 -.472E-15 -.647E+02   -.198E-18 0.459E-19 0.258E+01   -.537E-12 0.162E-14 0.607E-02
 -----------------------------------------------------------------------------------------------
   -.121E-11 0.624E-12 0.275E-10   -.389E-13 -.415E-15 -.142E-13   -.440E-15 0.889E-15 0.888E-15   0.680E-12 -.108E-11 0.212E-11
 
 
 POSITION                                       TOTAL-FORCE (eV/Angst)
 -----------------------------------------------------------------------------------
      2.97186      2.02203      3.95653        -0.006237     -0.000000      0.009838
      2.72911      2.02203      2.24534         0.006237     -0.000000     -0.009838
      5.57960      2.02203      3.95653         0.006237     -0.000000      0.009838
      0.12137      2.02203      2.24534        -0.006237      0.000000     -0.009838
      3.40604      2.02203      5.58087         0.000756      0.000000      0.005573
      2.29493      2.02203      0.62100        -0.000756      0.000000     -0.005573
      5.14541      2.02203      5.58087        -0.000756      0.000000      0.005573
      0.55556      2.02203      0.62100         0.000756     -0.000000     -0.005573
      4.27573      3.20113      4.52476         0.000000     -0.006462     -0.001072
      1.42524      0.84292      1.67711         0.000000      0.006462      0.001072
      4.27573      0.84292      4.52476         0.000000      0.006462     -0.001072
      1.42524      3.20113      1.67711        -0.000000     -0.006462      0.001072
      1.42524      2.02203      3.24974        -0.000000     -0.000000      0.002493
      4.27573      2.02203      2.95213        -0.000000     -0.000000     -0.002493
 -----------------------------------------------------------------------------------
    total drift:                               -0.000000     -0.000000      0.000000


--------------------------------------------------------------------------------------------------------



  FREE ENERGIE OF THE ION-ELECTRON SYSTEM (eV)
  ---------------------------------------------------
  free  energy   TOTEN  =       -90.63986733 eV

  energy  without entropy=      -90.62645244  energy(sigma->0) =      -90.63315988
 


--------------------------------------------------------------------------------------------------------


    POTLOK:  cpu time      0.0129: real time      0.0129


--------------------------------------------------------------------------------------------------------


     LOOP+:  cpu time    381.9301: real time    386.5876
    4ORBIT:  cpu time      0.0000: real time      0.0000



 total charge

# of ion       s       p       d       tot
------------------------------------------
    1        0.709   1.369   0.000   2.078
    2        0.709   1.369   0.000   2.078
    3        0.709   1.369   0.000   2.078
    4        0.709   1.369   0.000   2.078
    5        0.716   1.300   0.000   2.015
    6        0.716   1.300   0.000   2.015
    7        0.716   1.300   0.000   2.015
    8        0.716   1.300   0.000   2.015
    9        0.702   1.230   0.000   1.931
   10        0.702   1.230   0.000   1.931
   11        0.702   1.230   0.000   1.931
   12        0.702   1.230   0.000   1.931
   13        0.716   1.378   0.000   2.094
   14        0.716   1.378   0.000   2.094
--------------------------------------------------
tot          9.936  18.348   0.000  28.285
 

 total amount of memory used by VASP MPI-rank0   625013. kBytes
=======================================================================

   base      :      30000. kBytes
   nonl-proj :     390087. kBytes
   fftplans  :       1200. kBytes
   grid      :       4341. kBytes
   one-center:         43. kBytes
   wavefun   :     199342. kBytes
 
  
  
 General timing and accounting informations for this job:
 ========================================================
  
                  Total CPU time used (sec):      409.206
                            User time (sec):      403.941
                          System time (sec):        5.265
                         Elapsed time (sec):      415.569
  
                   Maximum memory used (kb):     1187036.
                   Average memory used (kb):          N/A
  
                          Minor page faults:      1906096
                          Major page faults:          995
                 Voluntary context switches:         3962
