       N       E                     dE             d eps       ncg     rms          rms(c)
DAV:   1     0.732307573912E+02    0.73231E+02   -0.19662E+04120960   0.861E+02
DAV:   2    -0.852835517221E+02   -0.15851E+03   -0.14742E+03168384   0.159E+02
DAV:   3    -0.906136042733E+02   -0.53301E+01   -0.53003E+01176280   0.258E+01
DAV:   4    -0.906396357912E+02   -0.26032E-01   -0.26030E-01146592   0.207E+00
DAV:   5    -0.906398645646E+02   -0.22877E-03   -0.22877E-03177048   0.186E-01
DAV:   6    -0.906398672915E+02   -0.27269E-05   -0.27269E-05141336   0.205E-02
DAV:   7    -0.906398673277E+02   -0.36193E-07   -0.36365E-07174912   0.233E-03
   1 F= -.90639867E+02 E0= -.90633160E+02  d E =-.134149E-01
