   14   14    1    1
  0.1021960E+02  0.5697000E-09  0.4047900E-09  0.6204200E-09  0.5000000E-15
  1.000000000000000E-004
  CAR 
 Kpoints                                 
     42   1260     48
 
  0.0000000E+00  0.0000000E+00  0.0000000E+00  0.1146657E-03
      1        -12.733212   1.000000
      2        -11.576185   1.000000
      3         -8.662245   1.000000
      4         -8.424988   1.000000
      5         -6.077689   1.000000
      6         -5.059676   1.000000
      7         -4.638608   1.000000
      8         -4.349873   1.000000
      9         -3.973783   1.000000
     10         -3.598964   1.000000
     11         -2.422265   1.000000
     12         -2.242865   1.000000
     13         -2.183649   1.000000
     14         -1.053277   1.000000
     15         -0.037765   1.000000
     16         -0.003898   1.000000
     17          0.149038   1.000000
     18          0.172513   1.000000
     19          0.564176   1.000000
     20          2.079101   0.000000
     21          2.125295   0.000000
     22          2.214107   0.000000
     23          5.410855   0.000000
     24          5.801029   0.000000
     25          5.816574   0.000000
     26          5.910009   0.000000
     27          6.785057   0.000000
     28          7.671983   0.000000
     29          7.700446   0.000000
     30          8.633441   0.000000
     31          8.751779   0.000000
     32          8.852220   0.000000
     33          9.039848   0.000000
     34         10.028930   0.000000
     35         11.143819   0.000000
     36         11.398750   0.000000
     37         11.768648   0.000000
     38         11.801036   0.000000
     39         11.898221   0.000000
     40         12.353824   0.000000
     41         12.803810   0.000000
     42         13.393706   0.000000
     43         13.572547   0.000000
     44         15.553519   0.000000
     45         15.566875   0.000000
     46         15.941133   0.000000
     47         16.357311   0.000000
     48         16.597620   0.000000
 
  0.5263158E-01  0.0000000E+00  0.0000000E+00  0.2293315E-03
      1        -12.727111   1.000000
      2        -11.586824   1.000000
      3         -8.659422   1.000000
      4         -8.423172   1.000000
      5         -6.064838   1.000000
      6         -5.141646   1.000000
      7         -4.670431   1.000000
      8         -4.253109   1.000000
      9         -3.965233   1.000000
     10         -3.539791   1.000000
     11         -2.419641   1.000000
     12         -2.244571   1.000000
     13         -2.203615   1.000000
     14         -1.099391   1.000000
     15         -0.031655   1.000000
     16          0.006292   1.000000
     17          0.153763   1.000000
     18          0.156189   1.000000
     19          0.550139   1.000000
     20          2.066151   0.000000
     21          2.113856   0.000000
     22          2.197644   0.000000
     23          5.424750   0.000000
     24          5.793083   0.000000
     25          5.796505   0.000000
     26          5.991266   0.000000
     27          6.771806   0.000000
     28          7.496406   0.000000
     29          7.846022   0.000000
     30          8.653750   0.000000
     31          8.807480   0.000000
     32          8.889103   0.000000
     33          9.042772   0.000000
     34         10.047241   0.000000
     35         11.154123   0.000000
     36         11.338965   0.000000
     37         11.664007   0.000000
     38         11.765492   0.000000
     39         11.931016   0.000000
     40         12.366004   0.000000
     41         12.873429   0.000000
     42         13.502614   0.000000
     43         13.515256   0.000000
     44         15.361977   0.000000
     45         15.601540   0.000000
     46         16.079273   0.000000
     47         16.344263   0.000000
     48         16.373234   0.000000
 
  0.1052632E+00  0.0000000E+00  0.0000000E+00  0.2293315E-03
      1        -12.708865   1.000000
      2        -11.618094   1.000000
      3         -8.650783   1.000000
      4         -8.418051   1.000000
      5         -6.031463   1.000000
      6         -5.313957   1.000000
      7         -4.739302   1.000000
      8         -4.036830   1.000000
      9         -3.939652   1.000000
     10         -3.385018   1.000000
     11         -2.411676   1.000000
     12         -2.261455   1.000000
     13         -2.249646   1.000000
     14         -1.232036   1.000000
     15         -0.013559   1.000000
     16          0.035293   1.000000
     17          0.098357   1.000000
     18          0.175578   1.000000
     19          0.508631   1.000000
     20          2.028519   0.000010
     21          2.080519   0.000000
     22          2.148123   0.000000
     23          5.463606   0.000000
     24          5.771261   0.000000
     25          5.813789   0.000000
     26          6.155561   0.000000
     27          6.734191   0.000000
     28          7.299179   0.000000
     29          7.968327   0.000000
     30          8.711643   0.000000
     31          8.956691   0.000000
     32          8.994381   0.000000
     33          9.049876   0.000000
     34         10.103465   0.000000
     35         11.168096   0.000000
     36         11.185453   0.000000
     37         11.409486   0.000000
     38         11.702694   0.000000
     39         12.026165   0.000000
     40         12.402123   0.000000
     41         13.023512   0.000000
     42         13.356116   0.000000
     43         13.770438   0.000000
     44         15.058268   0.000000
     45         15.695018   0.000000
     46         16.062717   0.000000
     47         16.245354   0.000000
     48         16.419350   0.000000
 
  0.1578947E+00  0.0000000E+00  0.0000000E+00  0.2293315E-03
      1        -12.678683   1.000000
      2        -11.668175   1.000000
      3         -8.635989   1.000000
      4         -8.410596   1.000000
      5         -5.993032   1.000000
      6         -5.502699   1.000000
      7         -4.795258   1.000000
      8         -3.897257   1.000000
      9         -3.776440   1.000000
     10         -3.172978   1.000000
     11         -2.398064   1.000000
     12         -2.351703   1.000000
     13         -2.257948   1.000000
     14         -1.436552   1.000000
     15          0.008751   1.000000
     16          0.015789   1.000000
     17          0.078947   1.000000
     18          0.195886   1.000000
     19          0.448350   1.000000
     20          1.969870   0.004488
     21          2.028093   0.000010
     22          2.065631   0.000000
     23          5.519902   0.000000
     24          5.741121   0.000000
     25          5.896488   0.000000
     26          6.369038   0.000000
     27          6.678052   0.000000
     28          7.113184   0.000000
     29          8.065254   0.000000
     30          8.796776   0.000000
     31          9.030261   0.000000
     32          9.161479   0.000000
     33          9.179374   0.000000
     34         10.203546   0.000000
     35         10.908074   0.000000
     36         11.092005   0.000000
     37         11.237581   0.000000
     38         11.677440   0.000000
     39         12.166805   0.000000
     40         12.468492   0.000000
     41         13.122205   0.000000
     42         13.132835   0.000000
     43         14.113587   0.000000
     44         14.819011   0.000000
     45         15.757079   0.000000
     46         15.826258   0.000000
     47         16.320149   0.000000
     48         16.491632   0.000000
 
  0.2105263E+00  0.0000000E+00  0.0000000E+00  0.2293315E-03
      1        -12.636927   1.000000
      2        -11.734327   1.000000
      3         -8.614863   1.000000
      4         -8.402399   1.000000
      5         -5.971766   1.000000
      6         -5.681051   1.000000
      7         -4.795341   1.000000
      8         -3.838417   1.000000
      9         -3.502296   1.000000
     10         -2.930600   1.000000
     11         -2.467099   1.000000
     12         -2.378298   1.000000
     13         -2.269105   1.000000
     14         -1.693643   1.000000
     15         -0.111098   1.000000
     16          0.055072   1.000000
     17          0.131639   1.000000
     18          0.172162   1.000000
     19          0.413600   1.000000
     20          1.896212   0.298178
     21          1.951621   0.018004
     22          1.960922   0.009140
     23          5.583688   0.000000
     24          5.710246   0.000000
     25          6.045749   0.000000
     26          6.611658   0.000000
     27          6.621462   0.000000
     28          6.949357   0.000000
     29          8.148463   0.000000
     30          8.886504   0.000000
     31          8.995111   0.000000
     32          9.391241   0.000000
     33          9.406657   0.000000
     34         10.360181   0.000000
     35         10.583178   0.000000
     36         10.772934   0.000000
     37         11.304707   0.000000
     38         11.722078   0.000000
     39         12.302298   0.000000
     40         12.600447   0.000000
     41         12.838967   0.000000
     42         13.078686   0.000000
     43         14.486725   0.000000
     44         14.746471   0.000000
     45         15.441004   0.000000
     46         15.977533   0.000000
     47         16.215517   0.000000
     48         16.489715   0.000000
 
  0.2631579E+00  0.0000000E+00  0.0000000E+00  0.2293315E-03
      1        -12.584129   1.000000
      2        -11.813235   1.000000
      3         -8.587759   1.000000
      4         -8.395574   1.000000
      5         -5.983394   1.000000
      6         -5.837943   1.000000
      7         -4.714899   1.000000
      8         -3.763672   1.000000
      9         -3.234052   1.000000
     10         -2.676095   1.000000
     11         -2.600114   1.000000
     12         -2.353496   1.000000
     13         -2.281799   1.000000
     14         -1.978882   1.000000
     15         -0.255473   1.000000
     16          0.057924   1.000000
     17          0.102234   1.000000
     18          0.187169   1.000000
     19          0.453831   1.000000
     20          1.809934   0.971977
     21          1.815533   0.960140
     22          1.884520   0.421154
     23          5.644787   0.000000
     24          5.686016   0.000000
     25          6.257392   0.000000
     26          6.544527   0.000000
     27          6.811032   0.000000
     28          6.905579   0.000000
     29          8.223008   0.000000
     30          8.929150   0.000000
     31          8.934732   0.000000
     32          9.632467   0.000000
     33          9.667259   0.000000
     34         10.212596   0.000000
     35         10.516688   0.000000
     36         10.588552   0.000000
     37         11.369315   0.000000
     38         11.840536   0.000000
     39         12.389537   0.000000
     40         12.525111   0.000000
     41         12.823303   0.000000
     42         12.840737   0.000000
     43         14.831549   0.000000
     44         14.867608   0.000000
     45         15.128321   0.000000
     46         15.966090   0.000000
     47         16.094083   0.000000
     48         16.136041   0.000000
 
  0.3157895E+00  0.0000000E+00  0.0000000E+00  0.2293315E-03
      1        -12.520985   1.000000
      2        -11.901333   1.000000
      3         -8.555778   1.000000
      4         -8.392539   1.000000
      5         -6.024126   1.000000
      6         -5.967110   1.000000
      7         -4.554574   1.000000
      8         -3.673758   1.000000
      9         -3.003107   1.000000
     10         -2.743875   1.000000
     11         -2.434830   1.000000
     12         -2.372351   1.000000
     13         -2.284989   1.000000
     14         -2.207756   1.000000
     15         -0.415537   1.000000
     16         -0.112731   1.000000
     17          0.154265   1.000000
     18          0.239042   1.000000
     19          0.541674   1.000000
     20          1.646984   1.000000
     21          1.737204   0.999964
     22          1.805321   0.979382
     23          5.673527   0.000000
     24          5.694138   0.000000
     25          6.486603   0.000000
     26          6.524469   0.000000
     27          6.697184   0.000000
     28          7.215622   0.000000
     29          8.290650   0.000000
     30          8.841066   0.000000
     31          8.869429   0.000000
     32          9.818318   0.000000
     33          9.883154   0.000000
     34          9.935837   0.000000
     35         10.397201   0.000000
     36         10.896643   0.000000
     37         11.403317   0.000000
     38         12.021443   0.000000
     39         12.193957   0.000000
     40         12.455173   0.000000
     41         12.501799   0.000000
     42         13.081832   0.000000
     43         14.839831   0.000000
     44         14.953885   0.000000
     45         15.242784   0.000000
     46         15.601231   0.000000
     47         15.658232   0.000000
     48         16.288210   0.000000
 
  0.3684211E+00  0.0000000E+00  0.0000000E+00  0.2293315E-03
      1        -12.448406   1.000000
      2        -11.995115   1.000000
      3         -8.520852   1.000000
      4         -8.395639   1.000000
      5         -6.076895   1.000000
      6         -6.064471   1.000000
      7         -4.330823   1.000000
      8         -3.569636   1.000000
      9         -2.920531   1.000000
     10         -2.892518   1.000000
     11         -2.525987   1.000000
     12         -2.349412   1.000000
     13         -2.177624   1.000000
     14         -2.154701   1.000000
     15         -0.575467   1.000000
     16         -0.308518   1.000000
     17          0.206925   1.000000
     18          0.280530   1.000000
     19          0.656644   1.000000
     20          1.470968   1.000000
     21          1.671225   1.000000
     22          1.730548   0.999984
     23          5.674490   0.000000
     24          5.724852   0.000000
     25          6.447157   0.000000
     26          6.605146   0.000000
     27          6.838363   0.000000
     28          7.546985   0.000000
     29          8.353774   0.000000
     30          8.652422   0.000000
     31          8.743676   0.000000
     32          9.418584   0.000000
     33         10.142242   0.000000
     34         10.191414   0.000000
     35         10.450332   0.000000
     36         11.274997   0.000000
     37         11.385935   0.000000
     38         11.855748   0.000000
     39         12.128973   0.000000
     40         12.252680   0.000000
     41         12.509270   0.000000
     42         13.288069   0.000000
     43         14.617304   0.000000
     44         15.012577   0.000000
     45         15.135459   0.000000
     46         15.333247   0.000000
     47         15.601243   0.000000
     48         16.411814   0.000000
 
  0.4210526E+00  0.0000000E+00  0.0000000E+00  0.2293315E-03
      1        -12.367554   1.000000
      2        -12.091332   1.000000
      3         -8.485608   1.000000
      4         -8.406602   1.000000
      5         -6.127741   1.000000
      6         -6.124414   1.000000
      7         -4.061615   1.000000
      8         -3.452540   1.000000
      9         -3.134217   1.000000
     10         -3.041225   1.000000
     11         -2.504048   1.000000
     12         -2.367977   1.000000
     13         -2.058643   1.000000
     14         -1.975496   1.000000
     15         -0.703809   1.000000
     16         -0.505735   1.000000
     17          0.254612   1.000000
     18          0.305263   1.000000
     19          0.792462   1.000000
     20          1.290504   1.000000
     21          1.626992   1.000000
     22          1.668104   1.000000
     23          5.687149   0.000000
     24          5.734172   0.000000
     25          6.432504   0.000000
     26          6.532487   0.000000
     27          7.189202   0.000000
     28          7.896007   0.000000
     29          8.326949   0.000000
     30          8.416604   0.000000
     31          8.648034   0.000000
     32          9.023103   0.000000
     33         10.394556   0.000000
     34         10.415818   0.000000
     35         10.634165   0.000000
     36         11.330914   0.000000
     37         11.519524   0.000000
     38         11.681909   0.000000
     39         11.782645   0.000000
     40         12.508981   0.000000
     41         12.513203   0.000000
     42         13.310847   0.000000
     43         14.539442   0.000000
     44         14.814857   0.000000
     45         14.971475   0.000000
     46         15.026613   0.000000
     47         15.930395   0.000000
     48         16.467108   0.000000
 
  0.4736842E+00  0.0000000E+00  0.0000000E+00  0.2293315E-03
      1        -12.279866   1.000000
      2        -12.187087   1.000000
      3         -8.453044   1.000000
      4         -8.426013   1.000000
      5         -6.156762   1.000000
      6         -6.153902   1.000000
      7         -3.761819   1.000000
      8         -3.445310   1.000000
      9         -3.324038   1.000000
     10         -3.186104   1.000000
     11         -2.444351   1.000000
     12         -2.400117   1.000000
     13         -1.935393   1.000000
     14         -1.890953   1.000000
     15         -0.747161   1.000000
     16         -0.669816   1.000000
     17          0.290690   1.000000
     18          0.308827   1.000000
     19          0.945840   1.000000
     20          1.113384   1.000000
     21          1.611275   1.000000
     22          1.626070   1.000000
     23          5.706634   0.000000
     24          5.725387   0.000000
     25          6.443835   0.000000
     26          6.478270   0.000000
     27          7.565420   0.000000
     28          7.952085   0.000000
     29          8.259806   0.000000
     30          8.484231   0.000000
     31          8.560834   0.000000
     32          8.636127   0.000000
     33         10.573099   0.000000
     34         10.575908   0.000000
     35         10.893428   0.000000
     36         11.194747   0.000000
     37         11.316095   0.000000
     38         11.468896   0.000000
     39         12.092224   0.000000
     40         12.381084   0.000000
     41         12.802016   0.000000
     42         13.100953   0.000000
     43         14.620805   0.000000
     44         14.736312   0.000000
     45         14.778817   0.000000
     46         14.850971   0.000000
     47         16.210059   0.000000
     48         16.403045   0.000000
 
  0.0000000E+00  0.3703704E-01  0.0000000E+00  0.2293315E-03
      1        -12.729897   1.000000
      2        -11.573204   1.000000
      3         -8.659641   1.000000
      4         -8.421780   1.000000
      5         -6.074015   1.000000
      6         -5.054543   1.000000
      7         -4.635557   1.000000
      8         -4.359360   1.000000
      9         -4.049724   1.000000
     10         -3.595523   1.000000
     11         -2.601296   1.000000
     12         -2.324311   1.000000
     13         -1.810204   1.000000
     14         -1.052639   1.000000
     15         -0.078035   1.000000
     16         -0.051421   1.000000
     17          0.151482   1.000000
     18          0.195117   1.000000
     19          0.580311   1.000000
     20          2.026610   0.000012
     21          2.088041   0.000000
     22          2.234883   0.000000
     23          5.446765   0.000000
     24          5.758885   0.000000
     25          5.860221   0.000000
     26          5.876990   0.000000
     27          6.827793   0.000000
     28          7.727564   0.000000
     29          7.728557   0.000000
     30          8.508379   0.000000
     31          8.751541   0.000000
     32          8.920053   0.000000
     33          9.048061   0.000000
     34         10.114758   0.000000
     35         11.177479   0.000000
     36         11.387129   0.000000
     37         11.757454   0.000000
     38         11.816406   0.000000
     39         11.912368   0.000000
     40         12.393736   0.000000
     41         12.805359   0.000000
     42         13.347955   0.000000
     43         13.525252   0.000000
     44         15.537980   0.000000
     45         15.548301   0.000000
     46         15.952583   0.000000
     47         16.330837   0.000000
     48         16.482483   0.000000
 
  0.5263158E-01  0.3703704E-01  0.0000000E+00  0.4586630E-03
      1        -12.723795   1.000000
      2        -11.583840   1.000000
      3         -8.656816   1.000000
      4         -8.419971   1.000000
      5         -6.061133   1.000000
      6         -5.136924   1.000000
      7         -4.667413   1.000000
      8         -4.266964   1.000000
      9         -4.036548   1.000000
     10         -3.536410   1.000000
     11         -2.610804   1.000000
     12         -2.321554   1.000000
     13         -1.822844   1.000000
     14         -1.098750   1.000000
     15         -0.072094   1.000000
     16         -0.042672   1.000000
     17          0.158832   1.000000
     18          0.178262   1.000000
     19          0.566228   1.000000
     20          2.013979   0.000057
     21          2.076614   0.000000
     22          2.217997   0.000000
     23          5.460915   0.000000
     24          5.746360   0.000000
     25          5.838735   0.000000
     26          5.963964   0.000000
     27          6.814579   0.000000
     28          7.540052   0.000000
     29          7.885974   0.000000
     30          8.529733   0.000000
     31          8.807945   0.000000
     32          8.956375   0.000000
     33          9.052265   0.000000
     34         10.129312   0.000000
     35         11.187410   0.000000
     36         11.327401   0.000000
     37         11.653802   0.000000
     38         11.779526   0.000000
     39         11.945251   0.000000
     40         12.405752   0.000000
     41         12.875211   0.000000
     42         13.457519   0.000000
     43         13.468235   0.000000
     44         15.367403   0.000000
     45         15.571316   0.000000
     46         16.066999   0.000000
     47         16.315460   0.000000
     48         16.355293   0.000000
 
  0.1052632E+00  0.3703704E-01  0.0000000E+00  0.4586630E-03
      1        -12.705553   1.000000
      2        -11.615102   1.000000
      3         -8.648168   1.000000
      4         -8.414871   1.000000
      5         -6.027660   1.000000
      6         -5.309616   1.000000
      7         -4.736391   1.000000
      8         -4.093583   1.000000
      9         -3.968117   1.000000
     10         -3.381872   1.000000
     11         -2.639618   1.000000
     12         -2.313225   1.000000
     13         -1.858118   1.000000
     14         -1.231362   1.000000
     15         -0.054801   1.000000
     16         -0.022001   1.000000
     17          0.132377   1.000000
     18          0.179126   1.000000
     19          0.524552   1.000000
     20          1.977132   0.002413
     21          2.043311   0.000001
     22          2.167388   0.000000
     23          5.500457   0.000000
     24          5.753517   0.000000
     25          5.828347   0.000000
     26          6.126024   0.000000
     27          6.777069   0.000000
     28          7.344635   0.000000
     29          8.006783   0.000000
     30          8.590283   0.000000
     31          8.958702   0.000000
     32          9.056949   0.000000
     33          9.066873   0.000000
     34         10.173915   0.000000
     35         11.156703   0.000000
     36         11.217649   0.000000
     37         11.397820   0.000000
     38         11.719882   0.000000
     39         12.040594   0.000000
     40         12.441393   0.000000
     41         13.026138   0.000000
     42         13.309821   0.000000
     43         13.723911   0.000000
     44         15.072796   0.000000
     45         15.659993   0.000000
     46         16.055395   0.000000
     47         16.184498   0.000000
     48         16.430362   0.000000
 
  0.1578947E+00  0.3703704E-01  0.0000000E+00  0.4586630E-03
      1        -12.675379   1.000000
      2        -11.665169   1.000000
      3         -8.633361   1.000000
      4         -8.407452   1.000000
      5         -5.989057   1.000000
      6         -5.498485   1.000000
      7         -4.792542   1.000000
      8         -4.007448   1.000000
      9         -3.751921   1.000000
     10         -3.170659   1.000000
     11         -2.688049   1.000000
     12         -2.299135   1.000000
     13         -1.909254   1.000000
     14         -1.435776   1.000000
     15         -0.027985   1.000000
     16         -0.026753   1.000000
     17          0.092703   1.000000
     18          0.202995   1.000000
     19          0.463124   1.000000
     20          1.919237   0.118822
     21          1.990952   0.000665
     22          2.083681   0.000000
     23          5.557650   0.000000
     24          5.755565   0.000000
     25          5.879644   0.000000
     26          6.336575   0.000000
     27          6.721093   0.000000
     28          7.162396   0.000000
     29          8.102126   0.000000
     30          8.678438   0.000000
     31          9.058206   0.000000
     32          9.164880   0.000000
     33          9.237141   0.000000
     34         10.253727   0.000000
     35         10.897206   0.000000
     36         11.080062   0.000000
     37         11.267934   0.000000
     38         11.701337   0.000000
     39         12.181955   0.000000
     40         12.506432   0.000000
     41         13.077138   0.000000
     42         13.136825   0.000000
     43         14.057727   0.000000
     44         14.846420   0.000000
     45         15.735234   0.000000
     46         15.813303   0.000000
     47         16.219083   0.000000
     48         16.526361   0.000000
 
  0.2105263E+00  0.3703704E-01  0.0000000E+00  0.4586630E-03
      1        -12.633636   1.000000
      2        -11.731303   1.000000
      3         -8.612219   1.000000
      4         -8.399302   1.000000
      5         -5.967580   1.000000
      6         -5.676851   1.000000
      7         -4.792871   1.000000
      8         -3.943805   1.000000
      9         -3.483022   1.000000
     10         -2.934158   1.000000
     11         -2.751739   1.000000
     12         -2.279087   1.000000
     13         -1.968114   1.000000
     14         -1.692690   1.000000
     15         -0.117893   1.000000
     16          0.002711   1.000000
     17          0.118172   1.000000
     18          0.193558   1.000000
     19          0.422563   1.000000
     20          1.845264   0.818954
     21          1.923881   0.094721
     22          1.969437   0.004651
     23          5.622240   0.000000
     24          5.732361   0.000000
     25          6.021898   0.000000
     26          6.581515   0.000000
     27          6.654929   0.000000
     28          7.007513   0.000000
     29          8.184062   0.000000
     30          8.769887   0.000000
     31          9.035391   0.000000
     32          9.395523   0.000000
     33          9.462105   0.000000
     34         10.372016   0.000000
     35         10.580155   0.000000
     36         10.767912   0.000000
     37         11.332139   0.000000
     38         11.754191   0.000000
     39         12.321364   0.000000
     40         12.631915   0.000000
     41         12.797763   0.000000
     42         13.083658   0.000000
     43         14.400783   0.000000
     44         14.807016   0.000000
     45         15.452635   0.000000
     46         15.923834   0.000000
     47         16.143589   0.000000
     48         16.500648   0.000000
 
  0.2631579E+00  0.3703704E-01  0.0000000E+00  0.4586630E-03
      1        -12.580853   1.000000
      2        -11.810188   1.000000
      3         -8.585099   1.000000
      4         -8.392533   1.000000
      5         -5.979034   1.000000
      6         -5.833709   1.000000
      7         -4.712655   1.000000
      8         -3.870216   1.000000
      9         -3.213451   1.000000
     10         -2.862777   1.000000
     11         -2.656164   1.000000
     12         -2.255373   1.000000
     13         -2.027936   1.000000
     14         -1.977078   1.000000
     15         -0.255250   1.000000
     16          0.001300   1.000000
     17          0.133230   1.000000
     18          0.167922   1.000000
     19          0.457438   1.000000
     20          1.758975   0.999599
     21          1.832785   0.896947
     22          1.847606   0.800987
     23          5.683724   0.000000
     24          5.710845   0.000000
     25          6.231657   0.000000
     26          6.588144   0.000000
     27          6.789713   0.000000
     28          6.946675   0.000000
     29          8.257476   0.000000
     30          8.819066   0.000000
     31          8.986546   0.000000
     32          9.637319   0.000000
     33          9.715280   0.000000
     34         10.186859   0.000000
     35         10.460771   0.000000
     36         10.652634   0.000000
     37         11.391998   0.000000
     38         11.880330   0.000000
     39         12.412641   0.000000
     40         12.483098   0.000000
     41         12.846279   0.000000
     42         12.854701   0.000000
     43         14.695358   0.000000
     44         14.981746   0.000000
     45         15.149606   0.000000
     46         15.936909   0.000000
     47         15.948949   0.000000
     48         16.250080   0.000000
 
  0.3157895E+00  0.3703704E-01  0.0000000E+00  0.4586630E-03
      1        -12.517727   1.000000
      2        -11.898259   1.000000
      3         -8.553102   1.000000
      4         -8.389564   1.000000
      5         -6.019671   1.000000
      6         -5.962824   1.000000
      7         -4.552492   1.000000
      8         -3.783987   1.000000