  14  14   0   0
  0.1021960E+02  0.5697000E-09  0.4047900E-09  0.6204200E-09  0.5000000E-15
  1.000000000000000E-004
  CAR 
 Kpoints                                 
     17.97376884    -14.18667144  301      1.88344710      1.00000000
    -14.187  0.0000E+00  0.0000E+00
    -14.079  0.0000E+00  0.0000E+00
    -13.972  0.0000E+00  0.0000E+00
    -13.865  0.0000E+00  0.0000E+00
    -13.758  0.0000E+00  0.0000E+00
    -13.651  0.0000E+00  0.0000E+00
    -13.543  0.0000E+00  0.0000E+00
    -13.436  0.0000E+00  0.0000E+00
    -13.329  0.0000E+00  0.0000E+00
    -13.222  0.0000E+00  0.0000E+00
    -13.115  0.0000E+00  0.0000E+00
    -13.007  0.4603E-16  0.4934E-17
    -12.900  0.2969E-07  0.3183E-08
    -12.793  0.3819E-02  0.4094E-03
    -12.686  0.5086E+00  0.5494E-01
    -12.579  0.2391E+01  0.3112E+00
    -12.471  0.3564E+01  0.6933E+00
    -12.364  0.4371E+01  0.1162E+01
    -12.257  0.3539E+01  0.1541E+01
    -12.150  0.2735E+01  0.1834E+01
    -12.043  0.2751E+01  0.2129E+01
    -11.935  0.2505E+01  0.2398E+01
    -11.828  0.2771E+01  0.2695E+01
    -11.721  0.3427E+01  0.3062E+01
    -11.614  0.3535E+01  0.3441E+01
    -11.507  0.3115E+01  0.3775E+01
    -11.399  0.1668E+01  0.3954E+01
    -11.292  0.4210E+00  0.3999E+01
    -11.185  0.7210E-02  0.4000E+01
    -11.078  0.1724E-06  0.4000E+01
    -10.971  0.9074E-15  0.4000E+01
    -10.863  0.0000E+00  0.4000E+01
    -10.756  0.0000E+00  0.4000E+01
    -10.649  0.0000E+00  0.4000E+01
    -10.542  0.0000E+00  0.4000E+01
    -10.435  0.0000E+00  0.4000E+01
    -10.327  0.0000E+00  0.4000E+01
    -10.220  0.0000E+00  0.4000E+01
    -10.113  0.0000E+00  0.4000E+01
    -10.006  0.0000E+00  0.4000E+01
     -9.899  0.0000E+00  0.4000E+01
     -9.791  0.0000E+00  0.4000E+01
     -9.684  0.0000E+00  0.4000E+01
     -9.577  0.0000E+00  0.4000E+01
     -9.470  0.0000E+00  0.4000E+01
     -9.363  0.0000E+00  0.4000E+01
     -9.255  0.0000E+00  0.4000E+01
     -9.148  0.0000E+00  0.4000E+01
     -9.041  0.9487E-09  0.4000E+01
     -8.934  0.6259E-03  0.4000E+01
     -8.827  0.2767E+00  0.4030E+01
     -8.719  0.2092E+01  0.4254E+01
     -8.612  0.5334E+01  0.4826E+01
     -8.505  0.6989E+01  0.5575E+01
     -8.398  0.6296E+01  0.6250E+01
     -8.291  0.5325E+01  0.6821E+01
     -8.183  0.4835E+01  0.7339E+01
     -8.076  0.3871E+01  0.7754E+01
     -7.969  0.1665E+01  0.7933E+01
     -7.862  0.5762E+00  0.7994E+01
     -7.755  0.5165E-01  0.8000E+01
     -7.647  0.2366E-04  0.8000E+01
     -7.540  0.2625E-11  0.8000E+01
     -7.433  0.0000E+00  0.8000E+01
     -7.326  0.0000E+00  0.8000E+01
     -7.219  0.0000E+00  0.8000E+01
     -7.111  0.4898E-09  0.8000E+01
     -7.004  0.3989E-03  0.8000E+01
     -6.897  0.1131E+00  0.8012E+01
     -6.790  0.2577E+00  0.8040E+01
     -6.683  0.4264E+00  0.8086E+01
     -6.575  0.7663E+00  0.8168E+01
     -6.468  0.8510E+00  0.8259E+01
     -6.361  0.1445E+01  0.8414E+01
     -6.254  0.1963E+01  0.8624E+01
     -6.147  0.3057E+01  0.8952E+01
     -6.039  0.3784E+01  0.9358E+01
     -5.932  0.4115E+01  0.9799E+01
     -5.825  0.4045E+01  0.1023E+02
     -5.718  0.3862E+01  0.1065E+02
     -5.611  0.4073E+01  0.1108E+02
     -5.503  0.4220E+01  0.1154E+02
     -5.396  0.4546E+01  0.1202E+02
     -5.289  0.4600E+01  0.1252E+02
     -5.182  0.4491E+01  0.1300E+02
     -5.075  0.3869E+01  0.1341E+02
     -4.967  0.3227E+01  0.1376E+02
     -4.860  0.2952E+01  0.1407E+02
     -4.753  0.2337E+01  0.1432E+02
     -4.646  0.2897E+01  0.1464E+02
     -4.539  0.3369E+01  0.1500E+02
     -4.431  0.3472E+01  0.1537E+02
     -4.324  0.3332E+01  0.1573E+02
     -4.217  0.2954E+01  0.1604E+02
     -4.110  0.2908E+01  0.1635E+02
     -4.003  0.2945E+01  0.1667E+02
     -3.895  0.2860E+01  0.1698E+02
     -3.788  0.3120E+01  0.1731E+02
     -3.681  0.2874E+01  0.1762E+02
     -3.574  0.2706E+01  0.1791E+02
     -3.467  0.3065E+01  0.1824E+02
     -3.359  0.2638E+01  0.1852E+02
     -3.252  0.2862E+01  0.1883E+02
     -3.145  0.2744E+01  0.1912E+02
     -3.038  0.2740E+01  0.1942E+02
     -2.931  0.3045E+01  0.1974E+02
     -2.823  0.2975E+01  0.2006E+02
     -2.716  0.2430E+01  0.2032E+02
     -2.609  0.2657E+01  0.2061E+02
     -2.502  0.3022E+01  0.2093E+02
     -2.395  0.2985E+01  0.2125E+02
     -2.287  0.3193E+01  0.2159E+02
     -2.180  0.4009E+01  0.2202E+02
     -2.073  0.3656E+01  0.2241E+02
     -1.966  0.3274E+01  0.2277E+02
     -1.859  0.5129E+01  0.2332E+02
     -1.751  0.5577E+01  0.2391E+02
     -1.644  0.5605E+01  0.2451E+02
     -1.537  0.6184E+01  0.2518E+02
     -1.430  0.6111E+01  0.2583E+02
     -1.322  0.5567E+01  0.2643E+02
     -1.215  0.4683E+01  0.2693E+02
     -1.108  0.6498E+01  0.2763E+02
     -1.001  0.3976E+01  0.2805E+02
     -0.894  0.2270E+01  0.2830E+02
     -0.786  0.2699E+01  0.2859E+02
     -0.679  0.2880E+01  0.2890E+02
     -0.572  0.4524E+01  0.2938E+02
     -0.465  0.6864E+01  0.3012E+02
     -0.358  0.5658E+01  0.3072E+02
     -0.250  0.6706E+01  0.3144E+02
     -0.143  0.6361E+01  0.3212E+02
     -0.036  0.6747E+01  0.3285E+02
      0.071  0.6756E+01  0.3357E+02
      0.178  0.6301E+01  0.3425E+02
      0.286  0.8806E+01  0.3519E+02
      0.393  0.7984E+01  0.3605E+02
      0.500  0.8697E+01  0.3698E+02
      0.607  0.5240E+01  0.3754E+02
      0.714  0.2933E+01  0.3785E+02
      0.822  0.3294E+01  0.3821E+02
      0.929  0.3587E+01  0.3859E+02
      1.036  0.3560E+01  0.3897E+02
      1.143  0.2791E+01  0.3927E+02
      1.250  0.3393E+01  0.3964E+02
      1.358  0.4499E+01  0.4012E+02
      1.465  0.3777E+01  0.4052E+02
      1.572  0.3725E+01  0.4092E+02
      1.679  0.4577E+01  0.4141E+02
      1.786  0.3227E+01  0.4176E+02
      1.894  0.2481E+01  0.4203E+02
      2.001  0.2660E+01  0.4231E+02
      2.108  0.2093E+01  0.4254E+02
      2.215  0.2653E+01  0.4282E+02
      2.322  0.2570E+01  0.4310E+02
      2.430  0.1934E+01  0.4330E+02
      2.537  0.8489E+00  0.4339E+02
      2.644  0.3783E+00  0.4343E+02
      2.751  0.5723E+00  0.4350E+02
      2.858  0.4196E+00  0.4354E+02
      2.966  0.3056E+00  0.4357E+02
      3.073  0.7602E+00  0.4365E+02
      3.180  0.1014E+01  0.4376E+02
      3.287  0.5352E+00  0.4382E+02
      3.394  0.1279E-01  0.4382E+02
      3.502  0.1322E+00  0.4384E+02
      3.609  0.3961E+00  0.4388E+02
      3.716  0.3293E+00  0.4391E+02
      3.823  0.3731E+00  0.4395E+02
      3.930  0.4010E+00  0.4400E+02
      4.038  0.2611E-01  0.4400E+02
      4.145  0.2778E-04  0.4400E+02
      4.252  0.3121E-01  0.4400E+02
      4.359  0.1761E+00  0.4402E+02
      4.466  0.4024E+00  0.4407E+02
      4.574  0.4708E+00  0.4412E+02
      4.681  0.6338E+00  0.4418E+02
      4.788  0.8889E+00  0.4428E+02
      4.895  0.8414E+00  0.4437E+02
      5.002  0.8574E+00  0.4446E+02
      5.110  0.1277E+01  0.4460E+02
      5.217  0.1153E+01  0.4472E+02
      5.324  0.1633E+01  0.4490E+02
      5.431  0.2191E+01  0.4513E+02
      5.538  0.2487E+01  0.4540E+02
      5.646  0.2789E+01  0.4570E+02
      5.753  0.3368E+01  0.4606E+02
      5.860  0.3219E+01  0.4640E+02
      5.967  0.4314E+01  0.4687E+02
      6.074  0.4758E+01  0.4738E+02
      6.182  0.4046E+01  0.4781E+02
      6.289  0.4624E+01  0.4831E+02
      6.396  0.4152E+01  0.4875E+02
      6.503  0.4019E+01  0.4918E+02
      6.610  0.4479E+01  0.4966E+02
      6.718  0.3227E+01  0.5001E+02
      6.825  0.3998E+01  0.5044E+02
      6.932  0.4614E+01  0.5093E+02
      7.039  0.4550E+01  0.5142E+02
      7.146  0.4341E+01  0.5188E+02
      7.254  0.5601E+01  0.5248E+02
      7.361  0.4922E+01  0.5301E+02
      7.468  0.4454E+01  0.5349E+02
      7.575  0.4190E+01  0.5394E+02
      7.682  0.3566E+01  0.5432E+02
      7.790  0.3125E+01  0.5466E+02
      7.897  0.3009E+01  0.5498E+02
      8.004  0.2979E+01  0.5530E+02
      8.111  0.4169E+01  0.5574E+02
      8.218  0.3887E+01  0.5616E+02
      8.326  0.3691E+01  0.5656E+02
      8.433  0.3991E+01  0.5698E+02
      8.540  0.4215E+01  0.5744E+02
      8.647  0.4459E+01  0.5791E+02
      8.754  0.4221E+01  0.5837E+02
      8.862  0.5267E+01  0.5893E+02
      8.969  0.4940E+01  0.5946E+02
      9.076  0.5292E+01  0.6003E+02
      9.183  0.5237E+01  0.6059E+02
      9.290  0.4971E+01  0.6112E+02
      9.398  0.4689E+01  0.6163E+02
      9.505  0.4371E+01  0.6209E+02
      9.612  0.5106E+01  0.6264E+02
      9.719  0.5026E+01  0.6318E+02
      9.826  0.5300E+01  0.6375E+02
      9.934  0.4479E+01  0.6423E+02
     10.041  0.3636E+01  0.6462E+02
     10.148  0.5178E+01  0.6517E+02
     10.255  0.4713E+01  0.6568E+02
     10.362  0.4119E+01  0.6612E+02
     10.470  0.5417E+01  0.6670E+02
     10.577  0.5808E+01  0.6732E+02
     10.684  0.4066E+01  0.6776E+02
     10.791  0.3884E+01  0.6818E+02
     10.898  0.3237E+01  0.6852E+02
     11.006  0.4667E+01  0.6902E+02
     11.113  0.5482E+01  0.6961E+02
     11.220  0.6189E+01  0.7027E+02
     11.327  0.5994E+01  0.7092E+02
     11.434  0.5284E+01  0.7148E+02
     11.542  0.4302E+01  0.7194E+02
     11.649  0.4473E+01  0.7242E+02
     11.756  0.4933E+01  0.7295E+02
     11.863  0.4805E+01  0.7347E+02
     11.970  0.6035E+01  0.7412E+02
     12.078  0.5960E+01  0.7475E+02
     12.185  0.5992E+01  0.7540E+02
     12.292  0.5616E+01  0.7600E+02
     12.399  0.5008E+01  0.7654E+02
     12.506  0.5688E+01  0.7715E+02
     12.614  0.5988E+01  0.7779E+02
     12.721  0.6020E+01  0.7843E+02
     12.828  0.5890E+01  0.7906E+02
     12.935  0.5865E+01  0.7969E+02
     13.043  0.5595E+01  0.8029E+02
     13.150  0.6348E+01  0.8097E+02
     13.257  0.6267E+01  0.8164E+02
     13.364  0.5385E+01  0.8222E+02
     13.471  0.6134E+01  0.8288E+02
     13.579  0.5343E+01  0.8345E+02
     13.686  0.4811E+01  0.8397E+02
     13.793  0.6126E+01  0.8462E+02
     13.900  0.5528E+01  0.8522E+02
     14.007  0.5344E+01  0.8579E+02
     14.115  0.5475E+01  0.8638E+02
     14.222  0.4687E+01  0.8688E+02
     14.329  0.4905E+01  0.8741E+02
     14.436  0.5019E+01  0.8794E+02
     14.543  0.4961E+01  0.8848E+02
     14.651  0.5272E+01  0.8904E+02
     14.758  0.5169E+01  0.8959E+02
     14.865  0.4093E+01  0.9003E+02
     14.972  0.5077E+01  0.9058E+02
     15.079  0.6185E+01  0.9124E+02
     15.187  0.5642E+01  0.9185E+02
     15.294  0.5671E+01  0.9245E+02
     15.401  0.6029E+01  0.9310E+02
     15.508  0.5737E+01  0.9371E+02
     15.615  0.5951E+01  0.9435E+02
     15.723  0.4597E+01  0.9485E+02
     15.830  0.2472E+01  0.9511E+02
     15.937  0.2706E+01  0.9540E+02
     16.044  0.1863E+01  0.9560E+02
     16.151  0.1146E+01  0.9572E+02
     16.259  0.8885E+00  0.9582E+02
     16.366  0.6998E+00  0.9589E+02
     16.473  0.8138E+00  0.9598E+02
     16.580  0.1777E+00  0.9600E+02
     16.687  0.1686E-02  0.9600E+02
     16.795  0.2072E-07  0.9600E+02
     16.902  0.3945E-16  0.9600E+02
     17.009  0.0000E+00  0.9600E+02
     17.116  0.0000E+00  0.9600E+02
     17.223  0.0000E+00  0.9600E+02
     17.331  0.0000E+00  0.9600E+02
     17.438  0.0000E+00  0.9600E+02
     17.545  0.0000E+00  0.9600E+02
     17.652  0.0000E+00  0.9600E+02
     17.759  0.0000E+00  0.9600E+02
     17.867  0.0000E+00  0.9600E+02
     17.974  0.0000E+00  0.9600E+02
