  14  14   0   0
  0.1021960E+02  0.5697000E-09  0.4047900E-09  0.6204200E-09  0.5000000E-15
  1.000000000000000E-004
  CAR 
 Kpoints                                 
     17.97538042    -14.18679964  301      1.88440551      1.00000000
    -14.187  0.0000E+00  0.0000E+00
    -14.080  0.0000E+00  0.0000E+00
    -13.972  0.0000E+00  0.0000E+00
    -13.865  0.0000E+00  0.0000E+00
    -13.758  0.0000E+00  0.0000E+00
    -13.651  0.0000E+00  0.0000E+00
    -13.544  0.0000E+00  0.0000E+00
    -13.436  0.0000E+00  0.0000E+00
    -13.329  0.0000E+00  0.0000E+00
    -13.222  0.0000E+00  0.0000E+00
    -13.115  0.0000E+00  0.0000E+00
    -13.008  0.4603E-16  0.4934E-17
    -12.900  0.2965E-07  0.3179E-08
    -12.793  0.3817E-02  0.4093E-03
    -12.686  0.5086E+00  0.5494E-01
    -12.579  0.2390E+01  0.3112E+00
    -12.471  0.3564E+01  0.6933E+00
    -12.364  0.4371E+01  0.1162E+01
    -12.257  0.3539E+01  0.1541E+01
    -12.150  0.2735E+01  0.1835E+01
    -12.043  0.2751E+01  0.2129E+01
    -11.935  0.2505E+01  0.2398E+01
    -11.828  0.2771E+01  0.2695E+01
    -11.721  0.3427E+01  0.3062E+01
    -11.614  0.3535E+01  0.3441E+01
    -11.507  0.3115E+01  0.3775E+01
    -11.399  0.1667E+01  0.3954E+01
    -11.292  0.4208E+00  0.3999E+01
    -11.185  0.7197E-02  0.4000E+01
    -11.078  0.1715E-06  0.4000E+01
    -10.971  0.8942E-15  0.4000E+01
    -10.863  0.0000E+00  0.4000E+01
    -10.756  0.0000E+00  0.4000E+01
    -10.649  0.0000E+00  0.4000E+01
    -10.542  0.0000E+00  0.4000E+01
    -10.435  0.0000E+00  0.4000E+01
    -10.327  0.0000E+00  0.4000E+01
    -10.220  0.0000E+00  0.4000E+01
    -10.113  0.0000E+00  0.4000E+01
    -10.006  0.0000E+00  0.4000E+01
     -9.899  0.0000E+00  0.4000E+01
     -9.791  0.0000E+00  0.4000E+01
     -9.684  0.0000E+00  0.4000E+01
     -9.577  0.0000E+00  0.4000E+01
     -9.470  0.0000E+00  0.4000E+01
     -9.362  0.0000E+00  0.4000E+01
     -9.255  0.0000E+00  0.4000E+01
     -9.148  0.0000E+00  0.4000E+01
     -9.041  0.9384E-09  0.4000E+01
     -8.934  0.6225E-03  0.4000E+01
     -8.826  0.2761E+00  0.4030E+01
     -8.719  0.2090E+01  0.4254E+01
     -8.612  0.5331E+01  0.4825E+01
     -8.505  0.6988E+01  0.5574E+01
     -8.398  0.6298E+01  0.6250E+01
     -8.290  0.5325E+01  0.6821E+01
     -8.183  0.4835E+01  0.7339E+01
     -8.076  0.3872E+01  0.7754E+01
     -7.969  0.1665E+01  0.7933E+01
     -7.862  0.5767E+00  0.7994E+01
     -7.754  0.5180E-01  0.8000E+01
     -7.647  0.2384E-04  0.8000E+01
     -7.540  0.2659E-11  0.8000E+01
     -7.433  0.0000E+00  0.8000E+01
     -7.326  0.0000E+00  0.8000E+01
     -7.218  0.0000E+00  0.8000E+01
     -7.111  0.4841E-09  0.8000E+01
     -7.004  0.3967E-03  0.8000E+01
     -6.897  0.1130E+00  0.8012E+01
     -6.789  0.2577E+00  0.8040E+01
     -6.682  0.4261E+00  0.8085E+01
     -6.575  0.7661E+00  0.8168E+01
     -6.468  0.8510E+00  0.8259E+01
     -6.361  0.1445E+01  0.8414E+01
     -6.253  0.1963E+01  0.8624E+01
     -6.146  0.3057E+01  0.8952E+01
     -6.039  0.3784E+01  0.9358E+01
     -5.932  0.4114E+01  0.9799E+01
     -5.825  0.4046E+01  0.1023E+02
     -5.717  0.3862E+01  0.1065E+02
     -5.610  0.4073E+01  0.1108E+02
     -5.503  0.4221E+01  0.1154E+02
     -5.396  0.4545E+01  0.1202E+02
     -5.289  0.4599E+01  0.1252E+02
     -5.181  0.4491E+01  0.1300E+02
     -5.074  0.3869E+01  0.1341E+02
     -4.967  0.3228E+01  0.1376E+02
     -4.860  0.2953E+01  0.1407E+02
     -4.753  0.2336E+01  0.1432E+02
     -4.645  0.2896E+01  0.1464E+02
     -4.538  0.3369E+01  0.1500E+02
     -4.431  0.3471E+01  0.1537E+02
     -4.324  0.3332E+01  0.1573E+02
     -4.217  0.2954E+01  0.1604E+02
     -4.109  0.2907E+01  0.1635E+02
     -4.002  0.2945E+01  0.1667E+02
     -3.895  0.2860E+01  0.1698E+02
     -3.788  0.3119E+01  0.1731E+02
     -3.680  0.2875E+01  0.1762E+02
     -3.573  0.2705E+01  0.1791E+02
     -3.466  0.3065E+01  0.1824E+02
     -3.359  0.2638E+01  0.1852E+02
     -3.252  0.2861E+01  0.1883E+02
     -3.144  0.2745E+01  0.1912E+02
     -3.037  0.2739E+01  0.1942E+02
     -2.930  0.3046E+01  0.1974E+02
     -2.823  0.2975E+01  0.2006E+02
     -2.716  0.2430E+01  0.2032E+02
     -2.608  0.2657E+01  0.2061E+02
     -2.501  0.3021E+01  0.2093E+02
     -2.394  0.2985E+01  0.2125E+02
     -2.287  0.3194E+01  0.2159E+02
     -2.180  0.4009E+01  0.2202E+02
     -2.072  0.3656E+01  0.2241E+02
     -1.965  0.3273E+01  0.2277E+02
     -1.858  0.5127E+01  0.2331E+02
     -1.751  0.5578E+01  0.2391E+02
     -1.644  0.5604E+01  0.2451E+02
     -1.536  0.6183E+01  0.2518E+02
     -1.429  0.6110E+01  0.2583E+02
     -1.322  0.5568E+01  0.2643E+02
     -1.215  0.4683E+01  0.2693E+02
     -1.108  0.6497E+01  0.2763E+02
     -1.000  0.3978E+01  0.2805E+02
     -0.893  0.2270E+01  0.2830E+02
     -0.786  0.2699E+01  0.2859E+02
     -0.679  0.2879E+01  0.2889E+02
     -0.571  0.4522E+01  0.2938E+02
     -0.464  0.6863E+01  0.3012E+02
     -0.357  0.5658E+01  0.3072E+02
     -0.250  0.6705E+01  0.3144E+02
     -0.143  0.6359E+01  0.3212E+02
     -0.035  0.6746E+01  0.3285E+02
      0.072  0.6757E+01  0.3357E+02
      0.179  0.6298E+01  0.3425E+02
      0.286  0.8804E+01  0.3519E+02
      0.393  0.7983E+01  0.3605E+02
      0.501  0.8697E+01  0.3698E+02
      0.608  0.5244E+01  0.3754E+02
      0.715  0.2935E+01  0.3785E+02
      0.822  0.3292E+01  0.3821E+02
      0.929  0.3587E+01  0.3859E+02
      1.037  0.3560E+01  0.3897E+02
      1.144  0.2791E+01  0.3927E+02
      1.251  0.3391E+01  0.3964E+02
      1.358  0.4497E+01  0.4012E+02
      1.465  0.3779E+01  0.4052E+02
      1.573  0.3724E+01  0.4092E+02
      1.680  0.4576E+01  0.4141E+02
      1.787  0.3230E+01  0.4176E+02
      1.894  0.2480E+01  0.4203E+02
      2.001  0.2660E+01  0.4231E+02
      2.109  0.2092E+01  0.4253E+02
      2.216  0.2652E+01  0.4282E+02
      2.323  0.2571E+01  0.4309E+02
      2.430  0.1936E+01  0.4330E+02
      2.538  0.8507E+00  0.4339E+02
      2.645  0.3780E+00  0.4343E+02
      2.752  0.5726E+00  0.4350E+02
      2.859  0.4195E+00  0.4354E+02
      2.966  0.3058E+00  0.4357E+02
      3.074  0.7587E+00  0.4365E+02
      3.181  0.1014E+01  0.4376E+02
      3.288  0.5371E+00  0.4382E+02
      3.395  0.1297E-01  0.4382E+02
      3.502  0.1315E+00  0.4384E+02
      3.610  0.3955E+00  0.4388E+02
      3.717  0.3301E+00  0.4391E+02
      3.824  0.3724E+00  0.4395E+02
      3.931  0.4017E+00  0.4400E+02
      4.038  0.2650E-01  0.4400E+02
      4.146  0.2818E-04  0.4400E+02
      4.253  0.3135E-01  0.4400E+02
      4.360  0.1762E+00  0.4402E+02
      4.467  0.4025E+00  0.4407E+02
      4.574  0.4710E+00  0.4412E+02
      4.682  0.6339E+00  0.4418E+02
      4.789  0.8890E+00  0.4428E+02
      4.896  0.8413E+00  0.4437E+02
      5.003  0.8571E+00  0.4446E+02
      5.111  0.1277E+01  0.4460E+02
      5.218  0.1152E+01  0.4472E+02
      5.325  0.1633E+01  0.4490E+02
      5.432  0.2191E+01  0.4513E+02
      5.539  0.2487E+01  0.4540E+02
      5.647  0.2788E+01  0.4570E+02
      5.754  0.3367E+01  0.4606E+02
      5.861  0.3219E+01  0.4640E+02
      5.968  0.4313E+01  0.4687E+02
      6.075  0.4758E+01  0.4738E+02
      6.183  0.4044E+01  0.4781E+02
      6.290  0.4624E+01  0.4830E+02
      6.397  0.4152E+01  0.4875E+02
      6.504  0.4018E+01  0.4918E+02
      6.611  0.4480E+01  0.4966E+02
      6.719  0.3227E+01  0.5001E+02
      6.826  0.3998E+01  0.5044E+02
      6.933  0.4613E+01  0.5093E+02
      7.040  0.4552E+01  0.5142E+02
      7.147  0.4340E+01  0.5188E+02
      7.255  0.5600E+01  0.5248E+02
      7.362  0.4922E+01  0.5301E+02
      7.469  0.4453E+01  0.5349E+02
      7.576  0.4191E+01  0.5394E+02
      7.683  0.3566E+01  0.5432E+02
      7.791  0.3125E+01  0.5466E+02
      7.898  0.3010E+01  0.5498E+02
      8.005  0.2979E+01  0.5530E+02
      8.112  0.4168E+01  0.5574E+02
      8.220  0.3888E+01  0.5616E+02
      8.327  0.3688E+01  0.5656E+02
      8.434  0.3991E+01  0.5698E+02
      8.541  0.4215E+01  0.5744E+02
      8.648  0.4457E+01  0.5791E+02
      8.756  0.4221E+01  0.5837E+02
      8.863  0.5265E+01  0.5893E+02
      8.970  0.4943E+01  0.5946E+02
      9.077  0.5293E+01  0.6003E+02
      9.184  0.5237E+01  0.6059E+02
      9.292  0.4970E+01  0.6112E+02
      9.399  0.4690E+01  0.6163E+02
      9.506  0.4369E+01  0.6209E+02
      9.613  0.5105E+01  0.6264E+02
      9.720  0.5027E+01  0.6318E+02
      9.828  0.5300E+01  0.6375E+02
      9.935  0.4480E+01  0.6423E+02
     10.042  0.3636E+01  0.6462E+02
     10.149  0.5177E+01  0.6517E+02
     10.256  0.4715E+01  0.6568E+02
     10.364  0.4117E+01  0.6612E+02
     10.471  0.5417E+01  0.6670E+02
     10.578  0.5809E+01  0.6732E+02
     10.685  0.4066E+01  0.6776E+02
     10.792  0.3885E+01  0.6818E+02
     10.900  0.3235E+01  0.6852E+02
     11.007  0.4669E+01  0.6902E+02
     11.114  0.5485E+01  0.6961E+02
     11.221  0.6190E+01  0.7028E+02
     11.329  0.5992E+01  0.7092E+02
     11.436  0.5286E+01  0.7148E+02
     11.543  0.4300E+01  0.7195E+02
     11.650  0.4473E+01  0.7243E+02
     11.757  0.4933E+01  0.7295E+02
     11.865  0.4806E+01  0.7347E+02
     11.972  0.6035E+01  0.7412E+02
     12.079  0.5960E+01  0.7476E+02
     12.186  0.5989E+01  0.7540E+02
     12.293  0.5617E+01  0.7600E+02
     12.401  0.5007E+01  0.7654E+02
     12.508  0.5687E+01  0.7715E+02
     12.615  0.5989E+01  0.7779E+02
     12.722  0.6022E+01  0.7843E+02
     12.829  0.5887E+01  0.7906E+02
     12.937  0.5863E+01  0.7969E+02
     13.044  0.5596E+01  0.8029E+02
     13.151  0.6349E+01  0.8097E+02
     13.258  0.6262E+01  0.8165E+02
     13.365  0.5388E+01  0.8222E+02
     13.473  0.6133E+01  0.8288E+02
     13.580  0.5342E+01  0.8345E+02
     13.687  0.4811E+01  0.8397E+02
     13.794  0.6132E+01  0.8463E+02
     13.902  0.5523E+01  0.8522E+02
     14.009  0.5345E+01  0.8579E+02
     14.116  0.5475E+01  0.8638E+02
     14.223  0.4685E+01  0.8688E+02
     14.330  0.4907E+01  0.8741E+02
     14.438  0.5019E+01  0.8794E+02
     14.545  0.4961E+01  0.8848E+02
     14.652  0.5273E+01  0.8904E+02
     14.759  0.5166E+01  0.8960E+02
     14.866  0.4092E+01  0.9003E+02
     14.974  0.5082E+01  0.9058E+02
     15.081  0.6188E+01  0.9124E+02
     15.188  0.5638E+01  0.9185E+02
     15.295  0.5676E+01  0.9246E+02
     15.402  0.6028E+01  0.9310E+02
     15.510  0.5734E+01  0.9372E+02
     15.617  0.5951E+01  0.9435E+02
     15.724  0.4591E+01  0.9485E+02
     15.831  0.2468E+01  0.9511E+02
     15.938  0.2706E+01  0.9540E+02
     16.046  0.1859E+01  0.9560E+02
     16.153  0.1144E+01  0.9572E+02
     16.260  0.8879E+00  0.9582E+02
     16.367  0.7005E+00  0.9589E+02
     16.474  0.8145E+00  0.9598E+02
     16.582  0.1750E+00  0.9600E+02
     16.689  0.1682E-02  0.9600E+02
     16.796  0.2069E-07  0.9600E+02
     16.903  0.3945E-16  0.9600E+02
     17.011  0.0000E+00  0.9600E+02
     17.118  0.0000E+00  0.9600E+02
     17.225  0.0000E+00  0.9600E+02
     17.332  0.0000E+00  0.9600E+02
     17.439  0.0000E+00  0.9600E+02
     17.547  0.0000E+00  0.9600E+02
     17.654  0.0000E+00  0.9600E+02
     17.761  0.0000E+00  0.9600E+02
     17.868  0.0000E+00  0.9600E+02
     17.975  0.0000E+00  0.9600E+02
