  14  14   0   0
  0.1021960E+02  0.5697000E-09  0.4047900E-09  0.6204200E-09  0.5000000E-15
  1.000000000000000E-004
  CAR 
 Kpoints                                 
     17.38110593    -13.98720146  301      2.18430807      1.00000000
    -13.987  0.0000E+00  0.0000E+00
    -13.883  0.0000E+00  0.0000E+00
    -13.778  0.0000E+00  0.0000E+00
    -13.674  0.0000E+00  0.0000E+00
    -13.569  0.0000E+00  0.0000E+00
    -13.464  0.0000E+00  0.0000E+00
    -13.360  0.0000E+00  0.0000E+00
    -13.255  0.0000E+00  0.0000E+00
    -13.151  0.0000E+00  0.0000E+00
    -13.046  0.0000E+00  0.0000E+00
    -12.942  0.0000E+00  0.0000E+00
    -12.837  0.2017E-13  0.2109E-14
    -12.732  0.4151E-05  0.4340E-06
    -12.628  0.1907E+00  0.1995E-01
    -12.523  0.5286E+01  0.5726E+00
    -12.419  0.2185E+01  0.8011E+00
    -12.314  0.1087E+02  0.1938E+01
    -12.210  0.5919E+00  0.2000E+01
    -12.105  0.2242E-04  0.2000E+01
    -12.001  0.2104E-05  0.2000E+01
    -11.896  0.1398E+00  0.2015E+01
    -11.791  0.5133E+01  0.2551E+01
    -11.687  0.2717E+01  0.2835E+01
    -11.582  0.1069E+02  0.3954E+01
    -11.478  0.4434E+00  0.4000E+01
    -11.373  0.1161E-04  0.4000E+01
    -11.269  0.6795E-13  0.4000E+01
    -11.164  0.0000E+00  0.4000E+01
    -11.059  0.0000E+00  0.4000E+01
    -10.955  0.0000E+00  0.4000E+01
    -10.850  0.0000E+00  0.4000E+01
    -10.746  0.0000E+00  0.4000E+01
    -10.641  0.0000E+00  0.4000E+01
    -10.537  0.0000E+00  0.4000E+01
    -10.432  0.0000E+00  0.4000E+01
    -10.328  0.0000E+00  0.4000E+01
    -10.223  0.0000E+00  0.4000E+01
    -10.118  0.0000E+00  0.4000E+01
    -10.014  0.0000E+00  0.4000E+01
     -9.909  0.0000E+00  0.4000E+01
     -9.805  0.0000E+00  0.4000E+01
     -9.700  0.0000E+00  0.4000E+01
     -9.596  0.0000E+00  0.4000E+01
     -9.491  0.0000E+00  0.4000E+01
     -9.387  0.0000E+00  0.4000E+01
     -9.282  0.0000E+00  0.4000E+01
     -9.177  0.0000E+00  0.4000E+01
     -9.073  0.6017E-14  0.4000E+01
     -8.968  0.1919E-05  0.4000E+01
     -8.864  0.1340E+00  0.4014E+01
     -8.759  0.5110E+01  0.4548E+01
     -8.655  0.3598E+01  0.4925E+01
     -8.550  0.1005E+02  0.5976E+01
     -8.445  0.2382E+00  0.6001E+01
     -8.341  0.2782E+01  0.6292E+01
     -8.236  0.3999E+01  0.6710E+01
     -8.132  0.1068E+02  0.7827E+01
     -8.027  0.1658E+01  0.8000E+01
     -7.923  0.2828E-03  0.8000E+01
     -7.818  0.1218E-10  0.8000E+01
     -7.714  0.0000E+00  0.8000E+01
     -7.609  0.0000E+00  0.8000E+01
     -7.504  0.0000E+00  0.8000E+01
     -7.400  0.0000E+00  0.8000E+01
     -7.295  0.0000E+00  0.8000E+01
     -7.191  0.0000E+00  0.8000E+01
     -7.086  0.0000E+00  0.8000E+01
     -6.982  0.0000E+00  0.8000E+01
     -6.877  0.0000E+00  0.8000E+01
     -6.772  0.0000E+00  0.8000E+01
     -6.668  0.0000E+00  0.8000E+01
     -6.563  0.9807E-11  0.8000E+01
     -6.459  0.1881E-03  0.8000E+01
     -6.354  0.9226E+00  0.8096E+01
     -6.250  0.5269E+01  0.8647E+01
     -6.145  0.4719E+00  0.8697E+01
     -6.041  0.1030E+02  0.9773E+01
     -5.936  0.2166E+01  0.1000E+02
     -5.831  0.1152E+00  0.1001E+02
     -5.727  0.9103E+01  0.1096E+02
     -5.622  0.3532E+01  0.1133E+02
     -5.518  0.2468E-02  0.1133E+02
     -5.413  0.6527E-02  0.1133E+02
     -5.309  0.2862E+01  0.1163E+02
     -5.204  0.3493E+01  0.1200E+02
     -5.100  0.1768E+01  0.1218E+02
     -4.995  0.2118E+02  0.1440E+02
     -4.890  0.2565E+01  0.1467E+02
     -4.786  0.2827E+00  0.1470E+02
     -4.681  0.5425E+01  0.1526E+02
     -4.577  0.2410E+01  0.1552E+02
     -4.472  0.1061E+02  0.1662E+02
     -4.368  0.3996E+00  0.1667E+02
     -4.263  0.9202E-05  0.1667E+02
     -4.158  0.4813E-13  0.1667E+02
     -4.054  0.0000E+00  0.1667E+02
     -3.949  0.3221E-12  0.1667E+02
     -3.845  0.2356E-04  0.1667E+02
     -3.740  0.4059E+00  0.1671E+02
     -3.636  0.5486E+01  0.1728E+02
     -3.531  0.4843E+00  0.1733E+02
     -3.427  0.3703E-04  0.1733E+02
     -3.322  0.9495E-01  0.1734E+02
     -3.217  0.4901E+01  0.1786E+02
     -3.113  0.1728E+01  0.1804E+02
     -3.008  0.1049E+02  0.1913E+02
     -2.904  0.1912E+01  0.1933E+02
     -2.799  0.5131E-03  0.1933E+02
     -2.695  0.7471E+00  0.1941E+02
     -2.590  0.9305E+01  0.2038E+02
     -2.485  0.3076E+01  0.2071E+02
     -2.381  0.1057E+02  0.2181E+02
     -2.276  0.1806E+01  0.2200E+02
     -2.172  0.2578E+01  0.2227E+02
     -2.067  0.7183E+01  0.2302E+02
     -1.963  0.2980E+01  0.2333E+02
     -1.858  0.1016E+01  0.2344E+02
     -1.754  0.1524E+02  0.2503E+02
     -1.649  0.8789E+01  0.2595E+02
     -1.544  0.6817E+01  0.2666E+02
     -1.440  0.2653E-01  0.2667E+02
     -1.335  0.3687E-07  0.2667E+02
     -1.231  0.4924E-03  0.2667E+02
     -1.126  0.2037E+01  0.2688E+02
     -1.022  0.1040E+02  0.2797E+02
     -0.917  0.3172E+00  0.2800E+02
     -0.813  0.5533E-05  0.2800E+02
     -0.708  0.1497E-02  0.2800E+02
     -0.603  0.2123E+01  0.2822E+02
     -0.499  0.1767E+02  0.3007E+02
     -0.394  0.1715E+02  0.3186E+02
     -0.290  0.1612E+01  0.3203E+02
     -0.185  0.5447E+01  0.3260E+02
     -0.081  0.1134E+01  0.3272E+02
      0.024  0.1080E+02  0.3385E+02
      0.129  0.1447E+01  0.3400E+02
      0.233  0.2924E+01  0.3431E+02
      0.338  0.3472E+01  0.3467E+02
      0.442  0.8405E+01  0.3555E+02
      0.547  0.1050E+02  0.3665E+02
      0.651  0.2006E+00  0.3667E+02
      0.756  0.3310E+01  0.3701E+02
      0.860  0.9308E+01  0.3799E+02
      0.965  0.4767E+00  0.3804E+02
      1.070  0.1048E+02  0.3913E+02
      1.174  0.1928E+01  0.3933E+02
      1.279  0.4239E-03  0.3933E+02
      1.383  0.2031E-05  0.3933E+02
      1.488  0.2402E+00  0.3936E+02
      1.592  0.1432E+02  0.4086E+02
      1.697  0.4570E+01  0.4133E+02
      1.802  0.2419E-02  0.4133E+02
      1.906  0.2491E-08  0.4133E+02
      2.011  0.4138E-02  0.4133E+02
      2.115  0.2533E+01  0.4160E+02
      2.220  0.5833E+01  0.4221E+02
      2.324  0.1159E+02  0.4342E+02
      2.429  0.5415E+01  0.4399E+02
      2.533  0.1302E+00  0.4400E+02
      2.638  0.1804E-05  0.4400E+02
      2.743  0.5663E-14  0.4400E+02
      2.847  0.0000E+00  0.4400E+02
      2.952  0.0000E+00  0.4400E+02
      3.056  0.0000E+00  0.4400E+02
      3.161  0.0000E+00  0.4400E+02
      3.265  0.0000E+00  0.4400E+02
      3.370  0.0000E+00  0.4400E+02
      3.474  0.0000E+00  0.4400E+02
      3.579  0.0000E+00  0.4400E+02
      3.684  0.0000E+00  0.4400E+02
      3.788  0.0000E+00  0.4400E+02
      3.893  0.0000E+00  0.4400E+02
      3.997  0.0000E+00  0.4400E+02
      4.102  0.0000E+00  0.4400E+02
      4.206  0.0000E+00  0.4400E+02
      4.311  0.0000E+00  0.4400E+02
      4.416  0.0000E+00  0.4400E+02
      4.520  0.0000E+00  0.4400E+02
      4.625  0.0000E+00  0.4400E+02
      4.729  0.0000E+00  0.4400E+02
      4.834  0.0000E+00  0.4400E+02
      4.938  0.1493E-10  0.4400E+02
      5.043  0.3196E-03  0.4400E+02
      5.147  0.1736E+01  0.4418E+02
      5.252  0.1061E+02  0.4529E+02
      5.357  0.8048E+00  0.4538E+02
      5.461  0.5485E+01  0.4595E+02
      5.566  0.4869E+00  0.4600E+02
      5.670  0.3816E-01  0.4600E+02
      5.775  0.7391E+01  0.4678E+02
      5.879  0.5313E+01  0.4733E+02
      5.984  0.1438E-01  0.4733E+02
      6.089  0.2595E+01  0.4761E+02
      6.193  0.3758E+01  0.4800E+02
      6.298  0.2664E+01  0.4828E+02
      6.402  0.1526E+02  0.4987E+02
      6.507  0.1310E+01  0.5001E+02
      6.611  0.4829E+01  0.5051E+02
      6.716  0.1722E+01  0.5069E+02
      6.820  0.5403E+01  0.5126E+02
      6.925  0.7641E+00  0.5134E+02
      7.030  0.4470E+01  0.5181E+02
      7.134  0.1853E+01  0.5200E+02
      7.239  0.1437E-02  0.5200E+02
      7.343  0.1353E-08  0.5200E+02
      7.448  0.3760E-02  0.5200E+02
      7.552  0.4026E+01  0.5242E+02
      7.657  0.8638E+01  0.5332E+02
      7.761  0.1223E+00  0.5334E+02
      7.866  0.7392E+01  0.5411E+02
      7.971  0.5311E+01  0.5467E+02
      8.075  0.2378E-01  0.5467E+02
      8.180  0.3447E+01  0.5503E+02
      8.284  0.2959E+01  0.5534E+02
      8.389  0.7841E+01  0.5616E+02
      8.493  0.4882E+01  0.5667E+02
      8.598  0.6500E+01  0.5735E+02
      8.703  0.6660E+01  0.5804E+02
      8.807  0.5506E+01  0.5862E+02
      8.912  0.4469E+00  0.5867E+02
      9.016  0.8869E+00  0.5876E+02
      9.121  0.1241E+02  0.6006E+02
      9.225  0.5786E+01  0.6066E+02
      9.330  0.7690E+01  0.6147E+02
      9.434  0.5098E+01  0.6200E+02
      9.539  0.8502E-02  0.6200E+02
      9.644  0.4773E+00  0.6205E+02
      9.748  0.1352E+02  0.6346E+02
      9.853  0.1057E+02  0.6457E+02
      9.957  0.9354E+00  0.6467E+02
     10.062  0.2105E-03  0.6467E+02
     10.166  0.5550E+00  0.6472E+02
     10.271  0.1254E+02  0.6604E+02
     10.376  0.6271E+01  0.6669E+02
     10.480  0.5501E+01  0.6727E+02
     10.585  0.1285E+01  0.6740E+02
     10.689  0.5436E+01  0.6797E+02
     10.794  0.2950E+00  0.6800E+02
     10.898  0.1585E-01  0.6800E+02
     11.003  0.6015E+01  0.6863E+02
     11.107  0.6696E+01  0.6933E+02
     11.212  0.1708E+01  0.6951E+02
     11.317  0.1641E+02  0.7122E+02
     11.421  0.4070E+01  0.7165E+02
     11.526  0.1195E+02  0.7290E+02
     11.630  0.1028E+02  0.7397E+02
     11.735  0.2511E+00  0.7400E+02
     11.839  0.2660E+01  0.7428E+02
     11.944  0.3692E+01  0.7466E+02
     12.048  0.1898E-01  0.7467E+02
     12.153  0.1072E+00  0.7468E+02
     12.258  0.1414E+02  0.7616E+02
     12.362  0.1738E+02  0.7797E+02
     12.467  0.2651E+00  0.7800E+02
     12.571  0.5916E+01  0.7862E+02
     12.676  0.6795E+01  0.7933E+02
     12.780  0.2619E-01  0.7933E+02
     12.885  0.1296E+00  0.7935E+02
     12.990  0.1295E+02  0.8070E+02
     13.094  0.6044E+01  0.8133E+02
     13.199  0.8864E+00  0.8143E+02
     13.303  0.5299E+01  0.8198E+02
     13.408  0.2626E+01  0.8225E+02
     13.512  0.1008E+02  0.8331E+02
     13.617  0.2382E+00  0.8333E+02
     13.721  0.1212E-04  0.8333E+02
     13.826  0.3983E+00  0.8337E+02
     13.931  0.1061E+02  0.8448E+02
     14.035  0.3625E+01  0.8486E+02
     14.140  0.5570E+01  0.8545E+02
     14.244  0.9330E+01  0.8642E+02
     14.349  0.2347E+01  0.8667E+02
     14.453  0.3724E+01  0.8706E+02
     14.558  0.8925E+01  0.8799E+02
     14.663  0.3766E+00  0.8803E+02
     14.767  0.1025E+02  0.8910E+02
     14.872  0.2230E+01  0.8933E+02
     14.976  0.2402E+01  0.8958E+02
     15.081  0.1593E+02  0.9125E+02
     15.185  0.2183E+01  0.9148E+02
     15.290  0.5068E+01  0.9201E+02
     15.394  0.6701E+01  0.9271E+02
     15.499  0.1180E+02  0.9394E+02
     15.604  0.5460E+00  0.9400E+02
     15.708  0.1715E+00  0.9402E+02
     15.813  0.9669E+01  0.9503E+02
     15.917  0.3810E+01  0.9543E+02
     16.022  0.5287E+01  0.9598E+02
     16.126  0.1907E+00  0.9600E+02
     16.231  0.4151E-05  0.9600E+02
     16.335  0.1982E-13  0.9600E+02
     16.440  0.0000E+00  0.9600E+02
     16.545  0.0000E+00  0.9600E+02
     16.649  0.0000E+00  0.9600E+02
     16.754  0.0000E+00  0.9600E+02
     16.858  0.0000E+00  0.9600E+02
     16.963  0.0000E+00  0.9600E+02
     17.067  0.0000E+00  0.9600E+02
     17.172  0.0000E+00  0.9600E+02
     17.277  0.0000E+00  0.9600E+02
     17.381  0.0000E+00  0.9600E+02
