<?xml version="1.0" encoding="ISO-8859-1"?>
<modeling>
 <generator>
  <i name="program" type="string">vasp </i>
  <i name="version" type="string">6.4.3  </i>
  <i name="subversion" type="string">19Mar24 (build May 31 2024 16:31:43) complex                          parallel </i>
  <i name="platform" type="string">LinuxIFC </i>
  <i name="date" type="string">2024 10 31 </i>
  <i name="time" type="string">00:21:47 </i>
 </generator>
 <incar>
  <i type="string" name="SYSTEM">Kpoints</i>
  <i type="int" name="ISTART">     0</i>
  <i type="string" name="PREC">Accurate</i>
  <i type="string" name="ALGO">Normal</i>
  <i type="int" name="ISPIN">     1</i>
  <i type="int" name="ICHARG">     2</i>
  <i type="int" name="NELM">   100</i>
  <i type="int" name="IBRION">    -1</i>
  <i name="EDIFF">      0.00000100</i>
  <i name="EDIFFG">     -0.00100000</i>
  <i type="int" name="NSW">     0</i>
  <i type="int" name="ISIF">     2</i>
  <i name="ENCUT">    480.00000000</i>
  <i name="POTIM">      0.50000000</i>
  <i type="int" name="ISMEAR">     0</i>
  <i name="SIGMA">      0.05000000</i>
  <i type="logical" name="LWAVE"> F  </i>
  <i type="logical" name="LCHARG"> F  </i>
  <i type="string" name="GGA">PE</i>
 </incar>
 <primitive_cell>
  <structure name="primitive_cell" >
   <crystal>
    <varray name="basis" >
     <v>       5.69700000       0.00000000       0.00000000 </v>
     <v>       0.00000000       4.04790000       0.00000000 </v>
     <v>       0.00000000       0.00000000       6.20420000 </v>
    </varray>
    <i name="volume">    143.07435078 </i>
    <varray name="rec_basis" >
     <v>       0.17553098       0.00000000       0.00000000 </v>
     <v>       0.00000000       0.24704168       0.00000000 </v>
     <v>       0.00000000       0.00000000       0.16118114 </v>
    </varray>
   </crystal>
   <varray name="positions" >
    <v>       0.52123000       0.50000000       0.63796000 </v>
    <v>       0.47877000       0.50000000       0.36204000 </v>
    <v>       0.97877000       0.50000000       0.63796000 </v>
    <v>       0.02123000       0.50000000       0.36204000 </v>
    <v>       0.60090000       0.50000000       0.89991000 </v>
    <v>       0.39910000       0.50000000       0.10009000 </v>
    <v>       0.89910000       0.50000000       0.89991000 </v>
    <v>       0.10090000       0.50000000       0.10009000 </v>
    <v>       0.75000000       0.79171000       0.72973000 </v>
    <v>       0.25000000       0.20829000       0.27027000 </v>
    <v>       0.75000000       0.20829000       0.72973000 </v>
    <v>       0.25000000       0.79171000       0.27027000 </v>
    <v>       0.25000000       0.50000000       0.52367000 </v>
    <v>       0.75000000       0.50000000       0.47633000 </v>
   </varray>
  </structure>
  <varray name="primitive_index" >
   <v type="int" >        1 </v>
   <v type="int" >        2 </v>
   <v type="int" >        3 </v>
   <v type="int" >        4 </v>
   <v type="int" >        5 </v>
   <v type="int" >        6 </v>
   <v type="int" >        7 </v>
   <v type="int" >        8 </v>
   <v type="int" >        9 </v>
   <v type="int" >       10 </v>
   <v type="int" >       11 </v>
   <v type="int" >       12 </v>
   <v type="int" >       13 </v>
   <v type="int" >       14 </v>
  </varray>
 </primitive_cell>
 <kpoints>
  <generation param="Monkhorst-Pack">
   <v type="int" name="divisions">       2        3        2 </v>
   <v name="usershift">      0.00000000       0.00000000       0.00000000 </v>
   <v name="genvec1">      0.50000000       0.00000000       0.00000000 </v>
   <v name="genvec2">      0.00000000       0.33333333       0.00000000 </v>
   <v name="genvec3">      0.00000000       0.00000000       0.50000000 </v>
   <v name="shift">      0.50000000       0.00000000       0.50000000 </v>
  </generation>
  <varray name="kpointlist" >
   <v>       0.25000000       0.00000000       0.25000000 </v>
   <v>       0.25000000       0.33333333       0.25000000 </v>
  </varray>
  <varray name="weights" >
   <v>       0.33333333 </v>
   <v>       0.66666667 </v>
  </varray>
 </kpoints>
 <parameters>
  <separator name="general" >
   <i type="string" name="SYSTEM">Kpoints</i>
   <i type="logical" name="LCOMPAT"> F  </i>
  </separator>
  <separator name="electronic" >
   <i type="string" name="PREC">accura</i>
   <i name="ENMAX">    480.00000000</i>
   <i name="ENAUG">    535.51400000</i>
   <i name="EDIFF">      0.00000100</i>
   <i type="int" name="IALGO">    38</i>
   <i type="int" name="IWAVPR">    10</i>
   <i type="int" name="NBANDS">    48</i>
   <i type="int" name="NBANDSLOW">    -1</i>
   <i type="int" name="NBANDSHIGH">    -1</i>
   <i name="NELECT">     42.00000000</i>
   <i type="int" name="TURBO">     0</i>
   <i type="int" name="IRESTART">     0</i>
   <i type="int" name="NREBOOT">     0</i>
   <i type="int" name="NMIN">     0</i>
   <i name="EREF">      0.00000000</i>
   <separator name="electronic smearing" >
    <i type="int" name="ISMEAR">     0</i>
    <i name="SIGMA">      0.05000000</i>
    <i name="KSPACING">      0.50000000</i>
    <i type="logical" name="KGAMMA"> T  </i>
    <i type="logical" name="KBLOWUP"> T  </i>
   </separator>
   <separator name="electronic projectors" >
    <i type="logical" name="LREAL"> F  </i>
    <v name="ROPT">      0.00000000</v>
    <i type="int" name="LMAXPAW">  -100</i>
    <i type="int" name="LMAXMIX">     2</i>
    <i type="logical" name="NLSPLINE"> F  </i>
   </separator>
   <separator name="electronic startup" >
    <i type="int" name="ISTART">     0</i>
    <i type="int" name="ICHARG">     2</i>
    <i type="int" name="INIWAV">     1</i>
   </separator>
   <separator name="electronic spin" >
    <i type="int" name="ISPIN">     1</i>
    <i type="logical" name="LNONCOLLINEAR"> F  </i>
    <v name="MAGMOM">      1.00000000      1.00000000      1.00000000      1.00000000      1.00000000      1.00000000      1.00000000      1.00000000      1.00000000      1.00000000      1.00000000      1.00000000      1.00000000      1.00000000</v>
    <i name="NUPDOWN">     -1.00000000</i>
    <i type="logical" name="LSORBIT"> F  </i>
    <v name="SAXIS">      0.00000000      0.00000000      1.00000000</v>
    <i type="logical" name="LSPIRAL"> F  </i>
    <v name="QSPIRAL">      0.00000000      0.00000000      0.00000000</v>
    <i type="logical" name="LZEROZ"> F  </i>
   </separator>
   <separator name="electronic exchange-correlation" >
    <i type="logical" name="LASPH"> F  </i>
   </separator>
   <separator name="electronic convergence" >
    <i type="int" name="NELM">   100</i>
    <i type="int" name="NELMDL">    -5</i>
    <i type="int" name="NELMIN">     2</i>
    <i name="ENINI">    480.00000000</i>
    <separator name="electronic convergence detail" >
     <i type="logical" name="LDIAG"> T  </i>
     <i type="logical" name="LSUBROT"> F  </i>
     <i name="WEIMIN">      0.00000000</i>
     <i name="EBREAK">      0.00000001</i>
     <i name="DEPER">      0.30000000</i>
     <i type="int" name="NRMM">     4</i>
     <i name="TIME">      0.40000000</i>
    </separator>
   </separator>
   <separator name="electronic mixer" >
    <i name="AMIX">      0.40000000</i>
    <i name="BMIX">      1.00000000</i>
    <i name="AMIN">      0.10000000</i>
    <i name="AMIX_MAG">      1.60000000</i>
    <i name="BMIX_MAG">      1.00000000</i>
    <separator name="electronic mixer details" >
     <i type="int" name="IMIX">     4</i>
     <i type="logical" name="MIXFIRST"> F  </i>
     <i type="int" name="MAXMIX">   -45</i>
     <i name="WC">    100.00000000</i>
     <i type="int" name="INIMIX">     1</i>
     <i type="int" name="MIXPRE">     1</i>
     <i type="int" name="MREMOVE">     5</i>
    </separator>
   </separator>
   <separator name="electronic dipolcorrection" >
    <i type="logical" name="LDIPOL"> F  </i>
    <i type="logical" name="LMONO"> F  </i>
    <i type="int" name="IDIPOL">     0</i>
    <i name="EPSILON">      1.00000000</i>
    <v name="DIPOL">   -100.00000000   -100.00000000   -100.00000000</v>
    <i name="EFIELD">      0.00000000</i>
    <i type="logical" name="LVACPOTAV"> F  </i>
   </separator>
  </separator>
  <separator name="grids" >
   <i type="int" name="NGX">    42</i>
   <i type="int" name="NGY">    30</i>
   <i type="int" name="NGZ">    48</i>
   <i type="int" name="NGXF">    84</i>
   <i type="int" name="NGYF">    60</i>
   <i type="int" name="NGZF">    96</i>
   <i type="logical" name="ADDGRID"> F  </i>
  </separator>
  <separator name="ionic" >
   <i type="int" name="NSW">     0</i>
   <i type="int" name="IBRION">    -1</i>
   <i type="int" name="MDALGO">     0</i>
   <i type="int" name="ISIF">     2</i>
   <i name="PSTRESS">      0.00000000</i>
   <i name="EDIFFG">     -0.00100000</i>
   <i type="int" name="NFREE">     0</i>
   <i name="POTIM">      0.50000000</i>
   <i name="SMASS">     -3.00000000</i>
   <i name="SCALEE">      1.00000000</i>
  </separator>
  <separator name="ionic md" >
   <i name="TEBEG">      0.00010000</i>
   <i name="TEEND">      0.00010000</i>
   <i type="int" name="NBLOCK">     1</i>
   <i type="int" name="KBLOCK">     1</i>
   <i type="int" name="NPACO">   256</i>
   <i name="APACO">     10.00000000</i>
  </separator>
  <separator name="symmetry" >
   <i type="int" name="ISYM">     2</i>
   <i name="SYMPREC">      0.00001000</i>
  </separator>
  <separator name="dos" >
   <i type="int" name="LORBIT">     0</i>
   <v name="RWIGS">     -1.00000000</v>
   <i type="int" name="NEDOS">   301</i>
   <i name="EMIN">     10.00000000</i>
   <i name="EMAX">    -10.00000000</i>
   <i name="EFERMI">      0.00000000</i>
  </separator>
  <separator name="writing" >
   <i type="int" name="NWRITE">     2</i>
   <i type="logical" name="LWAVE"> F  </i>
   <i type="logical" name="LDOWNSAMPLE"> F  </i>
   <i type="logical" name="LCHARG"> F  </i>
   <i type="logical" name="LPARD"> F  </i>
   <i type="logical" name="LVTOT"> F  </i>
   <i type="logical" name="LVHAR"> F  </i>
   <i type="logical" name="LELF"> F  </i>
   <i type="logical" name="LOPTICS"> F  </i>
   <v name="STM">      0.00000000      0.00000000      0.00000000      0.00000000      0.00000000      0.00000000      0.00000000</v>
  </separator>
  <separator name="performance" >
   <i type="int" name="NPAR">    24</i>
   <i type="int" name="NSIM">     4</i>
   <i type="int" name="NBLK">    -1</i>
   <i type="logical" name="LPLANE"> T  </i>
   <i type="logical" name="LSCALAPACK"> T  </i>
   <i type="logical" name="LSCAAWARE"> F  </i>
   <i type="logical" name="LSCALU"> F  </i>
   <i type="logical" name="LASYNC"> F  </i>
   <i type="logical" name="LORBITALREAL"> F  </i>
  </separator>
  <separator name="miscellaneous" >
   <i type="int" name="IDIOT">     3</i>
   <i type="int" name="PHON_NSTRUCT">    -1</i>
   <i type="logical" name="LMUSIC"> F  </i>
   <v name="POMASS">     10.81100000</v>
   <v name="DARWINR">      0.00000000</v>
   <v name="DARWINV">      1.00000000</v>
   <i type="logical" name="LCORR"> T  </i>
  </separator>
  <i type="logical" name="GGA_COMPAT"> T  </i>
  <i type="logical" name="LBERRY"> F  </i>
  <i type="int" name="ICORELEVEL">     0</i>
  <i type="logical" name="LDAU"> F  </i>
  <i type="int" name="I_CONSTRAINED_M">     0</i>
  <separator name="electronic exchange-correlation" >
   <i type="string" name="GGA    ">PE</i>
   <i type="string" name="XC_C">1</i>
   <i type="int" name="VOSKOWN">     0</i>
   <i type="logical" name="LHFCALC"> F  </i>
   <i type="string" name="PRECFOCK"></i>
   <i type="logical" name="LSYMGRAD"> F  </i>
   <i type="logical" name="LHFONE"> F  </i>
   <i type="logical" name="LRHFCALC"> F  </i>
   <i type="logical" name="LTHOMAS"> F  </i>
   <i type="logical" name="LMODELHF"> F  </i>
   <i type="logical" name="LFOCKACE"> F  </i>
   <i name="ENCUT4O">     -1.00000000</i>
   <i type="int" name="EXXOEP">     0</i>
   <i type="int" name="FOURORBIT">     0</i>
   <i name="AEXX">      0.00000000</i>
   <i name="HFALPHA">      0.00000000</i>
   <i name="MCALPHA">      0.00000000</i>
   <i name="ALDAX">      1.00000000</i>
   <i name="AGGAX">      1.00000000</i>
   <i name="AMGGAX">      1.00000000</i>
   <i name="ALDAC">      1.00000000</i>
   <i name="AGGAC">      1.00000000</i>
   <i name="AMGGAC">      1.00000000</i>
   <i type="int" name="NKREDX">     1</i>
   <i type="int" name="NKREDY">     1</i>
   <i type="int" name="NKREDZ">     1</i>
   <i type="logical" name="SHIFTRED"> F  </i>
   <i type="logical" name="ODDONLY"> F  </i>
   <i type="logical" name="EVENONLY"> F  </i>
   <i type="int" name="LMAXFOCK">     0</i>
   <i type="int" name="NMAXFOCKAE">     0</i>
   <i type="logical" name="LFOCKAEDFT"> F  </i>
   <i name="HFSCREEN">      0.00000000</i>
   <i name="HFSCREENC">      0.00000000</i>
   <i type="int" name="NBANDSGWLOW">     0</i>
  </separator>
  <separator name="vdW DFT" >
   <i type="logical" name="LUSE_VDW"> F  </i>
   <i type="int" name="IVDW_NL">    -1</i>
   <i type="logical" name="LSPIN_VDW"> F  </i>
   <i name="ZAB_VDW">     -0.84910000</i>
   <i name="GAMMA_VDW">      1.39626340</i>
   <i name="ALPHA_VDW">      0.00000000</i>
   <i name="PARAM1">      0.12340000</i>
   <i name="PARAM2">      1.00000000</i>
   <i name="BPARAM">      6.30000000</i>
   <i name="CPARAM">      0.00930000</i>
  </separator>
  <separator name="model GW" >
   <i type="int" name="MODEL_GW">     0</i>
   <i name="MODEL_EPS0">      6.13175789</i>
   <i name="MODEL_ALPHA">      1.00000000</i>
  </separator>
  <separator name="linear response parameters" >
   <i type="logical" name="LEPSILON"> F  </i>
   <i type="logical" name="LRPA"> F  </i>
   <i type="logical" name="LNABLA"> F  </i>
   <i type="logical" name="LVEL"> F  </i>
   <i name="CSHIFT">      0.10000000</i>
   <i name="OMEGAMAX">     -1.00000000</i>
   <i name="DEG_THRESHOLD">      0.00200000</i>
   <i name="RTIME">     -0.10000000</i>
   <i name="WPLASMAI">      0.00000000</i>
   <v name="DFIELD">      0.00000000      0.00000000      0.00000000</v>
   <v name="WPLASMA">      0.00000000      0.00000000      0.00000000      0.00000000      0.00000000      0.00000000      0.00000000      0.00000000      0.00000000</v>
  </separator>
  <separator name="orbital magnetization" >
   <i type="logical" name="NUCIND"> F  </i>
   <v name="MAGPOS">      0.00000000      0.00000000      0.00000000</v>
   <i type="logical" name="LNICSALL"> T  </i>
   <i type="logical" name="ORBITALMAG"> F  </i>
   <i type="logical" name="LMAGBLOCH"> F  </i>
   <i type="logical" name="LCHIMAG"> F  </i>
   <i type="logical" name="LGAUGE"> T  </i>
   <i type="int" name="MAGATOM">     0</i>
   <v name="MAGDIPOL">      0.00000000      0.00000000      0.00000000</v>
   <v name="AVECCONST">      0.00000000      0.00000000      0.00000000</v>
  </separator>
  <separator name="response functions" >
   <i type="logical" name="LALL_IN_ONE"> F  </i>
   <i type="int" name="IALL_IN_ONE">    -1</i>
   <i type="int" name="NBANDS_WAVE">    -1</i>
   <i type="logical" name="LFINITE_TEMPERATURE"> F  </i>
   <i type="logical" name="LADDER"> F  </i>
   <i type="logical" name="LRPAFORCE"> F  </i>
   <i type="logical" name="LFXC"> F  </i>
   <i type="logical" name="LHARTREE"> T  </i>
   <i type="int" name="IBSE">     0</i>
   <v type="int" name="KPOINT">    -1     0     0     0</v>
   <i type="logical" name="LTCTC"> F  </i>
   <i type="logical" name="LTCTE"> F  </i>
   <i type="logical" name="LTETE"> F  </i>
   <i type="logical" name="LTRIPLET"> F  </i>
   <i type="logical" name="LFXCEPS"> F  </i>
   <i type="logical" name="LFXHEG"> F  </i>
   <i type="int" name="NATURALO">     2</i>
   <i type="logical" name="LHOLEGF"> F  </i>
   <i type="logical" name="L2ORDER"> F  </i>
   <i type="logical" name="LDMP1"> F  </i>
   <i type="logical" name="LMP2LT"> F  </i>
   <i type="logical" name="LSMP2LT"> F  </i>
   <i type="logical" name="LGWLF"> F  </i>
   <i name="ENCUTGW">     -1.60000002</i>
   <i name="ENCUTGWSOFT">     -1.60000002</i>
   <i name="ENCUTLF">     -1.00000000</i>
   <i type="logical" name="ESF_SPLINES"> F  </i>
   <i name="ESF_CONV">      0.01000000</i>
   <i type="int" name="ESF_NINTER">    15</i>
   <i type="int" name="LMAXMP2">    -1</i>
   <i name="SCISSOR">      0.00000000</i>
   <i type="int" name="NOMEGA">     0</i>
   <i type="int" name="NOMEGAR">     0</i>
   <i type="int" name="NBANDSGW">    -1</i>
   <i type="int" name="NBANDSO">    -1</i>
   <i type="int" name="NBANDSV">    -1</i>
   <i type="int" name="NELMGW">     1</i>
   <i type="int" name="NELMHF">     1</i>
   <i type="int" name="DIM">     3</i>
   <i type="int" name="IESPILON">     4</i>
   <i type="int" name="ANTIRES">     0</i>
   <i name="OMEGAMAX">    -30.00000000</i>
   <i name="OMEGAMIN">    -30.00000000</i>
   <i name="OMEGATL">   -200.00000000</i>
   <i type="int" name="OMEGAGRID">     0</i>
   <i name="CSHIFT">     -0.10000000</i>
   <i type="logical" name="LSELFENERGY"> F  </i>
   <i type="logical" name="LSPECTRAL"> F  </i>
   <i type="logical" name="LSPECTRALGW"> F  </i>
   <i type="logical" name="LSINGLES"> F  </i>
   <i type="logical" name="LFERMIGW"> F  </i>
   <i type="logical" name="ODDONLYGW"> F  </i>
   <i type="logical" name="EVENONLYGW"> F  </i>
   <i type="int" name="NKREDLFX">     1</i>
   <i type="int" name="NKREDLFY">     1</i>
   <i type="int" name="NKREDLFZ">     1</i>
   <i type="int" name="MAXMEM">  2800</i>
   <i type="int" name="TELESCOPE">     0</i>
   <i type="int" name="NTAUPAR">    -1</i>
   <i type="int" name="NOMEGAPAR">    -1</i>
   <i name="DAMP_NEWTON">      0.80000001</i>
   <i name="LAMBDA">      1.00000000</i>
  </separator>
  <separator name="External order field" >
   <i name="OFIELD_KAPPA">      0.00000000</i>
   <v name="OFIELD_K">      0.00000000      0.00000000      0.00000000</v>
   <i name="OFIELD_Q6_NEAR">      0.00000000</i>
   <i name="OFIELD_Q6_FAR">      0.00000000</i>
   <i name="OFIELD_A">      0.00000000</i>
  </separator>
  <separator name="optional k-points parameters" >
   <i type="int" name="KPOINTS_OPT_MODE">     1</i>
   <i type="logical" name="LKPOINTS_OPT"> F  </i>
  </separator>
 </parameters>
 <atominfo>
  <atoms>      14 </atoms>
  <types>       1 </types>
  <array name="atoms" >
   <dimension dim="1">ion</dimension>
   <field type="string">element</field>
   <field type="int">atomtype</field>
   <set>
    <rc><c>B </c><c>   1</c></rc>
    <rc><c>B </c><c>   1</c></rc>
    <rc><c>B </c><c>   1</c></rc>
    <rc><c>B </c><c>   1</c></rc>
    <rc><c>B </c><c>   1</c></rc>
    <rc><c>B </c><c>   1</c></rc>
    <rc><c>B </c><c>   1</c></rc>
    <rc><c>B </c><c>   1</c></rc>
    <rc><c>B </c><c>   1</c></rc>
    <rc><c>B </c><c>   1</c></rc>
    <rc><c>B </c><c>   1</c></rc>
    <rc><c>B </c><c>   1</c></rc>
    <rc><c>B </c><c>   1</c></rc>
    <rc><c>B </c><c>   1</c></rc>
   </set>
  </array>
  <array name="atomtypes" >
   <dimension dim="1">type</dimension>
   <field type="int">atomspertype</field>
   <field type="string">element</field>
   <field>mass</field>
   <field>valence</field>
   <field type="string">pseudopotential</field>
   <set>
    <rc><c>  14</c><c>B </c><c>     10.81100000</c><c>      3.00000000</c><c>  PAW_PBE B 06Sep2000                   </c></rc>
   </set>
  </array>
 </atominfo>
 <structure name="initialpos" >
  <crystal>
   <varray name="basis" >
    <v>       5.69700000       0.00000000       0.00000000 </v>
    <v>       0.00000000       4.04790000       0.00000000 </v>
    <v>       0.00000000       0.00000000       6.20420000 </v>
   </varray>
   <i name="volume">    143.07435078 </i>
   <varray name="rec_basis" >
    <v>       0.17553098       0.00000000       0.00000000 </v>
    <v>       0.00000000       0.24704168       0.00000000 </v>
    <v>       0.00000000       0.00000000       0.16118114 </v>
   </varray>
  </crystal>
  <varray name="positions" >
   <v>       0.52123000       0.50000000       0.63796000 </v>
   <v>       0.47877000       0.50000000       0.36204000 </v>
   <v>       0.97877000       0.50000000       0.63796000 </v>
   <v>       0.02123000       0.50000000       0.36204000 </v>
   <v>       0.60090000       0.50000000       0.89991000 </v>
   <v>       0.39910000       0.50000000       0.10009000 </v>
   <v>       0.89910000       0.50000000       0.89991000 </v>
   <v>       0.10090000       0.50000000       0.10009000 </v>
   <v>       0.75000000       0.79171000       0.72973000 </v>
   <v>       0.25000000       0.20829000       0.27027000 </v>
   <v>       0.75000000       0.20829000       0.72973000 </v>
   <v>       0.25000000       0.79171000       0.27027000 </v>
   <v>       0.25000000       0.50000000       0.52367000 </v>
   <v>       0.75000000       0.50000000       0.47633000 </v>
  </varray>
 </structure>
 <calculation>
  <scstep>
   <time name="dav">    0.09    0.09</time>
   <time name="total">    0.10    0.11</time>
   <energy>
    <i name="alphaZ">     94.24357992 </i>
    <i name="ewald">   -795.76658092 </i>
    <i name="hartreedc">   -271.33601302 </i>
    <i name="XCdc">     97.50108136 </i>
    <i name="pawpsdc">    608.99811708 </i>
    <i name="pawaedc">   -597.02363782 </i>
    <i name="eentropy">     -0.00000000 </i>
    <i name="bandstr">    -73.47879728 </i>
    <i name="atom">    996.36613177 </i>
    <i name="e_fr_energy">     59.50388109 </i>
    <i name="e_wo_entrp">     59.50388109 </i>
    <i name="e_0_energy">     59.50388109 </i>
   </energy>
  </scstep>
  <scstep>
   <time name="dav">    0.07    0.07</time>
   <time name="total">    0.07    0.07</time>
   <energy>
    <i name="e_fr_energy">    -92.47347181 </i>
    <i name="e_wo_entrp">    -92.47339679 </i>
    <i name="e_0_energy">    -92.47343430 </i>
   </energy>
  </scstep>
  <scstep>
   <time name="dav">    0.07    0.08</time>
   <time name="total">    0.08    0.08</time>
   <energy>
    <i name="e_fr_energy">    -97.38357992 </i>
    <i name="e_wo_entrp">    -97.37121906 </i>
    <i name="e_0_energy">    -97.37739949 </i>
   </energy>
  </scstep>
  <scstep>
   <time name="dav">    0.05    0.05</time>
   <time name="total">    0.05    0.05</time>
   <energy>
    <i name="e_fr_energy">    -97.41153749 </i>
    <i name="e_wo_entrp">    -97.39912859 </i>
    <i name="e_0_energy">    -97.40533304 </i>
   </energy>
  </scstep>
  <scstep>
   <time name="dav">    0.07    0.07</time>
   <time name="total">    0.08    0.08</time>
   <energy>
    <i name="e_fr_energy">    -97.41183452 </i>
    <i name="e_wo_entrp">    -97.39942603 </i>
    <i name="e_0_energy">    -97.40563028 </i>
   </energy>
  </scstep>
  <scstep>
   <time name="dav">    0.07    0.08</time>
   <time name="total">    0.09    0.10</time>
   <energy>
    <i name="e_fr_energy">    -91.94119691 </i>
    <i name="e_wo_entrp">    -91.93254072 </i>
    <i name="e_0_energy">    -91.93686882 </i>
   </energy>
  </scstep>
  <scstep>
   <time name="dav">    0.07    0.07</time>
   <time name="total">    0.09    0.10</time>
   <energy>
    <i name="e_fr_energy">    -90.24149036 </i>
    <i name="e_wo_entrp">    -90.23706749 </i>
    <i name="e_0_energy">    -90.23927893 </i>
   </energy>
  </scstep>
  <scstep>
   <time name="dav">    0.05    0.05</time>
   <time name="total">    0.07    0.07</time>
   <energy>
    <i name="e_fr_energy">    -90.25011037 </i>
    <i name="e_wo_entrp">    -90.24547480 </i>
    <i name="e_0_energy">    -90.24779259 </i>
   </energy>
  </scstep>
  <scstep>
   <time name="dav">    0.07    0.07</time>
   <time name="total">    0.09    0.09</time>
   <energy>
    <i name="e_fr_energy">    -90.26369376 </i>
    <i name="e_wo_entrp">    -90.25895067 </i>
    <i name="e_0_energy">    -90.26132221 </i>
   </energy>
  </scstep>
  <scstep>
   <time name="dav">    0.05    0.05</time>
   <time name="total">    0.07    0.07</time>
   <energy>
    <i name="e_fr_energy">    -90.26849965 </i>
    <i name="e_wo_entrp">    -90.26372924 </i>
    <i name="e_0_energy">    -90.26611445 </i>
   </energy>
  </scstep>
  <scstep>
   <time name="dav">    0.07    0.07</time>
   <time name="total">    0.09    0.09</time>
   <energy>
    <i name="e_fr_energy">    -90.26956477 </i>
    <i name="e_wo_entrp">    -90.26480894 </i>
    <i name="e_0_energy">    -90.26718685 </i>
   </energy>
  </scstep>
  <scstep>
   <time name="dav">    0.05    0.05</time>
   <time name="total">    0.07    0.07</time>
   <energy>
    <i name="e_fr_energy">    -90.26963285 </i>
    <i name="e_wo_entrp">    -90.26488435 </i>
    <i name="e_0_energy">    -90.26725860 </i>
   </energy>
  </scstep>
  <scstep>
   <time name="dav">    0.07    0.07</time>
   <time name="total">    0.09    0.09</time>
   <energy>
    <i name="e_fr_energy">    -90.26964815 </i>
    <i name="e_wo_entrp">    -90.26489443 </i>
    <i name="e_0_energy">    -90.26727129 </i>
   </energy>
  </scstep>
  <scstep>
   <time name="dav">    0.04    0.04</time>
   <time name="total">    0.05    0.05</time>
   <energy>
    <i name="alphaZ">     94.24357992 </i>
    <i name="ewald">   -795.76658092 </i>
    <i name="hartreedc">   -349.66850353 </i>
    <i name="XCdc">    101.64252026 </i>
    <i name="pawpsdc">   3727.09876619 </i>
    <i name="pawaedc">  -3716.29660034 </i>
    <i name="eentropy">     -0.00475270 </i>
    <i name="bandstr">   -147.88420930 </i>
    <i name="atom">    996.36613177 </i>
    <i name="e_fr_energy">    -90.26964865 </i>
    <i name="e_wo_entrp">    -90.26489595 </i>
    <i name="e_0_energy">    -90.26727230 </i>
   </energy>
  </scstep>
  <structure>
   <crystal>
    <varray name="basis" >
     <v>       5.69700000       0.00000000       0.00000000 </v>
     <v>       0.00000000       4.04790000       0.00000000 </v>
     <v>       0.00000000       0.00000000       6.20420000 </v>
    </varray>
    <i name="volume">    143.07435078 </i>
    <varray name="rec_basis" >
     <v>       0.17553098       0.00000000       0.00000000 </v>
     <v>       0.00000000       0.24704168       0.00000000 </v>
     <v>       0.00000000       0.00000000       0.16118114 </v>
    </varray>
   </crystal>
   <varray name="positions" >
    <v>       0.52123000       0.50000000       0.63796000 </v>
    <v>       0.47877000       0.50000000       0.36204000 </v>
    <v>       0.97877000       0.50000000       0.63796000 </v>
    <v>       0.02123000       0.50000000       0.36204000 </v>
    <v>       0.60090000       0.50000000       0.89991000 </v>
    <v>       0.39910000       0.50000000       0.10009000 </v>
    <v>       0.89910000       0.50000000       0.89991000 </v>
    <v>       0.10090000       0.50000000       0.10009000 </v>
    <v>       0.75000000       0.79171000       0.72973000 </v>
    <v>       0.25000000       0.20829000       0.27027000 </v>
    <v>       0.75000000       0.20829000       0.72973000 </v>
    <v>       0.25000000       0.79171000       0.27027000 </v>
    <v>       0.25000000       0.50000000       0.52367000 </v>
    <v>       0.75000000       0.50000000       0.47633000 </v>
   </varray>
  </structure>
  <varray name="forces" >
   <v>       0.11980867       0.00000000       0.08538605 </v>
   <v>      -0.11980867       0.00000000      -0.08538605 </v>
   <v>      -0.11980867       0.00000000       0.08538605 </v>
   <v>       0.11980867       0.00000000      -0.08538605 </v>
   <v>      -0.67754426       0.00000000       0.36281180 </v>
   <v>       0.67754426       0.00000000      -0.36281180 </v>
   <v>       0.67754426       0.00000000       0.36281180 </v>
   <v>      -0.67754426       0.00000000      -0.36281180 </v>
   <v>      -0.00000000       1.20369268      -0.02785699 </v>
   <v>      -0.00000000      -1.20369268       0.02785699 </v>
   <v>      -0.00000000      -1.20369268      -0.02785699 </v>
   <v>      -0.00000000       1.20369268       0.02785699 </v>
   <v>      -0.00000000       0.00000000      -0.20322428 </v>
   <v>      -0.00000000       0.00000000       0.20322428 </v>
  </varray>
  <varray name="stress" >
   <v>       4.67068214       0.00000000      -0.00000000 </v>
   <v>       0.00000000      35.77553598       0.00000000 </v>
   <v>      -0.00000000       0.00000000     -14.48408602 </v>
  </varray>
  <energy>
   <i name="e_fr_energy">    -90.26964865 </i>
   <i name="e_wo_entrp">    -90.26489595 </i>
   <i name="e_0_energy">    -90.26727230 </i>
  </energy>
  <time name="totalsc">    1.16    1.21</time>
  <eigenvalues>
   <array>
    <dimension dim="1">band</dimension>
    <dimension dim="2">kpoint</dimension>
    <dimension dim="3">spin</dimension>
    <field>eigene</field>
    <field>occ</field>
    <set>
     <set comment="spin 1">
      <set comment="kpoint 1">
       <r>  -12.5614    1.0000 </r>
       <r>  -11.8247    1.0000 </r>
       <r>   -8.7918    1.0000 </r>
       <r>   -8.3353    1.0000 </r>
       <r>   -6.3168    1.0000 </r>
       <r>   -5.3042    1.0000 </r>
       <r>   -4.7256    1.0000 </r>
       <r>   -3.6863    1.0000 </r>
       <r>   -3.2452    1.0000 </r>
       <r>   -2.6519    1.0000 </r>
       <r>   -2.6006    1.0000 </r>
       <r>   -2.1631    1.0000 </r>
       <r>   -2.0703    1.0000 </r>
       <r>   -1.8177    1.0000 </r>
       <r>   -0.5843    1.0000 </r>
       <r>   -0.4895    1.0000 </r>
       <r>   -0.2310    1.0000 </r>
       <r>    0.2367    1.0000 </r>
       <r>    0.4801    1.0000 </r>
       <r>    1.5635    1.0000 </r>
       <r>    2.1244    0.9550 </r>
       <r>    2.3566    0.0000 </r>
       <r>    5.4106    0.0000 </r>
       <r>    6.0968    0.0000 </r>
       <r>    6.3149    0.0000 </r>
       <r>    6.5851    0.0000 </r>
       <r>    6.7774    0.0000 </r>
       <r>    7.0101    0.0000 </r>
       <r>    8.1759    0.0000 </r>
       <r>    8.7549    0.0000 </r>
       <r>    9.1475    0.0000 </r>
       <r>    9.6966    0.0000 </r>
       <r>    9.8154    0.0000 </r>
       <r>   10.2930    0.0000 </r>
       <r>   10.4349    0.0000 </r>
       <r>   10.6297    0.0000 </r>
       <r>   11.2589    0.0000 </r>
       <r>   11.8467    0.0000 </r>
       <r>   12.2942    0.0000 </r>
       <r>   12.9685    0.0000 </r>
       <r>   13.2372    0.0000 </r>
       <r>   14.0542    0.0000 </r>
       <r>   14.1733    0.0000 </r>
       <r>   14.2302    0.0000 </r>
       <r>   15.0295    0.0000 </r>
       <r>   15.2130    0.0000 </r>
       <r>   15.3582    0.0000 </r>
       <r>   15.9553    0.0000 </r>
      </set>
      <set comment="kpoint 2">
       <r>  -12.3736    1.0000 </r>
       <r>  -11.6465    1.0000 </r>
       <r>   -8.6240    1.0000 </r>
       <r>   -8.1716    1.0000 </r>
       <r>   -6.0743    1.0000 </r>
       <r>   -5.7478    1.0000 </r>
       <r>   -5.0567    1.0000 </r>
       <r>   -5.0300    1.0000 </r>
       <r>   -4.5380    1.0000 </r>
       <r>   -3.0449    1.0000 </r>
       <r>   -2.4189    1.0000 </r>
       <r>   -1.7821    1.0000 </r>
       <r>   -1.6458    1.0000 </r>
       <r>   -1.0910    1.0000 </r>
       <r>   -0.5301    1.0000 </r>
       <r>   -0.4395    1.0000 </r>
       <r>   -0.0188    1.0000 </r>
       <r>    0.4341    1.0000 </r>
       <r>    0.7787    1.0000 </r>
       <r>    1.0331    1.0000 </r>
       <r>    1.5691    1.0000 </r>
       <r>    2.2552    0.0225 </r>
       <r>    5.1863    0.0000 </r>
       <r>    5.7675    0.0000 </r>
       <r>    6.3554    0.0000 </r>
       <r>    7.5693    0.0000 </r>
       <r>    7.8587    0.0000 </r>
       <r>    8.3782    0.0000 </r>
       <r>    8.5970    0.0000 </r>
       <r>    9.0685    0.0000 </r>
       <r>    9.3210    0.0000 </r>
       <r>    9.7374    0.0000 </r>
       <r>   10.2269    0.0000 </r>
       <r>   11.0053    0.0000 </r>
       <r>   11.2604    0.0000 </r>
       <r>   11.4464    0.0000 </r>
       <r>   11.5571    0.0000 </r>
       <r>   12.2382    0.0000 </r>
       <r>   12.2729    0.0000 </r>
       <r>   12.5744    0.0000 </r>
       <r>   12.9746    0.0000 </r>
       <r>   13.4387    0.0000 </r>
       <r>   13.8919    0.0000 </r>
       <r>   14.4727    0.0000 </r>
       <r>   14.7340    0.0000 </r>
       <r>   15.0120    0.0000 </r>
       <r>   15.4382    0.0000 </r>
       <r>   15.7864    0.0000 </r>
      </set>
     </set>
    </set>
   </array>
  </eigenvalues>
  <separator name="orbital magnetization" >
   <v name="MAGDIPOLOUT">      0.00000000      0.00000000      0.00000000</v>
  </separator>
  <dos>
   <i name="efermi">      2.18430807 </i>
   <total>
    <array>
     <dimension dim="1">gridpoints</dimension>
     <dimension dim="2">spin</dimension>
     <field>energy</field>
     <field>total</field>
     <field>integrated</field>
     <set>
      <set comment="spin 1">
       <r>   -13.9872     0.0000     0.0000 </r>
       <r>   -13.8826     0.0000     0.0000 </r>
       <r>   -13.7781     0.0000     0.0000 </r>
       <r>   -13.6735     0.0000     0.0000 </r>
       <r>   -13.5690     0.0000     0.0000 </r>
       <r>   -13.4644     0.0000     0.0000 </r>
       <r>   -13.3598     0.0000     0.0000 </r>
       <r>   -13.2553     0.0000     0.0000 </r>
       <r>   -13.1507     0.0000     0.0000 </r>
       <r>   -13.0462     0.0000     0.0000 </r>
       <r>   -12.9416     0.0000     0.0000 </r>
       <r>   -12.8370     0.0000     0.0000 </r>
       <r>   -12.7325     0.0000     0.0000 </r>
       <r>   -12.6279     0.1907     0.0199 </r>
       <r>   -12.5233     5.2857     0.5726 </r>
       <r>   -12.4188     2.1851     0.8011 </r>
       <r>   -12.3142    10.8742     1.9381 </r>
       <r>   -12.2097     0.5919     2.0000 </r>
       <r>   -12.1051     0.0000     2.0000 </r>
       <r>   -12.0005     0.0000     2.0000 </r>
       <r>   -11.8960     0.1398     2.0146 </r>
       <r>   -11.7914     5.1327     2.5513 </r>
       <r>   -11.6869     2.7174     2.8354 </r>
       <r>   -11.5823    10.6942     3.9536 </r>
       <r>   -11.4777     0.4434     4.0000 </r>
       <r>   -11.3732     0.0000     4.0000 </r>
       <r>   -11.2686     0.0000     4.0000 </r>
       <r>   -11.1641     0.0000     4.0000 </r>
       <r>   -11.0595     0.0000     4.0000 </r>
       <r>   -10.9549     0.0000     4.0000 </r>
       <r>   -10.8504     0.0000     4.0000 </r>
       <r>   -10.7458     0.0000     4.0000 </r>
       <r>   -10.6412     0.0000     4.0000 </r>
       <r>   -10.5367     0.0000     4.0000 </r>
       <r>   -10.4321     0.0000     4.0000 </r>
       <r>   -10.3276     0.0000     4.0000 </r>
       <r>   -10.2230     0.0000     4.0000 </r>
       <r>   -10.1184     0.0000     4.0000 </r>
       <r>   -10.0139     0.0000     4.0000 </r>
       <r>    -9.9093     0.0000     4.0000 </r>
       <r>    -9.8048     0.0000     4.0000 </r>
       <r>    -9.7002     0.0000     4.0000 </r>
       <r>    -9.5956     0.0000     4.0000 </r>
       <r>    -9.4911     0.0000     4.0000 </r>
       <r>    -9.3865     0.0000     4.0000 </r>
       <r>    -9.2820     0.0000     4.0000 </r>
       <r>    -9.1774     0.0000     4.0000 </r>
       <r>    -9.0728     0.0000     4.0000 </r>
       <r>    -8.9683     0.0000     4.0000 </r>
       <r>    -8.8637     0.1340     4.0140 </r>
       <r>    -8.7592     5.1099     4.5483 </r>
       <r>    -8.6546     3.5978     4.9245 </r>
       <r>    -8.5500    10.0535     5.9757 </r>
       <r>    -8.4455     0.2382     6.0006 </r>
       <r>    -8.3409     2.7824     6.2915 </r>
       <r>    -8.2363     3.9988     6.7097 </r>
       <r>    -8.1318    10.6820     7.8266 </r>
       <r>    -8.0272     1.6583     8.0000 </r>
       <r>    -7.9227     0.0003     8.0000 </r>
       <r>    -7.8181     0.0000     8.0000 </r>
       <r>    -7.7135     0.0000     8.0000 </r>
       <r>    -7.6090     0.0000     8.0000 </r>
       <r>    -7.5044     0.0000     8.0000 </r>
       <r>    -7.3999     0.0000     8.0000 </r>
       <r>    -7.2953     0.0000     8.0000 </r>
       <r>    -7.1907     0.0000     8.0000 </r>
       <r>    -7.0862     0.0000     8.0000 </r>
       <r>    -6.9816     0.0000     8.0000 </r>
       <r>    -6.8771     0.0000     8.0000 </r>
       <r>    -6.7725     0.0000     8.0000 </r>
       <r>    -6.6679     0.0000     8.0000 </r>
       <r>    -6.5634     0.0000     8.0000 </r>
       <r>    -6.4588     0.0002     8.0000 </r>
       <r>    -6.3542     0.9226     8.0965 </r>
       <r>    -6.2497     5.2692     8.6474 </r>
       <r>    -6.1451     0.4719     8.6968 </r>
       <r>    -6.0406    10.2968     9.7734 </r>
       <r>    -5.9360     2.1663     9.9999 </r>
       <r>    -5.8314     0.1152    10.0120 </r>
       <r>    -5.7269     9.1028    10.9638 </r>
       <r>    -5.6223     3.5319    11.3331 </r>
       <r>    -5.5178     0.0025    11.3333 </r>
       <r>    -5.4132     0.0065    11.3340 </r>
       <r>    -5.3086     2.8621    11.6333 </r>
       <r>    -5.2041     3.4926    11.9985 </r>
       <r>    -5.0995     1.7679    12.1833 </r>
       <r>    -4.9950    21.1844    14.3984 </r>
       <r>    -4.8904     2.5651    14.6666 </r>
       <r>    -4.7858     0.2827    14.6962 </r>
       <r>    -4.6813     5.4252    15.2634 </r>
       <r>    -4.5767     2.4097    15.5154 </r>
       <r>    -4.4721    10.6109    16.6249 </r>
       <r>    -4.3676     0.3996    16.6667 </r>
       <r>    -4.2630     0.0000    16.6667 </r>
       <r>    -4.1585     0.0000    16.6667 </r>
       <r>    -4.0539     0.0000    16.6667 </r>
       <r>    -3.9493     0.0000    16.6667 </r>
       <r>    -3.8448     0.0000    16.6667 </r>
       <r>    -3.7402     0.4059    16.7091 </r>
       <r>    -3.6357     5.4856    17.2827 </r>
       <r>    -3.5311     0.4843    17.3333 </r>
       <r>    -3.4265     0.0000    17.3333 </r>
       <r>    -3.3220     0.0949    17.3433 </r>
       <r>    -3.2174     4.9013    17.8557 </r>
       <r>    -3.1129     1.7280    18.0364 </r>
       <r>    -3.0083    10.4905    19.1333 </r>
       <r>    -2.9037     1.9125    19.3333 </r>
       <r>    -2.7992     0.0005    19.3333 </r>
       <r>    -2.6946     0.7471    19.4115 </r>
       <r>    -2.5900     9.3055    20.3845 </r>
       <r>    -2.4855     3.0760    20.7061 </r>
       <r>    -2.3809    10.5727    21.8116 </r>
       <r>    -2.2764     1.8060    22.0004 </r>
       <r>    -2.1718     2.5776    22.2699 </r>
       <r>    -2.0672     7.1829    23.0210 </r>
       <r>    -1.9627     2.9800    23.3326 </r>
       <r>    -1.8581     1.0163    23.4388 </r>
       <r>    -1.7536    15.2380    25.0321 </r>
       <r>    -1.6490     8.7891    25.9511 </r>
       <r>    -1.5444     6.8167    26.6639 </r>
       <r>    -1.4399     0.0265    26.6667 </r>
       <r>    -1.3353     0.0000    26.6667 </r>
       <r>    -1.2308     0.0005    26.6667 </r>
       <r>    -1.1262     2.0369    26.8797 </r>
       <r>    -1.0216    10.3971    27.9668 </r>
       <r>    -0.9171     0.3172    28.0000 </r>
       <r>    -0.8125     0.0000    28.0000 </r>
       <r>    -0.7080     0.0015    28.0002 </r>
       <r>    -0.6034     2.1234    28.2222 </r>
       <r>    -0.4988    17.6733    30.0701 </r>
       <r>    -0.3943    17.1539    31.8638 </r>
       <r>    -0.2897     1.6124    32.0323 </r>
       <r>    -0.1851     5.4474    32.6019 </r>
       <r>    -0.0806     1.1340    32.7205 </r>
       <r>     0.0240    10.7971    33.8495 </r>
       <r>     0.1285     1.4466    34.0007 </r>
       <r>     0.2331     2.9244    34.3065 </r>
       <r>     0.3377     3.4716    34.6695 </r>
       <r>     0.4422     8.4047    35.5483 </r>
       <r>     0.5468    10.4973    36.6459 </r>
       <r>     0.6513     0.2006    36.6669 </r>
       <r>     0.7559     3.3100    37.0130 </r>
       <r>     0.8605     9.3077    37.9862 </r>
       <r>     0.9650     0.4767    38.0360 </r>
       <r>     1.0696    10.4783    39.1317 </r>
       <r>     1.1741     1.9283    39.3333 </r>
       <r>     1.2787     0.0004    39.3333 </r>
       <r>     1.3833     0.0000    39.3333 </r>
       <r>     1.4878     0.2402    39.3584 </r>
       <r>     1.5924    14.3150    40.8552 </r>
       <r>     1.6970     4.5700    41.3331 </r>
       <r>     1.8015     0.0024    41.3333 </r>
       <r>     1.9061     0.0000    41.3333 </r>
       <r>     2.0106     0.0041    41.3338 </r>
       <r>     2.1152     2.5327    41.5986 </r>
       <r>     2.2198     5.8331    42.2085 </r>
       <r>     2.3243    11.5879    43.4201 </r>
       <r>     2.4289     5.4154    43.9864 </r>
       <r>     2.5334     0.1302    44.0000 </r>
       <r>     2.6380     0.0000    44.0000 </r>
       <r>     2.7426     0.0000    44.0000 </r>
       <r>     2.8471     0.0000    44.0000 </r>
       <r>     2.9517     0.0000    44.0000 </r>
       <r>     3.0562     0.0000    44.0000 </r>
       <r>     3.1608     0.0000    44.0000 </r>
       <r>     3.2654     0.0000    44.0000 </r>
       <r>     3.3699     0.0000    44.0000 </r>
       <r>     3.4745     0.0000    44.0000 </r>
       <r>     3.5791     0.0000    44.0000 </r>
       <r>     3.6836     0.0000    44.0000 </r>
       <r>     3.7882     0.0000    44.0000 </r>
       <r>     3.8927     0.0000    44.0000 </r>
       <r>     3.9973     0.0000    44.0000 </r>
       <r>     4.1019     0.0000    44.0000 </r>
       <r>     4.2064     0.0000    44.0000 </r>
       <r>     4.3110     0.0000    44.0000 </r>
       <r>     4.4155     0.0000    44.0000 </r>
       <r>     4.5201     0.0000    44.0000 </r>
       <r>     4.6247     0.0000    44.0000 </r>
       <r>     4.7292     0.0000    44.0000 </r>
       <r>     4.8338     0.0000    44.0000 </r>
       <r>     4.9383     0.0000    44.0000 </r>
       <r>     5.0429     0.0003    44.0000 </r>
       <r>     5.1475     1.7363    44.1816 </r>
       <r>     5.2520    10.6140    45.2914 </r>
       <r>     5.3566     0.8048    45.3755 </r>
       <r>     5.4611     5.4852    45.9491 </r>
       <r>     5.5657     0.4869    46.0000 </r>
       <r>     5.6703     0.0382    46.0040 </r>
       <r>     5.7748     7.3909    46.7768 </r>
       <r>     5.8794     5.3129    47.3323 </r>
       <r>     5.9840     0.0144    47.3338 </r>
       <r>     6.0885     2.5949    47.6051 </r>
       <r>     6.1931     3.7578    47.9980 </r>
       <r>     6.2976     2.6638    48.2766 </r>
       <r>     6.4022    15.2577    49.8719 </r>
       <r>     6.5068     1.3097    50.0089 </r>
       <r>     6.6113     4.8290    50.5138 </r>
       <r>     6.7159     1.7220    50.6939 </r>
       <r>     6.8204     5.4030    51.2588 </r>
       <r>     6.9250     0.7641    51.3387 </r>
       <r>     7.0296     4.4703    51.8061 </r>
       <r>     7.1341     1.8528    51.9998 </r>
       <r>     7.2387     0.0014    52.0000 </r>
       <r>     7.3432     0.0000    52.0000 </r>
       <r>     7.4478     0.0038    52.0004 </r>
       <r>     7.5524     4.0261    52.4214 </r>
       <r>     7.6569     8.6378    53.3245 </r>
       <r>     7.7615     0.1223    53.3373 </r>
       <r>     7.8661     7.3922    54.1103 </r>
       <r>     7.9706     5.3115    54.6656 </r>
       <r>     8.0752     0.0238    54.6681 </r>
       <r>     8.1797     3.4467    55.0285 </r>
       <r>     8.2843     2.9586    55.3379 </r>
       <r>     8.3889     7.8410    56.1577 </r>
       <r>     8.4934     4.8818    56.6682 </r>
       <r>     8.5980     6.4997    57.3478 </r>
       <r>     8.7025     6.6602    58.0442 </r>
       <r>     8.8071     5.5063    58.6199 </r>
       <r>     8.9117     0.4469    58.6667 </r>
       <r>     9.0162     0.8869    58.7594 </r>
       <r>     9.1208    12.4102    60.0570 </r>
       <r>     9.2253     5.7857    60.6620 </r>
       <r>     9.3299     7.6898    61.4660 </r>
       <r>     9.4345     5.0982    61.9991 </r>
       <r>     9.5390     0.0085    62.0000 </r>
       <r>     9.6436     0.4773    62.0499 </r>
       <r>     9.7482    13.5245    63.4640 </r>
       <r>     9.8527    10.5661    64.5688 </r>
       <r>     9.9573     0.9354    64.6666 </r>
       <r>    10.0618     0.0002    64.6667 </r>
       <r>    10.1664     0.5550    64.7247 </r>
       <r>    10.2710    12.5357    66.0354 </r>
       <r>    10.3755     6.2713    66.6912 </r>
       <r>    10.4801     5.5009    67.2664 </r>
       <r>    10.5846     1.2852    67.4007 </r>
       <r>    10.6892     5.4363    67.9692 </r>
       <r>    10.7938     0.2950    68.0000 </r>
       <r>    10.8983     0.0159    68.0017 </r>
       <r>    11.0029     6.0153    68.6306 </r>
       <r>    11.1074     6.6962    69.3308 </r>
       <r>    11.2120     1.7076    69.5093 </r>
       <r>    11.3166    16.4055    71.2247 </r>
       <r>    11.4211     4.0704    71.6503 </r>
       <r>    11.5257    11.9460    72.8994 </r>
       <r>    11.6302    10.2797    73.9743 </r>
       <r>    11.7348     0.2511    74.0005 </r>
       <r>    11.8394     2.6599    74.2786 </r>
       <r>    11.9439     3.6921    74.6647 </r>
       <r>    12.0485     0.0190    74.6667 </r>
       <r>    12.1531     0.1072    74.6779 </r>
       <r>    12.2576    14.1380    76.1562 </r>
       <r>    12.3622    17.3838    77.9738 </r>
       <r>    12.4667     0.2651    78.0016 </r>
       <r>    12.5713     5.9158    78.6201 </r>
       <r>    12.6759     6.7949    79.3306 </r>
       <r>    12.7804     0.0262    79.3333 </r>
       <r>    12.8850     0.1296    79.3469 </r>
       <r>    12.9895    12.9488    80.7008 </r>
       <r>    13.0941     6.0435    81.3327 </r>
       <r>    13.1987     0.8864    81.4254 </r>
       <r>    13.3032     5.2994    81.9795 </r>
       <r>    13.4078     2.6262    82.2541 </r>
       <r>    13.5123    10.0830    83.3084 </r>
       <r>    13.6169     0.2382    83.3333 </r>
       <r>    13.7215     0.0000    83.3333 </r>
       <r>    13.8260     0.3983    83.3750 </r>
       <r>    13.9306    10.6096    84.4843 </r>
       <r>    14.0352     3.6251    84.8634 </r>
       <r>    14.1397     5.5698    85.4458 </r>
       <r>    14.2443     9.3296    86.4213 </r>
       <r>    14.3488     2.3473    86.6667 </r>
       <r>    14.4534     3.7244    87.0561 </r>
       <r>    14.5580     8.9253    87.9894 </r>
       <r>    14.6625     0.3766    88.0287 </r>
       <r>    14.7671    10.2462    89.1001 </r>
       <r>    14.8716     2.2304    89.3333 </r>
       <r>    14.9762     2.4025    89.5845 </r>
       <r>    15.0808    15.9262    91.2498 </r>
       <r>    15.1853     2.1832    91.4781 </r>
       <r>    15.2899     5.0675    92.0079 </r>
       <r>    15.3944     6.7011    92.7086 </r>
       <r>    15.4990    11.8047    93.9429 </r>
       <r>    15.6036     0.5460    94.0000 </r>
       <r>    15.7081     0.1715    94.0179 </r>
       <r>    15.8127     9.6686    95.0289 </r>
       <r>    15.9173     3.8099    95.4273 </r>
       <r>    16.0218     5.2869    95.9801 </r>
       <r>    16.1264     0.1907    96.0000 </r>
       <r>    16.2309     0.0000    96.0000 </r>
       <r>    16.3355     0.0000    96.0000 </r>
       <r>    16.4401     0.0000    96.0000 </r>
       <r>    16.5446     0.0000    96.0000 </r>
       <r>    16.6492     0.0000    96.0000 </r>
       <r>    16.7537     0.0000    96.0000 </r>
       <r>    16.8583     0.0000    96.0000 </r>
       <r>    16.9629     0.0000    96.0000 </r>
       <r>    17.0674     0.0000    96.0000 </r>
       <r>    17.1720     0.0000    96.0000 </r>
       <r>    17.2765     0.0000    96.0000 </r>
       <r>    17.3811     0.0000    96.0000 </r>
      </set>
     </set>
    </array>
   </total>
  </dos>
 </calculation>
 <structure name="finalpos" >
  <crystal>
   <varray name="basis" >
    <v>       5.69700000       0.00000000       0.00000000 </v>
    <v>       0.00000000       4.04790000       0.00000000 </v>
    <v>       0.00000000       0.00000000       6.20420000 </v>
   </varray>
   <i name="volume">    143.07435078 </i>
   <varray name="rec_basis" >
    <v>       0.17553098       0.00000000       0.00000000 </v>
    <v>       0.00000000       0.24704168       0.00000000 </v>
    <v>       0.00000000       0.00000000       0.16118114 </v>
   </varray>
  </crystal>
  <varray name="positions" >
   <v>       0.52123000       0.50000000       0.63796000 </v>
   <v>       0.47877000       0.50000000       0.36204000 </v>
   <v>       0.97877000       0.50000000       0.63796000 </v>
   <v>       0.02123000       0.50000000       0.36204000 </v>
   <v>       0.60090000       0.50000000       0.89991000 </v>
   <v>       0.39910000       0.50000000       0.10009000 </v>
   <v>       0.89910000       0.50000000       0.89991000 </v>
   <v>       0.10090000       0.50000000       0.10009000 </v>
   <v>       0.75000000       0.79171000       0.72973000 </v>
   <v>       0.25000000       0.20829000       0.27027000 </v>
   <v>       0.75000000       0.20829000       0.72973000 </v>
   <v>       0.25000000       0.79171000       0.27027000 </v>
   <v>       0.25000000       0.50000000       0.52367000 </v>
   <v>       0.75000000       0.50000000       0.47633000 </v>
  </varray>
 </structure>
</modeling>
