<?xml version="1.0" encoding="ISO-8859-1"?>
<modeling>
 <generator>
  <i name="program" type="string">vasp </i>
  <i name="version" type="string">6.4.3  </i>
  <i name="subversion" type="string">19Mar24 (build May 31 2024 16:31:43) complex                          parallel </i>
  <i name="platform" type="string">LinuxIFC </i>
  <i name="date" type="string">2024 10 31 </i>
  <i name="time" type="string">00:22:37 </i>
 </generator>
 <incar>
  <i type="string" name="SYSTEM">Kpoints</i>
  <i type="int" name="ISTART">     0</i>
  <i type="string" name="PREC">Accurate</i>
  <i type="string" name="ALGO">Normal</i>
  <i type="int" name="ISPIN">     1</i>
  <i type="int" name="ICHARG">     2</i>
  <i type="int" name="NELM">   100</i>
  <i type="int" name="IBRION">    -1</i>
  <i name="EDIFF">      0.00000100</i>
  <i name="EDIFFG">     -0.00100000</i>
  <i type="int" name="NSW">     0</i>
  <i type="int" name="ISIF">     2</i>
  <i name="ENCUT">    480.00000000</i>
  <i name="POTIM">      0.50000000</i>
  <i type="int" name="ISMEAR">     0</i>
  <i name="SIGMA">      0.05000000</i>
  <i type="logical" name="LWAVE"> F  </i>
  <i type="logical" name="LCHARG"> F  </i>
  <i type="string" name="GGA">PE</i>
 </incar>
 <primitive_cell>
  <structure name="primitive_cell" >
   <crystal>
    <varray name="basis" >
     <v>       5.69700000       0.00000000       0.00000000 </v>
     <v>       0.00000000       4.04790000       0.00000000 </v>
     <v>       0.00000000       0.00000000       6.20420000 </v>
    </varray>
    <i name="volume">    143.07435078 </i>
    <varray name="rec_basis" >
     <v>       0.17553098       0.00000000       0.00000000 </v>
     <v>       0.00000000       0.24704168       0.00000000 </v>
     <v>       0.00000000       0.00000000       0.16118114 </v>
    </varray>
   </crystal>
   <varray name="positions" >
    <v>       0.52123000       0.50000000       0.63796000 </v>
    <v>       0.47877000       0.50000000       0.36204000 </v>
    <v>       0.97877000       0.50000000       0.63796000 </v>
    <v>       0.02123000       0.50000000       0.36204000 </v>
    <v>       0.60090000       0.50000000       0.89991000 </v>
    <v>       0.39910000       0.50000000       0.10009000 </v>
    <v>       0.89910000       0.50000000       0.89991000 </v>
    <v>       0.10090000       0.50000000       0.10009000 </v>
    <v>       0.75000000       0.79171000       0.72973000 </v>
    <v>       0.25000000       0.20829000       0.27027000 </v>
    <v>       0.75000000       0.20829000       0.72973000 </v>
    <v>       0.25000000       0.79171000       0.27027000 </v>
    <v>       0.25000000       0.50000000       0.52367000 </v>
    <v>       0.75000000       0.50000000       0.47633000 </v>
   </varray>
  </structure>
  <varray name="primitive_index" >
   <v type="int" >        1 </v>
   <v type="int" >        2 </v>
   <v type="int" >        3 </v>
   <v type="int" >        4 </v>
   <v type="int" >        5 </v>
   <v type="int" >        6 </v>
   <v type="int" >        7 </v>
   <v type="int" >        8 </v>
   <v type="int" >        9 </v>
   <v type="int" >       10 </v>
   <v type="int" >       11 </v>
   <v type="int" >       12 </v>
   <v type="int" >       13 </v>
   <v type="int" >       14 </v>
  </varray>
 </primitive_cell>
 <kpoints>
  <generation param="Monkhorst-Pack">
   <v type="int" name="divisions">      14       20       13 </v>
   <v name="usershift">      0.00000000       0.00000000       0.00000000 </v>
   <v name="genvec1">      0.07142857       0.00000000       0.00000000 </v>
   <v name="genvec2">      0.00000000       0.05000000       0.00000000 </v>
   <v name="genvec3">      0.00000000       0.00000000       0.07692308 </v>
   <v name="shift">      0.50000000       0.50000000       0.00000000 </v>
  </generation>
  <varray name="kpointlist" >
   <v>       0.03571429       0.02500000       0.00000000 </v>
   <v>       0.10714286       0.02500000       0.00000000 </v>
   <v>       0.17857143       0.02500000       0.00000000 </v>
   <v>       0.25000000       0.02500000       0.00000000 </v>
   <v>       0.32142857       0.02500000       0.00000000 </v>
   <v>       0.39285714       0.02500000       0.00000000 </v>
   <v>       0.46428571       0.02500000       0.00000000 </v>
   <v>       0.03571429       0.07500000       0.00000000 </v>
   <v>       0.10714286       0.07500000       0.00000000 </v>
   <v>       0.17857143       0.07500000       0.00000000 </v>
   <v>       0.25000000       0.07500000       0.00000000 </v>
   <v>       0.32142857       0.07500000       0.00000000 </v>
   <v>       0.39285714       0.07500000       0.00000000 </v>
   <v>       0.46428571       0.07500000       0.00000000 </v>
   <v>       0.03571429       0.12500000       0.00000000 </v>
   <v>       0.10714286       0.12500000       0.00000000 </v>
   <v>       0.17857143       0.12500000       0.00000000 </v>
   <v>       0.25000000       0.12500000       0.00000000 </v>
   <v>       0.32142857       0.12500000       0.00000000 </v>
   <v>       0.39285714       0.12500000       0.00000000 </v>
   <v>       0.46428571       0.12500000       0.00000000 </v>
   <v>       0.03571429       0.17500000       0.00000000 </v>
   <v>       0.10714286       0.17500000       0.00000000 </v>
   <v>       0.17857143       0.17500000       0.00000000 </v>
   <v>       0.25000000       0.17500000       0.00000000 </v>
   <v>       0.32142857       0.17500000       0.00000000 </v>
   <v>       0.39285714       0.17500000       0.00000000 </v>
   <v>       0.46428571       0.17500000       0.00000000 </v>
   <v>       0.03571429       0.22500000       0.00000000 </v>
   <v>       0.10714286       0.22500000       0.00000000 </v>
   <v>       0.17857143       0.22500000       0.00000000 </v>
   <v>       0.25000000       0.22500000       0.00000000 </v>
   <v>       0.32142857       0.22500000       0.00000000 </v>
   <v>       0.39285714       0.22500000       0.00000000 </v>
   <v>       0.46428571       0.22500000       0.00000000 </v>
   <v>       0.03571429       0.27500000       0.00000000 </v>
   <v>       0.10714286       0.27500000       0.00000000 </v>
   <v>       0.17857143       0.27500000       0.00000000 </v>
   <v>       0.25000000       0.27500000       0.00000000 </v>
   <v>       0.32142857       0.27500000       0.00000000 </v>
   <v>       0.39285714       0.27500000       0.00000000 </v>
   <v>       0.46428571       0.27500000       0.00000000 </v>
   <v>       0.03571429       0.32500000       0.00000000 </v>
   <v>       0.10714286       0.32500000       0.00000000 </v>
   <v>       0.17857143       0.32500000       0.00000000 </v>
   <v>       0.25000000       0.32500000       0.00000000 </v>
   <v>       0.32142857       0.32500000       0.00000000 </v>
   <v>       0.39285714       0.32500000       0.00000000 </v>
   <v>       0.46428571       0.32500000       0.00000000 </v>
   <v>       0.03571429       0.37500000       0.00000000 </v>
   <v>       0.10714286       0.37500000       0.00000000 </v>
   <v>       0.17857143       0.37500000       0.00000000 </v>
   <v>       0.25000000       0.37500000       0.00000000 </v>
   <v>       0.32142857       0.37500000       0.00000000 </v>
   <v>       0.39285714       0.37500000       0.00000000 </v>
   <v>       0.46428571       0.37500000       0.00000000 </v>
   <v>       0.03571429       0.42500000       0.00000000 </v>
   <v>       0.10714286       0.42500000       0.00000000 </v>
   <v>       0.17857143       0.42500000       0.00000000 </v>
   <v>       0.25000000       0.42500000       0.00000000 </v>
   <v>       0.32142857       0.42500000       0.00000000 </v>
   <v>       0.39285714       0.42500000       0.00000000 </v>
   <v>       0.46428571       0.42500000       0.00000000 </v>
   <v>       0.03571429       0.47500000       0.00000000 </v>
   <v>       0.10714286       0.47500000       0.00000000 </v>
   <v>       0.17857143       0.47500000       0.00000000 </v>
   <v>       0.25000000       0.47500000       0.00000000 </v>
   <v>       0.32142857       0.47500000       0.00000000 </v>
   <v>       0.39285714       0.47500000       0.00000000 </v>
   <v>       0.46428571       0.47500000       0.00000000 </v>
   <v>       0.03571429       0.02500000       0.07692308 </v>
   <v>       0.10714286       0.02500000       0.07692308 </v>
   <v>       0.17857143       0.02500000       0.07692308 </v>
   <v>       0.25000000       0.02500000       0.07692308 </v>
   <v>       0.32142857       0.02500000       0.07692308 </v>
   <v>       0.39285714       0.02500000       0.07692308 </v>
   <v>       0.46428571       0.02500000       0.07692308 </v>
   <v>       0.03571429       0.07500000       0.07692308 </v>
   <v>       0.10714286       0.07500000       0.07692308 </v>
   <v>       0.17857143       0.07500000       0.07692308 </v>
   <v>       0.25000000       0.07500000       0.07692308 </v>
   <v>       0.32142857       0.07500000       0.07692308 </v>
   <v>       0.39285714       0.07500000       0.07692308 </v>
   <v>       0.46428571       0.07500000       0.07692308 </v>
   <v>       0.03571429       0.12500000       0.07692308 </v>
   <v>       0.10714286       0.12500000       0.07692308 </v>
   <v>       0.17857143       0.12500000       0.07692308 </v>
   <v>       0.25000000       0.12500000       0.07692308 </v>
   <v>       0.32142857       0.12500000       0.07692308 </v>
   <v>       0.39285714       0.12500000       0.07692308 </v>
   <v>       0.46428571       0.12500000       0.07692308 </v>
   <v>       0.03571429       0.17500000       0.07692308 </v>
   <v>       0.10714286       0.17500000       0.07692308 </v>
   <v>       0.17857143       0.17500000       0.07692308 </v>
   <v>       0.25000000       0.17500000       0.07692308 </v>
   <v>       0.32142857       0.17500000       0.07692308 </v>
   <v>       0.39285714       0.17500000       0.07692308 </v>
   <v>       0.46428571       0.17500000       0.07692308 </v>
   <v>       0.03571429       0.22500000       0.07692308 </v>
   <v>       0.10714286       0.22500000       0.07692308 </v>
   <v>       0.17857143       0.22500000       0.07692308 </v>
   <v>       0.25000000       0.22500000       0.07692308 </v>
   <v>       0.32142857       0.22500000       0.07692308 </v>
   <v>       0.39285714       0.22500000       0.07692308 </v>
   <v>       0.46428571       0.22500000       0.07692308 </v>
   <v>       0.03571429       0.27500000       0.07692308 </v>
   <v>       0.10714286       0.27500000       0.07692308 </v>
   <v>       0.17857143       0.27500000       0.07692308 </v>
   <v>       0.25000000       0.27500000       0.07692308 </v>
   <v>       0.32142857       0.27500000       0.07692308 </v>
   <v>       0.39285714       0.27500000       0.07692308 </v>
   <v>       0.46428571       0.27500000       0.07692308 </v>
   <v>       0.03571429       0.32500000       0.07692308 </v>
   <v>       0.10714286       0.32500000       0.07692308 </v>
   <v>       0.17857143       0.32500000       0.07692308 </v>
   <v>       0.25000000       0.32500000       0.07692308 </v>
   <v>       0.32142857       0.32500000       0.07692308 </v>
   <v>       0.39285714       0.32500000       0.07692308 </v>
   <v>       0.46428571       0.32500000       0.07692308 </v>
   <v>       0.03571429       0.37500000       0.07692308 </v>
   <v>       0.10714286       0.37500000       0.07692308 </v>
   <v>       0.17857143       0.37500000       0.07692308 </v>
   <v>       0.25000000       0.37500000       0.07692308 </v>
   <v>       0.32142857       0.37500000       0.07692308 </v>
   <v>       0.39285714       0.37500000       0.07692308 </v>
   <v>       0.46428571       0.37500000       0.07692308 </v>
   <v>       0.03571429       0.42500000       0.07692308 </v>
   <v>       0.10714286       0.42500000       0.07692308 </v>
   <v>       0.17857143       0.42500000       0.07692308 </v>
   <v>       0.25000000       0.42500000       0.07692308 </v>
   <v>       0.32142857       0.42500000       0.07692308 </v>
   <v>       0.39285714       0.42500000       0.07692308 </v>
   <v>       0.46428571       0.42500000       0.07692308 </v>
   <v>       0.03571429       0.47500000       0.07692308 </v>
   <v>       0.10714286       0.47500000       0.07692308 </v>
   <v>       0.17857143       0.47500000       0.07692308 </v>
   <v>       0.25000000       0.47500000       0.07692308 </v>
   <v>       0.32142857       0.47500000       0.07692308 </v>
   <v>       0.39285714       0.47500000       0.07692308 </v>
   <v>       0.46428571       0.47500000       0.07692308 </v>
   <v>       0.03571429       0.02500000       0.15384615 </v>
   <v>       0.10714286       0.02500000       0.15384615 </v>
   <v>       0.17857143       0.02500000       0.15384615 </v>
   <v>       0.25000000       0.02500000       0.15384615 </v>
   <v>       0.32142857       0.02500000       0.15384615 </v>
   <v>       0.39285714       0.02500000       0.15384615 </v>
   <v>       0.46428571       0.02500000       0.15384615 </v>
   <v>       0.03571429       0.07500000       0.15384615 </v>
   <v>       0.10714286       0.07500000       0.15384615 </v>
   <v>       0.17857143       0.07500000       0.15384615 </v>
   <v>       0.25000000       0.07500000       0.15384615 </v>
   <v>       0.32142857       0.07500000       0.15384615 </v>
   <v>       0.39285714       0.07500000       0.15384615 </v>
   <v>       0.46428571       0.07500000       0.15384615 </v>
   <v>       0.03571429       0.12500000       0.15384615 </v>
   <v>       0.10714286       0.12500000       0.15384615 </v>
   <v>       0.17857143       0.12500000       0.15384615 </v>
   <v>       0.25000000       0.12500000       0.15384615 </v>
   <v>       0.32142857       0.12500000       0.15384615 </v>
   <v>       0.39285714       0.12500000       0.15384615 </v>
   <v>       0.46428571       0.12500000       0.15384615 </v>
   <v>       0.03571429       0.17500000       0.15384615 </v>
   <v>       0.10714286       0.17500000       0.15384615 </v>
   <v>       0.17857143       0.17500000       0.15384615 </v>
   <v>       0.25000000       0.17500000       0.15384615 </v>
   <v>       0.32142857       0.17500000       0.15384615 </v>
   <v>       0.39285714       0.17500000       0.15384615 </v>
   <v>       0.46428571       0.17500000       0.15384615 </v>
   <v>       0.03571429       0.22500000       0.15384615 </v>
   <v>       0.10714286       0.22500000       0.15384615 </v>
   <v>       0.17857143       0.22500000       0.15384615 </v>
   <v>       0.25000000       0.22500000       0.15384615 </v>
   <v>       0.32142857       0.22500000       0.15384615 </v>
   <v>       0.39285714       0.22500000       0.15384615 </v>
   <v>       0.46428571       0.22500000       0.15384615 </v>
   <v>       0.03571429       0.27500000       0.15384615 </v>
   <v>       0.10714286       0.27500000       0.15384615 </v>
   <v>       0.17857143       0.27500000       0.15384615 </v>
   <v>       0.25000000       0.27500000       0.15384615 </v>
   <v>       0.32142857       0.27500000       0.15384615 </v>
   <v>       0.39285714       0.27500000       0.15384615 </v>
   <v>       0.46428571       0.27500000       0.15384615 </v>
   <v>       0.03571429       0.32500000       0.15384615 </v>
   <v>       0.10714286       0.32500000       0.15384615 </v>
   <v>       0.17857143       0.32500000       0.15384615 </v>
   <v>       0.25000000       0.32500000       0.15384615 </v>
   <v>       0.32142857       0.32500000       0.15384615 </v>
   <v>       0.39285714       0.32500000       0.15384615 </v>
   <v>       0.46428571       0.32500000       0.15384615 </v>
   <v>       0.03571429       0.37500000       0.15384615 </v>
   <v>       0.10714286       0.37500000       0.15384615 </v>
   <v>       0.17857143       0.37500000       0.15384615 </v>
   <v>       0.25000000       0.37500000       0.15384615 </v>
   <v>       0.32142857       0.37500000       0.15384615 </v>
   <v>       0.39285714       0.37500000       0.15384615 </v>
   <v>       0.46428571       0.37500000       0.15384615 </v>
   <v>       0.03571429       0.42500000       0.15384615 </v>
   <v>       0.10714286       0.42500000       0.15384615 </v>
   <v>       0.17857143       0.42500000       0.15384615 </v>
   <v>       0.25000000       0.42500000       0.15384615 </v>
   <v>       0.32142857       0.42500000       0.15384615 </v>
   <v>       0.39285714       0.42500000       0.15384615 </v>
   <v>       0.46428571       0.42500000       0.15384615 </v>
   <v>       0.03571429       0.47500000       0.15384615 </v>
   <v>       0.10714286       0.47500000       0.15384615 </v>
   <v>       0.17857143       0.47500000       0.15384615 </v>
   <v>       0.25000000       0.47500000       0.15384615 </v>
   <v>       0.32142857       0.47500000       0.15384615 </v>
   <v>       0.39285714       0.47500000       0.15384615 </v>
   <v>       0.46428571       0.47500000       0.15384615 </v>
   <v>       0.03571429       0.02500000       0.23076923 </v>
   <v>       0.10714286       0.02500000       0.23076923 </v>
   <v>       0.17857143       0.02500000       0.23076923 </v>
   <v>       0.25000000       0.02500000       0.23076923 </v>
   <v>       0.32142857       0.02500000       0.23076923 </v>
   <v>       0.39285714       0.02500000       0.23076923 </v>
   <v>       0.46428571       0.02500000       0.23076923 </v>
   <v>       0.03571429       0.07500000       0.23076923 </v>
   <v>       0.10714286       0.07500000       0.23076923 </v>
   <v>       0.17857143       0.07500000       0.23076923 </v>
   <v>       0.25000000       0.07500000       0.23076923 </v>
   <v>       0.32142857       0.07500000       0.23076923 </v>
   <v>       0.39285714       0.07500000       0.23076923 </v>
   <v>       0.46428571       0.07500000       0.23076923 </v>
   <v>       0.03571429       0.12500000       0.23076923 </v>
   <v>       0.10714286       0.12500000       0.23076923 </v>
   <v>       0.17857143       0.12500000       0.23076923 </v>
   <v>       0.25000000       0.12500000       0.23076923 </v>
   <v>       0.32142857       0.12500000       0.23076923 </v>
   <v>       0.39285714       0.12500000       0.23076923 </v>
   <v>       0.46428571       0.12500000       0.23076923 </v>
   <v>       0.03571429       0.17500000       0.23076923 </v>
   <v>       0.10714286       0.17500000       0.23076923 </v>
   <v>       0.17857143       0.17500000       0.23076923 </v>
   <v>       0.25000000       0.17500000       0.23076923 </v>
   <v>       0.32142857       0.17500000       0.23076923 </v>
   <v>       0.39285714       0.17500000       0.23076923 </v>
   <v>       0.46428571       0.17500000       0.23076923 </v>
   <v>       0.03571429       0.22500000       0.23076923 </v>
   <v>       0.10714286       0.22500000       0.23076923 </v>
   <v>       0.17857143       0.22500000       0.23076923 </v>
   <v>       0.25000000       0.22500000       0.23076923 </v>
   <v>       0.32142857       0.22500000       0.23076923 </v>
   <v>       0.39285714       0.22500000       0.23076923 </v>
   <v>       0.46428571       0.22500000       0.23076923 </v>
   <v>       0.03571429       0.27500000       0.23076923 </v>
   <v>       0.10714286       0.27500000       0.23076923 </v>
   <v>       0.17857143       0.27500000       0.23076923 </v>
   <v>       0.25000000       0.27500000       0.23076923 </v>
   <v>       0.32142857       0.27500000       0.23076923 </v>
   <v>       0.39285714       0.27500000       0.23076923 </v>
   <v>       0.46428571       0.27500000       0.23076923 </v>
   <v>       0.03571429       0.32500000       0.23076923 </v>
   <v>       0.10714286       0.32500000       0.23076923 </v>
   <v>       0.17857143       0.32500000       0.23076923 </v>
   <v>       0.25000000       0.32500000       0.23076923 </v>
   <v>       0.32142857       0.32500000       0.23076923 </v>
   <v>       0.39285714       0.32500000       0.23076923 </v>
   <v>       0.46428571       0.32500000       0.23076923 </v>
   <v>       0.03571429       0.37500000       0.23076923 </v>
   <v>       0.10714286       0.37500000       0.23076923 </v>
   <v>       0.17857143       0.37500000       0.23076923 </v>
   <v>       0.25000000       0.37500000       0.23076923 </v>
   <v>       0.32142857       0.37500000       0.23076923 </v>
   <v>       0.39285714       0.37500000       0.23076923 </v>
   <v>       0.46428571       0.37500000       0.23076923 </v>
   <v>       0.03571429       0.42500000       0.23076923 </v>
   <v>       0.10714286       0.42500000       0.23076923 </v>
   <v>       0.17857143       0.42500000       0.23076923 </v>
   <v>       0.25000000       0.42500000       0.23076923 </v>
   <v>       0.32142857       0.42500000       0.23076923 </v>
   <v>       0.39285714       0.42500000       0.23076923 </v>
   <v>       0.46428571       0.42500000       0.23076923 </v>
   <v>       0.03571429       0.47500000       0.23076923 </v>
   <v>       0.10714286       0.47500000       0.23076923 </v>
   <v>       0.17857143       0.47500000       0.23076923 </v>
   <v>       0.25000000       0.47500000       0.23076923 </v>
   <v>       0.32142857       0.47500000       0.23076923 </v>
   <v>       0.39285714       0.47500000       0.23076923 </v>
   <v>       0.46428571       0.47500000       0.23076923 </v>
   <v>       0.03571429       0.02500000       0.30769231 </v>
   <v>       0.10714286       0.02500000       0.30769231 </v>
   <v>       0.17857143       0.02500000       0.30769231 </v>
   <v>       0.25000000       0.02500000       0.30769231 </v>
   <v>       0.32142857       0.02500000       0.30769231 </v>
   <v>       0.39285714       0.02500000       0.30769231 </v>
   <v>       0.46428571       0.02500000       0.30769231 </v>
   <v>       0.03571429       0.07500000       0.30769231 </v>
   <v>       0.10714286       0.07500000       0.30769231 </v>
   <v>       0.17857143       0.07500000       0.30769231 </v>
   <v>       0.25000000       0.07500000       0.30769231 </v>
   <v>       0.32142857       0.07500000       0.30769231 </v>
   <v>       0.39285714       0.07500000       0.30769231 </v>
   <v>       0.46428571       0.07500000       0.30769231 </v>
   <v>       0.03571429       0.12500000       0.30769231 </v>
   <v>       0.10714286       0.12500000       0.30769231 </v>
   <v>       0.17857143       0.12500000       0.30769231 </v>
   <v>       0.25000000       0.12500000       0.30769231 </v>
   <v>       0.32142857       0.12500000       0.30769231 </v>
   <v>       0.39285714       0.12500000       0.30769231 </v>
   <v>       0.46428571       0.12500000       0.30769231 </v>
   <v>       0.03571429       0.17500000       0.30769231 </v>
   <v>       0.10714286       0.17500000       0.30769231 </v>
   <v>       0.17857143       0.17500000       0.30769231 </v>
   <v>       0.25000000       0.17500000       0.30769231 </v>
   <v>       0.32142857       0.17500000       0.30769231 </v>
   <v>       0.39285714       0.17500000       0.30769231 </v>
   <v>       0.46428571       0.17500000       0.30769231 </v>
   <v>       0.03571429       0.22500000       0.30769231 </v>
   <v>       0.10714286       0.22500000       0.30769231 </v>
   <v>       0.17857143       0.22500000       0.30769231 </v>
   <v>       0.25000000       0.22500000       0.30769231 </v>
   <v>       0.32142857       0.22500000       0.30769231 </v>
   <v>       0.39285714       0.22500000       0.30769231 </v>
   <v>       0.46428571       0.22500000       0.30769231 </v>
   <v>       0.03571429       0.27500000       0.30769231 </v>
   <v>       0.10714286       0.27500000       0.30769231 </v>
   <v>       0.17857143       0.27500000       0.30769231 </v>
   <v>       0.25000000       0.27500000       0.30769231 </v>
   <v>       0.32142857       0.27500000       0.30769231 </v>
   <v>       0.39285714       0.27500000       0.30769231 </v>
   <v>       0.46428571       0.27500000       0.30769231 </v>
   <v>       0.03571429       0.32500000       0.30769231 </v>
   <v>       0.10714286       0.32500000       0.30769231 </v>
   <v>       0.17857143       0.32500000       0.30769231 </v>
   <v>       0.25000000       0.32500000       0.30769231 </v>
   <v>       0.32142857       0.32500000       0.30769231 </v>
   <v>       0.39285714       0.32500000       0.30769231 </v>
   <v>       0.46428571       0.32500000       0.30769231 </v>
   <v>       0.03571429       0.37500000       0.30769231 </v>
   <v>       0.10714286       0.37500000       0.30769231 </v>
   <v>       0.17857143       0.37500000       0.30769231 </v>
   <v>       0.25000000       0.37500000       0.30769231 </v>
   <v>       0.32142857       0.37500000       0.30769231 </v>
   <v>       0.39285714       0.37500000       0.30769231 </v>
   <v>       0.46428571       0.37500000       0.30769231 </v>
   <v>       0.03571429       0.42500000       0.30769231 </v>
   <v>       0.10714286       0.42500000       0.30769231 </v>
   <v>       0.17857143       0.42500000       0.30769231 </v>
   <v>       0.25000000       0.42500000       0.30769231 </v>
   <v>       0.32142857       0.42500000       0.30769231 </v>
   <v>       0.39285714       0.42500000       0.30769231 </v>
   <v>       0.46428571       0.42500000       0.30769231 </v>
   <v>       0.03571429       0.47500000       0.30769231 </v>
   <v>       0.10714286       0.47500000       0.30769231 </v>
   <v>       0.17857143       0.47500000       0.30769231 </v>
   <v>       0.25000000       0.47500000       0.30769231 </v>
   <v>       0.32142857       0.47500000       0.30769231 </v>
   <v>       0.39285714       0.47500000       0.30769231 </v>
   <v>       0.46428571       0.47500000       0.30769231 </v>
   <v>       0.03571429       0.02500000       0.38461538 </v>
   <v>       0.10714286       0.02500000       0.38461538 </v>
   <v>       0.17857143       0.02500000       0.38461538 </v>
   <v>       0.25000000       0.02500000       0.38461538 </v>
   <v>       0.32142857       0.02500000       0.38461538 </v>
   <v>       0.39285714       0.02500000       0.38461538 </v>
   <v>       0.46428571       0.02500000       0.38461538 </v>
   <v>       0.03571429       0.07500000       0.38461538 </v>
   <v>       0.10714286       0.07500000       0.38461538 </v>
   <v>       0.17857143       0.07500000       0.38461538 </v>
   <v>       0.25000000       0.07500000       0.38461538 </v>
   <v>       0.32142857       0.07500000       0.38461538 </v>
   <v>       0.39285714       0.07500000       0.38461538 </v>
   <v>       0.46428571       0.07500000       0.38461538 </v>
   <v>       0.03571429       0.12500000       0.38461538 </v>
   <v>       0.10714286       0.12500000       0.38461538 </v>
   <v>       0.17857143       0.12500000       0.38461538 </v>
   <v>       0.25000000       0.12500000       0.38461538 </v>
   <v>       0.32142857       0.12500000       0.38461538 </v>
   <v>       0.39285714       0.12500000       0.38461538 </v>
   <v>       0.46428571       0.12500000       0.38461538 </v>
   <v>       0.03571429       0.17500000       0.38461538 </v>
   <v>       0.10714286       0.17500000       0.38461538 </v>
   <v>       0.17857143       0.17500000       0.38461538 </v>
   <v>       0.25000000       0.17500000       0.38461538 </v>
   <v>       0.32142857       0.17500000       0.38461538 </v>
   <v>       0.39285714       0.17500000       0.38461538 </v>
   <v>       0.46428571       0.17500000       0.38461538 </v>
   <v>       0.03571429       0.22500000       0.38461538 </v>
   <v>       0.10714286       0.22500000       0.38461538 </v>
   <v>       0.17857143       0.22500000       0.38461538 </v>
   <v>       0.25000000       0.22500000       0.38461538 </v>
   <v>       0.32142857       0.22500000       0.38461538 </v>
   <v>       0.39285714       0.22500000       0.38461538 </v>
   <v>       0.46428571       0.22500000       0.38461538 </v>
   <v>       0.03571429       0.27500000       0.38461538 </v>
   <v>       0.10714286       0.27500000       0.38461538 </v>
   <v>       0.17857143       0.27500000       0.38461538 </v>
   <v>       0.25000000       0.27500000       0.38461538 </v>
   <v>       0.32142857       0.27500000       0.38461538 </v>
   <v>       0.39285714       0.27500000       0.38461538 </v>
   <v>       0.46428571       0.27500000       0.38461538 </v>
   <v>       0.03571429       0.32500000       0.38461538 </v>
   <v>       0.10714286       0.32500000       0.38461538 </v>
   <v>       0.17857143       0.32500000       0.38461538 </v>
   <v>       0.25000000       0.32500000       0.38461538 </v>
   <v>       0.32142857       0.32500000       0.38461538 </v>
   <v>       0.39285714       0.32500000       0.38461538 </v>
   <v>       0.46428571       0.32500000       0.38461538 </v>
   <v>       0.03571429       0.37500000       0.38461538 </v>
   <v>       0.10714286       0.37500000       0.38461538 </v>
   <v>       0.17857143       0.37500000       0.38461538 </v>
   <v>       0.25000000       0.37500000       0.38461538 </v>
   <v>       0.32142857       0.37500000       0.38461538 </v>
   <v>       0.39285714       0.37500000       0.38461538 </v>
   <v>       0.46428571       0.37500000       0.38461538 </v>
   <v>       0.03571429       0.42500000       0.38461538 </v>
   <v>       0.10714286       0.42500000       0.38461538 </v>
   <v>       0.17857143       0.42500000       0.38461538 </v>
   <v>       0.25000000       0.42500000       0.38461538 </v>
   <v>       0.32142857       0.42500000       0.38461538 </v>
   <v>       0.39285714       0.42500000       0.38461538 </v>
   <v>       0.46428571       0.42500000       0.38461538 </v>
   <v>       0.03571429       0.47500000       0.38461538 </v>
   <v>       0.10714286       0.47500000       0.38461538 </v>
   <v>       0.17857143       0.47500000       0.38461538 </v>
   <v>       0.25000000       0.47500000       0.38461538 </v>
   <v>       0.32142857       0.47500000       0.38461538 </v>
   <v>       0.39285714       0.47500000       0.38461538 </v>
   <v>       0.46428571       0.47500000       0.38461538 </v>
   <v>       0.03571429       0.02500000       0.46153846 </v>
   <v>       0.10714286       0.02500000       0.46153846 </v>
   <v>       0.17857143       0.02500000       0.46153846 </v>
   <v>       0.25000000       0.02500000       0.46153846 </v>
   <v>       0.32142857       0.02500000       0.46153846 </v>
   <v>       0.39285714       0.02500000       0.46153846 </v>
   <v>       0.46428571       0.02500000       0.46153846 </v>
   <v>       0.03571429       0.07500000       0.46153846 </v>
   <v>       0.10714286       0.07500000       0.46153846 </v>
   <v>       0.17857143       0.07500000       0.46153846 </v>
   <v>       0.25000000       0.07500000       0.46153846 </v>
   <v>       0.32142857       0.07500000       0.46153846 </v>
   <v>       0.39285714       0.07500000       0.46153846 </v>
   <v>       0.46428571       0.07500000       0.46153846 </v>
   <v>       0.03571429       0.12500000       0.46153846 </v>
   <v>       0.10714286       0.12500000       0.46153846 </v>
   <v>       0.17857143       0.12500000       0.46153846 </v>
   <v>       0.25000000       0.12500000       0.46153846 </v>
   <v>       0.32142857       0.12500000       0.46153846 </v>
   <v>       0.39285714       0.12500000       0.46153846 </v>
   <v>       0.46428571       0.12500000       0.46153846 </v>
   <v>       0.03571429       0.17500000       0.46153846 </v>
   <v>       0.10714286       0.17500000       0.46153846 </v>
   <v>       0.17857143       0.17500000       0.46153846 </v>
   <v>       0.25000000       0.17500000       0.46153846 </v>
   <v>       0.32142857       0.17500000       0.46153846 </v>
   <v>       0.39285714       0.17500000       0.46153846 </v>
   <v>       0.46428571       0.17500000       0.46153846 </v>
   <v>       0.03571429       0.22500000       0.46153846 </v>
   <v>       0.10714286       0.22500000       0.46153846 </v>
   <v>       0.17857143       0.22500000       0.46153846 </v>
   <v>       0.25000000       0.22500000       0.46153846 </v>
   <v>       0.32142857       0.22500000       0.46153846 </v>
   <v>       0.39285714       0.22500000       0.46153846 </v>
   <v>       0.46428571       0.22500000       0.46153846 </v>
   <v>       0.03571429       0.27500000       0.46153846 </v>
   <v>       0.10714286       0.27500000       0.46153846 </v>
   <v>       0.17857143       0.27500000       0.46153846 </v>
   <v>       0.25000000       0.27500000       0.46153846 </v>
   <v>       0.32142857       0.27500000       0.46153846 </v>
   <v>       0.39285714       0.27500000       0.46153846 </v>
   <v>       0.46428571       0.27500000       0.46153846 </v>
   <v>       0.03571429       0.32500000       0.46153846 </v>
   <v>       0.10714286       0.32500000       0.46153846 </v>
   <v>       0.17857143       0.32500000       0.46153846 </v>
   <v>       0.25000000       0.32500000       0.46153846 </v>
   <v>       0.32142857       0.32500000       0.46153846 </v>
   <v>       0.39285714       0.32500000       0.46153846 </v>
   <v>       0.46428571       0.32500000       0.46153846 </v>
   <v>       0.03571429       0.37500000       0.46153846 </v>
   <v>       0.10714286       0.37500000       0.46153846 </v>
   <v>       0.17857143       0.37500000       0.46153846 </v>
   <v>       0.25000000       0.37500000       0.46153846 </v>
   <v>       0.32142857       0.37500000       0.46153846 </v>
   <v>       0.39285714       0.37500000       0.46153846 </v>
   <v>       0.46428571       0.37500000       0.46153846 </v>
   <v>       0.03571429       0.42500000       0.46153846 </v>
   <v>       0.10714286       0.42500000       0.46153846 </v>
   <v>       0.17857143       0.42500000       0.46153846 </v>
   <v>       0.25000000       0.42500000       0.46153846 </v>
   <v>       0.32142857       0.42500000       0.46153846 </v>
   <v>       0.39285714       0.42500000       0.46153846 </v>
   <v>       0.46428571       0.42500000       0.46153846 </v>
   <v>       0.03571429       0.47500000       0.46153846 </v>
   <v>       0.10714286       0.47500000       0.46153846 </v>
   <v>       0.17857143       0.47500000       0.46153846 </v>
   <v>       0.25000000       0.47500000       0.46153846 </v>
   <v>       0.32142857       0.47500000       0.46153846 </v>
   <v>       0.39285714       0.47500000       0.46153846 </v>
   <v>       0.46428571       0.47500000       0.46153846 </v>
  </varray>
  <varray name="weights" >
   <v>       0.00109890 </v>
   <v>       0.00109890 </v>
   <v>       0.00109890 </v>
   <v>       0.00109890 </v>
   <v>       0.00109890 </v>
   <v>       0.00109890 </v>
   <v>       0.00109890 </v>
   <v>       0.00109890 </v>
   <v>       0.00109890 </v>
   <v>       0.00109890 </v>
   <v>       0.00109890 </v>
   <v>       0.00109890 </v>
   <v>       0.00109890 </v>
   <v>       0.00109890 </v>
   <v>       0.00109890 </v>
   <v>       0.00109890 </v>
   <v>       0.00109890 </v>
   <v>       0.00109890 </v>
   <v>       0.00109890 </v>
   <v>       0.00109890 </v>
   <v>       0.00109890 </v>
   <v>       0.00109890 </v>
   <v>       0.00109890 </v>
   <v>       0.00109890 </v>
   <v>       0.00109890 </v>
   <v>       0.00109890 </v>
   <v>       0.00109890 </v>
   <v>       0.00109890 </v>
   <v>       0.00109890 </v>
   <v>       0.00109890 </v>
   <v>       0.00109890 </v>
   <v>       0.00109890 </v>
   <v>       0.00109890 </v>
   <v>       0.00109890 </v>
   <v>       0.00109890 </v>
   <v>       0.00109890 </v>
   <v>       0.00109890 </v>
   <v>       0.00109890 </v>
   <v>       0.00109890 </v>
   <v>       0.00109890 </v>
   <v>       0.00109890 </v>
   <v>       0.00109890 </v>
   <v>       0.00109890 </v>
   <v>       0.00109890 </v>
   <v>       0.00109890 </v>
   <v>       0.00109890 </v>
   <v>       0.00109890 </v>
   <v>       0.00109890 </v>
   <v>       0.00109890 </v>
   <v>       0.00109890 </v>
   <v>       0.00109890 </v>
   <v>       0.00109890 </v>
   <v>       0.00109890 </v>
   <v>       0.00109890 </v>
   <v>       0.00109890 </v>
   <v>       0.00109890 </v>
   <v>       0.00109890 </v>
   <v>       0.00109890 </v>
   <v>       0.00109890 </v>
   <v>       0.00109890 </v>
   <v>       0.00109890 </v>
   <v>       0.00109890 </v>
   <v>       0.00109890 </v>
   <v>       0.00109890 </v>
   <v>       0.00109890 </v>
   <v>       0.00109890 </v>
   <v>       0.00109890 </v>
   <v>       0.00109890 </v>
   <v>       0.00109890 </v>
   <v>       0.00109890 </v>
   <v>       0.00219780 </v>
   <v>       0.00219780 </v>
   <v>       0.00219780 </v>
   <v>       0.00219780 </v>
   <v>       0.00219780 </v>
   <v>       0.00219780 </v>
   <v>       0.00219780 </v>
   <v>       0.00219780 </v>
   <v>       0.00219780 </v>
   <v>       0.00219780 </v>
   <v>       0.00219780 </v>
   <v>       0.00219780 </v>
   <v>       0.00219780 </v>
   <v>       0.00219780 </v>
   <v>       0.00219780 </v>
   <v>       0.00219780 </v>
   <v>       0.00219780 </v>
   <v>       0.00219780 </v>
   <v>       0.00219780 </v>
   <v>       0.00219780 </v>
   <v>       0.00219780 </v>
   <v>       0.00219780 </v>
   <v>       0.00219780 </v>
   <v>       0.00219780 </v>
   <v>       0.00219780 </v>
   <v>       0.00219780 </v>
   <v>       0.00219780 </v>
   <v>       0.00219780 </v>
   <v>       0.00219780 </v>
   <v>       0.00219780 </v>
   <v>       0.00219780 </v>
   <v>       0.00219780 </v>
   <v>       0.00219780 </v>
   <v>       0.00219780 </v>
   <v>       0.00219780 </v>
   <v>       0.00219780 </v>
   <v>       0.00219780 </v>
   <v>       0.00219780 </v>
   <v>       0.00219780 </v>
   <v>       0.00219780 </v>
   <v>       0.00219780 </v>
   <v>       0.00219780 </v>
   <v>       0.00219780 </v>
   <v>       0.00219780 </v>
   <v>       0.00219780 </v>
   <v>       0.00219780 </v>
   <v>       0.00219780 </v>
   <v>       0.00219780 </v>
   <v>       0.00219780 </v>
   <v>       0.00219780 </v>
   <v>       0.00219780 </v>
   <v>       0.00219780 </v>
   <v>       0.00219780 </v>
   <v>       0.00219780 </v>
   <v>       0.00219780 </v>
   <v>       0.00219780 </v>
   <v>       0.00219780 </v>
   <v>       0.00219780 </v>
   <v>       0.00219780 </v>
   <v>       0.00219780 </v>
   <v>       0.00219780 </v>
   <v>       0.00219780 </v>
   <v>       0.00219780 </v>
   <v>       0.00219780 </v>
   <v>       0.00219780 </v>
   <v>       0.00219780 </v>
   <v>       0.00219780 </v>
   <v>       0.00219780 </v>
   <v>       0.00219780 </v>
   <v>       0.00219780 </v>
   <v>       0.00219780 </v>
   <v>       0.00219780 </v>
   <v>       0.00219780 </v>
   <v>       0.00219780 </v>
   <v>       0.00219780 </v>
   <v>       0.00219780 </v>
   <v>       0.00219780 </v>
   <v>       0.00219780 </v>
   <v>       0.00219780 </v>
   <v>       0.00219780 </v>
   <v>       0.00219780 </v>
   <v>       0.00219780 </v>
   <v>       0.00219780 </v>
   <v>       0.00219780 </v>
   <v>       0.00219780 </v>
   <v>       0.00219780 </v>
   <v>       0.00219780 </v>
   <v>       0.00219780 </v>
   <v>       0.00219780 </v>
   <v>       0.00219780 </v>
   <v>       0.00219780 </v>
   <v>       0.00219780 </v>
   <v>       0.00219780 </v>
   <v>       0.00219780 </v>
   <v>       0.00219780 </v>
   <v>       0.00219780 </v>
   <v>       0.00219780 </v>
   <v>       0.00219780 </v>
   <v>       0.00219780 </v>
   <v>       0.00219780 </v>
   <v>       0.00219780 </v>
   <v>       0.00219780 </v>
   <v>       0.00219780 </v>
   <v>       0.00219780 </v>
   <v>       0.00219780 </v>
   <v>       0.00219780 </v>
   <v>       0.00219780 </v>
   <v>       0.00219780 </v>
   <v>       0.00219780 </v>
   <v>       0.00219780 </v>
   <v>       0.00219780 </v>
   <v>       0.00219780 </v>
   <v>       0.00219780 </v>
   <v>       0.00219780 </v>
   <v>       0.00219780 </v>
   <v>       0.00219780 </v>
   <v>       0.00219780 </v>
   <v>       0.00219780 </v>
   <v>       0.00219780 </v>
   <v>       0.00219780 </v>
   <v>       0.00219780 </v>
   <v>       0.00219780 </v>
   <v>       0.00219780 </v>
   <v>       0.00219780 </v>
   <v>       0.00219780 </v>
   <v>       0.00219780 </v>
   <v>       0.00219780 </v>
   <v>       0.00219780 </v>
   <v>       0.00219780 </v>
   <v>       0.00219780 </v>
   <v>       0.00219780 </v>
   <v>       0.00219780 </v>
   <v>       0.00219780 </v>
   <v>       0.00219780 </v>
   <v>       0.00219780 </v>
   <v>       0.00219780 </v>
   <v>       0.00219780 </v>
   <v>       0.00219780 </v>
   <v>       0.00219780 </v>
   <v>       0.00219780 </v>
   <v>       0.00219780 </v>
   <v>       0.00219780 </v>
   <v>       0.00219780 </v>
   <v>       0.00219780 </v>
   <v>       0.00219780 </v>
   <v>       0.00219780 </v>
   <v>       0.00219780 </v>
   <v>       0.00219780 </v>
   <v>       0.00219780 </v>
   <v>       0.00219780 </v>
   <v>       0.00219780 </v>
   <v>       0.00219780 </v>
   <v>       0.00219780 </v>
   <v>       0.00219780 </v>
   <v>       0.00219780 </v>
   <v>       0.00219780 </v>
   <v>       0.00219780 </v>
   <v>       0.00219780 </v>
   <v>       0.00219780 </v>
   <v>       0.00219780 </v>
   <v>       0.00219780 </v>
   <v>       0.00219780 </v>
   <v>       0.00219780 </v>
   <v>       0.00219780 </v>
   <v>       0.00219780 </v>
   <v>       0.00219780 </v>
   <v>       0.00219780 </v>
   <v>       0.00219780 </v>
   <v>       0.00219780 </v>
   <v>       0.00219780 </v>
   <v>       0.00219780 </v>
   <v>       0.00219780 </v>
   <v>       0.00219780 </v>
   <v>       0.00219780 </v>
   <v>       0.00219780 </v>
   <v>       0.00219780 </v>
   <v>       0.00219780 </v>
   <v>       0.00219780 </v>
   <v>       0.00219780 </v>
   <v>       0.00219780 </v>
   <v>       0.00219780 </v>
   <v>       0.00219780 </v>
   <v>       0.00219780 </v>
   <v>       0.00219780 </v>
   <v>       0.00219780 </v>
   <v>       0.00219780 </v>
   <v>       0.00219780 </v>
   <v>       0.00219780 </v>
   <v>       0.00219780 </v>
   <v>       0.00219780 </v>
   <v>       0.00219780 </v>
   <v>       0.00219780 </v>
   <v>       0.00219780 </v>
   <v>       0.00219780 </v>
   <v>       0.00219780 </v>
   <v>       0.00219780 </v>
   <v>       0.00219780 </v>
   <v>       0.00219780 </v>
   <v>       0.00219780 </v>
   <v>       0.00219780 </v>
   <v>       0.00219780 </v>
   <v>       0.00219780 </v>
   <v>       0.00219780 </v>
   <v>       0.00219780 </v>
   <v>       0.00219780 </v>
   <v>       0.00219780 </v>
   <v>       0.00219780 </v>
   <v>       0.00219780 </v>
   <v>       0.00219780 </v>
   <v>       0.00219780 </v>
   <v>       0.00219780 </v>
   <v>       0.00219780 </v>
   <v>       0.00219780 </v>
   <v>       0.00219780 </v>
   <v>       0.00219780 </v>
   <v>       0.00219780 </v>
   <v>       0.00219780 </v>
   <v>       0.00219780 </v>
   <v>       0.00219780 </v>
   <v>       0.00219780 </v>
   <v>       0.00219780 </v>
   <v>       0.00219780 </v>
   <v>       0.00219780 </v>
   <v>       0.00219780 </v>
   <v>       0.00219780 </v>
   <v>       0.00219780 </v>
   <v>       0.00219780 </v>
   <v>       0.00219780 </v>
   <v>       0.00219780 </v>
   <v>       0.00219780 </v>
   <v>       0.00219780 </v>
   <v>       0.00219780 </v>
   <v>       0.00219780 </v>
   <v>       0.00219780 </v>
   <v>       0.00219780 </v>
   <v>       0.00219780 </v>
   <v>       0.00219780 </v>
   <v>       0.00219780 </v>
   <v>       0.00219780 </v>
   <v>       0.00219780 </v>
   <v>       0.00219780 </v>
   <v>       0.00219780 </v>
   <v>       0.00219780 </v>
   <v>       0.00219780 </v>
   <v>       0.00219780 </v>
   <v>       0.00219780 </v>
   <v>       0.00219780 </v>
   <v>       0.00219780 </v>
   <v>       0.00219780 </v>
   <v>       0.00219780 </v>
   <v>       0.00219780 </v>
   <v>       0.00219780 </v>
   <v>       0.00219780 </v>
   <v>       0.00219780 </v>
   <v>       0.00219780 </v>
   <v>       0.00219780 </v>
   <v>       0.00219780 </v>
   <v>       0.00219780 </v>
   <v>       0.00219780 </v>
   <v>       0.00219780 </v>
   <v>       0.00219780 </v>
   <v>       0.00219780 </v>
   <v>       0.00219780 </v>
   <v>       0.00219780 </v>
   <v>       0.00219780 </v>
   <v>       0.00219780 </v>
   <v>       0.00219780 </v>
   <v>       0.00219780 </v>
   <v>       0.00219780 </v>
   <v>       0.00219780 </v>
   <v>       0.00219780 </v>
   <v>       0.00219780 </v>
   <v>       0.00219780 </v>
   <v>       0.00219780 </v>
   <v>       0.00219780 </v>
   <v>       0.00219780 </v>
   <v>       0.00219780 </v>
   <v>       0.00219780 </v>
   <v>       0.00219780 </v>
   <v>       0.00219780 </v>
   <v>       0.00219780 </v>
   <v>       0.00219780 </v>
   <v>       0.00219780 </v>
   <v>       0.00219780 </v>
   <v>       0.00219780 </v>
   <v>       0.00219780 </v>
   <v>       0.00219780 </v>
   <v>       0.00219780 </v>
   <v>       0.00219780 </v>
   <v>       0.00219780 </v>
   <v>       0.00219780 </v>
   <v>       0.00219780 </v>
   <v>       0.00219780 </v>
   <v>       0.00219780 </v>
   <v>       0.00219780 </v>
   <v>       0.00219780 </v>
   <v>       0.00219780 </v>
   <v>       0.00219780 </v>
   <v>       0.00219780 </v>
   <v>       0.00219780 </v>
   <v>       0.00219780 </v>
   <v>       0.00219780 </v>
   <v>       0.00219780 </v>
   <v>       0.00219780 </v>
   <v>       0.00219780 </v>
   <v>       0.00219780 </v>
   <v>       0.00219780 </v>
   <v>       0.00219780 </v>
   <v>       0.00219780 </v>
   <v>       0.00219780 </v>
   <v>       0.00219780 </v>
   <v>       0.00219780 </v>
   <v>       0.00219780 </v>
   <v>       0.00219780 </v>
   <v>       0.00219780 </v>
   <v>       0.00219780 </v>
   <v>       0.00219780 </v>
   <v>       0.00219780 </v>
   <v>       0.00219780 </v>
   <v>       0.00219780 </v>
   <v>       0.00219780 </v>
   <v>       0.00219780 </v>
   <v>       0.00219780 </v>
   <v>       0.00219780 </v>
   <v>       0.00219780 </v>
   <v>       0.00219780 </v>
   <v>       0.00219780 </v>
   <v>       0.00219780 </v>
   <v>       0.00219780 </v>
   <v>       0.00219780 </v>
   <v>       0.00219780 </v>
   <v>       0.00219780 </v>
   <v>       0.00219780 </v>
   <v>       0.00219780 </v>
   <v>       0.00219780 </v>
   <v>       0.00219780 </v>
   <v>       0.00219780 </v>
   <v>       0.00219780 </v>
   <v>       0.00219780 </v>
   <v>       0.00219780 </v>
   <v>       0.00219780 </v>
   <v>       0.00219780 </v>
   <v>       0.00219780 </v>
   <v>       0.00219780 </v>
   <v>       0.00219780 </v>
   <v>       0.00219780 </v>
   <v>       0.00219780 </v>
   <v>       0.00219780 </v>
   <v>       0.00219780 </v>
   <v>       0.00219780 </v>
   <v>       0.00219780 </v>
   <v>       0.00219780 </v>
   <v>       0.00219780 </v>
   <v>       0.00219780 </v>
   <v>       0.00219780 </v>
   <v>       0.00219780 </v>
   <v>       0.00219780 </v>
   <v>       0.00219780 </v>
   <v>       0.00219780 </v>
   <v>       0.00219780 </v>
   <v>       0.00219780 </v>
   <v>       0.00219780 </v>
   <v>       0.00219780 </v>
   <v>       0.00219780 </v>
   <v>       0.00219780 </v>
   <v>       0.00219780 </v>
   <v>       0.00219780 </v>
   <v>       0.00219780 </v>
   <v>       0.00219780 </v>
   <v>       0.00219780 </v>
   <v>       0.00219780 </v>
   <v>       0.00219780 </v>
   <v>       0.00219780 </v>
   <v>       0.00219780 </v>
   <v>       0.00219780 </v>
   <v>       0.00219780 </v>
   <v>       0.00219780 </v>
   <v>       0.00219780 </v>
   <v>       0.00219780 </v>
   <v>       0.00219780 </v>
   <v>       0.00219780 </v>
   <v>       0.00219780 </v>
   <v>       0.00219780 </v>
   <v>       0.00219780 </v>
   <v>       0.00219780 </v>
   <v>       0.00219780 </v>
   <v>       0.00219780 </v>
   <v>       0.00219780 </v>
   <v>       0.00219780 </v>
   <v>       0.00219780 </v>
   <v>       0.00219780 </v>
   <v>       0.00219780 </v>
   <v>       0.00219780 </v>
   <v>       0.00219780 </v>
   <v>       0.00219780 </v>
   <v>       0.00219780 </v>
   <v>       0.00219780 </v>
   <v>       0.00219780 </v>
   <v>       0.00219780 </v>
   <v>       0.00219780 </v>
   <v>       0.00219780 </v>
   <v>       0.00219780 </v>
   <v>       0.00219780 </v>
   <v>       0.00219780 </v>
   <v>       0.00219780 </v>
   <v>       0.00219780 </v>
   <v>       0.00219780 </v>
   <v>       0.00219780 </v>
   <v>       0.00219780 </v>
   <v>       0.00219780 </v>
   <v>       0.00219780 </v>
   <v>       0.00219780 </v>
   <v>       0.00219780 </v>
   <v>       0.00219780 </v>
   <v>       0.00219780 </v>
   <v>       0.00219780 </v>
   <v>       0.00219780 </v>
   <v>       0.00219780 </v>
   <v>       0.00219780 </v>
   <v>       0.00219780 </v>
  </varray>
 </kpoints>
 <parameters>
  <separator name="general" >
   <i type="string" name="SYSTEM">Kpoints</i>
   <i type="logical" name="LCOMPAT"> F  </i>
  </separator>
  <separator name="electronic" >
   <i type="string" name="PREC">accura</i>
   <i name="ENMAX">    480.00000000</i>
   <i name="ENAUG">    535.51400000</i>
   <i name="EDIFF">      0.00000100</i>
   <i type="int" name="IALGO">    38</i>
   <i type="int" name="IWAVPR">    10</i>
   <i type="int" name="NBANDS">    48</i>
   <i type="int" name="NBANDSLOW">    -1</i>
   <i type="int" name="NBANDSHIGH">    -1</i>
   <i name="NELECT">     42.00000000</i>
   <i type="int" name="TURBO">     0</i>
   <i type="int" name="IRESTART">     0</i>
   <i type="int" name="NREBOOT">     0</i>
   <i type="int" name="NMIN">     0</i>
   <i name="EREF">      0.00000000</i>
   <separator name="electronic smearing" >
    <i type="int" name="ISMEAR">     0</i>
    <i name="SIGMA">      0.05000000</i>
    <i name="KSPACING">      0.50000000</i>
    <i type="logical" name="KGAMMA"> T  </i>
    <i type="logical" name="KBLOWUP"> T  </i>
   </separator>
   <separator name="electronic projectors" >
    <i type="logical" name="LREAL"> F  </i>
    <v name="ROPT">      0.00000000</v>
    <i type="int" name="LMAXPAW">  -100</i>
    <i type="int" name="LMAXMIX">     2</i>
    <i type="logical" name="NLSPLINE"> F  </i>
   </separator>
   <separator name="electronic startup" >
    <i type="int" name="ISTART">     0</i>
    <i type="int" name="ICHARG">     2</i>
    <i type="int" name="INIWAV">     1</i>
   </separator>
   <separator name="electronic spin" >
    <i type="int" name="ISPIN">     1</i>
    <i type="logical" name="LNONCOLLINEAR"> F  </i>
    <v name="MAGMOM">      1.00000000      1.00000000      1.00000000      1.00000000      1.00000000      1.00000000      1.00000000      1.00000000      1.00000000      1.00000000      1.00000000      1.00000000      1.00000000      1.00000000</v>
    <i name="NUPDOWN">     -1.00000000</i>
    <i type="logical" name="LSORBIT"> F  </i>
    <v name="SAXIS">      0.00000000      0.00000000      1.00000000</v>
    <i type="logical" name="LSPIRAL"> F  </i>
    <v name="QSPIRAL">      0.00000000      0.00000000      0.00000000</v>
    <i type="logical" name="LZEROZ"> F  </i>
   </separator>
   <separator name="electronic exchange-correlation" >
    <i type="logical" name="LASPH"> F  </i>
   </separator>
   <separator name="electronic convergence" >
    <i type="int" name="NELM">   100</i>
    <i type="int" name="NELMDL">    -5</i>
    <i type="int" name="NELMIN">     2</i>
    <i name="ENINI">    480.00000000</i>
    <separator name="electronic convergence detail" >
     <i type="logical" name="LDIAG"> T  </i>
     <i type="logical" name="LSUBROT"> F  </i>
     <i name="WEIMIN">      0.00000000</i>
     <i name="EBREAK">      0.00000001</i>
     <i name="DEPER">      0.30000000</i>
     <i type="int" name="NRMM">     4</i>
     <i name="TIME">      0.40000000</i>
    </separator>
   </separator>
   <separator name="electronic mixer" >
    <i name="AMIX">      0.40000000</i>
    <i name="BMIX">      1.00000000</i>
    <i name="AMIN">      0.10000000</i>
    <i name="AMIX_MAG">      1.60000000</i>
    <i name="BMIX_MAG">      1.00000000</i>
    <separator name="electronic mixer details" >
     <i type="int" name="IMIX">     4</i>
     <i type="logical" name="MIXFIRST"> F  </i>
     <i type="int" name="MAXMIX">   -45</i>
     <i name="WC">    100.00000000</i>
     <i type="int" name="INIMIX">     1</i>
     <i type="int" name="MIXPRE">     1</i>
     <i type="int" name="MREMOVE">     5</i>
    </separator>
   </separator>
   <separator name="electronic dipolcorrection" >
    <i type="logical" name="LDIPOL"> F  </i>
    <i type="logical" name="LMONO"> F  </i>
    <i type="int" name="IDIPOL">     0</i>
    <i name="EPSILON">      1.00000000</i>
    <v name="DIPOL">   -100.00000000   -100.00000000   -100.00000000</v>
    <i name="EFIELD">      0.00000000</i>
    <i type="logical" name="LVACPOTAV"> F  </i>
   </separator>
  </separator>
  <separator name="grids" >
   <i type="int" name="NGX">    42</i>
   <i type="int" name="NGY">    30</i>
   <i type="int" name="NGZ">    48</i>
   <i type="int" name="NGXF">    84</i>
   <i type="int" name="NGYF">    60</i>
   <i type="int" name="NGZF">    96</i>
   <i type="logical" name="ADDGRID"> F  </i>
  </separator>
  <separator name="ionic" >
   <i type="int" name="NSW">     0</i>
   <i type="int" name="IBRION">    -1</i>
   <i type="int" name="MDALGO">     0</i>
   <i type="int" name="ISIF">     2</i>
   <i name="PSTRESS">      0.00000000</i>
   <i name="EDIFFG">     -0.00100000</i>
   <i type="int" name="NFREE">     0</i>
   <i name="POTIM">      0.50000000</i>
   <i name="SMASS">     -3.00000000</i>
   <i name="SCALEE">      1.00000000</i>
  </separator>
  <separator name="ionic md" >
   <i name="TEBEG">      0.00010000</i>
   <i name="TEEND">      0.00010000</i>
   <i type="int" name="NBLOCK">     1</i>
   <i type="int" name="KBLOCK">     1</i>
   <i type="int" name="NPACO">   256</i>
   <i name="APACO">     10.00000000</i>
  </separator>
  <separator name="symmetry" >
   <i type="int" name="ISYM">     2</i>
   <i name="SYMPREC">      0.00001000</i>
  </separator>
  <separator name="dos" >
   <i type="int" name="LORBIT">     0</i>
   <v name="RWIGS">     -1.00000000</v>
   <i type="int" name="NEDOS">   301</i>
   <i name="EMIN">     10.00000000</i>
   <i name="EMAX">    -10.00000000</i>
   <i name="EFERMI">      0.00000000</i>
  </separator>
  <separator name="writing" >
   <i type="int" name="NWRITE">     2</i>
   <i type="logical" name="LWAVE"> F  </i>
   <i type="logical" name="LDOWNSAMPLE"> F  </i>
   <i type="logical" name="LCHARG"> F  </i>
   <i type="logical" name="LPARD"> F  </i>
   <i type="logical" name="LVTOT"> F  </i>
   <i type="logical" name="LVHAR"> F  </i>
   <i type="logical" name="LELF"> F  </i>
   <i type="logical" name="LOPTICS"> F  </i>
   <v name="STM">      0.00000000      0.00000000      0.00000000      0.00000000      0.00000000      0.00000000      0.00000000</v>
  </separator>
  <separator name="performance" >
   <i type="int" name="NPAR">    24</i>
   <i type="int" name="NSIM">     4</i>
   <i type="int" name="NBLK">    -1</i>
   <i type="logical" name="LPLANE"> T  </i>
   <i type="logical" name="LSCALAPACK"> T  </i>
   <i type="logical" name="LSCAAWARE"> F  </i>
   <i type="logical" name="LSCALU"> F  </i>
   <i type="logical" name="LASYNC"> F  </i>
   <i type="logical" name="LORBITALREAL"> F  </i>
  </separator>
  <separator name="miscellaneous" >
   <i type="int" name="IDIOT">     3</i>
   <i type="int" name="PHON_NSTRUCT">    -1</i>
   <i type="logical" name="LMUSIC"> F  </i>
   <v name="POMASS">     10.81100000</v>
   <v name="DARWINR">      0.00000000</v>
   <v name="DARWINV">      1.00000000</v>
   <i type="logical" name="LCORR"> T  </i>
  </separator>
  <i type="logical" name="GGA_COMPAT"> T  </i>
  <i type="logical" name="LBERRY"> F  </i>
  <i type="int" name="ICORELEVEL">     0</i>
  <i type="logical" name="LDAU"> F  </i>
  <i type="int" name="I_CONSTRAINED_M">     0</i>
  <separator name="electronic exchange-correlation" >
   <i type="string" name="GGA    ">PE</i>
   <i type="string" name="XC_C">1</i>
   <i type="int" name="VOSKOWN">     0</i>
   <i type="logical" name="LHFCALC"> F  </i>
   <i type="string" name="PRECFOCK"></i>
   <i type="logical" name="LSYMGRAD"> F  </i>
   <i type="logical" name="LHFONE"> F  </i>
   <i type="logical" name="LRHFCALC"> F  </i>
   <i type="logical" name="LTHOMAS"> F  </i>
   <i type="logical" name="LMODELHF"> F  </i>
   <i type="logical" name="LFOCKACE"> F  </i>
   <i name="ENCUT4O">     -1.00000000</i>
   <i type="int" name="EXXOEP">     0</i>
   <i type="int" name="FOURORBIT">     0</i>
   <i name="AEXX">      0.00000000</i>
   <i name="HFALPHA">      0.00000000</i>
   <i name="MCALPHA">      0.00000000</i>
   <i name="ALDAX">      1.00000000</i>
   <i name="AGGAX">      1.00000000</i>
   <i name="AMGGAX">      1.00000000</i>
   <i name="ALDAC">      1.00000000</i>
   <i name="AGGAC">      1.00000000</i>
   <i name="AMGGAC">      1.00000000</i>
   <i type="int" name="NKREDX">     1</i>
   <i type="int" name="NKREDY">     1</i>
   <i type="int" name="NKREDZ">     1</i>
   <i type="logical" name="SHIFTRED"> F  </i>
   <i type="logical" name="ODDONLY"> F  </i>
   <i type="logical" name="EVENONLY"> F  </i>
   <i type="int" name="LMAXFOCK">     0</i>
   <i type="int" name="NMAXFOCKAE">     0</i>
   <i type="logical" name="LFOCKAEDFT"> F  </i>
   <i name="HFSCREEN">      0.00000000</i>
   <i name="HFSCREENC">      0.00000000</i>
   <i type="int" name="NBANDSGWLOW">     0</i>
  </separator>
  <separator name="vdW DFT" >
   <i type="logical" name="LUSE_VDW"> F  </i>
   <i type="int" name="IVDW_NL">    -1</i>
   <i type="logical" name="LSPIN_VDW"> F  </i>
   <i name="ZAB_VDW">     -0.84910000</i>
   <i name="GAMMA_VDW">      1.39626340</i>
   <i name="ALPHA_VDW">      0.00000000</i>
   <i name="PARAM1">      0.12340000</i>
   <i name="PARAM2">      1.00000000</i>
   <i name="BPARAM">      6.30000000</i>
   <i name="CPARAM">      0.00930000</i>
  </separator>
  <separator name="model GW" >
   <i type="int" name="MODEL_GW">     0</i>
   <i name="MODEL_EPS0">      6.13175789</i>
   <i name="MODEL_ALPHA">      1.00000000</i>
  </separator>
  <separator name="linear response parameters" >
   <i type="logical" name="LEPSILON"> F  </i>
   <i type="logical" name="LRPA"> F  </i>
   <i type="logical" name="LNABLA"> F  </i>
   <i type="logical" name="LVEL"> F  </i>
   <i name="CSHIFT">      0.10000000</i>
   <i name="OMEGAMAX">     -1.00000000</i>
   <i name="DEG_THRESHOLD">      0.00200000</i>
   <i name="RTIME">     -0.10000000</i>
   <i name="WPLASMAI">      0.00000000</i>
   <v name="DFIELD">      0.00000000      0.00000000      0.00000000</v>
   <v name="WPLASMA">      0.00000000      0.00000000      0.00000000      0.00000000      0.00000000      0.00000000      0.00000000      0.00000000      0.00000000</v>
  </separator>
  <separator name="orbital magnetization" >
   <i type="logical" name="NUCIND"> F  </i>
   <v name="MAGPOS">      0.00000000      0.00000000      0.00000000</v>
   <i type="logical" name="LNICSALL"> T  </i>
   <i type="logical" name="ORBITALMAG"> F  </i>
   <i type="logical" name="LMAGBLOCH"> F  </i>
   <i type="logical" name="LCHIMAG"> F  </i>
   <i type="logical" name="LGAUGE"> T  </i>
   <i type="int" name="MAGATOM">     0</i>
   <v name="MAGDIPOL">      0.00000000      0.00000000      0.00000000</v>
   <v name="AVECCONST">      0.00000000      0.00000000      0.00000000</v>
  </separator>
  <separator name="response functions" >
   <i type="logical" name="LALL_IN_ONE"> F  </i>
   <i type="int" name="IALL_IN_ONE">    -1</i>
   <i type="int" name="NBANDS_WAVE">    -1</i>
   <i type="logical" name="LFINITE_TEMPERATURE"> F  </i>
   <i type="logical" name="LADDER"> F  </i>
   <i type="logical" name="LRPAFORCE"> F  </i>
   <i type="logical" name="LFXC"> F  </i>
   <i type="logical" name="LHARTREE"> T  </i>
   <i type="int" name="IBSE">     0</i>
   <v type="int" name="KPOINT">    -1     0     0     0</v>
   <i type="logical" name="LTCTC"> F  </i>
   <i type="logical" name="LTCTE"> F  </i>
   <i type="logical" name="LTETE"> F  </i>
   <i type="logical" name="LTRIPLET"> F  </i>
   <i type="logical" name="LFXCEPS"> F  </i>
   <i type="logical" name="LFXHEG"> F  </i>
   <i type="int" name="NATURALO">     2</i>
   <i type="logical" name="LHOLEGF"> F  </i>
   <i type="logical" name="L2ORDER"> F  </i>
   <i type="logical" name="LDMP1"> F  </i>
   <i type="logical" name="LMP2LT"> F  </i>
   <i type="logical" name="LSMP2LT"> F  </i>
   <i type="logical" name="LGWLF"> F  </i>
   <i name="ENCUTGW">     -1.60000002</i>
   <i name="ENCUTGWSOFT">     -1.60000002</i>
   <i name="ENCUTLF">     -1.00000000</i>
   <i type="logical" name="ESF_SPLINES"> F  </i>
   <i name="ESF_CONV">      0.01000000</i>
   <i type="int" name="ESF_NINTER">    15</i>
   <i type="int" name="LMAXMP2">    -1</i>
   <i name="SCISSOR">      0.00000000</i>
   <i type="int" name="NOMEGA">     0</i>
   <i type="int" name="NOMEGAR">     0</i>
   <i type="int" name="NBANDSGW">    -1</i>
   <i type="int" name="NBANDSO">    -1</i>
   <i type="int" name="NBANDSV">    -1</i>
   <i type="int" name="NELMGW">     1</i>
   <i type="int" name="NELMHF">     1</i>
   <i type="int" name="DIM">     3</i>
   <i type="int" name="IESPILON">     4</i>
   <i type="int" name="ANTIRES">     0</i>
   <i name="OMEGAMAX">    -30.00000000</i>
   <i name="OMEGAMIN">    -30.00000000</i>
   <i name="OMEGATL">   -200.00000000</i>
   <i type="int" name="OMEGAGRID">     0</i>
   <i name="CSHIFT">     -0.10000000</i>
   <i type="logical" name="LSELFENERGY"> F  </i>
   <i type="logical" name="LSPECTRAL"> F  </i>
   <i type="logical" name="LSPECTRALGW"> F  </i>
   <i type="logical" name="LSINGLES"> F  </i>
   <i type="logical" name="LFERMIGW"> F  </i>
   <i type="logical" name="ODDONLYGW"> F  </i>
   <i type="logical" name="EVENONLYGW"> F  </i>
   <i type="int" name="NKREDLFX">     1</i>
   <i type="int" name="NKREDLFY">     1</i>
   <i type="int" name="NKREDLFZ">     1</i>
   <i type="int" name="MAXMEM">  2800</i>
   <i type="int" name="TELESCOPE">     0</i>
   <i type="int" name="NTAUPAR">    -1</i>
   <i type="int" name="NOMEGAPAR">    -1</i>
   <i name="DAMP_NEWTON">      0.80000001</i>
   <i name="LAMBDA">      1.00000000</i>
  </separator>
  <separator name="External order field" >
   <i name="OFIELD_KAPPA">      0.00000000</i>
   <v name="OFIELD_K">      0.00000000      0.00000000      0.00000000</v>
   <i name="OFIELD_Q6_NEAR">      0.00000000</i>
   <i name="OFIELD_Q6_FAR">      0.00000000</i>
   <i name="OFIELD_A">      0.00000000</i>
  </separator>
  <separator name="optional k-points parameters" >
   <i type="int" name="KPOINTS_OPT_MODE">     1</i>
   <i type="logical" name="LKPOINTS_OPT"> F  </i>
  </separator>
 </parameters>
 <atominfo>
  <atoms>      14 </atoms>
  <types>       1 </types>
  <array name="atoms" >
   <dimension dim="1">ion</dimension>
   <field type="string">element</field>
   <field type="int">atomtype</field>
   <set>
    <rc><c>B </c><c>   1</c></rc>
    <rc><c>B </c><c>   1</c></rc>
    <rc><c>B </c><c>   1</c></rc>
    <rc><c>B </c><c>   1</c></rc>
    <rc><c>B </c><c>   1</c></rc>
    <rc><c>B </c><c>   1</c></rc>
    <rc><c>B </c><c>   1</c></rc>
    <rc><c>B </c><c>   1</c></rc>
    <rc><c>B </c><c>   1</c></rc>
    <rc><c>B </c><c>   1</c></rc>
    <rc><c>B </c><c>   1</c></rc>
    <rc><c>B </c><c>   1</c></rc>
    <rc><c>B </c><c>   1</c></rc>
    <rc><c>B </c><c>   1</c></rc>
   </set>
  </array>
  <array name="atomtypes" >
   <dimension dim="1">type</dimension>
   <field type="int">atomspertype</field>
   <field type="string">element</field>
   <field>mass</field>
   <field>valence</field>
   <field type="string">pseudopotential</field>
   <set>
    <rc><c>  14</c><c>B </c><c>     10.81100000</c><c>      3.00000000</c><c>  PAW_PBE B 06Sep2000                   </c></rc>
   </set>
  </array>
 </atominfo>
 <structure name="initialpos" >
  <crystal>
   <varray name="basis" >
    <v>       5.69700000       0.00000000       0.00000000 </v>
    <v>       0.00000000       4.04790000       0.00000000 </v>
    <v>       0.00000000       0.00000000       6.20420000 </v>
   </varray>
   <i name="volume">    143.07435078 </i>
   <varray name="rec_basis" >
    <v>       0.17553098       0.00000000       0.00000000 </v>
    <v>       0.00000000       0.24704168       0.00000000 </v>
    <v>       0.00000000       0.00000000       0.16118114 </v>
   </varray>
  </crystal>
  <varray name="positions" >
   <v>       0.52123000       0.50000000       0.63796000 </v>
   <v>       0.47877000       0.50000000       0.36204000 </v>
   <v>       0.97877000       0.50000000       0.63796000 </v>
   <v>       0.02123000       0.50000000       0.36204000 </v>
   <v>       0.60090000       0.50000000       0.89991000 </v>
   <v>       0.39910000       0.50000000       0.10009000 </v>
   <v>       0.89910000       0.50000000       0.89991000 </v>
   <v>       0.10090000       0.50000000       0.10009000 </v>
   <v>       0.75000000       0.79171000       0.72973000 </v>
   <v>       0.25000000       0.20829000       0.27027000 </v>
   <v>       0.75000000       0.20829000       0.72973000 </v>
   <v>       0.25000000       0.79171000       0.27027000 </v>
   <v>       0.25000000       0.50000000       0.52367000 </v>
   <v>       0.75000000       0.50000000       0.47633000 </v>
  </varray>
 </structure>
 <calculation>
  <scstep>
   <time name="dav">   12.76   12.78</time>
   <time name="total">   12.78   12.81</time>
   <energy>
    <i name="alphaZ">     94.24357992 </i>
    <i name="ewald">   -795.76658092 </i>
    <i name="hartreedc">   -271.33601302 </i>
    <i name="XCdc">     97.50108136 </i>
    <i name="pawpsdc">    608.99811708 </i>
    <i name="pawaedc">   -597.02363782 </i>
    <i name="eentropy">     -0.00219930 </i>
    <i name="bandstr">    -78.89149949 </i>
    <i name="atom">    996.36613177 </i>
    <i name="e_fr_energy">     54.08897958 </i>
    <i name="e_wo_entrp">     54.09117888 </i>
    <i name="e_0_energy">     54.09007923 </i>
   </energy>
  </scstep>
  <scstep>
   <time name="dav">   17.08   17.08</time>
   <time name="total">   17.09   17.10</time>
   <energy>
    <i name="e_fr_energy">    -92.90437354 </i>
    <i name="e_wo_entrp">    -92.90020490 </i>
    <i name="e_0_energy">    -92.90228922 </i>
   </energy>
  </scstep>
  <scstep>
   <time name="dav">   17.93   17.93</time>
   <time name="total">   17.93   17.93</time>
   <energy>
    <i name="e_fr_energy">    -97.58835750 </i>
    <i name="e_wo_entrp">    -97.58444471 </i>
    <i name="e_0_energy">    -97.58640110 </i>
   </energy>
  </scstep>
  <scstep>
   <time name="dav">   15.27   15.28</time>
   <time name="total">   15.28   15.28</time>
   <energy>
    <i name="e_fr_energy">    -97.61562916 </i>
    <i name="e_wo_entrp">    -97.61172209 </i>
    <i name="e_0_energy">    -97.61367562 </i>
   </energy>
  </scstep>
  <scstep>
   <time name="dav">   17.92   17.93</time>
   <time name="total">   18.16   18.16</time>
   <energy>
    <i name="e_fr_energy">    -97.61594180 </i>
    <i name="e_wo_entrp">    -97.61203481 </i>
    <i name="e_0_energy">    -97.61398831 </i>
   </energy>
  </scstep>
  <scstep>
   <time name="dav">   17.79   17.79</time>
   <time name="total">   18.03   18.03</time>
   <energy>
    <i name="e_fr_energy">    -92.20216033 </i>
    <i name="e_wo_entrp">    -92.19860343 </i>
    <i name="e_0_energy">    -92.20038188 </i>
   </energy>
  </scstep>
  <scstep>
   <time name="dav">   18.43   18.43</time>
   <time name="total">   18.67   18.68</time>
   <energy>
    <i name="e_fr_energy">    -90.55089068 </i>
    <i name="e_wo_entrp">    -90.54722860 </i>
    <i name="e_0_energy">    -90.54905964 </i>
   </energy>
  </scstep>
  <scstep>
   <time name="dav">   13.69   13.69</time>
   <time name="total">   13.93   13.93</time>
   <energy>
    <i name="e_fr_energy">    -90.56255311 </i>
    <i name="e_wo_entrp">    -90.55884089 </i>
    <i name="e_0_energy">    -90.56069700 </i>
   </energy>
  </scstep>
  <scstep>
   <time name="dav">   17.58   17.58</time>
   <time name="total">   17.82   17.82</time>
   <energy>
    <i name="e_fr_energy">    -90.57696249 </i>
    <i name="e_wo_entrp">    -90.57324276 </i>
    <i name="e_0_energy">    -90.57510263 </i>
   </energy>
  </scstep>
  <scstep>
   <time name="dav">   13.72   13.72</time>
   <time name="total">   13.96   13.96</time>
   <energy>
    <i name="e_fr_energy">    -90.58130238 </i>
    <i name="e_wo_entrp">    -90.57757668 </i>
    <i name="e_0_energy">    -90.57943953 </i>
   </energy>
  </scstep>
  <scstep>
   <time name="dav">   16.31   16.31</time>
   <time name="total">   16.55   16.55</time>
   <energy>
    <i name="e_fr_energy">    -90.58243377 </i>
    <i name="e_wo_entrp">    -90.57871074 </i>
    <i name="e_0_energy">    -90.58057226 </i>
   </energy>
  </scstep>
  <scstep>
   <time name="dav">   15.28   15.28</time>
   <time name="total">   15.52   15.52</time>
   <energy>
    <i name="e_fr_energy">    -90.58253696 </i>
    <i name="e_wo_entrp">    -90.57881223 </i>
    <i name="e_0_energy">    -90.58067460 </i>
   </energy>
  </scstep>
  <scstep>
   <time name="dav">   17.26   17.26</time>
   <time name="total">   17.49   17.49</time>
   <energy>
    <i name="e_fr_energy">    -90.58254621 </i>
    <i name="e_wo_entrp">    -90.57882033 </i>
    <i name="e_0_energy">    -90.58068327 </i>
   </energy>
  </scstep>
  <scstep>
   <time name="dav">   15.43   15.43</time>
   <time name="total">   15.67   15.67</time>
   <energy>
    <i name="e_fr_energy">    -90.58254728 </i>
    <i name="e_wo_entrp">    -90.57882154 </i>
    <i name="e_0_energy">    -90.58068441 </i>
   </energy>
  </scstep>
  <scstep>
   <time name="dav">   15.30   15.30</time>
   <time name="total">   15.32   15.32</time>
   <energy>
    <i name="alphaZ">     94.24357992 </i>
    <i name="ewald">   -795.76658092 </i>
    <i name="hartreedc">   -349.11452762 </i>
    <i name="XCdc">    101.58977405 </i>
    <i name="pawpsdc">   3723.03377241 </i>
    <i name="pawaedc">  -3712.22588371 </i>
    <i name="eentropy">     -0.00372578 </i>
    <i name="bandstr">   -148.70508758 </i>
    <i name="atom">    996.36613177 </i>
    <i name="e_fr_energy">    -90.58254746 </i>
    <i name="e_wo_entrp">    -90.57882167 </i>
    <i name="e_0_energy">    -90.58068456 </i>
   </energy>
  </scstep>
  <structure>
   <crystal>
    <varray name="basis" >
     <v>       5.69700000       0.00000000       0.00000000 </v>
     <v>       0.00000000       4.04790000       0.00000000 </v>
     <v>       0.00000000       0.00000000       6.20420000 </v>
    </varray>
    <i name="volume">    143.07435078 </i>
    <varray name="rec_basis" >
     <v>       0.17553098       0.00000000       0.00000000 </v>
     <v>       0.00000000       0.24704168       0.00000000 </v>
     <v>       0.00000000       0.00000000       0.16118114 </v>
    </varray>
   </crystal>
   <varray name="positions" >
    <v>       0.52123000       0.50000000       0.63796000 </v>
    <v>       0.47877000       0.50000000       0.36204000 </v>
    <v>       0.97877000       0.50000000       0.63796000 </v>
    <v>       0.02123000       0.50000000       0.36204000 </v>
    <v>       0.60090000       0.50000000       0.89991000 </v>
    <v>       0.39910000       0.50000000       0.10009000 </v>
    <v>       0.89910000       0.50000000       0.89991000 </v>
    <v>       0.10090000       0.50000000       0.10009000 </v>
    <v>       0.75000000       0.79171000       0.72973000 </v>
    <v>       0.25000000       0.20829000       0.27027000 </v>
    <v>       0.75000000       0.20829000       0.72973000 </v>
    <v>       0.25000000       0.79171000       0.27027000 </v>
    <v>       0.25000000       0.50000000       0.52367000 </v>
    <v>       0.75000000       0.50000000       0.47633000 </v>
   </varray>
  </structure>
  <varray name="forces" >
   <v>      -0.01982469       0.00000000       0.06723406 </v>
   <v>       0.01982469      -0.00000000      -0.06723406 </v>
   <v>       0.01982469       0.00000000       0.06723406 </v>
   <v>      -0.01982469      -0.00000000      -0.06723406 </v>
   <v>      -0.83000866      -0.00000000       0.28678660 </v>
   <v>       0.83000866       0.00000000      -0.28678660 </v>
   <v>       0.83000866      -0.00000000       0.28678660 </v>
   <v>      -0.83000866      -0.00000000      -0.28678660 </v>
   <v>       0.00000000       0.04618538      -0.08162411 </v>
   <v>      -0.00000000      -0.04618538       0.08162411 </v>
   <v>      -0.00000000      -0.04618538      -0.08162411 </v>
   <v>      -0.00000000       0.04618538       0.08162411 </v>
   <v>      -0.00000000       0.00000000       0.08778598 </v>
   <v>       0.00000000       0.00000000      -0.08778598 </v>
  </varray>
  <varray name="stress" >
   <v>      15.29997751       0.00000000       0.00000000 </v>
   <v>       0.00000000       0.18409017       0.00000000 </v>
   <v>       0.00000000       0.00000000      -5.41287482 </v>
  </varray>
  <energy>
   <i name="e_fr_energy">    -90.58254746 </i>
   <i name="e_wo_entrp">    -90.57882167 </i>
   <i name="e_0_energy">    -90.58068456 </i>
  </energy>
  <time name="totalsc">  254.04  254.09</time>
  <eigenvalues>
   <array>
    <dimension dim="1">band</dimension>
    <dimension dim="2">kpoint</dimension>
    <dimension dim="3">spin</dimension>
    <field>eigene</field>
    <field>occ</field>
    <set>
     <set comment="spin 1">
      <set comment="kpoint 1">
       <r>  -12.7288    1.0000 </r>
       <r>  -11.5798    1.0000 </r>
       <r>   -8.6584    1.0000 </r>
       <r>   -8.4216    1.0000 </r>
       <r>   -6.0680    1.0000 </r>
       <r>   -5.0962    1.0000 </r>
       <r>   -4.6502    1.0000 </r>
       <r>   -4.3044    1.0000 </r>
       <r>   -4.0057    1.0000 </r>
       <r>   -3.5664    1.0000 </r>
       <r>   -2.4844    1.0000 </r>
       <r>   -2.3782    1.0000 </r>
       <r>   -1.9494    1.0000 </r>
       <r>   -1.0706    1.0000 </r>
       <r>   -0.0531    1.0000 </r>
       <r>   -0.0218    1.0000 </r>
       <r>    0.1574    1.0000 </r>
       <r>    0.1785    1.0000 </r>
       <r>    0.5683    1.0000 </r>
       <r>    2.0483    0.0000 </r>
       <r>    2.1035    0.0000 </r>
       <r>    2.2215    0.0000 </r>
       <r>    5.4348    0.0000 </r>
       <r>    5.7709    0.0000 </r>
       <r>    5.8327    0.0000 </r>
       <r>    5.9415    0.0000 </r>
       <r>    6.7996    0.0000 </r>
       <r>    7.5799    0.0000 </r>
       <r>    7.8185    0.0000 </r>
       <r>    8.5799    0.0000 </r>
       <r>    8.7814    0.0000 </r>
       <r>    8.9090    0.0000 </r>
       <r>    9.0478    0.0000 </r>
       <r>   10.0771    0.0000 </r>
       <r>   11.1655    0.0000 </r>
       <r>   11.3681    0.0000 </r>
       <r>   11.7164    0.0000 </r>
       <r>   11.7934    0.0000 </r>
       <r>   11.9231    0.0000 </r>
       <r>   12.3781    0.0000 </r>
       <r>   12.8415    0.0000 </r>
       <r>   13.4256    0.0000 </r>
       <r>   13.5247    0.0000 </r>
       <r>   15.4549    0.0000 </r>
       <r>   15.5717    0.0000 </r>
       <r>   16.0204    0.0000 </r>
       <r>   16.3559    0.0000 </r>
       <r>   16.4150    0.0000 </r>
      </set>
      <set comment="kpoint 2">
       <r>  -12.7064    1.0000 </r>
       <r>  -11.6183    1.0000 </r>
       <r>   -8.6478    1.0000 </r>
       <r>   -8.4152    1.0000 </r>
       <r>   -6.0265    1.0000 </r>
       <r>   -5.3168    1.0000 </r>
       <r>   -4.7379    1.0000 </r>
       <r>   -4.0508    1.0000 </r>
       <r>   -3.9535    1.0000 </r>
       <r>   -3.3738    1.0000 </r>
       <r>   -2.5200    1.0000 </r>
       <r>   -2.3682    1.0000 </r>
       <r>   -1.9919    1.0000 </r>
       <r>   -1.2342    1.0000 </r>
       <r>   -0.0314    1.0000 </r>
       <r>    0.0064    1.0000 </r>
       <r>    0.1186    1.0000 </r>
       <r>    0.1820    1.0000 </r>
       <r>    0.5174    1.0000 </r>
       <r>    2.0024    0.0000 </r>
       <r>    2.0625    0.0000 </r>
       <r>    2.1601    0.0000 </r>
       <r>    5.4832    0.0000 </r>
       <r>    5.7671    0.0000 </r>
       <r>    5.8229    0.0000 </r>
       <r>    6.1508    0.0000 </r>
       <r>    6.7532    0.0000 </r>
       <r>    7.3138    0.0000 </r>
       <r>    7.9908    0.0000 </r>
       <r>    8.6537    0.0000 </r>
       <r>    8.9677    0.0000 </r>
       <r>    9.0400    0.0000 </r>
       <r>    9.0566    0.0000 </r>
       <r>   10.1397    0.0000 </r>
       <r>   11.1573    0.0000 </r>
       <r>   11.2034    0.0000 </r>
       <r>   11.3957    0.0000 </r>
       <r>   11.7117    0.0000 </r>
       <r>   12.0404    0.0000 </r>
       <r>   12.4223    0.0000 </r>
       <r>   13.0338    0.0000 </r>
       <r>   13.3282    0.0000 </r>
       <r>   13.7612    0.0000 </r>
       <r>   15.0576    0.0000 </r>
       <r>   15.6851    0.0000 </r>
       <r>   16.0511    0.0000 </r>
       <r>   16.2218    0.0000 </r>
       <r>   16.4309    0.0000 </r>
      </set>
      <set comment="kpoint 3">
       <r>  -12.6620    1.0000 </r>
       <r>  -11.6911    1.0000 </r>
       <r>   -8.6259    1.0000 </r>
       <r>   -8.4048    1.0000 </r>
       <r>   -5.9779    1.0000 </r>
       <r>   -5.5709    1.0000 </r>
       <r>   -4.7997    1.0000 </r>
       <r>   -3.9286    1.0000 </r>
       <r>   -3.6551    1.0000 </r>
       <r>   -3.0767    1.0000 </r>
       <r>   -2.5953    1.0000 </r>
       <r>   -2.3476    1.0000 </r>
       <r>   -2.0593    1.0000 </r>
       <r>   -1.5285    1.0000 </r>
       <r>   -0.0410    1.0000 </r>
       <r>    0.0089    1.0000 </r>
       <r>    0.0985    1.0000 </r>
       <r>    0.2050    1.0000 </r>
       <r>    0.4373    1.0000 </r>
       <r>    1.9181    0.0612 </r>
       <r>    1.9867    0.0002 </r>
       <r>    2.0385    0.0000 </r>
       <r>    5.5630    0.0000 </r>
       <r>    5.7405    0.0000 </r>
       <r>    5.9400    0.0000 </r>
       <r>    6.4499    0.0000 </r>
       <r>    6.6735    0.0000 </r>
       <r>    7.0701    0.0000 </r>
       <r>    8.1171    0.0000 </r>
       <r>    8.7746    0.0000 </r>
       <r>    9.0414    0.0000 </r>
       <r>    9.2551    0.0000 </r>
       <r>    9.2939    0.0000 </r>
       <r>   10.2774    0.0000 </r>
       <r>   10.7846    0.0000 </r>
       <r>   10.9607    0.0000 </r>
       <r>   11.2781    0.0000 </r>
       <r>   11.7005    0.0000 </r>
       <r>   12.2351    0.0000 </r>
       <r>   12.5268    0.0000 </r>
       <r>   12.9960    0.0000 </r>
       <r>   13.1418    0.0000 </r>
       <r>   14.2288    0.0000 </r>
       <r>   14.7876    0.0000 </r>
       <r>   15.6362    0.0000 </r>
       <r>   15.8683    0.0000 </r>
       <r>   16.2574    0.0000 </r>
       <r>   16.5616    0.0000 </r>
      </set>
      <set comment="kpoint 4">
       <r>  -12.5967    1.0000 </r>
       <r>  -11.7911    1.0000 </r>
       <r>   -8.5925    1.0000 </r>
       <r>   -8.3945    1.0000 </r>
       <r>   -5.9738    1.0000 </r>
       <r>   -5.7972    1.0000 </r>
       <r>   -4.7387    1.0000 </r>
       <r>   -3.8350    1.0000 </r>
       <r>   -3.2868    1.0000 </r>
       <r>   -2.7634    1.0000 </r>
       <r>   -2.6868    1.0000 </r>
       <r>   -2.3162    1.0000 </r>
       <r>   -2.1297    1.0000 </r>
       <r>   -1.9028    1.0000 </r>
       <r>   -0.2153    1.0000 </r>
       <r>    0.0418    1.0000 </r>
       <r>    0.1328    1.0000 </r>
       <r>    0.1655    1.0000 </r>
       <r>    0.4444    1.0000 </r>
       <r>    1.8074    0.9436 </r>
       <r>    1.8656    0.4759 </r>
       <r>    1.8878    0.2459 </r>
       <r>    5.6490    0.0000 </r>
       <r>    5.7052    0.0000 </r>
       <r>    6.1898    0.0000 </r>
       <r>    6.5817    0.0000 </r>
[...]
       <r>   -2.2100    1.0000 </r>
       <r>   -2.1835    1.0000 </r>
       <r>   -2.0812    1.0000 </r>
       <r>   -1.6031    1.0000 </r>
       <r>   -0.5238    1.0000 </r>
       <r>   -0.0746    1.0000 </r>
       <r>    0.2920    1.0000 </r>
       <r>    0.4217    1.0000 </r>
       <r>    0.5295    1.0000 </r>
       <r>    1.2604    1.0000 </r>
       <r>    1.6282    1.0000 </r>
       <r>    1.8118    0.9281 </r>
       <r>    5.6763    0.0000 </r>
       <r>    6.1209    0.0000 </r>
       <r>    6.6722    0.0000 </r>
       <r>    7.3405    0.0000 </r>
       <r>    7.6598    0.0000 </r>
       <r>    7.9078    0.0000 </r>
       <r>    9.1963    0.0000 </r>
       <r>    9.4380    0.0000 </r>
       <r>    9.7359    0.0000 </r>
       <r>    9.9391    0.0000 </r>
       <r>   10.5399    0.0000 </r>
       <r>   11.0403    0.0000 </r>
       <r>   11.1058    0.0000 </r>
       <r>   11.4610    0.0000 </r>
       <r>   11.5458    0.0000 </r>
       <r>   11.7548    0.0000 </r>
       <r>   12.9508    0.0000 </r>
       <r>   13.2618    0.0000 </r>
       <r>   13.4252    0.0000 </r>
       <r>   13.9824    0.0000 </r>
       <r>   14.1237    0.0000 </r>
       <r>   14.2953    0.0000 </r>
       <r>   14.4434    0.0000 </r>
       <r>   14.8731    0.0000 </r>
       <r>   15.0745    0.0000 </r>
       <r>   15.2529    0.0000 </r>
      </set>
      <set comment="kpoint 490">
       <r>  -11.9983    1.0000 </r>
       <r>  -11.8992    1.0000 </r>
       <r>   -8.5338    1.0000 </r>
       <r>   -8.4536    1.0000 </r>
       <r>   -5.9239    1.0000 </r>
       <r>   -5.8493    1.0000 </r>
       <r>   -4.7670    1.0000 </r>
       <r>   -4.5537    1.0000 </r>
       <r>   -4.4032    1.0000 </r>
       <r>   -4.1041    1.0000 </r>
       <r>   -2.2107    1.0000 </r>
       <r>   -2.1708    1.0000 </r>
       <r>   -2.0133    1.0000 </r>
       <r>   -1.8112    1.0000 </r>
       <r>   -0.1563    1.0000 </r>
       <r>    0.0127    1.0000 </r>
       <r>    0.4187    1.0000 </r>
       <r>    0.4667    1.0000 </r>
       <r>    0.5689    1.0000 </r>
       <r>    0.7946    1.0000 </r>
       <r>    1.6491    1.0000 </r>
       <r>    1.7156    1.0000 </r>
       <r>    5.8863    0.0000 </r>
       <r>    6.0193    0.0000 </r>
       <r>    6.9313    0.0000 </r>
       <r>    7.3724    0.0000 </r>
       <r>    7.4437    0.0000 </r>
       <r>    7.5382    0.0000 </r>
       <r>    9.4641    0.0000 </r>
       <r>    9.6362    0.0000 </r>
       <r>    9.8352    0.0000 </r>
       <r>    9.9706    0.0000 </r>
       <r>   10.4829    0.0000 </r>
       <r>   10.7349    0.0000 </r>
       <r>   11.2617    0.0000 </r>
       <r>   11.4761    0.0000 </r>
       <r>   11.4909    0.0000 </r>
       <r>   11.5408    0.0000 </r>
       <r>   13.1109    0.0000 </r>
       <r>   13.1829    0.0000 </r>
       <r>   13.8423    0.0000 </r>
       <r>   14.1478    0.0000 </r>
       <r>   14.2383    0.0000 </r>
       <r>   14.2688    0.0000 </r>
       <r>   14.6529    0.0000 </r>
       <r>   14.7508    0.0000 </r>
       <r>   14.8530    0.0000 </r>
       <r>   14.9921    0.0000 </r>
      </set>
     </set>
    </set>
   </array>
  </eigenvalues>
  <separator name="orbital magnetization" >
   <v name="MAGDIPOLOUT">      0.00000000      0.00000000      0.00000000</v>
  </separator>
  <dos>
   <i name="efermi">      1.86347880 </i>
   <total>
    <array>
     <dimension dim="1">gridpoints</dimension>
     <dimension dim="2">spin</dimension>
     <field>energy</field>
     <field>total</field>
     <field>integrated</field>
     <set>
      <set comment="spin 1">
       <r>   -14.1933     0.0000     0.0000 </r>
       <r>   -14.0859     0.0000     0.0000 </r>
       <r>   -13.9785     0.0000     0.0000 </r>
       <r>   -13.8711     0.0000     0.0000 </r>
       <r>   -13.7637     0.0000     0.0000 </r>
       <r>   -13.6563     0.0000     0.0000 </r>
       <r>   -13.5489     0.0000     0.0000 </r>
       <r>   -13.4415     0.0000     0.0000 </r>
       <r>   -13.3341     0.0000     0.0000 </r>
       <r>   -13.2267     0.0000     0.0000 </r>
       <r>   -13.1193     0.0000     0.0000 </r>
       <r>   -13.0119     0.0000     0.0000 </r>
       <r>   -12.9045     0.0000     0.0000 </r>
       <r>   -12.7971     0.0027     0.0003 </r>
       <r>   -12.6897     0.4559     0.0493 </r>
       <r>   -12.5823     2.3215     0.2986 </r>
       <r>   -12.4749     3.5451     0.6793 </r>
       <r>   -12.3675     4.3469     1.1462 </r>
       <r>   -12.2601     3.5387     1.5262 </r>
       <r>   -12.1527     2.8495     1.8322 </r>
       <r>   -12.0453     2.6175     2.1134 </r>
       <r>   -11.9379     2.5874     2.3912 </r>
       <r>   -11.8305     2.7543     2.6871 </r>
       <r>   -11.7231     3.3526     3.0471 </r>
       <r>   -11.6157     3.6288     3.4368 </r>
       <r>   -11.5083     3.1021     3.7700 </r>
       <r>   -11.4009     1.6932     3.9518 </r>
       <r>   -11.2935     0.4404     3.9991 </r>
       <r>   -11.1862     0.0080     4.0000 </r>
       <r>   -11.0788     0.0000     4.0000 </r>
       <r>   -10.9714     0.0000     4.0000 </r>
       <r>   -10.8640     0.0000     4.0000 </r>
       <r>   -10.7566     0.0000     4.0000 </r>
       <r>   -10.6492     0.0000     4.0000 </r>
       <r>   -10.5418     0.0000     4.0000 </r>
       <r>   -10.4344     0.0000     4.0000 </r>
       <r>   -10.3270     0.0000     4.0000 </r>
       <r>   -10.2196     0.0000     4.0000 </r>
       <r>   -10.1122     0.0000     4.0000 </r>
       <r>   -10.0048     0.0000     4.0000 </r>
       <r>    -9.8974     0.0000     4.0000 </r>
       <r>    -9.7900     0.0000     4.0000 </r>
       <r>    -9.6826     0.0000     4.0000 </r>
       <r>    -9.5752     0.0000     4.0000 </r>
       <r>    -9.4678     0.0000     4.0000 </r>
       <r>    -9.3604     0.0000     4.0000 </r>
       <r>    -9.2530     0.0000     4.0000 </r>
       <r>    -9.1456     0.0000     4.0000 </r>
       <r>    -9.0382     0.0000     4.0000 </r>
       <r>    -8.9308     0.0006     4.0001 </r>
       <r>    -8.8234     0.2839     4.0306 </r>
       <r>    -8.7160     2.1205     4.2583 </r>
       <r>    -8.6086     5.3449     4.8323 </r>
       <r>    -8.5012     7.0076     5.5849 </r>
       <r>    -8.3938     6.2658     6.2579 </r>
       <r>    -8.2864     5.3145     6.8286 </r>
       <r>    -8.1790     4.8760     7.3523 </r>
       <r>    -8.0716     3.7789     7.7582 </r>
       <r>    -7.9642     1.6495     7.9353 </r>
       <r>    -7.8568     0.5579     7.9952 </r>
       <r>    -7.7494     0.0445     8.0000 </r>
       <r>    -7.6420     0.0000     8.0000 </r>
       <r>    -7.5346     0.0000     8.0000 </r>
       <r>    -7.4272     0.0000     8.0000 </r>
       <r>    -7.3198     0.0000     8.0000 </r>
       <r>    -7.2124     0.0000     8.0000 </r>
       <r>    -7.1050     0.0000     8.0000 </r>
       <r>    -6.9976     0.0025     8.0003 </r>
       <r>    -6.8902     0.1057     8.0116 </r>
       <r>    -6.7828     0.2779     8.0415 </r>
       <r>    -6.6754     0.4847     8.0935 </r>
       <r>    -6.5680     0.6431     8.1626 </r>
       <r>    -6.4606     0.9866     8.2686 </r>
       <r>    -6.3532     1.4539     8.4247 </r>
       <r>    -6.2458     2.0488     8.6447 </r>
       <r>    -6.1384     3.1191     8.9797 </r>
       <r>    -6.0310     3.8012     9.3880 </r>
       <r>    -5.9236     4.1227     9.8307 </r>
       <r>    -5.8163     3.9097    10.2506 </r>
       <r>    -5.7089     4.1670    10.6981 </r>
       <r>    -5.6015     4.0998    11.1385 </r>
       <r>    -5.4941     4.0533    11.5738 </r>
       <r>    -5.3867     4.4103    12.0474 </r>
       <r>    -5.2793     4.8717    12.5706 </r>
       <r>    -5.1719     4.2822    13.0305 </r>
       <r>    -5.0645     3.9740    13.4573 </r>
       <r>    -4.9571     3.2527    13.8067 </r>
       <r>    -4.8497     2.6130    14.0873 </r>
       <r>    -4.7423     2.3338    14.3380 </r>
       <r>    -4.6349     2.9143    14.6509 </r>
       <r>    -4.5275     3.6669    15.0448 </r>
       <r>    -4.4201     3.6323    15.4349 </r>
       <r>    -4.3127     2.7163    15.7266 </r>
       <r>    -4.2053     3.2662    16.0774 </r>
       <r>    -4.0979     2.8420    16.3826 </r>
       <r>    -3.9905     2.9592    16.7004 </r>
       <r>    -3.8831     2.8268    17.0040 </r>
       <r>    -3.7757     3.1692    17.3444 </r>
       <r>    -3.6683     3.0135    17.6680 </r>
       <r>    -3.5609     2.6319    17.9507 </r>
       <r>    -3.4535     2.7001    18.2406 </r>
       <r>    -3.3461     2.8633    18.5482 </r>
       <r>    -3.2387     2.9689    18.8670 </r>
       <r>    -3.1313     2.4950    19.1350 </r>
       <r>    -3.0239     2.8957    19.4460 </r>
       <r>    -2.9165     3.1941    19.7890 </r>
       <r>    -2.8091     2.8552    20.0956 </r>
       <r>    -2.7017     2.3097    20.3437 </r>
       <r>    -2.5943     2.6325    20.6264 </r>
       <r>    -2.4869     3.0107    20.9498 </r>
       <r>    -2.3795     3.1369    21.2867 </r>
       <r>    -2.2721     3.8428    21.6994 </r>
       <r>    -2.1647     3.4726    22.0723 </r>
       <r>    -2.0573     3.1873    22.4146 </r>
       <r>    -1.9499     4.2307    22.8690 </r>
       <r>    -1.8425     4.8249    23.3872 </r>
       <r>    -1.7351     5.7828    24.0083 </r>
       <r>    -1.6277     5.2678    24.5740 </r>
       <r>    -1.5203     6.4307    25.2647 </r>
       <r>    -1.4129     6.4442    25.9568 </r>
       <r>    -1.3055     5.1767    26.5127 </r>
       <r>    -1.1981     5.1042    27.0609 </r>
       <r>    -1.0907     5.4699    27.6484 </r>
       <r>    -0.9833     4.0330    28.0815 </r>
       <r>    -0.8759     2.7082    28.3724 </r>
       <r>    -0.7685     2.1813    28.6066 </r>
       <r>    -0.6611     3.2221    28.9527 </r>
       <r>    -0.5537     5.3627    29.5286 </r>
       <r>    -0.4464     6.0691    30.1804 </r>
       <r>    -0.3390     6.2960    30.8566 </r>
       <r>    -0.2316     5.8748    31.4875 </r>
       <r>    -0.1242     7.1149    32.2517 </r>
       <r>    -0.0168     7.1319    33.0176 </r>
       <r>     0.0906     5.9621    33.6579 </r>
       <r>     0.1980     6.9657    34.4060 </r>
       <r>     0.3054     8.2506    35.2921 </r>
       <r>     0.4128     8.5948    36.2152 </r>
       <r>     0.5202     8.5281    37.1311 </r>
       <r>     0.6276     4.4875    37.6130 </r>
       <r>     0.7350     2.8389    37.9179 </r>
       <r>     0.8424     3.1756    38.2590 </r>
       <r>     0.9498     3.3938    38.6235 </r>
       <r>     1.0572     3.6385    39.0142 </r>
       <r>     1.1646     3.3775    39.3770 </r>
       <r>     1.2720     3.7642    39.7813 </r>
       <r>     1.3794     3.9286    40.2032 </r>
       <r>     1.4868     4.1385    40.6476 </r>
       <r>     1.5942     3.3444    41.0068 </r>
       <r>     1.7016     3.5784    41.3911 </r>
       <r>     1.8090     3.9370    41.8140 </r>
       <r>     1.9164     2.9779    42.1338 </r>
       <r>     2.0238     2.2641    42.3769 </r>
       <r>     2.1312     2.3730    42.6318 </r>
       <r>     2.2386     2.4241    42.8921 </r>
       <r>     2.3460     2.1980    43.1282 </r>
       <r>     2.4534     1.5720    43.2970 </r>
       <r>     2.5608     0.7356    43.3760 </r>
       <r>     2.6682     0.4292    43.4221 </r>
       <r>     2.7756     0.6737    43.4945 </r>
       <r>     2.8830     0.7707    43.5773 </r>
       <r>     2.9904     0.6945    43.6519 </r>
       <r>     3.0978     0.3874    43.6935 </r>
       <r>     3.2052     0.3094    43.7267 </r>
       <r>     3.3126     0.4254    43.7724 </r>
       <r>     3.4200     0.3981    43.8151 </r>
       <r>     3.5274     0.5254    43.8716 </r>
       <r>     3.6348     0.3571    43.9099 </r>
       <r>     3.7422     0.1458    43.9256 </r>
       <r>     3.8496     0.3031    43.9581 </r>
       <r>     3.9570     0.2973    43.9900 </r>
       <r>     4.0644     0.0924    44.0000 </r>
       <r>     4.1718     0.0007    44.0000 </r>
       <r>     4.2792     0.0575    44.0062 </r>
       <r>     4.3866     0.2477    44.0328 </r>
       <r>     4.4940     0.3729    44.0729 </r>
       <r>     4.6014     0.5236    44.1291 </r>
       <r>     4.7088     0.7451    44.2091 </r>
       <r>     4.8161     0.7926    44.2943 </r>
       <r>     4.9235     0.9473    44.3960 </r>
       <r>     5.0309     0.9024    44.4929 </r>
       <r>     5.1383     1.2174    44.6237 </r>
       <r>     5.2457     1.3297    44.7665 </r>
       <r>     5.3531     1.7478    44.9542 </r>
       <r>     5.4605     2.1902    45.1894 </r>
       <r>     5.5679     2.5299    45.4611 </r>
       <r>     5.6753     2.9557    45.7785 </r>
       <r>     5.7827     3.5037    46.1548 </r>
       <r>     5.8901     3.5302    46.5340 </r>
       <r>     5.9975     3.9685    46.9602 </r>
       <r>     6.1049     4.9616    47.4930 </r>
       <r>     6.2123     4.3793    47.9633 </r>
       <r>     6.3197     4.1071    48.4044 </r>
       <r>     6.4271     4.1973    48.8552 </r>
       <r>     6.5345     4.4134    49.3292 </r>
       <r>     6.6419     3.8944    49.7475 </r>
       <r>     6.7493     3.6825    50.1430 </r>
       <r>     6.8567     3.6707    50.5372 </r>
       <r>     6.9641     4.8079    51.0536 </r>
       <r>     7.0715     4.7236    51.5609 </r>
       <r>     7.1789     4.8996    52.0871 </r>
       <r>     7.2863     5.2000    52.6455 </r>
       <r>     7.3937     4.6842    53.1486 </r>
       <r>     7.5011     4.2501    53.6051 </r>
       <r>     7.6085     4.1286    54.0485 </r>
       <r>     7.7159     3.4478    54.4188 </r>
       <r>     7.8233     3.1998    54.7624 </r>
       <r>     7.9307     3.1039    55.0958 </r>
       <r>     8.0381     3.1115    55.4299 </r>
       <r>     8.1455     4.0294    55.8627 </r>
       <r>     8.2529     3.7283    56.2631 </r>
       <r>     8.3603     4.0356    56.6965 </r>
       <r>     8.4677     4.1540    57.1426 </r>
       <r>     8.5751     3.9296    57.5647 </r>
       <r>     8.6825     4.2327    58.0193 </r>
       <r>     8.7899     5.2627    58.5845 </r>
       <r>     8.8973     4.7043    59.0897 </r>
       <r>     9.0047     5.2196    59.6503 </r>
       <r>     9.1121     5.2134    60.2102 </r>
       <r>     9.2195     4.8133    60.7271 </r>
       <r>     9.3269     5.2127    61.2870 </r>
       <r>     9.4343     4.8600    61.8089 </r>
       <r>     9.5417     4.3787    62.2792 </r>
       <r>     9.6491     4.7735    62.7918 </r>
       <r>     9.7565     4.9971    63.3285 </r>
       <r>     9.8639     5.4051    63.9090 </r>
       <r>     9.9713     4.8858    64.4337 </r>
       <r>    10.0787     3.6204    64.8226 </r>
       <r>    10.1860     4.5781    65.3142 </r>
       <r>    10.2934     4.2836    65.7743 </r>
       <r>    10.4008     4.9964    66.3109 </r>
       <r>    10.5082     5.7089    66.9240 </r>
       <r>    10.6156     4.9081    67.4511 </r>
       <r>    10.7230     4.1497    67.8968 </r>
       <r>    10.8304     4.1116    68.3384 </r>
       <r>    10.9378     3.6054    68.7256 </r>
       <r>    11.0452     4.6159    69.2213 </r>
       <r>    11.1526     5.5076    69.8128 </r>
       <r>    11.2600     6.1746    70.4760 </r>
       <r>    11.3674     5.6909    71.0872 </r>
       <r>    11.4748     5.1421    71.6394 </r>
       <r>    11.5822     4.7219    72.1465 </r>
       <r>    11.6896     4.6105    72.6417 </r>
       <r>    11.7970     4.6258    73.1385 </r>
       <r>    11.9044     5.3599    73.7141 </r>
       <r>    12.0118     6.1475    74.3743 </r>
       <r>    12.1192     5.8204    74.9995 </r>
       <r>    12.2266     5.4631    75.5862 </r>
       <r>    12.3340     5.4822    76.1750 </r>
       <r>    12.4414     5.4438    76.7596 </r>
       <r>    12.5488     6.0233    77.4065 </r>
       <r>    12.6562     5.9332    78.0437 </r>
       <r>    12.7636     5.7906    78.6656 </r>
       <r>    12.8710     5.6912    79.2768 </r>
       <r>    12.9784     6.2850    79.9518 </r>
       <r>    13.0858     5.8760    80.5829 </r>
       <r>    13.1932     5.9715    81.2242 </r>
       <r>    13.3006     6.4119    81.9129 </r>
       <r>    13.4080     5.4206    82.4950 </r>
       <r>    13.5154     5.3680    83.0715 </r>
       <r>    13.6228     5.2362    83.6339 </r>
       <r>    13.7302     5.6708    84.2429 </r>
       <r>    13.8376     5.6573    84.8505 </r>
       <r>    13.9450     5.2550    85.4149 </r>
       <r>    14.0524     5.6668    86.0235 </r>
       <r>    14.1598     5.5263    86.6170 </r>
       <r>    14.2672     4.6984    87.1216 </r>
       <r>    14.3746     4.6328    87.6191 </r>
       <r>    14.4820     4.7818    88.1327 </r>
       <r>    14.5894     5.7422    88.7494 </r>
       <r>    14.6968     5.0355    89.2902 </r>
       <r>    14.8042     4.3250    89.7547 </r>
       <r>    14.9116     4.4406    90.2316 </r>
       <r>    15.0190     5.4530    90.8172 </r>
       <r>    15.1264     6.4503    91.5100 </r>
       <r>    15.2338     5.5220    92.1031 </r>
       <r>    15.3412     5.8991    92.7366 </r>
       <r>    15.4486     5.8924    93.3694 </r>
       <r>    15.5559     6.0651    94.0208 </r>
       <r>    15.6633     5.0378    94.5619 </r>
       <r>    15.7707     3.6486    94.9537 </r>
       <r>    15.8781     2.9424    95.2697 </r>
       <r>    15.9855     2.0560    95.4905 </r>
       <r>    16.0929     1.3363    95.6340 </r>
       <r>    16.2003     1.0782    95.7498 </r>
       <r>    16.3077     1.0511    95.8627 </r>
       <r>    16.4151     0.7710    95.9455 </r>
       <r>    16.5225     0.4388    95.9926 </r>
       <r>    16.6299     0.0675    95.9999 </r>
       <r>    16.7373     0.0010    96.0000 </r>
       <r>    16.8447     0.0000    96.0000 </r>
       <r>    16.9521     0.0000    96.0000 </r>
       <r>    17.0595     0.0000    96.0000 </r>
       <r>    17.1669     0.0000    96.0000 </r>
       <r>    17.2743     0.0000    96.0000 </r>
       <r>    17.3817     0.0000    96.0000 </r>
       <r>    17.4891     0.0000    96.0000 </r>
       <r>    17.5965     0.0000    96.0000 </r>
       <r>    17.7039     0.0000    96.0000 </r>
       <r>    17.8113     0.0000    96.0000 </r>
       <r>    17.9187     0.0000    96.0000 </r>
       <r>    18.0261     0.0000    96.0000 </r>
      </set>
     </set>
    </array>
   </total>
  </dos>
 </calculation>
 <structure name="finalpos" >
  <crystal>
   <varray name="basis" >
    <v>       5.69700000       0.00000000       0.00000000 </v>
    <v>       0.00000000       4.04790000       0.00000000 </v>
    <v>       0.00000000       0.00000000       6.20420000 </v>
   </varray>
   <i name="volume">    143.07435078 </i>
   <varray name="rec_basis" >
    <v>       0.17553098       0.00000000       0.00000000 </v>
    <v>       0.00000000       0.24704168       0.00000000 </v>
    <v>       0.00000000       0.00000000       0.16118114 </v>
   </varray>
  </crystal>
  <varray name="positions" >
   <v>       0.52123000       0.50000000       0.63796000 </v>
   <v>       0.47877000       0.50000000       0.36204000 </v>
   <v>       0.97877000       0.50000000       0.63796000 </v>
   <v>       0.02123000       0.50000000       0.36204000 </v>
   <v>       0.60090000       0.50000000       0.89991000 </v>
   <v>       0.39910000       0.50000000       0.10009000 </v>
   <v>       0.89910000       0.50000000       0.89991000 </v>
   <v>       0.10090000       0.50000000       0.10009000 </v>
   <v>       0.75000000       0.79171000       0.72973000 </v>
   <v>       0.25000000       0.20829000       0.27027000 </v>
   <v>       0.75000000       0.20829000       0.72973000 </v>
   <v>       0.25000000       0.79171000       0.27027000 </v>
   <v>       0.25000000       0.50000000       0.52367000 </v>
   <v>       0.75000000       0.50000000       0.47633000 </v>
  </varray>
 </structure>
</modeling>
