 vasp.6.4.3 19Mar24 (build May 31 2024 16:31:43) complex                        
  
 executed on             LinuxIFC date 2024.10.30  19:28:10
 running   24 mpi-ranks, with    1 threads/rank, on    1 nodes
 distrk:  each k-point on   24 cores,    1 groups
 distr:  one band on NCORE=   1 cores,   24 groups


--------------------------------------------------------------------------------------------------------


 INCAR:
   SYSTEM = Kpoints
   ISTART = 0
   ICHARG = 2
   PREC = Accurate
   ENCUT = 740
   LCHARG = .FALSE.
   LWAVE = .FALSE.
   ALGO = Normal
   NELM = 100
   EDIFF = 1E-6
   EDIFFG = -1E-3
   SIGMA = 0.05
   ISMEAR = 0
   ISPIN = 1
   NSW = 0
   IBRION = -1
   POTIM = .5
   ISIF = 2
   GGA = PE

 POTCAR:    PAW_PBE B 06Sep2000                   
 POTCAR:    PAW_PBE B 06Sep2000                   
   SHA256 =  a32ced30f5ae56fd4d10b4325ff17eb3e4e38ee0f4288bc219fb012fddfa6e97 B/POTCAR              
   COPYR  = (c) Copyright 06Sep2000 Georg Kresse                                                    
   COPYR  = This file is part of the software VASP. Any use, copying, and all other rights are regul
   COPYR  = If you do not have a valid VASP license, you may not use, copy or distribute this file. 
   VRHFIN =B: s2p1                                                                                  
   LEXCH  = PE                                                                                      
   EATOM  =    71.1703 eV,    5.2309 Ry                                                             
                                                                                                    
   TITEL  = PAW_PBE B 06Sep2000                                                                     
   LULTRA =        F    use ultrasoft PP ?                                                          
   IUNSCR =        1    unscreen: 0-lin 1-nonlin 2-no                                               
   RPACOR =    1.200    partial core radius                                                         
   POMASS =   10.811; ZVAL   =    3.000    mass and valenz                                          
   RCORE  =    1.700    outmost cutoff radius                                                       
   RWIGS  =    1.710; RWIGS  =    0.905    wigner-seitz radius (au A)                               
   ENMAX  =  318.614; ENMIN  =  238.960 eV                                                          
   ICORE  =        2    local potential                                                             
   LCOR   =        T    correct aug charges                                                         
   LPAW   =        T    paw PP                                                                      
   EAUG   =  535.514                                                                                
   DEXC   =    0.000                                                                                
   RMAX   =    1.732    core radius for proj-oper                                                   
   RAUG   =    1.300    factor for augmentation sphere                                              
   RDEP   =    1.757    radius for radial grids                                                     
   RDEPT  =    1.436    core radius for aug-charge                                                  
                                                                                                    
   Atomic configuration                                                                             
    4 entries                                                                                       
     n  l   j            E        occ.                                                              
     1  0  0.50      -180.5896   2.0000                                                             
     2  0  0.50        -9.4431   2.0000                                                             
     2  1  0.50        -3.6068   1.0000                                                             
     3  2  1.50        -4.0817   0.0000                                                             
   Description                                                                                      
     l       E           TYP  RCUT    TYP  RCUT                                                     
     0     -9.4430752     23  1.500                                                                 
     0      0.8675899     23  1.500                                                                 
     1     -3.6067955     23  1.700                                                                 
     1      6.1086146     23  1.700                                                                 
     2     -4.0817478      7  1.700                                                                 
  local pseudopotential read in
  partial core-charges read in
  partial kinetic energy density read in
  atomic valenz-charges read in
  non local Contribution for L=           0  read in
    real space projection operators read in
  non local Contribution for L=           0  read in
    real space projection operators read in
  non local Contribution for L=           1  read in
    real space projection operators read in
  non local Contribution for L=           1  read in
    real space projection operators read in
    PAW grid and wavefunctions read in
 
   number of l-projection  operators is LMAX  =           4
   number of lm-projection operators is LMMAX =           8
 
  PAW_PBE B 06Sep2000                   :
 energy of atom  1       EATOM=  -71.1703
 kinetic energy error for atom=    0.0003 (will be added to EATOM!!)
 
 
 POSCAR: o-B14
  positions in direct lattice
  No initial velocities read in


 exchange-correlation table for PE
   RHO(1)=    0.500       N(1)  =     2000
   RHO(2)=  100.500       N(2)  =     4000
 


--------------------------------------------------------------------------------------------------------


 ion  position               nearest neighbor table
   1  0.521  0.500  0.638-  14 1.64   5 1.69  13 1.70   2 1.73   9 1.85  11 1.85
   2  0.479  0.500  0.362-  13 1.64   6 1.69  14 1.70   1 1.73  10 1.85  12 1.85
   3  0.979  0.500  0.638-  14 1.64   7 1.69  13 1.70   4 1.73   9 1.85  11 1.85
   4  0.021  0.500  0.362-  13 1.64   8 1.69  14 1.70   3 1.73  10 1.85  12 1.85
   5  0.601  0.500  0.900-   1 1.69   6 1.69   7 1.70   9 1.80  11 1.80
   6  0.399  0.500  0.100-   2 1.69   5 1.69   8 1.70  10 1.80  12 1.80
   7  0.899  0.500  0.900-   3 1.69   8 1.69   5 1.70   9 1.80  11 1.80
   8  0.101  0.500  0.100-   4 1.69   7 1.69   6 1.70  10 1.80  12 1.80
   9  0.750  0.792  0.730-  11 1.69   7 1.80   5 1.80   3 1.85   1 1.85  14 1.97
  10  0.250  0.208  0.270-  12 1.69   8 1.80   6 1.80   4 1.85   2 1.85  13 1.97
  11  0.750  0.208  0.730-   9 1.69   7 1.80   5 1.80   3 1.85   1 1.85  14 1.97
  12  0.250  0.792  0.270-  10 1.69   8 1.80   6 1.80   4 1.85   2 1.85  13 1.97
  13  0.250  0.500  0.524-   2 1.64   4 1.64   3 1.70   1 1.70  10 1.97  12 1.97
  14  0.750  0.500  0.476-   1 1.64   3 1.64   2 1.70   4 1.70   9 1.97  11 1.97
 
  LATTYP: Found a simple orthorhombic cell.
 ALAT       =     4.0479000000
 B/A-ratio  =     1.4073964278
 C/A-ratio  =     1.5326959658
  
  Lattice vectors:
  
 A1 = (   0.0000000000,  -4.0479000000,   0.0000000000)
 A2 = (   5.6970000000,   0.0000000000,   0.0000000000)
 A3 = (   0.0000000000,   0.0000000000,   6.2042000000)


Analysis of symmetry for initial positions (statically):
=====================================================================
 Subroutine PRICEL returns:
 Original cell was already a primitive cell.
 

 Routine SETGRP: Setting up the symmetry group for a 
 simple orthorhombic supercell.


 Subroutine GETGRP returns: Found  8 space group operations
 (whereof  4 operations were pure point group operations)
 out of a pool of  8 trial point group operations.


The static configuration has the point symmetry C_2h.
 The point group associated with its full space group is D_2h.


Analysis of symmetry for dynamics (positions and initial velocities):
=====================================================================
 Subroutine PRICEL returns:
 Original cell was already a primitive cell.
 

 Routine SETGRP: Setting up the symmetry group for a 
 simple orthorhombic supercell.


 Subroutine GETGRP returns: Found  8 space group operations
 (whereof  4 operations were pure point group operations)
 out of a pool of  8 trial point group operations.


The dynamic configuration has the point symmetry C_2h.
 The point group associated with its full space group is D_2h.


 Subroutine INISYM returns: Found  8 space group operations
 (whereof  4 operations are pure point group operations),
 and found     1 'primitive' translations


----------------------------------------------------------------------------------------

                                     Primitive cell                                     

  volume of cell :     143.0744

  direct lattice vectors                    reciprocal lattice vectors
     5.697000000  0.000000000  0.000000000     0.175530981  0.000000000  0.000000000
     0.000000000  4.047900000  0.000000000     0.000000000  0.247041676  0.000000000
     0.000000000  0.000000000  6.204200000     0.000000000  0.000000000  0.161181135

  length of vectors
     5.697000000  4.047900000  6.204200000     0.175530981  0.247041676  0.161181135

  position of ions in fractional coordinates (direct lattice)
     0.521230000  0.500000000  0.637960000
     0.478770000  0.500000000  0.362040000
     0.978770000  0.500000000  0.637960000
     0.021230000  0.500000000  0.362040000
     0.600900000  0.500000000  0.899910000
     0.399100000  0.500000000  0.100090000
     0.899100000  0.500000000  0.899910000
     0.100900000  0.500000000  0.100090000
     0.750000000  0.791710000  0.729730000
     0.250000000  0.208290000  0.270270000
     0.750000000  0.208290000  0.729730000
     0.250000000  0.791710000  0.270270000
     0.250000000  0.500000000  0.523670000
     0.750000000  0.500000000  0.476330000

  ion indices of the primitive-cell ions
   primitive index   ion index
                 1           1
                 2           2
                 3           3
                 4           4
                 5           5
                 6           6
                 7           7
                 8           8
                 9           9
                10          10
                11          11
                12          12
                13          13
                14          14

----------------------------------------------------------------------------------------

 
 
 KPOINTS: k-points                                

Automatic generation of k-mesh.
 Grid dimensions read from file:
 generate k-points for:   10   14    9

 Generating k-lattice:

  Cartesian coordinates                     Fractional coordinates (reciprocal lattice)
     0.017553098  0.000000000  0.000000000     0.100000000  0.000000000  0.000000000
     0.000000000  0.017645834  0.000000000     0.000000000  0.071428571  0.000000000
     0.000000000  0.000000000  0.017909015     0.000000000  0.000000000  0.111111111

  Length of vectors
     0.017553098  0.017645834  0.017909015

  Shift w.r.t. Gamma in fractional coordinates (k-lattice)
     0.500000000  0.500000000  0.000000000

 
 Subroutine IBZKPT returns following result:
 ===========================================
 
 Found    175 irreducible k-points:
 
 Following reciprocal coordinates:
            Coordinates               Weight
  0.050000  0.035714  0.000000      4.000000
  0.150000  0.035714  0.000000      4.000000
  0.250000  0.035714  0.000000      4.000000
  0.350000  0.035714  0.000000      4.000000
  0.450000  0.035714  0.000000      4.000000
  0.050000  0.107143  0.000000      4.000000
  0.150000  0.107143  0.000000      4.000000
  0.250000  0.107143  0.000000      4.000000
  0.350000  0.107143  0.000000      4.000000
  0.450000  0.107143  0.000000      4.000000
  0.050000  0.178571  0.000000      4.000000
  0.150000  0.178571  0.000000      4.000000
  0.250000  0.178571  0.000000      4.000000
  0.350000  0.178571  0.000000      4.000000
  0.450000  0.178571  0.000000      4.000000
  0.050000  0.250000  0.000000      4.000000
  0.150000  0.250000  0.000000      4.000000
  0.250000  0.250000  0.000000      4.000000
  0.350000  0.250000  0.000000      4.000000
  0.450000  0.250000  0.000000      4.000000
  0.050000  0.321429  0.000000      4.000000
  0.150000  0.321429  0.000000      4.000000
  0.250000  0.321429  0.000000      4.000000
  0.350000  0.321429  0.000000      4.000000
  0.450000  0.321429  0.000000      4.000000
  0.050000  0.392857  0.000000      4.000000
  0.150000  0.392857  0.000000      4.000000
  0.250000  0.392857  0.000000      4.000000
  0.350000  0.392857  0.000000      4.000000
  0.450000  0.392857  0.000000      4.000000
  0.050000  0.464286  0.000000      4.000000
  0.150000  0.464286  0.000000      4.000000
  0.250000  0.464286  0.000000      4.000000
  0.350000  0.464286  0.000000      4.000000
  0.450000  0.464286  0.000000      4.000000
  0.050000  0.035714  0.111111      8.000000
  0.150000  0.035714  0.111111      8.000000
  0.250000  0.035714  0.111111      8.000000
  0.350000  0.035714  0.111111      8.000000
  0.450000  0.035714  0.111111      8.000000
  0.050000  0.107143  0.111111      8.000000
  0.150000  0.107143  0.111111      8.000000
  0.250000  0.107143  0.111111      8.000000
  0.350000  0.107143  0.111111      8.000000
  0.450000  0.107143  0.111111      8.000000
  0.050000  0.178571  0.111111      8.000000
  0.150000  0.178571  0.111111      8.000000
  0.250000  0.178571  0.111111      8.000000
  0.350000  0.178571  0.111111      8.000000
  0.450000  0.178571  0.111111      8.000000
  0.050000  0.250000  0.111111      8.000000
  0.150000  0.250000  0.111111      8.000000
  0.250000  0.250000  0.111111      8.000000
  0.350000  0.250000  0.111111      8.000000
  0.450000  0.250000  0.111111      8.000000
  0.050000  0.321429  0.111111      8.000000
  0.150000  0.321429  0.111111      8.000000
  0.250000  0.321429  0.111111      8.000000
  0.350000  0.321429  0.111111      8.000000
  0.450000  0.321429  0.111111      8.000000
  0.050000  0.392857  0.111111      8.000000
  0.150000  0.392857  0.111111      8.000000
  0.250000  0.392857  0.111111      8.000000
  0.350000  0.392857  0.111111      8.000000
  0.450000  0.392857  0.111111      8.000000
  0.050000  0.464286  0.111111      8.000000
  0.150000  0.464286  0.111111      8.000000
  0.250000  0.464286  0.111111      8.000000
  0.350000  0.464286  0.111111      8.000000
  0.450000  0.464286  0.111111      8.000000
  0.050000  0.035714  0.222222      8.000000
  0.150000  0.035714  0.222222      8.000000
  0.250000  0.035714  0.222222      8.000000
  0.350000  0.035714  0.222222      8.000000
  0.450000  0.035714  0.222222      8.000000
  0.050000  0.107143  0.222222      8.000000
  0.150000  0.107143  0.222222      8.000000
  0.250000  0.107143  0.222222      8.000000
  0.350000  0.107143  0.222222      8.000000
  0.450000  0.107143  0.222222      8.000000
  0.050000  0.178571  0.222222      8.000000
  0.150000  0.178571  0.222222      8.000000
  0.250000  0.178571  0.222222      8.000000
  0.350000  0.178571  0.222222      8.000000
  0.450000  0.178571  0.222222      8.000000
  0.050000  0.250000  0.222222      8.000000
  0.150000  0.250000  0.222222      8.000000
  0.250000  0.250000  0.222222      8.000000
  0.350000  0.250000  0.222222      8.000000
  0.450000  0.250000  0.222222      8.000000
  0.050000  0.321429  0.222222      8.000000
  0.150000  0.321429  0.222222      8.000000
  0.250000  0.321429  0.222222      8.000000
  0.350000  0.321429  0.222222      8.000000
  0.450000  0.321429  0.222222      8.000000
  0.050000  0.392857  0.222222      8.000000
  0.150000  0.392857  0.222222      8.000000
  0.250000  0.392857  0.222222      8.000000
  0.350000  0.392857  0.222222      8.000000
  0.450000  0.392857  0.222222      8.000000
  0.050000  0.464286  0.222222      8.000000
  0.150000  0.464286  0.222222      8.000000
  0.250000  0.464286  0.222222      8.000000
  0.350000  0.464286  0.222222      8.000000
  0.450000  0.464286  0.222222      8.000000
  0.050000  0.035714  0.333333      8.000000
  0.150000  0.035714  0.333333      8.000000
  0.250000  0.035714  0.333333      8.000000
  0.350000  0.035714  0.333333      8.000000
  0.450000  0.035714  0.333333      8.000000
  0.050000  0.107143  0.333333      8.000000
  0.150000  0.107143  0.333333      8.000000
  0.250000  0.107143  0.333333      8.000000
  0.350000  0.107143  0.333333      8.000000
  0.450000  0.107143  0.333333      8.000000
  0.050000  0.178571  0.333333      8.000000
  0.150000  0.178571  0.333333      8.000000
  0.250000  0.178571  0.333333      8.000000
  0.350000  0.178571  0.333333      8.000000
  0.450000  0.178571  0.333333      8.000000
  0.050000  0.250000  0.333333      8.000000
  0.150000  0.250000  0.333333      8.000000
  0.250000  0.250000  0.333333      8.000000
  0.350000  0.250000  0.333333      8.000000
  0.450000  0.250000  0.333333      8.000000
  0.050000  0.321429  0.333333      8.000000
  0.150000  0.321429  0.333333      8.000000
  0.250000  0.321429  0.333333      8.000000
  0.350000  0.321429  0.333333      8.000000
  0.450000  0.321429  0.333333      8.000000
  0.050000  0.392857  0.333333      8.000000
  0.150000  0.392857  0.333333      8.000000
  0.250000  0.392857  0.333333      8.000000
  0.350000  0.392857  0.333333      8.000000
  0.450000  0.392857  0.333333      8.000000
  0.050000  0.464286  0.333333      8.000000
  0.150000  0.464286  0.333333      8.000000
  0.250000  0.464286  0.333333      8.000000
  0.350000  0.464286  0.333333      8.000000
  0.450000  0.464286  0.333333      8.000000
  0.050000  0.035714  0.444444      8.000000
  0.150000  0.035714  0.444444      8.000000
  0.250000  0.035714  0.444444      8.000000
  0.350000  0.035714  0.444444      8.000000
  0.450000  0.035714  0.444444      8.000000
  0.050000  0.107143  0.444444      8.000000
  0.150000  0.107143  0.444444      8.000000
  0.250000  0.107143  0.444444      8.000000
  0.350000  0.107143  0.444444      8.000000
  0.450000  0.107143  0.444444      8.000000
  0.050000  0.178571  0.444444      8.000000
  0.150000  0.178571  0.444444      8.000000
  0.250000  0.178571  0.444444      8.000000
  0.350000  0.178571  0.444444      8.000000
  0.450000  0.178571  0.444444      8.000000
  0.050000  0.250000  0.444444      8.000000
  0.150000  0.250000  0.444444      8.000000
  0.250000  0.250000  0.444444      8.000000
  0.350000  0.250000  0.444444      8.000000
  0.450000  0.250000  0.444444      8.000000
  0.050000  0.321429  0.444444      8.000000
  0.150000  0.321429  0.444444      8.000000
  0.250000  0.321429  0.444444      8.000000
  0.350000  0.321429  0.444444      8.000000
  0.450000  0.321429  0.444444      8.000000
  0.050000  0.392857  0.444444      8.000000
  0.150000  0.392857  0.444444      8.000000
  0.250000  0.392857  0.444444      8.000000
  0.350000  0.392857  0.444444      8.000000
  0.450000  0.392857  0.444444      8.000000
  0.050000  0.464286  0.444444      8.000000
  0.150000  0.464286  0.444444      8.000000
  0.250000  0.464286  0.444444      8.000000
  0.350000  0.464286  0.444444      8.000000
  0.450000  0.464286  0.444444      8.000000
 
 Following cartesian coordinates:
            Coordinates               Weight
  0.008777  0.008823  0.000000      4.000000
  0.026330  0.008823  0.000000      4.000000
  0.043883  0.008823  0.000000      4.000000
  0.061436  0.008823  0.000000      4.000000
  0.078989  0.008823  0.000000      4.000000
  0.008777  0.026469  0.000000      4.000000
  0.026330  0.026469  0.000000      4.000000
  0.043883  0.026469  0.000000      4.000000
  0.061436  0.026469  0.000000      4.000000
  0.078989  0.026469  0.000000      4.000000
  0.008777  0.044115  0.000000      4.000000
  0.026330  0.044115  0.000000      4.000000
  0.043883  0.044115  0.000000      4.000000
  0.061436  0.044115  0.000000      4.000000
  0.078989  0.044115  0.000000      4.000000
  0.008777  0.061760  0.000000      4.000000
  0.026330  0.061760  0.000000      4.000000
  0.043883  0.061760  0.000000      4.000000
  0.061436  0.061760  0.000000      4.000000
  0.078989  0.061760  0.000000      4.000000
  0.008777  0.079406  0.000000      4.000000
  0.026330  0.079406  0.000000      4.000000
  0.043883  0.079406  0.000000      4.000000
  0.061436  0.079406  0.000000      4.000000
  0.078989  0.079406  0.000000      4.000000
  0.008777  0.097052  0.000000      4.000000
  0.026330  0.097052  0.000000      4.000000
  0.043883  0.097052  0.000000      4.000000
  0.061436  0.097052  0.000000      4.000000
  0.078989  0.097052  0.000000      4.000000
  0.008777  0.114698  0.000000      4.000000
  0.026330  0.114698  0.000000      4.000000
  0.043883  0.114698  0.000000      4.000000
  0.061436  0.114698  0.000000      4.000000
  0.078989  0.114698  0.000000      4.000000
  0.008777  0.008823  0.017909      8.000000
  0.026330  0.008823  0.017909      8.000000
  0.043883  0.008823  0.017909      8.000000
  0.061436  0.008823  0.017909      8.000000
  0.078989  0.008823  0.017909      8.000000
  0.008777  0.026469  0.017909      8.000000
  0.026330  0.026469  0.017909      8.000000
  0.043883  0.026469  0.017909      8.000000
  0.061436  0.026469  0.017909      8.000000
  0.078989  0.026469  0.017909      8.000000
  0.008777  0.044115  0.017909      8.000000
  0.026330  0.044115  0.017909      8.000000
  0.043883  0.044115  0.017909      8.000000
  0.061436  0.044115  0.017909      8.000000
  0.078989  0.044115  0.017909      8.000000
  0.008777  0.061760  0.017909      8.000000
  0.026330  0.061760  0.017909      8.000000
  0.043883  0.061760  0.017909      8.000000
  0.061436  0.061760  0.017909      8.000000
  0.078989  0.061760  0.017909      8.000000
  0.008777  0.079406  0.017909      8.000000
  0.026330  0.079406  0.017909      8.000000
  0.043883  0.079406  0.017909      8.000000
  0.061436  0.079406  0.017909      8.000000
  0.078989  0.079406  0.017909      8.000000
  0.008777  0.097052  0.017909      8.000000
  0.026330  0.097052  0.017909      8.000000
  0.043883  0.097052  0.017909      8.000000
  0.061436  0.097052  0.017909      8.000000
  0.078989  0.097052  0.017909      8.000000
  0.008777  0.114698  0.017909      8.000000
  0.026330  0.114698  0.017909      8.000000
  0.043883  0.114698  0.017909      8.000000
  0.061436  0.114698  0.017909      8.000000
  0.078989  0.114698  0.017909      8.000000
  0.008777  0.008823  0.035818      8.000000
  0.026330  0.008823  0.035818      8.000000
  0.043883  0.008823  0.035818      8.000000
  0.061436  0.008823  0.035818      8.000000
  0.078989  0.008823  0.035818      8.000000
  0.008777  0.026469  0.035818      8.000000
  0.026330  0.026469  0.035818      8.000000
  0.043883  0.026469  0.035818      8.000000
  0.061436  0.026469  0.035818      8.000000
  0.078989  0.026469  0.035818      8.000000
  0.008777  0.044115  0.035818      8.000000
  0.026330  0.044115  0.035818      8.000000
  0.043883  0.044115  0.035818      8.000000
  0.061436  0.044115  0.035818      8.000000
  0.078989  0.044115  0.035818      8.000000
  0.008777  0.061760  0.035818      8.000000
  0.026330  0.061760  0.035818      8.000000
  0.043883  0.061760  0.035818      8.000000
  0.061436  0.061760  0.035818      8.000000
  0.078989  0.061760  0.035818      8.000000
  0.008777  0.079406  0.035818      8.000000
  0.026330  0.079406  0.035818      8.000000
  0.043883  0.079406  0.035818      8.000000
  0.061436  0.079406  0.035818      8.000000
  0.078989  0.079406  0.035818      8.000000
  0.008777  0.097052  0.035818      8.000000
  0.026330  0.097052  0.035818      8.000000
  0.043883  0.097052  0.035818      8.000000
  0.061436  0.097052  0.035818      8.000000
  0.078989  0.097052  0.035818      8.000000
  0.008777  0.114698  0.035818      8.000000
  0.026330  0.114698  0.035818      8.000000
  0.043883  0.114698  0.035818      8.000000
  0.061436  0.114698  0.035818      8.000000
  0.078989  0.114698  0.035818      8.000000
  0.008777  0.008823  0.053727      8.000000
  0.026330  0.008823  0.053727      8.000000
  0.043883  0.008823  0.053727      8.000000
  0.061436  0.008823  0.053727      8.000000
  0.078989  0.008823  0.053727      8.000000
  0.008777  0.026469  0.053727      8.000000
  0.026330  0.026469  0.053727      8.000000
  0.043883  0.026469  0.053727      8.000000
  0.061436  0.026469  0.053727      8.000000
  0.078989  0.026469  0.053727      8.000000
  0.008777  0.044115  0.053727      8.000000
  0.026330  0.044115  0.053727      8.000000
  0.043883  0.044115  0.053727      8.000000
  0.061436  0.044115  0.053727      8.000000
  0.078989  0.044115  0.053727      8.000000
  0.008777  0.061760  0.053727      8.000000
  0.026330  0.061760  0.053727      8.000000
  0.043883  0.061760  0.053727      8.000000
  0.061436  0.061760  0.053727      8.000000
  0.078989  0.061760  0.053727      8.000000
  0.008777  0.079406  0.053727      8.000000
  0.026330  0.079406  0.053727      8.000000
  0.043883  0.079406  0.053727      8.000000
  0.061436  0.079406  0.053727      8.000000
  0.078989  0.079406  0.053727      8.000000
  0.008777  0.097052  0.053727      8.000000
  0.026330  0.097052  0.053727      8.000000
  0.043883  0.097052  0.053727      8.000000
  0.061436  0.097052  0.053727      8.000000
  0.078989  0.097052  0.053727      8.000000
  0.008777  0.114698  0.053727      8.000000
  0.026330  0.114698  0.053727      8.000000
  0.043883  0.114698  0.053727      8.000000
  0.061436  0.114698  0.053727      8.000000
  0.078989  0.114698  0.053727      8.000000
  0.008777  0.008823  0.071636      8.000000
  0.026330  0.008823  0.071636      8.000000
  0.043883  0.008823  0.071636      8.000000
  0.061436  0.008823  0.071636      8.000000
  0.078989  0.008823  0.071636      8.000000
  0.008777  0.026469  0.071636      8.000000
  0.026330  0.026469  0.071636      8.000000
  0.043883  0.026469  0.071636      8.000000
  0.061436  0.026469  0.071636      8.000000
  0.078989  0.026469  0.071636      8.000000
  0.008777  0.044115  0.071636      8.000000
  0.026330  0.044115  0.071636      8.000000
  0.043883  0.044115  0.071636      8.000000
  0.061436  0.044115  0.071636      8.000000
  0.078989  0.044115  0.071636      8.000000
  0.008777  0.061760  0.071636      8.000000
  0.026330  0.061760  0.071636      8.000000
  0.043883  0.061760  0.071636      8.000000
  0.061436  0.061760  0.071636      8.000000
  0.078989  0.061760  0.071636      8.000000
  0.008777  0.079406  0.071636      8.000000
  0.026330  0.079406  0.071636      8.000000
  0.043883  0.079406  0.071636      8.000000
  0.061436  0.079406  0.071636      8.000000
  0.078989  0.079406  0.071636      8.000000
  0.008777  0.097052  0.071636      8.000000
  0.026330  0.097052  0.071636      8.000000
  0.043883  0.097052  0.071636      8.000000
  0.061436  0.097052  0.071636      8.000000
  0.078989  0.097052  0.071636      8.000000
  0.008777  0.114698  0.071636      8.000000
  0.026330  0.114698  0.071636      8.000000
  0.043883  0.114698  0.071636      8.000000
  0.061436  0.114698  0.071636      8.000000
  0.078989  0.114698  0.071636      8.000000
 


--------------------------------------------------------------------------------------------------------




 Dimension of arrays:
   k-points           NKPTS =    175   k-points in BZ     NKDIM =    175   number of bands    NBANDS=     48
   number of dos      NEDOS =    301   number of ions     NIONS =     14
   non local maximal  LDIM  =      4   non local SUM 2l+1 LMDIM =      8
   total plane-waves  NPLWV = 108864
   max r-space proj   IRMAX =      1   max aug-charges    IRDMAX=  12064
   dimension x,y,z NGX =    54 NGY =   36 NGZ =   56
   dimension x,y,z NGXF=   108 NGYF=   72 NGZF=  112
   support grid    NGXF=   108 NGYF=   72 NGZF=  112
   ions per type =              14
   NGX,Y,Z   is equivalent  to a cutoff of  15.76, 14.79, 15.01 a.u.
   NGXF,Y,Z  is equivalent  to a cutoff of  31.52, 29.57, 30.01 a.u.

 SYSTEM =  Kpoints                                 
 POSCAR =  o-B14                                   

 Startparameter for this run:
   NWRITE =      2    write-flag & timer
   PREC   = accura    normal or accurate (medium, high low for compatibility)
   ISTART =      0    job   : 0-new  1-cont  2-samecut
   ICHARG =      2    charge: 1-file 2-atom 10-const
   ISPIN  =      1    spin polarized calculation?
   LNONCOLLINEAR =      F non collinear calculations
   LSORBIT =      F    spin-orbit coupling
   INIWAV =      1    electr: 0-lowe 1-rand  2-diag
   LASPH  =      F    aspherical Exc in radial PAW
 Electronic Relaxation 1
   ENCUT  =  740.0 eV  54.39 Ry    7.37 a.u.  12.64  8.98 13.76*2*pi/ulx,y,z
   ENINI  =  740.0     initial cutoff
   ENAUG  =  535.5 eV  augmentation charge cutoff
   NELM   =    100;   NELMIN=  2; NELMDL= -5     # of ELM steps 
   EDIFF  = 0.1E-05   stopping-criterion for ELM
   LREAL  =      F    real-space projection
   NLSPLINE    = F    spline interpolate recip. space projectors
   LCOMPAT=      F    compatible to vasp.4.4
   GGA_COMPAT  = T    GGA compatible to vasp.4.4-vasp.4.6
   LMAXPAW     = -100 max onsite density
   LMAXMIX     =    2 max onsite mixed and CHGCAR
   VOSKOWN=      0    Vosko Wilk Nusair interpolation
   ROPT   =    0.00000
 Ionic relaxation
   EDIFFG = -.1E-02   stopping-criterion for IOM
   NSW    =      0    number of steps for IOM
   NBLOCK =      1;   KBLOCK =      1    inner block; outer block 
   IBRION =     -1    ionic relax: 0-MD 1-quasi-New 2-CG
   NFREE  =      0    steps in history (QN), initial steepest desc. (CG)
   ISIF   =      2    stress and relaxation
   IWAVPR =     10    prediction:  0-non 1-charg 2-wave 3-comb
   ISYM   =      2    0-nonsym 1-usesym 2-fastsym
   LCORR  =      T    Harris-Foulkes like correction to forces

   POTIM  = 0.5000    time-step for ionic-motion
   TEIN   =    0.0    initial temperature
   TEBEG  =    0.0;   TEEND  =   0.0 temperature during run
   SMASS  =  -3.00    Nose mass-parameter (am)
   estimated Nose-frequenzy (Omega)   =  0.10E-29 period in steps = 0.13E+47 mass=  -0.742E-27a.u.
   SCALEE = 1.0000    scale energy and forces
   NPACO  =    256;   APACO  = 10.0  distance and # of slots for P.C.
   PSTRESS=    0.0 pullay stress

  Mass of Ions in am
   POMASS =  10.81
  Ionic Valenz
   ZVAL   =   3.00
  Atomic Wigner-Seitz radii
   RWIGS  =  -1.00
  virtual crystal weights 
   VCA    =   1.00
   NELECT =      42.0000    total number of electrons
   NUPDOWN=      -1.0000    fix difference up-down

 DOS related values:
   EMIN   =  10.00;   EMAX   =-10.00  energy-range for DOS
   EFERMI =   0.00;   METHOD = LEGACY      
   ISMEAR =     0;   SIGMA  =   0.05  broadening in eV -4-tet -1-fermi 0-gaus

 Electronic relaxation 2 (details)
   IALGO  =     38    algorithm
   LDIAG  =      T    sub-space diagonalisation (order eigenvalues)
   LSUBROT=      F    optimize rotation matrix (better conditioning)
   TURBO    =      0    0=normal 1=particle mesh
   IRESTART =      0    0=no restart 2=restart with 2 vectors
   NREBOOT  =      0    no. of reboots
   NMIN     =      0    reboot dimension
   EREF     =   0.00    reference energy to select bands
   IMIX   =      4    mixing-type and parameters
     AMIX     =   0.40;   BMIX     =  1.00
     AMIX_MAG =   1.60;   BMIX_MAG =  1.00
     AMIN     =   0.10
     WC   =   100.;   INIMIX=   1;  MIXPRE=   1;  MAXMIX= -45

 Intra band minimization:
   WEIMIN = 0.0000     energy-eigenvalue tresh-hold
   EBREAK =  0.52E-08  absolut break condition
   DEPER  =   0.30     relativ break condition  

   TIME   =   0.40     timestep for ELM

  volume/ion in A,a.u.               =      10.22        68.97
  Fermi-wavevector in a.u.,A,eV,Ry     =   1.088021  2.056062 16.106441  1.183790
  Thomas-Fermi vector in A             =   2.224193
 
 Write flags
   LWAVE        =      F    write WAVECAR
   LDOWNSAMPLE  =      F    k-point downsampling of WAVECAR
   LCHARG       =      F    write CHGCAR
   LVTOT        =      F    write LOCPOT, total local potential
   LVHAR        =      F    write LOCPOT, Hartree potential only
   WRT_POTENTIAL= false  ! write potential to hdf5 file
   LELF         =      F    write electronic localiz. function (ELF)
   LORBIT       =      0    0 simple, 1 ext, 2 COOP (PROOUT), +10 PAW based schemes


 Dipole corrections
   LMONO      =      F    monopole corrections only (constant potential shift)
   LDIPOL     =      F    correct potential (dipole corrections)
   IDIPOL     =      0    1-x, 2-y, 3-z, 4-all directions 
   EPSILON    =  1.0000000 bulk dielectric constant
   LVACPOTAV  =      F  vacuum potentials using an averaging scheme for the charge density
   VACPOTFLAT =  0.1000000 required flatness to determine vacuum potential
 Exchange correlation treatment:
   GGA     = PE    functional components
   XC_C    = 1    coefficients multiplying the functional components
   LIBXC   =     F    Libxc                    
   VOSKOWN =     0    Vosko Wilk Nusair interpolation
   LHFCALC =     F    Hartree Fock is set to
   LHFONE  =     F    Hartree Fock one center treatment
   AEXX    =    0.0000 exact exchange contribution

 Parameters of functionals:
   PE:
     No parameter
 
 Van der Waals corrections
   IVDW    =     0    specifies the selected vdW correction

 Linear response parameters
   LEPSILON=     F    determine dielectric tensor
   LRPA    =     F    only Hartree local field effects (RPA)
   LNABLA  =     F    use nabla operator in PAW spheres
   LVEL    =     F    velocity operator in full k-point grid
   CSHIFT  =0.1000    complex shift for real part using Kramers Kronig
   OMEGAMAX=  -1.0    maximum frequency
   DEG_THRESHOLD= 0.2000000E-02 threshold for treating states as degnerate
   RTIME   =   -0.100 relaxation time in fs
  (WPLASMAI=    0.000 imaginary part of plasma frequency in eV, 0.658/RTIME)
   DFIELD  = 0.0000000 0.0000000 0.0000000 field for delta impulse in time
 
  Optional k-point grid parameters
   LKPOINTS_OPT  =     F    use optional k-point grid
   KPOINTS_OPT_MODE=     1    mode for optional k-point grid
 
 Orbital magnetization related:
   ORBITALMAG=     F  switch on orbital magnetization
   LCHIMAG   =     F  perturbation theory with respect to B field
   DQ        =  0.001000  dq finite difference perturbation B field
   LLRAUG    =     F  two centre corrections for induced B field
   LBONE     =     F  B-component reconstruction in AE one-centre
   LVGVCALC  =     T  calculate vGv susceptibility
   LVGVAPPL  =     F  apply vGv susceptibility instead of pGv for G=0

 Random number generation:
   RANDOM_GENERATOR = DEFAULT
   PCG_SEED         = not used


--------------------------------------------------------------------------------------------------------


 Static calculation
 charge density and potential will be updated during run
 non-spin polarized calculation
 Variant of blocked Davidson
 Davidson routine will perform the subspace rotation
 perform sub-space diagonalisation
    after iterative eigenvector-optimisation
 modified Broyden-mixing scheme, WC =      100.0
 initial mixing is a Kerker type mixing with AMIX =  0.4000 and BMIX =      1.0000
 Hartree-type preconditioning will be used
 using additional bands           27
 reciprocal scheme for non local part
 use partial core corrections
 calculate Harris-corrections to forces 
   (improved forces if not selfconsistent)
 use gradient corrections 
 use of overlap-Matrix (Vanderbilt PP)
 Gauss-broadening in eV      SIGMA  =   0.05


--------------------------------------------------------------------------------------------------------


  energy-cutoff  :      740.00
  volume of cell :      143.07
      direct lattice vectors                 reciprocal lattice vectors
     5.697000000  0.000000000  0.000000000     0.175530981  0.000000000  0.000000000
     0.000000000  4.047900000  0.000000000     0.000000000  0.247041676  0.000000000
     0.000000000  0.000000000  6.204200000     0.000000000  0.000000000  0.161181135

  length of vectors
     5.697000000  4.047900000  6.204200000     0.175530981  0.247041676  0.161181135


 
 k-points in units of 2pi/SCALE and weight: k-points                                
   0.00877655  0.00882292  0.00000000       0.003
   0.02632965  0.00882292  0.00000000       0.003
   0.04388275  0.00882292  0.00000000       0.003
   0.06143584  0.00882292  0.00000000       0.003
   0.07898894  0.00882292  0.00000000       0.003
   0.00877655  0.02646875  0.00000000       0.003
   0.02632965  0.02646875  0.00000000       0.003
   0.04388275  0.02646875  0.00000000       0.003
   0.06143584  0.02646875  0.00000000       0.003
   0.07898894  0.02646875  0.00000000       0.003
   0.00877655  0.04411458  0.00000000       0.003
   0.02632965  0.04411458  0.00000000       0.003
   0.04388275  0.04411458  0.00000000       0.003
   0.06143584  0.04411458  0.00000000       0.003
   0.07898894  0.04411458  0.00000000       0.003
   0.00877655  0.06176042  0.00000000       0.003
   0.02632965  0.06176042  0.00000000       0.003
   0.04388275  0.06176042  0.00000000       0.003
   0.06143584  0.06176042  0.00000000       0.003
   0.07898894  0.06176042  0.00000000       0.003
   0.00877655  0.07940625  0.00000000       0.003
   0.02632965  0.07940625  0.00000000       0.003
   0.04388275  0.07940625  0.00000000       0.003
   0.06143584  0.07940625  0.00000000       0.003
   0.07898894  0.07940625  0.00000000       0.003
   0.00877655  0.09705209  0.00000000       0.003
   0.02632965  0.09705209  0.00000000       0.003
   0.04388275  0.09705209  0.00000000       0.003
   0.06143584  0.09705209  0.00000000       0.003
   0.07898894  0.09705209  0.00000000       0.003
   0.00877655  0.11469792  0.00000000       0.003
   0.02632965  0.11469792  0.00000000       0.003
   0.04388275  0.11469792  0.00000000       0.003
   0.06143584  0.11469792  0.00000000       0.003
   0.07898894  0.11469792  0.00000000       0.003
   0.00877655  0.00882292  0.01790902       0.006
   0.02632965  0.00882292  0.01790902       0.006
   0.04388275  0.00882292  0.01790902       0.006
   0.06143584  0.00882292  0.01790902       0.006
   0.07898894  0.00882292  0.01790902       0.006
   0.00877655  0.02646875  0.01790902       0.006
   0.02632965  0.02646875  0.01790902       0.006
   0.04388275  0.02646875  0.01790902       0.006
   0.06143584  0.02646875  0.01790902       0.006
   0.07898894  0.02646875  0.01790902       0.006
   0.00877655  0.04411458  0.01790902       0.006
   0.02632965  0.04411458  0.01790902       0.006
   0.04388275  0.04411458  0.01790902       0.006
   0.06143584  0.04411458  0.01790902       0.006
   0.07898894  0.04411458  0.01790902       0.006
   0.00877655  0.06176042  0.01790902       0.006
   0.02632965  0.06176042  0.01790902       0.006
   0.04388275  0.06176042  0.01790902       0.006
   0.06143584  0.06176042  0.01790902       0.006
   0.07898894  0.06176042  0.01790902       0.006
   0.00877655  0.07940625  0.01790902       0.006
   0.02632965  0.07940625  0.01790902       0.006
   0.04388275  0.07940625  0.01790902       0.006
   0.06143584  0.07940625  0.01790902       0.006
   0.07898894  0.07940625  0.01790902       0.006
   0.00877655  0.09705209  0.01790902       0.006
   0.02632965  0.09705209  0.01790902       0.006
   0.04388275  0.09705209  0.01790902       0.006
   0.06143584  0.09705209  0.01790902       0.006
   0.07898894  0.09705209  0.01790902       0.006
   0.00877655  0.11469792  0.01790902       0.006
   0.02632965  0.11469792  0.01790902       0.006
   0.04388275  0.11469792  0.01790902       0.006
   0.06143584  0.11469792  0.01790902       0.006
   0.07898894  0.11469792  0.01790902       0.006
   0.00877655  0.00882292  0.03581803       0.006
   0.02632965  0.00882292  0.03581803       0.006
   0.04388275  0.00882292  0.03581803       0.006
   0.06143584  0.00882292  0.03581803       0.006
   0.07898894  0.00882292  0.03581803       0.006
   0.00877655  0.02646875  0.03581803       0.006
   0.02632965  0.02646875  0.03581803       0.006
   0.04388275  0.02646875  0.03581803       0.006
   0.06143584  0.02646875  0.03581803       0.006
   0.07898894  0.02646875  0.03581803       0.006
   0.00877655  0.04411458  0.03581803       0.006
   0.02632965  0.04411458  0.03581803       0.006
   0.04388275  0.04411458  0.03581803       0.006
   0.06143584  0.04411458  0.03581803       0.006
   0.07898894  0.04411458  0.03581803       0.006
   0.00877655  0.06176042  0.03581803       0.006
   0.02632965  0.06176042  0.03581803       0.006
   0.04388275  0.06176042  0.03581803       0.006
   0.06143584  0.06176042  0.03581803       0.006
   0.07898894  0.06176042  0.03581803       0.006
   0.00877655  0.07940625  0.03581803       0.006
   0.02632965  0.07940625  0.03581803       0.006
   0.04388275  0.07940625  0.03581803       0.006
   0.06143584  0.07940625  0.03581803       0.006
   0.07898894  0.07940625  0.03581803       0.006
   0.00877655  0.09705209  0.03581803       0.006
   0.02632965  0.09705209  0.03581803       0.006
   0.04388275  0.09705209  0.03581803       0.006
   0.06143584  0.09705209  0.03581803       0.006
   0.07898894  0.09705209  0.03581803       0.006
   0.00877655  0.11469792  0.03581803       0.006
   0.02632965  0.11469792  0.03581803       0.006
   0.04388275  0.11469792  0.03581803       0.006
   0.06143584  0.11469792  0.03581803       0.006
   0.07898894  0.11469792  0.03581803       0.006
   0.00877655  0.00882292  0.05372705       0.006
   0.02632965  0.00882292  0.05372705       0.006
   0.04388275  0.00882292  0.05372705       0.006
   0.06143584  0.00882292  0.05372705       0.006
   0.07898894  0.00882292  0.05372705       0.006
   0.00877655  0.02646875  0.05372705       0.006
   0.02632965  0.02646875  0.05372705       0.006
   0.04388275  0.02646875  0.05372705       0.006
   0.06143584  0.02646875  0.05372705       0.006
   0.07898894  0.02646875  0.05372705       0.006
   0.00877655  0.04411458  0.05372705       0.006
   0.02632965  0.04411458  0.05372705       0.006
   0.04388275  0.04411458  0.05372705       0.006
   0.06143584  0.04411458  0.05372705       0.006
   0.07898894  0.04411458  0.05372705       0.006
   0.00877655  0.06176042  0.05372705       0.006
   0.02632965  0.06176042  0.05372705       0.006
   0.04388275  0.06176042  0.05372705       0.006
   0.06143584  0.06176042  0.05372705       0.006
   0.07898894  0.06176042  0.05372705       0.006
   0.00877655  0.07940625  0.05372705       0.006
   0.02632965  0.07940625  0.05372705       0.006
   0.04388275  0.07940625  0.05372705       0.006
   0.06143584  0.07940625  0.05372705       0.006
   0.07898894  0.07940625  0.05372705       0.006
   0.00877655  0.09705209  0.05372705       0.006
   0.02632965  0.09705209  0.05372705       0.006
   0.04388275  0.09705209  0.05372705       0.006
   0.06143584  0.09705209  0.05372705       0.006
   0.07898894  0.09705209  0.05372705       0.006
   0.00877655  0.11469792  0.05372705       0.006
   0.02632965  0.11469792  0.05372705       0.006
   0.04388275  0.11469792  0.05372705       0.006
   0.06143584  0.11469792  0.05372705       0.006
   0.07898894  0.11469792  0.05372705       0.006
   0.00877655  0.00882292  0.07163606       0.006
   0.02632965  0.00882292  0.07163606       0.006
   0.04388275  0.00882292  0.07163606       0.006
   0.06143584  0.00882292  0.07163606       0.006
   0.07898894  0.00882292  0.07163606       0.006
   0.00877655  0.02646875  0.07163606       0.006
   0.02632965  0.02646875  0.07163606       0.006
   0.04388275  0.02646875  0.07163606       0.006
   0.06143584  0.02646875  0.07163606       0.006
   0.07898894  0.02646875  0.07163606       0.006
   0.00877655  0.04411458  0.07163606       0.006
   0.02632965  0.04411458  0.07163606       0.006
   0.04388275  0.04411458  0.07163606       0.006
   0.06143584  0.04411458  0.07163606       0.006
   0.07898894  0.04411458  0.07163606       0.006
   0.00877655  0.06176042  0.07163606       0.006
   0.02632965  0.06176042  0.07163606       0.006
   0.04388275  0.06176042  0.07163606       0.006
   0.06143584  0.06176042  0.07163606       0.006
   0.07898894  0.06176042  0.07163606       0.006
   0.00877655  0.07940625  0.07163606       0.006
   0.02632965  0.07940625  0.07163606       0.006
   0.04388275  0.07940625  0.07163606       0.006
   0.06143584  0.07940625  0.07163606       0.006
   0.07898894  0.07940625  0.07163606       0.006
   0.00877655  0.09705209  0.07163606       0.006
   0.02632965  0.09705209  0.07163606       0.006
   0.04388275  0.09705209  0.07163606       0.006
   0.06143584  0.09705209  0.07163606       0.006
   0.07898894  0.09705209  0.07163606       0.006
   0.00877655  0.11469792  0.07163606       0.006
   0.02632965  0.11469792  0.07163606       0.006
   0.04388275  0.11469792  0.07163606       0.006
   0.06143584  0.11469792  0.07163606       0.006
   0.07898894  0.11469792  0.07163606       0.006
 
 k-points in reciprocal lattice and weights: k-points                                
   0.05000000  0.03571429  0.00000000       0.003
   0.15000000  0.03571429  0.00000000       0.003
   0.25000000  0.03571429  0.00000000       0.003
   0.35000000  0.03571429  0.00000000       0.003
   0.45000000  0.03571429  0.00000000       0.003
   0.05000000  0.10714286  0.00000000       0.003
   0.15000000  0.10714286  0.00000000       0.003
   0.25000000  0.10714286  0.00000000       0.003
   0.35000000  0.10714286  0.00000000       0.003
   0.45000000  0.10714286  0.00000000       0.003
   0.05000000  0.17857143  0.00000000       0.003
   0.15000000  0.17857143  0.00000000       0.003
   0.25000000  0.17857143  0.00000000       0.003
   0.35000000  0.17857143  0.00000000       0.003
   0.45000000  0.17857143  0.00000000       0.003
   0.05000000  0.25000000  0.00000000       0.003
   0.15000000  0.25000000  0.00000000       0.003
   0.25000000  0.25000000  0.00000000       0.003
   0.35000000  0.25000000  0.00000000       0.003
   0.45000000  0.25000000  0.00000000       0.003
   0.05000000  0.32142857  0.00000000       0.003
   0.15000000  0.32142857  0.00000000       0.003
   0.25000000  0.32142857  0.00000000       0.003
   0.35000000  0.32142857  0.00000000       0.003
   0.45000000  0.32142857  0.00000000       0.003
   0.05000000  0.39285714  0.00000000       0.003
   0.15000000  0.39285714  0.00000000       0.003
   0.25000000  0.39285714  0.00000000       0.003
   0.35000000  0.39285714  0.00000000       0.003
   0.45000000  0.39285714  0.00000000       0.003
   0.05000000  0.46428571  0.00000000       0.003
   0.15000000  0.46428571  0.00000000       0.003
   0.25000000  0.46428571  0.00000000       0.003
   0.35000000  0.46428571  0.00000000       0.003
   0.45000000  0.46428571  0.00000000       0.003
   0.05000000  0.03571429  0.11111111       0.006
   0.15000000  0.03571429  0.11111111       0.006
   0.25000000  0.03571429  0.11111111       0.006
   0.35000000  0.03571429  0.11111111       0.006
   0.45000000  0.03571429  0.11111111       0.006
   0.05000000  0.10714286  0.11111111       0.006
   0.15000000  0.10714286  0.11111111       0.006
   0.25000000  0.10714286  0.11111111       0.006
   0.35000000  0.10714286  0.11111111       0.006
   0.45000000  0.10714286  0.11111111       0.006
   0.05000000  0.17857143  0.11111111       0.006
   0.15000000  0.17857143  0.11111111       0.006
   0.25000000  0.17857143  0.11111111       0.006
   0.35000000  0.17857143  0.11111111       0.006
   0.45000000  0.17857143  0.11111111       0.006
   0.05000000  0.25000000  0.11111111       0.006
   0.15000000  0.25000000  0.11111111       0.006
   0.25000000  0.25000000  0.11111111       0.006
   0.35000000  0.25000000  0.11111111       0.006
   0.45000000  0.25000000  0.11111111       0.006
   0.05000000  0.32142857  0.11111111       0.006
   0.15000000  0.32142857  0.11111111       0.006
   0.25000000  0.32142857  0.11111111       0.006
   0.35000000  0.32142857  0.11111111       0.006
   0.45000000  0.32142857  0.11111111       0.006
   0.05000000  0.39285714  0.11111111       0.006
   0.15000000  0.39285714  0.11111111       0.006
   0.25000000  0.39285714  0.11111111       0.006
   0.35000000  0.39285714  0.11111111       0.006
   0.45000000  0.39285714  0.11111111       0.006
   0.05000000  0.46428571  0.11111111       0.006
   0.15000000  0.46428571  0.11111111       0.006
   0.25000000  0.46428571  0.11111111       0.006
   0.35000000  0.46428571  0.11111111       0.006
   0.45000000  0.46428571  0.11111111       0.006
   0.05000000  0.03571429  0.22222222       0.006
   0.15000000  0.03571429  0.22222222       0.006
   0.25000000  0.03571429  0.22222222       0.006
   0.35000000  0.03571429  0.22222222       0.006
   0.45000000  0.03571429  0.22222222       0.006
   0.05000000  0.10714286  0.22222222       0.006
   0.15000000  0.10714286  0.22222222       0.006
   0.25000000  0.10714286  0.22222222       0.006
   0.35000000  0.10714286  0.22222222       0.006
   0.45000000  0.10714286  0.22222222       0.006
   0.05000000  0.17857143  0.22222222       0.006
   0.15000000  0.17857143  0.22222222       0.006
   0.25000000  0.17857143  0.22222222       0.006
   0.35000000  0.17857143  0.22222222       0.006
   0.45000000  0.17857143  0.22222222       0.006
   0.05000000  0.25000000  0.22222222       0.006
   0.15000000  0.25000000  0.22222222       0.006
   0.25000000  0.25000000  0.22222222       0.006
   0.35000000  0.25000000  0.22222222       0.006
   0.45000000  0.25000000  0.22222222       0.006
   0.05000000  0.32142857  0.22222222       0.006
   0.15000000  0.32142857  0.22222222       0.006
   0.25000000  0.32142857  0.22222222       0.006
   0.35000000  0.32142857  0.22222222       0.006
   0.45000000  0.32142857  0.22222222       0.006
   0.05000000  0.39285714  0.22222222       0.006
   0.15000000  0.39285714  0.22222222       0.006
   0.25000000  0.39285714  0.22222222       0.006
   0.35000000  0.39285714  0.22222222       0.006
   0.45000000  0.39285714  0.22222222       0.006
   0.05000000  0.46428571  0.22222222       0.006
   0.15000000  0.46428571  0.22222222       0.006
   0.25000000  0.46428571  0.22222222       0.006
   0.35000000  0.46428571  0.22222222       0.006
   0.45000000  0.46428571  0.22222222       0.006
   0.05000000  0.03571429  0.33333333       0.006
   0.15000000  0.03571429  0.33333333       0.006
   0.25000000  0.03571429  0.33333333       0.006
   0.35000000  0.03571429  0.33333333       0.006
   0.45000000  0.03571429  0.33333333       0.006
   0.05000000  0.10714286  0.33333333       0.006
   0.15000000  0.10714286  0.33333333       0.006
   0.25000000  0.10714286  0.33333333       0.006
   0.35000000  0.10714286  0.33333333       0.006
   0.45000000  0.10714286  0.33333333       0.006
   0.05000000  0.17857143  0.33333333       0.006
   0.15000000  0.17857143  0.33333333       0.006
   0.25000000  0.17857143  0.33333333       0.006
   0.35000000  0.17857143  0.33333333       0.006
   0.45000000  0.17857143  0.33333333       0.006
   0.05000000  0.25000000  0.33333333       0.006
   0.15000000  0.25000000  0.33333333       0.006
   0.25000000  0.25000000  0.33333333       0.006
   0.35000000  0.25000000  0.33333333       0.006
   0.45000000  0.25000000  0.33333333       0.006
   0.05000000  0.32142857  0.33333333       0.006
   0.15000000  0.32142857  0.33333333       0.006
   0.25000000  0.32142857  0.33333333       0.006
   0.35000000  0.32142857  0.33333333       0.006
   0.45000000  0.32142857  0.33333333       0.006
   0.05000000  0.39285714  0.33333333       0.006
   0.15000000  0.39285714  0.33333333       0.006
   0.25000000  0.39285714  0.33333333       0.006
   0.35000000  0.39285714  0.33333333       0.006
   0.45000000  0.39285714  0.33333333       0.006
   0.05000000  0.46428571  0.33333333       0.006
   0.15000000  0.46428571  0.33333333       0.006
   0.25000000  0.46428571  0.33333333       0.006
   0.35000000  0.46428571  0.33333333       0.006
   0.45000000  0.46428571  0.33333333       0.006
   0.05000000  0.03571429  0.44444444       0.006
   0.15000000  0.03571429  0.44444444       0.006
   0.25000000  0.03571429  0.44444444       0.006
   0.35000000  0.03571429  0.44444444       0.006
   0.45000000  0.03571429  0.44444444       0.006
   0.05000000  0.10714286  0.44444444       0.006
   0.15000000  0.10714286  0.44444444       0.006
   0.25000000  0.10714286  0.44444444       0.006
   0.35000000  0.10714286  0.44444444       0.006
   0.45000000  0.10714286  0.44444444       0.006
   0.05000000  0.17857143  0.44444444       0.006
   0.15000000  0.17857143  0.44444444       0.006
   0.25000000  0.17857143  0.44444444       0.006
   0.35000000  0.17857143  0.44444444       0.006
   0.45000000  0.17857143  0.44444444       0.006
   0.05000000  0.25000000  0.44444444       0.006
   0.15000000  0.25000000  0.44444444       0.006
   0.25000000  0.25000000  0.44444444       0.006
   0.35000000  0.25000000  0.44444444       0.006
   0.45000000  0.25000000  0.44444444       0.006
   0.05000000  0.32142857  0.44444444       0.006
   0.15000000  0.32142857  0.44444444       0.006
   0.25000000  0.32142857  0.44444444       0.006
   0.35000000  0.32142857  0.44444444       0.006
   0.45000000  0.32142857  0.44444444       0.006
   0.05000000  0.39285714  0.44444444       0.006
   0.15000000  0.39285714  0.44444444       0.006
   0.25000000  0.39285714  0.44444444       0.006
   0.35000000  0.39285714  0.44444444       0.006
   0.45000000  0.39285714  0.44444444       0.006
   0.05000000  0.46428571  0.44444444       0.006
   0.15000000  0.46428571  0.44444444       0.006
   0.25000000  0.46428571  0.44444444       0.006
   0.35000000  0.46428571  0.44444444       0.006
   0.45000000  0.46428571  0.44444444       0.006
 
 position of ions in fractional coordinates (direct lattice) 
   0.52123000  0.50000000  0.63796000
   0.47877000  0.50000000  0.36204000
   0.97877000  0.50000000  0.63796000
   0.02123000  0.50000000  0.36204000
   0.60090000  0.50000000  0.89991000
   0.39910000  0.50000000  0.10009000
   0.89910000  0.50000000  0.89991000
   0.10090000  0.50000000  0.10009000
   0.75000000  0.79171000  0.72973000
   0.25000000  0.20829000  0.27027000
   0.75000000  0.20829000  0.72973000
   0.25000000  0.79171000  0.27027000
   0.25000000  0.50000000  0.52367000
   0.75000000  0.50000000  0.47633000
 
 position of ions in cartesian coordinates  (Angst):
   2.96944731  2.02395000  3.95803143
   2.72755269  2.02395000  2.24616857
   5.57605269  2.02395000  3.95803143
   0.12094731  2.02395000  2.24616857
   3.42332730  2.02395000  5.58322162
   2.27367270  2.02395000  0.62097838
   5.12217270  2.02395000  5.58322162
   0.57482730  2.02395000  0.62097838
   4.27275000  3.20476291  4.52739087
   1.42425000  0.84313709  1.67680913
   4.27275000  0.84313709  4.52739087
   1.42425000  3.20476291  1.67680913
   1.42425000  2.02395000  3.24895341
   4.27275000  2.02395000  2.95524659
 


--------------------------------------------------------------------------------------------------------


 k-point     1 :   0.0500 0.0357 0.0000  plane waves:    6525
 k-point     2 :   0.1500 0.0357 0.0000  plane waves:    6544
 k-point     3 :   0.2500 0.0357 0.0000  plane waves:    6543
 k-point     4 :   0.3500 0.0357 0.0000  plane waves:    6518
 k-point     5 :   0.4500 0.0357 0.0000  plane waves:    6528
 k-point     6 :   0.0500 0.1071 0.0000  plane waves:    6540
 k-point     7 :   0.1500 0.1071 0.0000  plane waves:    6546
 k-point     8 :   0.2500 0.1071 0.0000  plane waves:    6535
 k-point     9 :   0.3500 0.1071 0.0000  plane waves:    6533
 k-point    10 :   0.4500 0.1071 0.0000  plane waves:    6510
 k-point    11 :   0.0500 0.1786 0.0000  plane waves:    6559
 k-point    12 :   0.1500 0.1786 0.0000  plane waves:    6545
 k-point    13 :   0.2500 0.1786 0.0000  plane waves:    6529
 k-point    14 :   0.3500 0.1786 0.0000  plane waves:    6534
 k-point    15 :   0.4500 0.1786 0.0000  plane waves:    6519
 k-point    16 :   0.0500 0.2500 0.0000  plane waves:    6566
 k-point    17 :   0.1500 0.2500 0.0000  plane waves:    6550
 k-point    18 :   0.2500 0.2500 0.0000  plane waves:    6539
 k-point    19 :   0.3500 0.2500 0.0000  plane waves:    6535
 k-point    20 :   0.4500 0.2500 0.0000  plane waves:    6539
 k-point    21 :   0.0500 0.3214 0.0000  plane waves:    6559
 k-point    22 :   0.1500 0.3214 0.0000  plane waves:    6553
 k-point    23 :   0.2500 0.3214 0.0000  plane waves:    6538
 k-point    24 :   0.3500 0.3214 0.0000  plane waves:    6549
 k-point    25 :   0.4500 0.3214 0.0000  plane waves:    6543
 k-point    26 :   0.0500 0.3929 0.0000  plane waves:    6551
 k-point    27 :   0.1500 0.3929 0.0000  plane waves:    6543
 k-point    28 :   0.2500 0.3929 0.0000  plane waves:    6530
 k-point    29 :   0.3500 0.3929 0.0000  plane waves:    6530
 k-point    30 :   0.4500 0.3929 0.0000  plane waves:    6548
 k-point    31 :   0.0500 0.4643 0.0000  plane waves:    6545
 k-point    32 :   0.1500 0.4643 0.0000  plane waves:    6532
 k-point    33 :   0.2500 0.4643 0.0000  plane waves:    6559
 k-point    34 :   0.3500 0.4643 0.0000  plane waves:    6543
 k-point    35 :   0.4500 0.4643 0.0000  plane waves:    6572
 k-point    36 :   0.0500 0.0357 0.1111  plane waves:    6537
 k-point    37 :   0.1500 0.0357 0.1111  plane waves:    6542
 k-point    38 :   0.2500 0.0357 0.1111  plane waves:    6537
 k-point    39 :   0.3500 0.0357 0.1111  plane waves:    6521
 k-point    40 :   0.4500 0.0357 0.1111  plane waves:    6517
 k-point    41 :   0.0500 0.1071 0.1111  plane waves:    6543
 k-point    42 :   0.1500 0.1071 0.1111  plane waves:    6535
 k-point    43 :   0.2500 0.1071 0.1111  plane waves:    6531
 k-point    44 :   0.3500 0.1071 0.1111  plane waves:    6534
 k-point    45 :   0.4500 0.1071 0.1111  plane waves:    6524
 k-point    46 :   0.0500 0.1786 0.1111  plane waves:    6561
 k-point    47 :   0.1500 0.1786 0.1111  plane waves:    6549
 k-point    48 :   0.2500 0.1786 0.1111  plane waves:    6538
 k-point    49 :   0.3500 0.1786 0.1111  plane waves:    6522
 k-point    50 :   0.4500 0.1786 0.1111  plane waves:    6525
 k-point    51 :   0.0500 0.2500 0.1111  plane waves:    6553
 k-point    52 :   0.1500 0.2500 0.1111  plane waves:    6550
 k-point    53 :   0.2500 0.2500 0.1111  plane waves:    6536
 k-point    54 :   0.3500 0.2500 0.1111  plane waves:    6530
 k-point    55 :   0.4500 0.2500 0.1111  plane waves:    6526
 k-point    56 :   0.0500 0.3214 0.1111  plane waves:    6547
 k-point    57 :   0.1500 0.3214 0.1111  plane waves:    6541
 k-point    58 :   0.2500 0.3214 0.1111  plane waves:    6542
 k-point    59 :   0.3500 0.3214 0.1111  plane waves:    6549
 k-point    60 :   0.4500 0.3214 0.1111  plane waves:    6544
 k-point    61 :   0.0500 0.3929 0.1111  plane waves:    6548
 k-point    62 :   0.1500 0.3929 0.1111  plane waves:    6539
 k-point    63 :   0.2500 0.3929 0.1111  plane waves:    6536
 k-point    64 :   0.3500 0.3929 0.1111  plane waves:    6552
 k-point    65 :   0.4500 0.3929 0.1111  plane waves:    6549
 k-point    66 :   0.0500 0.4643 0.1111  plane waves:    6530
 k-point    67 :   0.1500 0.4643 0.1111  plane waves:    6544
 k-point    68 :   0.2500 0.4643 0.1111  plane waves:    6555
 k-point    69 :   0.3500 0.4643 0.1111  plane waves:    6545
 k-point    70 :   0.4500 0.4643 0.1111  plane waves:    6557
 k-point    71 :   0.0500 0.0357 0.2222  plane waves:    6521
 k-point    72 :   0.1500 0.0357 0.2222  plane waves:    6531
 k-point    73 :   0.2500 0.0357 0.2222  plane waves:    6533
 k-point    74 :   0.3500 0.0357 0.2222  plane waves:    6526
 k-point    75 :   0.4500 0.0357 0.2222  plane waves:    6512
 k-point    76 :   0.0500 0.1071 0.2222  plane waves:    6533
 k-point    77 :   0.1500 0.1071 0.2222  plane waves:    6542
 k-point    78 :   0.2500 0.1071 0.2222  plane waves:    6539
 k-point    79 :   0.3500 0.1071 0.2222  plane waves:    6527
 k-point    80 :   0.4500 0.1071 0.2222  plane waves:    6528
 k-point    81 :   0.0500 0.1786 0.2222  plane waves:    6549
 k-point    82 :   0.1500 0.1786 0.2222  plane waves:    6544
 k-point    83 :   0.2500 0.1786 0.2222  plane waves:    6537
 k-point    84 :   0.3500 0.1786 0.2222  plane waves:    6526
 k-point    85 :   0.4500 0.1786 0.2222  plane waves:    6528
 k-point    86 :   0.0500 0.2500 0.2222  plane waves:    6552
 k-point    87 :   0.1500 0.2500 0.2222  plane waves:    6538
 k-point    88 :   0.2500 0.2500 0.2222  plane waves:    6537
 k-point    89 :   0.3500 0.2500 0.2222  plane waves:    6535
 k-point    90 :   0.4500 0.2500 0.2222  plane waves:    6533
 k-point    91 :   0.0500 0.3214 0.2222  plane waves:    6547
 k-point    92 :   0.1500 0.3214 0.2222  plane waves:    6540
 k-point    93 :   0.2500 0.3214 0.2222  plane waves:    6530
 k-point    94 :   0.3500 0.3214 0.2222  plane waves:    6541
 k-point    95 :   0.4500 0.3214 0.2222  plane waves:    6541
 k-point    96 :   0.0500 0.3929 0.2222  plane waves:    6545
 k-point    97 :   0.1500 0.3929 0.2222  plane waves:    6534
 k-point    98 :   0.2500 0.3929 0.2222  plane waves:    6545
 k-point    99 :   0.3500 0.3929 0.2222  plane waves:    6550
 k-point   100 :   0.4500 0.3929 0.2222  plane waves:    6546
 k-point   101 :   0.0500 0.4643 0.2222  plane waves:    6537
 k-point   102 :   0.1500 0.4643 0.2222  plane waves:    6545
 k-point   103 :   0.2500 0.4643 0.2222  plane waves:    6551
 k-point   104 :   0.3500 0.4643 0.2222  plane waves:    6555
 k-point   105 :   0.4500 0.4643 0.2222  plane waves:    6551
 k-point   106 :   0.0500 0.0357 0.3333  plane waves:    6528
 k-point   107 :   0.1500 0.0357 0.3333  plane waves:    6520
 k-point   108 :   0.2500 0.0357 0.3333  plane waves:    6515
 k-point   109 :   0.3500 0.0357 0.3333  plane waves:    6511
 k-point   110 :   0.4500 0.0357 0.3333  plane waves:    6519
 k-point   111 :   0.0500 0.1071 0.3333  plane waves:    6531
 k-point   112 :   0.1500 0.1071 0.3333  plane waves:    6544
 k-point   113 :   0.2500 0.1071 0.3333  plane waves:    6529
 k-point   114 :   0.3500 0.1071 0.3333  plane waves:    6523
 k-point   115 :   0.4500 0.1071 0.3333  plane waves:    6527
 k-point   116 :   0.0500 0.1786 0.3333  plane waves:    6542
 k-point   117 :   0.1500 0.1786 0.3333  plane waves:    6546
 k-point   118 :   0.2500 0.1786 0.3333  plane waves:    6540
 k-point   119 :   0.3500 0.1786 0.3333  plane waves:    6528
 k-point   120 :   0.4500 0.1786 0.3333  plane waves:    6536
 k-point   121 :   0.0500 0.2500 0.3333  plane waves:    6542
 k-point   122 :   0.1500 0.2500 0.3333  plane waves:    6541
 k-point   123 :   0.2500 0.2500 0.3333  plane waves:    6542
 k-point   124 :   0.3500 0.2500 0.3333  plane waves:    6546
 k-point   125 :   0.4500 0.2500 0.3333  plane waves:    6540
 k-point   126 :   0.0500 0.3214 0.3333  plane waves:    6553
 k-point   127 :   0.1500 0.3214 0.3333  plane waves:    6544
 k-point   128 :   0.2500 0.3214 0.3333  plane waves:    6544
 k-point   129 :   0.3500 0.3214 0.3333  plane waves:    6544
 k-point   130 :   0.4500 0.3214 0.3333  plane waves:    6543
 k-point   131 :   0.0500 0.3929 0.3333  plane waves:    6551
 k-point   132 :   0.1500 0.3929 0.3333  plane waves:    6558
 k-point   133 :   0.2500 0.3929 0.3333  plane waves:    6548
 k-point   134 :   0.3500 0.3929 0.3333  plane waves:    6544
 k-point   135 :   0.4500 0.3929 0.3333  plane waves:    6547
 k-point   136 :   0.0500 0.4643 0.3333  plane waves:    6552
 k-point   137 :   0.1500 0.4643 0.3333  plane waves:    6549
 k-point   138 :   0.2500 0.4643 0.3333  plane waves:    6550
 k-point   139 :   0.3500 0.4643 0.3333  plane waves:    6555
 k-point   140 :   0.4500 0.4643 0.3333  plane waves:    6552
 k-point   141 :   0.0500 0.0357 0.4444  plane waves:    6528
 k-point   142 :   0.1500 0.0357 0.4444  plane waves:    6527
 k-point   143 :   0.2500 0.0357 0.4444  plane waves:    6508
 k-point   144 :   0.3500 0.0357 0.4444  plane waves:    6500
 k-point   145 :   0.4500 0.0357 0.4444  plane waves:    6510
 k-point   146 :   0.0500 0.1071 0.4444  plane waves:    6548
 k-point   147 :   0.1500 0.1071 0.4444  plane waves:    6529
 k-point   148 :   0.2500 0.1071 0.4444  plane waves:    6518
 k-point   149 :   0.3500 0.1071 0.4444  plane waves:    6515
 k-point   150 :   0.4500 0.1071 0.4444  plane waves:    6512
 k-point   151 :   0.0500 0.1786 0.4444  plane waves:    6552
 k-point   152 :   0.1500 0.1786 0.4444  plane waves:    6542
 k-point   153 :   0.2500 0.1786 0.4444  plane waves:    6527
 k-point   154 :   0.3500 0.1786 0.4444  plane waves:    6536
 k-point   155 :   0.4500 0.1786 0.4444  plane waves:    6542
 k-point   156 :   0.0500 0.2500 0.4444  plane waves:    6542
 k-point   157 :   0.1500 0.2500 0.4444  plane waves:    6545
 k-point   158 :   0.2500 0.2500 0.4444  plane waves:    6551
 k-point   159 :   0.3500 0.2500 0.4444  plane waves:    6549
 k-point   160 :   0.4500 0.2500 0.4444  plane waves:    6545
 k-point   161 :   0.0500 0.3214 0.4444  plane waves:    6557
 k-point   162 :   0.1500 0.3214 0.4444  plane waves:    6559
 k-point   163 :   0.2500 0.3214 0.4444  plane waves:    6558
 k-point   164 :   0.3500 0.3214 0.4444  plane waves:    6546
 k-point   165 :   0.4500 0.3214 0.4444  plane waves:    6539
 k-point   166 :   0.0500 0.3929 0.4444  plane waves:    6547
 k-point   167 :   0.1500 0.3929 0.4444  plane waves:    6562
 k-point   168 :   0.2500 0.3929 0.4444  plane waves:    6566
 k-point   169 :   0.3500 0.3929 0.4444  plane waves:    6553
 k-point   170 :   0.4500 0.3929 0.4444  plane waves:    6562
 k-point   171 :   0.0500 0.4643 0.4444  plane waves:    6542
 k-point   172 :   0.1500 0.4643 0.4444  plane waves:    6547
 k-point   173 :   0.2500 0.4643 0.4444  plane waves:    6537
 k-point   174 :   0.3500 0.4643 0.4444  plane waves:    6565
 k-point   175 :   0.4500 0.4643 0.4444  plane waves:    6565

 maximum and minimum number of plane-waves per node :      6572     6500

 maximum number of plane-waves:      6572
 maximum index in each direction: 
   IXMAX=   12   IYMAX=    8   IZMAX=   13
   IXMIN=  -13   IYMIN=   -9   IZMIN=  -14


 serial   3D FFT for wavefunctions
 parallel 3D FFT for charge:
    minimum data exchange during FFTs selected (reduces bandwidth)


 total amount of memory used by VASP MPI-rank0   150802. kBytes
=======================================================================

   base      :      30000. kBytes
   nonl-proj :      75124. kBytes
   fftplans  :       1794. kBytes
   grid      :       6344. kBytes
   one-center:         43. kBytes
   wavefun   :      37497. kBytes
 
     INWAV:  cpu time      0.0000: real time      0.0000
 Broyden mixing: mesh for mixing (old mesh)
   NGX = 25   NGY = 17   NGZ = 27
  (NGX  =108   NGY  = 72   NGZ  =112)
  gives a total of  11475 points

 initial charge density was supplied:
 charge density of overlapping atoms calculated
 number of electron      42.0000000 magnetization 
 keeping initial charge density in first step


--------------------------------------------------------------------------------------------------------


 Maximum index for augmentation-charges          910 (set IRDMAX)


--------------------------------------------------------------------------------------------------------


 First call to EWALD:  gamma=   0.339
 Maximum number of real-space cells 3x 3x 2
 Maximum number of reciprocal cells 3x 2x 3

    FEWALD:  cpu time      0.0010: real time      0.0010


--------------------------------------- Ionic step        1  -------------------------------------------




--------------------------------------- Iteration      1(   1)  ---------------------------------------


    POTLOK:  cpu time      0.0199: real time      0.0217
    SETDIJ:  cpu time      0.0017: real time      0.0017
     EDDAV:  cpu time      7.9664: real time      8.0421
       DOS:  cpu time      0.0013: real time      0.0014
    --------------------------------------------
      LOOP:  cpu time      7.9895: real time      8.0670

 eigenvalue-minimisations  : 16800
 total energy-change (2. order) : 0.1049177E+03  (-0.2247333E+04)
 number of electron      42.0000000 magnetization 
 augmentation part       42.0000000 magnetization 

 Free energy of the ion-electron system (eV)
  ---------------------------------------------------
  alpha Z        PSCENC =        94.24357992
  Ewald energy   TEWEN  =      -795.76658092
  -Hartree energ DENC   =      -271.33601302
  -exchange      EXHF   =         0.00000000
  -V(xc)+E(xc)   XCENC  =        97.50108071
  PAW double counting   =       608.99811708     -597.02363782
  entropy T*S    EENTRO =        -0.00253540
  eigenvalues    EBANDS =       -28.07602026
  atomic energy  EATOM  =       996.37975538
  Solvation  Ediel_sol  =         0.00000000
  ---------------------------------------------------
  free energy    TOTEN  =       104.91774567 eV

  energy without entropy =      104.92028106  energy(sigma->0) =      104.91901336


--------------------------------------------------------------------------------------------------------




--------------------------------------- Iteration      1(   2)  ---------------------------------------


     EDDAV:  cpu time     10.1545: real time     10.2514
       DOS:  cpu time      0.0011: real time      0.0011
    --------------------------------------------
      LOOP:  cpu time     10.1556: real time     10.2525

 eigenvalue-minimisations  : 22800
 total energy-change (2. order) :-0.1955186E+03  (-0.1823670E+03)
 number of electron      42.0000000 magnetization 
 augmentation part       42.0000000 magnetization 

 Free energy of the ion-electron system (eV)
  ---------------------------------------------------
  alpha Z        PSCENC =        94.24357992
  Ewald energy   TEWEN  =      -795.76658092
  -Hartree energ DENC   =      -271.33601302
  -exchange      EXHF   =         0.00000000
  -V(xc)+E(xc)   XCENC  =        97.50108071
  PAW double counting   =       608.99811708     -597.02363782
  entropy T*S    EENTRO =        -0.00319245
  eigenvalues    EBANDS =      -223.59391329
  atomic energy  EATOM  =       996.37975538
  Solvation  Ediel_sol  =         0.00000000
  ---------------------------------------------------
  free energy    TOTEN  =       -90.60080442 eV

  energy without entropy =      -90.59761197  energy(sigma->0) =      -90.59920819


--------------------------------------------------------------------------------------------------------




--------------------------------------- Iteration      1(   3)  ---------------------------------------


     EDDAV:  cpu time     11.0539: real time     11.1605
       DOS:  cpu time      0.0011: real time      0.0011
    --------------------------------------------
      LOOP:  cpu time     11.0549: real time     11.1615

 eigenvalue-minimisations  : 25008
 total energy-change (2. order) :-0.7011943E+01  (-0.6962473E+01)
 number of electron      42.0000000 magnetization 
 augmentation part       42.0000000 magnetization 

 Free energy of the ion-electron system (eV)
  ---------------------------------------------------
  alpha Z        PSCENC =        94.24357992
  Ewald energy   TEWEN  =      -795.76658092
  -Hartree energ DENC   =      -271.33601302
  -exchange      EXHF   =         0.00000000
  -V(xc)+E(xc)   XCENC  =        97.50108071
  PAW double counting   =       608.99811708     -597.02363782
  entropy T*S    EENTRO =        -0.00366047
  eigenvalues    EBANDS =      -230.60538796
  atomic energy  EATOM  =       996.37975538
  Solvation  Ediel_sol  =         0.00000000
  ---------------------------------------------------
  free energy    TOTEN  =       -97.61274711 eV

  energy without entropy =      -97.60908664  energy(sigma->0) =      -97.61091687


--------------------------------------------------------------------------------------------------------




--------------------------------------- Iteration      1(   4)  ---------------------------------------


     EDDAV:  cpu time      8.8436: real time      8.9256
       DOS:  cpu time      0.0011: real time      0.0011
    --------------------------------------------
      LOOP:  cpu time      8.8447: real time      8.9268

 eigenvalue-minimisations  : 19344
 total energy-change (2. order) :-0.4202069E-01  (-0.4201854E-01)
 number of electron      42.0000000 magnetization 
 augmentation part       42.0000000 magnetization 

 Free energy of the ion-electron system (eV)
  ---------------------------------------------------
  alpha Z        PSCENC =        94.24357992
  Ewald energy   TEWEN  =      -795.76658092
  -Hartree energ DENC   =      -271.33601302
  -exchange      EXHF   =         0.00000000
  -V(xc)+E(xc)   XCENC  =        97.50108071
  PAW double counting   =       608.99811708     -597.02363782
  entropy T*S    EENTRO =        -0.00365590
  eigenvalues    EBANDS =      -230.64741322
  atomic energy  EATOM  =       996.37975538
  Solvation  Ediel_sol  =         0.00000000
  ---------------------------------------------------
  free energy    TOTEN  =       -97.65476780 eV

  energy without entropy =      -97.65111190  energy(sigma->0) =      -97.65293985


--------------------------------------------------------------------------------------------------------




--------------------------------------- Iteration      1(   5)  ---------------------------------------


     EDDAV:  cpu time     11.0217: real time     11.1291
       DOS:  cpu time      0.0016: real time      0.0026
    CHARGE:  cpu time      0.1971: real time      0.2121
    MIXING:  cpu time      0.0015: real time      0.0016
    --------------------------------------------
      LOOP:  cpu time     11.2219: real time     11.3455

 eigenvalue-minimisations  : 24960
 total energy-change (2. order) :-0.4533566E-03  (-0.4533476E-03)
 number of electron      42.0000000 magnetization 
 augmentation part       -0.1274438 magnetization 

 Broyden mixing:
  rms(total) = 0.12334E+01    rms(broyden)= 0.12334E+01
  rms(prec ) = 0.22675E+01
  weight for this iteration     100.00

 Free energy of the ion-electron system (eV)
  ---------------------------------------------------
  alpha Z        PSCENC =        94.24357992
  Ewald energy   TEWEN  =      -795.76658092
  -Hartree energ DENC   =      -271.33601302
  -exchange      EXHF   =         0.00000000
  -V(xc)+E(xc)   XCENC  =        97.50108071
  PAW double counting   =       608.99811708     -597.02363782
  entropy T*S    EENTRO =        -0.00365583
  eigenvalues    EBANDS =      -230.64786665
  atomic energy  EATOM  =       996.37975538
  Solvation  Ediel_sol  =         0.00000000
  ---------------------------------------------------
  free energy    TOTEN  =       -97.65522115 eV

  energy without entropy =      -97.65156532  energy(sigma->0) =      -97.65339324


--------------------------------------------------------------------------------------------------------




--------------------------------------- Iteration      1(   6)  ---------------------------------------


    POTLOK:  cpu time      0.0172: real time      0.0196
    SETDIJ:  cpu time      0.0014: real time      0.0015
     EDDAV:  cpu time     10.7569: real time     10.8646
       DOS:  cpu time      0.0012: real time      0.0012
    CHARGE:  cpu time      0.1842: real time      0.1863
    MIXING:  cpu time      0.0013: real time      0.0013
    --------------------------------------------
      LOOP:  cpu time     10.9622: real time     11.0744

 eigenvalue-minimisations  : 24264
 total energy-change (2. order) : 0.5415988E+01  (-0.3949396E+00)
 number of electron      42.0000000 magnetization 
 augmentation part       -0.1532297 magnetization 

 Broyden mixing:
  rms(total) = 0.67991E+00    rms(broyden)= 0.67991E+00
  rms(prec ) = 0.11659E+01
  weight for this iteration     100.00

 eigenvalues of (default mixing * dielectric matrix)
  average eigenvalue GAMMA=   2.0768
  2.0768

 Free energy of the ion-electron system (eV)
  ---------------------------------------------------
  alpha Z        PSCENC =        94.24357992
  Ewald energy   TEWEN  =      -795.76658092
  -Hartree energ DENC   =      -306.20251506
  -exchange      EXHF   =         0.00000000
  -V(xc)+E(xc)   XCENC  =        99.13896616
  PAW double counting   =      1504.23780483    -1492.88446993
  entropy T*S    EENTRO =        -0.00343153
  eigenvalues    EBANDS =      -191.38234187
  atomic energy  EATOM  =       996.37975538
  Solvation  Ediel_sol  =         0.00000000
  ---------------------------------------------------
  free energy    TOTEN  =       -92.23923302 eV

  energy without entropy =      -92.23580149  energy(sigma->0) =      -92.23751726


--------------------------------------------------------------------------------------------------------




--------------------------------------- Iteration      1(   7)  ---------------------------------------


    POTLOK:  cpu time      0.0164: real time      0.0174
    SETDIJ:  cpu time      0.0014: real time      0.0015
     EDDAV:  cpu time     11.1325: real time     11.2346
       DOS:  cpu time      0.0011: real time      0.0011
    CHARGE:  cpu time      0.1772: real time      0.1802
    MIXING:  cpu time      0.0011: real time      0.0011
    --------------------------------------------
      LOOP:  cpu time     11.3296: real time     11.4359

 eigenvalue-minimisations  : 25176
 total energy-change (2. order) : 0.1651495E+01  (-0.3221026E+00)
 number of electron      42.0000000 magnetization 
 augmentation part       -0.1725921 magnetization 

 Broyden mixing:
  rms(total) = 0.17080E+00    rms(broyden)= 0.17080E+00
  rms(prec ) = 0.24919E+00
  weight for this iteration     100.00

 eigenvalues of (default mixing * dielectric matrix)
  average eigenvalue GAMMA=   1.8912
  1.5396  2.2427

 Free energy of the ion-electron system (eV)
  ---------------------------------------------------
  alpha Z        PSCENC =        94.24357992
  Ewald energy   TEWEN  =      -795.76658092
  -Hartree energ DENC   =      -342.80513089
  -exchange      EXHF   =         0.00000000
  -V(xc)+E(xc)   XCENC  =       101.08511000
  PAW double counting   =      3073.92676291    -3063.12777792
  entropy T*S    EENTRO =        -0.00313474
  eigenvalues    EBANDS =      -154.52032208
  atomic energy  EATOM  =       996.37975538
  Solvation  Ediel_sol  =         0.00000000
  ---------------------------------------------------
  free energy    TOTEN  =       -90.58773833 eV

  energy without entropy =      -90.58460359  energy(sigma->0) =      -90.58617096


--------------------------------------------------------------------------------------------------------




--------------------------------------- Iteration      1(   8)  ---------------------------------------


    POTLOK:  cpu time      0.0154: real time      0.0164
    SETDIJ:  cpu time      0.0014: real time      0.0014
     EDDAV:  cpu time      8.6362: real time      8.7126
       DOS:  cpu time      0.0011: real time      0.0011
    CHARGE:  cpu time      0.1779: real time      0.1800
    MIXING:  cpu time      0.0011: real time      0.0012
    --------------------------------------------
      LOOP:  cpu time      8.8332: real time      8.9127

 eigenvalue-minimisations  : 18744
 total energy-change (2. order) :-0.1242049E-01  (-0.2352030E-01)
 number of electron      42.0000000 magnetization 
 augmentation part       -0.1783469 magnetization 

 Broyden mixing:
  rms(total) = 0.70448E-01    rms(broyden)= 0.70448E-01
  rms(prec ) = 0.10549E+00
  weight for this iteration     100.00

 eigenvalues of (default mixing * dielectric matrix)
[...]
     20       0.8383      2.00000
     21       0.9685      2.00000
     22       1.1063      2.00000
     23       6.0540      0.00000
     24       6.2028      0.00000
     25       7.0769      0.00000
     26       7.3553      0.00000
     27       7.5050      0.00000
     28       7.7521      0.00000
     29       8.4659      0.00000
     30       8.5652      0.00000
     31       9.7578      0.00000
     32       9.8945      0.00000
     33      10.1506      0.00000
     34      10.5500      0.00000
     35      11.1528      0.00000
     36      11.2950      0.00000
     37      12.2488      0.00000
     38      12.3294      0.00000
     39      12.8293      0.00000
     40      13.2768      0.00000
     41      13.4524      0.00000
     42      13.6701      0.00000
     43      13.9344      0.00000
     44      14.0619      0.00000
     45      14.4773      0.00000
     46      14.5721      0.00000
     47      14.8262      0.00000
     48      15.0392      0.00000

 k-point   166 :       0.0500    0.3929    0.4444
  band No.  band energies     occupation 
      1     -12.3950      2.00000
      2     -11.5328      2.00000
      3      -8.4518      2.00000
      4      -7.9032      2.00000
      5      -6.6255      2.00000
      6      -6.0964      2.00000
      7      -5.4599      2.00000
      8      -5.4170      2.00000
      9      -3.2978      2.00000
     10      -2.7971      2.00000
     11      -2.0768      2.00000
     12      -1.6212      2.00000
     13      -1.4080      2.00000
     14      -1.3521      2.00000
     15      -1.1778      2.00000
     16      -0.8994      2.00000
     17      -0.5144      2.00000
     18      -0.2883      2.00000
     19       0.4255      2.00000
     20       1.4693      2.00000
     21       1.8354      1.82687
     22       3.8785      0.00000
     23       4.7332      0.00000
     24       5.7090      0.00000
     25       6.5701      0.00000
     26       7.1660      0.00000
     27       7.3699      0.00000
     28       7.9653      0.00000
     29       9.1955      0.00000
     30       9.4533      0.00000
     31       9.5340      0.00000
     32      10.0820      0.00000
     33      10.9171      0.00000
     34      11.0468      0.00000
     35      11.1049      0.00000
     36      11.4939      0.00000
     37      11.6682      0.00000
     38      11.7571      0.00000
     39      12.0476      0.00000
     40      12.5805      0.00000
     41      12.7827      0.00000
     42      13.1442      0.00000
     43      13.5381      0.00000
     44      13.9188      0.00000
     45      14.3319      0.00000
     46      15.2152      0.00000
     47      15.2775      0.00000
     48      15.7982      0.00000

 k-point   167 :       0.1500    0.3929    0.4444
  band No.  band energies     occupation 
      1     -12.3564      2.00000
      2     -11.5754      2.00000
      3      -8.5270      2.00000
      4      -7.9882      2.00000
      5      -6.3758      2.00000
      6      -6.0580      2.00000
      7      -5.4764      2.00000
      8      -5.3238      2.00000
      9      -3.5023      2.00000
     10      -2.7206      2.00000
     11      -2.3327      2.00000
     12      -1.6186      2.00000
     13      -1.5634      2.00000
     14      -1.4040      2.00000
     15      -1.2084      2.00000
     16      -0.7473      2.00000
     17      -0.2930      2.00000
     18      -0.0174      2.00000
     19       0.4144      2.00000
     20       1.4420      2.00000
     21       1.7976      1.98495
     22       3.2168      0.00000
     23       4.8923      0.00000
     24       6.2281      0.00000
     25       6.4611      0.00000
     26       7.1339      0.00000
     27       7.4648      0.00000
     28       8.2545      0.00000
     29       8.8803      0.00000
     30       9.2873      0.00000
     31       9.5171      0.00000
     32      10.2823      0.00000
     33      10.6417      0.00000
     34      10.9293      0.00000
     35      11.2404      0.00000
     36      11.4221      0.00000
     37      11.7332      0.00000
     38      11.9632      0.00000
     39      12.0054      0.00000
     40      12.5749      0.00000
     41      12.7961      0.00000
     42      13.2881      0.00000
     43      13.8043      0.00000
     44      13.8160      0.00000
     45      14.6391      0.00000
     46      14.8887      0.00000
     47      15.2766      0.00000
     48      15.8839      0.00000

 k-point   168 :       0.2500    0.3929    0.4444
  band No.  band energies     occupation 
      1     -12.2818      2.00000
      2     -11.6580      2.00000
      3      -8.6023      2.00000
      4      -8.1358      2.00000
      5      -5.9884      2.00000
      6      -5.9520      2.00000
      7      -5.5117      2.00000
      8      -5.1517      2.00000
      9      -3.8114      2.00000
     10      -2.8500      2.00000
     11      -2.5377      2.00000
     12      -1.8526      2.00000
     13      -1.6436      2.00000
     14      -1.3315      2.00000
     15      -1.1620      2.00000
     16      -0.5143      2.00000
     17       0.0148      2.00000
     18       0.2868      2.00000
     19       0.4510      2.00000
     20       1.3921      2.00000
     21       1.7188      2.00000
     22       2.3925      0.00000
     23       5.2010      0.00000
     24       6.2846      0.00000
     25       6.7673      0.00000
     26       6.9235      0.00000
     27       7.8136      0.00000
     28       8.4840      0.00000
     29       8.7168      0.00000
     30       9.0206      0.00000
     31       9.5297      0.00000
     32      10.0953      0.00000
     33      10.4981      0.00000
     34      10.7680      0.00000
     35      11.1399      0.00000
     36      11.6477      0.00000
     37      11.7401      0.00000
     38      12.1567      0.00000
     39      12.2059      0.00000
     40      12.7426      0.00000
     41      12.9143      0.00000
     42      13.3954      0.00000
     43      13.9089      0.00000
     44      14.1683      0.00000
     45      14.2810      0.00000
     46      15.1173      0.00000
     47      15.2275      0.00000
     48      15.6349      0.00000

 k-point   169 :       0.3500    0.3929    0.4444
  band No.  band energies     occupation 
      1     -12.1762      2.00000
      2     -11.7734      2.00000
      3      -8.6233      2.00000
      4      -8.3061      2.00000
      5      -5.8888      2.00000
      6      -5.5962      2.00000
      7      -5.4196      2.00000
      8      -4.9087      2.00000
      9      -4.1509      2.00000
     10      -3.4133      2.00000
     11      -2.3444      2.00000
     12      -2.0003      2.00000
     13      -1.8591      2.00000
     14      -1.4951      2.00000
     15      -0.7549      2.00000
     16      -0.2262      2.00000
     17       0.3079      2.00000
     18       0.4828      2.00000
     19       0.5486      2.00000
     20       1.3410      2.00000
     21       1.5697      2.00000
     22       1.6007      2.00000
     23       5.6004      0.00000
     24       6.1888      0.00000
     25       6.7162      0.00000
     26       7.2015      0.00000
     27       7.7470      0.00000
     28       8.3112      0.00000
     29       8.7566      0.00000
     30       9.1824      0.00000
     31       9.4592      0.00000
     32      10.0988      0.00000
     33      10.3417      0.00000
     34      10.6819      0.00000
     35      11.1164      0.00000
     36      11.7138      0.00000
     37      11.8056      0.00000
     38      11.9723      0.00000
     39      12.6521      0.00000
     40      12.9671      0.00000
     41      13.1803      0.00000
     42      13.6185      0.00000
     43      13.8339      0.00000
     44      14.2597      0.00000
     45      14.7044      0.00000
     46      14.7686      0.00000
     47      15.0330      0.00000
     48      15.3900      0.00000

 k-point   170 :       0.4500    0.3929    0.4444
  band No.  band energies     occupation 
      1     -12.0478      2.00000
      2     -11.9086      2.00000
      3      -8.5741      2.00000
      4      -8.4618      2.00000
      5      -5.7792      2.00000
      6      -5.6738      2.00000
      7      -4.9273      2.00000
      8      -4.6149      2.00000
      9      -4.4394      2.00000
     10      -4.0042      2.00000
     11      -2.1266      2.00000
     12      -2.0147      2.00000
     13      -2.0110      2.00000
     14      -1.7772      2.00000
     15      -0.2366      2.00000
     16      -0.0275      2.00000
     17       0.5111      2.00000
     18       0.5471      2.00000
     19       0.6375      2.00000
     20       0.8546      2.00000
     21       1.3517      2.00000
     22       1.4600      2.00000
     23       5.9194      0.00000
     24       6.0877      0.00000
     25       6.9335      0.00000
     26       7.3909      0.00000
     27       7.5147      0.00000
     28       7.6152      0.00000
     29       9.0659      0.00000
     30       9.2023      0.00000
     31       9.8755      0.00000
     32      10.1049      0.00000
     33      10.2867      0.00000
     34      10.4836      0.00000
     35      11.2064      0.00000
     36      11.4991      0.00000
     37      11.8448      0.00000
     38      11.8527      0.00000
     39      13.0915      0.00000
     40      13.2142      0.00000
     41      13.3671      0.00000
     42      13.7362      0.00000
     43      14.0016      0.00000
     44      14.1901      0.00000
     45      14.4857      0.00000
     46      14.6262      0.00000
     47      14.8902      0.00000
     48      15.2773      0.00000

 k-point   171 :       0.0500    0.4643    0.4444
  band No.  band energies     occupation 
      1     -12.3673      2.00000
      2     -11.5051      2.00000
      3      -8.4317      2.00000
      4      -7.8803      2.00000
      5      -6.5879      2.00000
      6      -6.2442      2.00000
      7      -5.6131      2.00000
      8      -5.3702      2.00000
      9      -3.2527      2.00000
     10      -2.7722      2.00000
     11      -2.0312      2.00000
     12      -1.5980      2.00000
     13      -1.4974      2.00000
     14      -1.3816      2.00000
     15      -1.3072      2.00000
     16      -0.8795      2.00000
     17      -0.6810      2.00000
     18      -0.4399      2.00000
     19       0.4355      2.00000
     20       1.7416      1.99994
     21       2.1433      0.00000
     22       3.8907      0.00000
     23       4.6255      0.00000
     24       5.7629      0.00000
     25       6.4625      0.00000
     26       7.2684      0.00000
     27       7.3120      0.00000
     28       7.8903      0.00000
     29       9.1074      0.00000
     30       9.4418      0.00000
     31       9.4554      0.00000
     32      10.1129      0.00000
     33      11.0848      0.00000
     34      11.3419      0.00000
     35      11.5909      0.00000
     36      11.7185      0.00000
     37      11.8667      0.00000
     38      12.0122      0.00000
     39      12.2985      0.00000
     40      12.5937      0.00000
     41      12.7546      0.00000
     42      12.8777      0.00000
     43      13.2778      0.00000
     44      13.3842      0.00000
     45      14.1129      0.00000
     46      15.3515      0.00000
     47      15.4049      0.00000
     48      15.5904      0.00000

 k-point   172 :       0.1500    0.4643    0.4444
  band No.  band energies     occupation 
      1     -12.3289      2.00000
      2     -11.5479      2.00000
      3      -8.5047      2.00000
      4      -7.9645      2.00000
      5      -6.3392      2.00000
      6      -6.2059      2.00000
      7      -5.6298      2.00000
      8      -5.2785      2.00000
      9      -3.4598      2.00000
     10      -2.6949      2.00000
     11      -2.2921      2.00000
     12      -1.7576      2.00000
     13      -1.5448      2.00000
     14      -1.4982      2.00000
     15      -1.2377      2.00000
     16      -0.7201      2.00000
     17      -0.4501      2.00000
     18      -0.1594      2.00000
     19       0.4258      2.00000
     20       1.7111      2.00000
     21       2.0961      0.00000
     22       3.2328      0.00000
     23       4.7867      0.00000
     24       6.2889      0.00000
     25       6.3650      0.00000
     26       7.0536      0.00000
     27       7.6170      0.00000
     28       8.1623      0.00000
     29       8.8668      0.00000
     30       9.2059      0.00000
     31       9.4788      0.00000
     32      10.4321      0.00000
     33      10.7405      0.00000
     34      11.3386      0.00000
     35      11.4121      0.00000
     36      11.5216      0.00000
     37      11.8183      0.00000
     38      12.0063      0.00000
     39      12.4964      0.00000
     40      12.6211      0.00000
     41      12.8275      0.00000
     42      13.0675      0.00000
     43      13.5182      0.00000
     44      13.6052      0.00000
     45      14.4185      0.00000
     46      14.8695      0.00000
     47      15.4223      0.00000
     48      15.5527      0.00000

 k-point   173 :       0.2500    0.4643    0.4444
  band No.  band energies     occupation 
      1     -12.2544      2.00000
      2     -11.6308      2.00000
      3      -8.5777      2.00000
      4      -8.1107      2.00000
      5      -6.1338      2.00000
      6      -5.9172      2.00000
      7      -5.6667      2.00000
      8      -5.1085      2.00000
      9      -3.7716      2.00000
     10      -2.8163      2.00000
     11      -2.5112      2.00000
     12      -1.9955      2.00000
     13      -1.7581      2.00000
     14      -1.3359      2.00000
     15      -1.1479      2.00000
     16      -0.4893      2.00000
     17      -0.1321      2.00000
     18       0.1476      2.00000
     19       0.4628      2.00000
     20       1.6594      2.00000
     21       2.0021      0.00080
     22       2.4099      0.00000
     23       5.0995      0.00000
     24       6.2323      0.00000
     25       6.7927      0.00000
     26       6.8625      0.00000
     27       7.9408      0.00000
     28       8.5200      0.00000
     29       8.6407      0.00000
     30       8.9383      0.00000
     31       9.6509      0.00000
     32      10.0766      0.00000
     33      10.7715      0.00000
     34      11.0694      0.00000
     35      11.3234      0.00000
     36      11.4603      0.00000
     37      11.6621      0.00000
     38      12.2707      0.00000
     39      12.4718      0.00000
     40      12.7085      0.00000
     41      13.2218      0.00000
     42      13.4204      0.00000
     43      13.7810      0.00000
     44      14.0850      0.00000
     45      14.0892      0.00000
     46      14.8565      0.00000
     47      15.2831      0.00000
     48      15.4603      0.00000

 k-point   174 :       0.3500    0.4643    0.4444
  band No.  band energies     occupation 
      1     -12.1489      2.00000
      2     -11.7464      2.00000
      3      -8.5972      2.00000
      4      -8.2799      2.00000
      5      -6.0363      2.00000
      6      -5.7323      2.00000
      7      -5.4005      2.00000
      8      -4.8676      2.00000
      9      -4.1137      2.00000
     10      -3.3829      2.00000
     11      -2.3161      2.00000
     12      -2.1475      2.00000
     13      -1.9836      2.00000
     14      -1.4915      2.00000
     15      -0.7386      2.00000
     16      -0.2028      2.00000
     17       0.1650      2.00000
     18       0.3843      2.00000
     19       0.5122      2.00000
     20       1.5878      2.00000
     21       1.6150      2.00000
     22       1.8704      1.29108
     23       5.5107      0.00000
     24       6.1454      0.00000
     25       6.6659      0.00000
     26       7.2161      0.00000
     27       7.7800      0.00000
     28       8.2233      0.00000
     29       8.9897      0.00000
     30       9.1489      0.00000
     31       9.7184      0.00000
     32       9.9539      0.00000
     33      10.5846      0.00000
     34      11.0293      0.00000
     35      11.2040      0.00000
     36      11.4759      0.00000
     37      11.5646      0.00000
     38      11.9475      0.00000
     39      12.8351      0.00000
     40      13.1422      0.00000
     41      13.3656      0.00000
     42      13.7457      0.00000
     43      13.8698      0.00000
     44      14.1529      0.00000
     45      14.4740      0.00000
     46      14.9644      0.00000
     47      15.0912      0.00000
     48      15.3918      0.00000

 k-point   175 :       0.4500    0.4643    0.4444
  band No.  band energies     occupation 
      1     -12.0208      2.00000
      2     -11.8817      2.00000
      3      -8.5472      2.00000
      4      -8.4349      2.00000
      5      -5.9268      2.00000
      6      -5.8206      2.00000
      7      -4.8923      2.00000
      8      -4.5688      2.00000
      9      -4.4141      2.00000
     10      -3.9759      2.00000
     11      -2.1997      2.00000
     12      -2.1381      2.00000
     13      -2.0584      2.00000
     14      -1.7741      2.00000
     15      -0.2204      2.00000
     16      -0.0068      2.00000
     17       0.3873      2.00000
     18       0.4752      2.00000
     19       0.5471      2.00000
     20       0.8733      2.00000
     21       1.6291      2.00000
     22       1.7287      1.99999
     23       5.8577      0.00000
     24       6.0433      0.00000
     25       6.8681      0.00000
     26       7.4049      0.00000
     27       7.4720      0.00000
     28       7.5746      0.00000
     29       9.3944      0.00000
     30       9.5782      0.00000
     31       9.7870      0.00000
     32       9.9646      0.00000
     33      10.4612      0.00000
     34      10.8111      0.00000
     35      11.2336      0.00000
     36      11.5067      0.00000
     37      11.5170      0.00000
     38      11.6101      0.00000
     39      13.0796      0.00000
     40      13.1856      0.00000
     41      13.7187      0.00000
     42      14.0512      0.00000
     43      14.1855      0.00000
     44      14.2883      0.00000
     45      14.5903      0.00000
     46      14.7344      0.00000
     47      14.8828      0.00000
     48      15.0439      0.00000


--------------------------------------------------------------------------------------------------------


 soft charge-density along one line, spin component           1
         0         1         2         3         4         5         6         7         8         9
 total charge-density along one line
 
 pseudopotential strength for first ion, spin component:           1
  6.445   9.814   0.000  -0.009   0.005   0.000  -0.014   0.007
  9.814  14.938   0.000  -0.013   0.007   0.000  -0.021   0.011
  0.000   0.000  -2.174   0.000   0.000  -3.695   0.000   0.000
 -0.009  -0.013   0.000  -2.178  -0.001   0.000  -3.705  -0.002
  0.005   0.007   0.000  -0.001  -2.177   0.000  -0.002  -3.703
  0.000   0.000  -3.695   0.000   0.000  -6.081   0.000   0.000
 -0.014  -0.021   0.000  -3.705  -0.002   0.000  -6.102  -0.004
  0.007   0.011   0.000  -0.002  -3.703   0.000  -0.004  -6.098
 total augmentation occupancy for first ion, spin component:           1
  3.621  -0.968   0.000  -0.244   0.416   0.000   0.123  -0.176
 -0.968   0.283  -0.000   0.160  -0.196   0.000  -0.056   0.073
  0.000   0.000   2.287   0.000   0.000  -0.547   0.000   0.000
 -0.244   0.160   0.000   3.790   0.326   0.000  -1.060  -0.120
  0.416  -0.196   0.000   0.326   3.617   0.000  -0.120  -0.986
  0.000   0.000  -0.547   0.000  -0.000   0.135   0.000   0.000
  0.123  -0.056   0.000  -1.060  -0.120   0.000   0.306   0.043
 -0.176   0.073   0.000  -0.120  -0.986   0.000   0.043   0.279


------------------------ aborting loop because EDIFF is reached ----------------------------------------


    CHARGE:  cpu time      0.1769: real time      0.1785
    FORLOC:  cpu time      0.0018: real time      0.0018
    FORNL :  cpu time      1.1255: real time      1.1300
