 running   24 mpi-ranks, with    1 threads/rank, on    1 nodes
 distrk:  each k-point on   24 cores,    1 groups
 distr:  one band on    1 cores,   24 groups
 vasp.6.4.3 19Mar24 (build May 31 2024 16:31:43) complex                        
  
 POSCAR found type information on POSCAR B 
 POSCAR found :  1 types and      14 ions
 Reading from existing POTCAR
 scaLAPACK will be used
 Reading from existing POTCAR
 LDA part: xc-table for (Slater+PW92), standard interpolation
 POSCAR, INCAR and KPOINTS ok, starting setup
 FFT: planning ... GRIDC
 FFT: planning ... GRID_SOFT
 FFT: planning ... GRID
 WAVECAR not read
 entering main loop
       N       E                     dE             d eps       ncg     rms          rms(c)
DAV:   1     0.104917745666E+03    0.10492E+03   -0.22473E+04 16800   0.102E+03
DAV:   2    -0.906008044150E+02   -0.19552E+03   -0.18237E+03 22800   0.184E+02
DAV:   3    -0.976127471077E+02   -0.70119E+01   -0.69625E+01 25008   0.307E+01
DAV:   4    -0.976547677971E+02   -0.42021E-01   -0.42019E-01 19344   0.276E+00
DAV:   5    -0.976552211537E+02   -0.45336E-03   -0.45335E-03 24960   0.273E-01    0.123E+01
DAV:   6    -0.922392330199E+02    0.54160E+01   -0.39494E+00 24264   0.659E+00    0.680E+00
DAV:   7    -0.905877383307E+02    0.16515E+01   -0.32210E+00 25176   0.587E+00    0.171E+00
DAV:   8    -0.906001588218E+02   -0.12420E-01   -0.23520E-01 18744   0.168E+00    0.704E-01
DAV:   9    -0.906143285896E+02   -0.14170E-01   -0.16949E-02 23304   0.441E-01    0.198E-01
DAV:  10    -0.906183846920E+02   -0.40561E-02   -0.21023E-03 19200   0.162E-01    0.610E-02
DAV:  11    -0.906194556034E+02   -0.10709E-02   -0.63068E-04 21624   0.879E-02    0.321E-02
