       N       E                     dE             d eps       ncg     rms          rms(c)
DAV:   1     0.817060834414E+01    0.81706E+01   -0.35049E+02  8400   0.407E+01
DAV:   2     0.121483027132E+00   -0.80491E+01   -0.80115E+01 16272   0.588E+00
DAV:   3    -0.544866782785E-01   -0.17597E+00   -0.15409E+00  8664   0.154E+00
DAV:   4    -0.582060292788E-01   -0.37194E-02   -0.34811E-02  9192   0.187E-01
DAV:   5    -0.582484579077E-01   -0.42429E-04   -0.42408E-04 13680   0.230E-02    0.783E-03
DAV:   6    -0.582496848207E-01   -0.12269E-05   -0.26658E-06 11232   0.315E-03    0.441E-03
DAV:   7    -0.582544847740E-01   -0.48000E-05   -0.63713E-07 10776   0.357E-03    0.221E-04
DAV:   8    -0.582545373441E-01   -0.52570E-07   -0.37179E-09 14184   0.191E-04
   1 F= -.58254537E-01 E0= -.31753867E-01  d E =-.530013E-01
