  14  14   0   0
  0.1023800E+02  0.5700418E-09  0.4050329E-09  0.6207923E-09  0.5000000E-15
  1.000000000000000E-004
  CAR 
 Convergence                             
     17.94419563    -14.18312785  301      1.87363454      1.00000000
    -14.183  0.0000E+00  0.0000E+00
    -14.076  0.0000E+00  0.0000E+00
    -13.969  0.0000E+00  0.0000E+00
    -13.862  0.0000E+00  0.0000E+00
    -13.755  0.0000E+00  0.0000E+00
    -13.648  0.0000E+00  0.0000E+00
    -13.541  0.0000E+00  0.0000E+00
    -13.433  0.0000E+00  0.0000E+00
    -13.326  0.0000E+00  0.0000E+00
    -13.219  0.0000E+00  0.0000E+00
    -13.112  0.0000E+00  0.0000E+00
    -13.005  0.4937E-16  0.5287E-17
    -12.898  0.3055E-07  0.3271E-08
    -12.791  0.3845E-02  0.4118E-03
    -12.684  0.5093E+00  0.5495E-01
    -12.577  0.2392E+01  0.3112E+00
    -12.470  0.3568E+01  0.6933E+00
    -12.363  0.4375E+01  0.1162E+01
    -12.255  0.3539E+01  0.1541E+01
    -12.148  0.2736E+01  0.1834E+01
    -12.041  0.2753E+01  0.2129E+01
    -11.934  0.2502E+01  0.2397E+01
    -11.827  0.2771E+01  0.2693E+01
    -11.720  0.3420E+01  0.3060E+01
    -11.613  0.3536E+01  0.3438E+01
    -11.506  0.3125E+01  0.3773E+01
    -11.399  0.1681E+01  0.3953E+01
    -11.292  0.4310E+00  0.3999E+01
    -11.185  0.7812E-02  0.4000E+01
    -11.077  0.2080E-06  0.4000E+01
    -10.970  0.1251E-14  0.4000E+01
    -10.863  0.0000E+00  0.4000E+01
    -10.756  0.0000E+00  0.4000E+01
    -10.649  0.0000E+00  0.4000E+01
    -10.542  0.0000E+00  0.4000E+01
    -10.435  0.0000E+00  0.4000E+01
    -10.328  0.0000E+00  0.4000E+01
    -10.221  0.0000E+00  0.4000E+01
    -10.114  0.0000E+00  0.4000E+01
    -10.007  0.0000E+00  0.4000E+01
     -9.899  0.0000E+00  0.4000E+01
     -9.792  0.0000E+00  0.4000E+01
     -9.685  0.0000E+00  0.4000E+01
     -9.578  0.0000E+00  0.4000E+01
     -9.471  0.0000E+00  0.4000E+01
     -9.364  0.0000E+00  0.4000E+01
     -9.257  0.0000E+00  0.4000E+01
     -9.150  0.0000E+00  0.4000E+01
     -9.043  0.1003E-08  0.4000E+01
     -8.936  0.6394E-03  0.4000E+01
     -8.829  0.2786E+00  0.4030E+01
     -8.721  0.2100E+01  0.4255E+01
     -8.614  0.5352E+01  0.4828E+01
     -8.507  0.7000E+01  0.5578E+01
     -8.400  0.6291E+01  0.6251E+01
     -8.293  0.5327E+01  0.6822E+01
     -8.186  0.4841E+01  0.7340E+01
     -8.079  0.3868E+01  0.7755E+01
     -7.972  0.1664E+01  0.7933E+01
     -7.865  0.5767E+00  0.7994E+01
     -7.758  0.5195E-01  0.8000E+01
     -7.651  0.2426E-04  0.8000E+01
     -7.543  0.2798E-11  0.8000E+01
     -7.436  0.0000E+00  0.8000E+01
     -7.329  0.0000E+00  0.8000E+01
     -7.222  0.0000E+00  0.8000E+01
     -7.115  0.4534E-09  0.8000E+01
     -7.008  0.3799E-03  0.8000E+01
     -6.901  0.1116E+00  0.8012E+01
     -6.794  0.2585E+00  0.8040E+01
     -6.687  0.4253E+00  0.8085E+01
     -6.580  0.7662E+00  0.8167E+01
     -6.473  0.8482E+00  0.8258E+01
     -6.365  0.1439E+01  0.8412E+01
     -6.258  0.1951E+01  0.8621E+01
     -6.151  0.3054E+01  0.8948E+01
     -6.044  0.3791E+01  0.9354E+01
     -5.937  0.4119E+01  0.9795E+01
     -5.830  0.4049E+01  0.1023E+02
     -5.723  0.3873E+01  0.1064E+02
     -5.616  0.4074E+01  0.1108E+02
     -5.509  0.4219E+01  0.1153E+02
     -5.402  0.4556E+01  0.1202E+02
     -5.295  0.4611E+01  0.1251E+02
     -5.187  0.4494E+01  0.1299E+02
     -5.080  0.3876E+01  0.1341E+02
     -4.973  0.3225E+01  0.1376E+02
     -4.866  0.2963E+01  0.1407E+02
     -4.759  0.2323E+01  0.1432E+02
     -4.652  0.2897E+01  0.1463E+02
     -4.545  0.3371E+01  0.1499E+02
     -4.438  0.3459E+01  0.1536E+02
     -4.331  0.3347E+01  0.1572E+02
     -4.224  0.2958E+01  0.1604E+02
     -4.117  0.2909E+01  0.1635E+02
     -4.009  0.2939E+01  0.1666E+02
     -3.902  0.2871E+01  0.1697E+02
     -3.795  0.3113E+01  0.1731E+02
     -3.688  0.2886E+01  0.1761E+02
     -3.581  0.2706E+01  0.1790E+02
     -3.474  0.3072E+01  0.1823E+02
     -3.367  0.2649E+01  0.1852E+02
     -3.260  0.2847E+01  0.1882E+02
     -3.153  0.2768E+01  0.1912E+02
     -3.046  0.2726E+01  0.1941E+02
     -2.939  0.3063E+01  0.1974E+02
     -2.831  0.2980E+01  0.2006E+02
     -2.724  0.2438E+01  0.2032E+02
     -2.617  0.2647E+01  0.2060E+02
     -2.510  0.3016E+01  0.2092E+02
     -2.403  0.2994E+01  0.2125E+02
     -2.296  0.3188E+01  0.2159E+02
     -2.189  0.4004E+01  0.2202E+02
     -2.082  0.3657E+01  0.2241E+02
     -1.975  0.3245E+01  0.2275E+02
     -1.868  0.5062E+01  0.2330E+02
     -1.761  0.5553E+01  0.2389E+02
     -1.653  0.5627E+01  0.2449E+02
     -1.546  0.6178E+01  0.2516E+02
     -1.439  0.6129E+01  0.2581E+02
     -1.332  0.5591E+01  0.2641E+02
     -1.225  0.4684E+01  0.2691E+02
     -1.118  0.6496E+01  0.2761E+02
     -1.011  0.4071E+01  0.2804E+02
     -0.904  0.2278E+01  0.2829E+02
     -0.797  0.2702E+01  0.2858E+02
     -0.690  0.2881E+01  0.2889E+02
     -0.583  0.4477E+01  0.2937E+02
     -0.475  0.6843E+01  0.3010E+02
     -0.368  0.5668E+01  0.3071E+02
     -0.261  0.6674E+01  0.3142E+02
     -0.154  0.6369E+01  0.3210E+02
     -0.047  0.6741E+01  0.3282E+02
      0.060  0.6796E+01  0.3355E+02
      0.167  0.6269E+01  0.3422E+02
      0.274  0.8821E+01  0.3517E+02
      0.381  0.8040E+01  0.3603E+02
      0.488  0.8688E+01  0.3696E+02
      0.595  0.5316E+01  0.3753E+02
      0.703  0.2973E+01  0.3785E+02
      0.810  0.3263E+01  0.3820E+02
      0.917  0.3589E+01  0.3858E+02
      1.024  0.3573E+01  0.3896E+02
      1.131  0.2798E+01  0.3926E+02
      1.238  0.3377E+01  0.3962E+02
      1.345  0.4488E+01  0.4011E+02
      1.452  0.3799E+01  0.4051E+02
      1.559  0.3711E+01  0.4091E+02
      1.666  0.4584E+01  0.4140E+02
      1.773  0.3289E+01  0.4175E+02
      1.881  0.2477E+01  0.4202E+02
      1.988  0.2670E+01  0.4230E+02
      2.095  0.2094E+01  0.4253E+02
      2.202  0.2651E+01  0.4281E+02
      2.309  0.2590E+01  0.4309E+02
      2.416  0.1957E+01  0.4330E+02
      2.523  0.8763E+00  0.4339E+02
      2.630  0.3787E+00  0.4343E+02
      2.737  0.5741E+00  0.4349E+02
      2.844  0.4203E+00  0.4354E+02
      2.951  0.3055E+00  0.4357E+02
      3.059  0.7469E+00  0.4365E+02
      3.166  0.1019E+01  0.4376E+02
      3.273  0.5525E+00  0.4382E+02
      3.380  0.1461E-01  0.4382E+02
      3.487  0.1260E+00  0.4384E+02
      3.594  0.3942E+00  0.4388E+02
      3.701  0.3346E+00  0.4391E+02
      3.808  0.3687E+00  0.4395E+02
      3.915  0.4073E+00  0.4400E+02
      4.022  0.2884E-01  0.4400E+02
      4.129  0.1634E-04  0.4400E+02
      4.237  0.2483E-01  0.4400E+02
      4.344  0.1705E+00  0.4402E+02
      4.451  0.3949E+00  0.4406E+02
      4.558  0.4601E+00  0.4411E+02
      4.665  0.6268E+00  0.4418E+02
      4.772  0.8811E+00  0.4427E+02
      4.879  0.8389E+00  0.4436E+02
      4.986  0.8605E+00  0.4446E+02
      5.093  0.1267E+01  0.4459E+02
      5.200  0.1165E+01  0.4472E+02
      5.307  0.1614E+01  0.4489E+02
      5.415  0.2168E+01  0.4512E+02
      5.522  0.2494E+01  0.4539E+02
      5.629  0.2793E+01  0.4569E+02
      5.736  0.3334E+01  0.4604E+02
      5.843  0.3239E+01  0.4639E+02
      5.950  0.4280E+01  0.4685E+02
      6.057  0.4784E+01  0.4736E+02
      6.164  0.4063E+01  0.4780E+02
      6.271  0.4614E+01  0.4829E+02
      6.378  0.4211E+01  0.4874E+02
      6.485  0.3990E+01  0.4917E+02
      6.593  0.4502E+01  0.4965E+02
      6.700  0.3240E+01  0.5000E+02
      6.807  0.3981E+01  0.5042E+02
      6.914  0.4610E+01  0.5092E+02
      7.021  0.4568E+01  0.5141E+02
      7.128  0.4340E+01  0.5187E+02
      7.235  0.5589E+01  0.5247E+02
      7.342  0.4957E+01  0.5300E+02
      7.449  0.4467E+01  0.5348E+02
      7.556  0.4211E+01  0.5393E+02
      7.663  0.3579E+01  0.5431E+02
      7.771  0.3116E+01  0.5465E+02
      7.878  0.3020E+01  0.5497E+02
      7.985  0.2973E+01  0.5529E+02
      8.092  0.4164E+01  0.5574E+02
      8.199  0.3905E+01  0.5615E+02
      8.306  0.3715E+01  0.5655E+02
      8.413  0.4000E+01  0.5698E+02
      8.520  0.4233E+01  0.5743E+02
      8.627  0.4475E+01  0.5791E+02
      8.734  0.4252E+01  0.5837E+02
      8.841  0.5303E+01  0.5894E+02
      8.949  0.4881E+01  0.5946E+02
      9.056  0.5289E+01  0.6003E+02
      9.163  0.5232E+01  0.6059E+02
      9.270  0.4991E+01  0.6112E+02
      9.377  0.4678E+01  0.6162E+02
      9.484  0.4385E+01  0.6209E+02
      9.591  0.5099E+01  0.6264E+02
      9.698  0.5032E+01  0.6318E+02
      9.805  0.5293E+01  0.6374E+02
      9.912  0.4488E+01  0.6422E+02
     10.019  0.3658E+01  0.6461E+02
     10.127  0.5184E+01  0.6517E+02
     10.234  0.4719E+01  0.6568E+02
     10.341  0.4137E+01  0.6612E+02
     10.448  0.5379E+01  0.6669E+02
     10.555  0.5822E+01  0.6732E+02
     10.662  0.4074E+01  0.6775E+02
     10.769  0.3898E+01  0.6817E+02
     10.876  0.3255E+01  0.6852E+02
     10.983  0.4677E+01  0.6902E+02
     11.090  0.5451E+01  0.6960E+02
     11.197  0.6235E+01  0.7027E+02
     11.305  0.6001E+01  0.7092E+02
     11.412  0.5244E+01  0.7148E+02
     11.519  0.4352E+01  0.7194E+02
     11.626  0.4475E+01  0.7242E+02
     11.733  0.4955E+01  0.7295E+02
     11.840  0.4814E+01  0.7347E+02
     11.947  0.6019E+01  0.7411E+02
     12.054  0.5983E+01  0.7475E+02
     12.161  0.6025E+01  0.7540E+02
     12.268  0.5587E+01  0.7600E+02
     12.375  0.5000E+01  0.7653E+02
     12.483  0.5705E+01  0.7714E+02
     12.590  0.5979E+01  0.7778E+02
     12.697  0.5987E+01  0.7842E+02
     12.804  0.5916E+01  0.7906E+02
     12.911  0.5875E+01  0.7969E+02
     13.018  0.5608E+01  0.8029E+02
     13.125  0.6348E+01  0.8097E+02
     13.232  0.6287E+01  0.8164E+02
     13.339  0.5419E+01  0.8222E+02
     13.446  0.6127E+01  0.8288E+02
     13.553  0.5383E+01  0.8345E+02
     13.661  0.4823E+01  0.8397E+02
     13.768  0.6155E+01  0.8463E+02
     13.875  0.5522E+01  0.8522E+02
     13.982  0.5356E+01  0.8579E+02
     14.089  0.5477E+01  0.8638E+02
     14.196  0.4681E+01  0.8688E+02
     14.303  0.4932E+01  0.8741E+02
     14.410  0.4993E+01  0.8795E+02
     14.517  0.4952E+01  0.8848E+02
     14.624  0.5274E+01  0.8904E+02
     14.731  0.5182E+01  0.8960E+02
     14.839  0.4096E+01  0.9003E+02
     14.946  0.5051E+01  0.9058E+02
     15.053  0.6167E+01  0.9124E+02
     15.160  0.5667E+01  0.9184E+02
     15.267  0.5697E+01  0.9245E+02
     15.374  0.6015E+01  0.9310E+02
     15.481  0.5751E+01  0.9371E+02
     15.588  0.5978E+01  0.9435E+02
     15.695  0.4608E+01  0.9485E+02
     15.802  0.2489E+01  0.9511E+02
     15.909  0.2707E+01  0.9540E+02
     16.017  0.1853E+01  0.9560E+02
     16.124  0.1139E+01  0.9572E+02
     16.231  0.8912E+00  0.9582E+02
     16.338  0.6996E+00  0.9589E+02
     16.445  0.8145E+00  0.9598E+02
     16.552  0.1773E+00  0.9600E+02
     16.659  0.1695E-02  0.9600E+02
     16.766  0.2130E-07  0.9600E+02
     16.873  0.3949E-16  0.9600E+02
     16.980  0.0000E+00  0.9600E+02
     17.087  0.0000E+00  0.9600E+02
     17.195  0.0000E+00  0.9600E+02
     17.302  0.0000E+00  0.9600E+02
     17.409  0.0000E+00  0.9600E+02
     17.516  0.0000E+00  0.9600E+02
     17.623  0.0000E+00  0.9600E+02
     17.730  0.0000E+00  0.9600E+02
     17.837  0.0000E+00  0.9600E+02
     17.944  0.0000E+00  0.9600E+02
