   14   14    1    1
  0.1023800E+02  0.5700418E-09  0.4050329E-09  0.6207923E-09  0.5000000E-15
  1.000000000000000E-004
  CAR 
 Convergence                             
     42    175     48
 
  0.5000000E-01  0.3571429E-01  0.0000000E+00  0.3174603E-02
      1        -12.722795   1.000000
      2        -11.581067   1.000000
      3         -8.660491   1.000000
      4         -8.424015   1.000000
      5         -6.068669   1.000000
      6         -5.135154   1.000000
      7         -4.671396   1.000000
      8         -4.277989   1.000000
      9         -4.037607   1.000000
     10         -3.549143   1.000000
     11         -2.601430   1.000000
     12         -2.332571   1.000000
     13         -1.842003   1.000000
     14         -1.103549   1.000000
     15         -0.076755   1.000000
     16         -0.046466   1.000000
     17          0.146949   1.000000
     18          0.167915   1.000000
     19          0.556425   1.000000
     20          2.009138   0.000063
     21          2.071937   0.000000
     22          2.205742   0.000000
     23          5.443889   0.000000
     24          5.734845   0.000000
     25          5.822948   0.000000
     26          5.945064   0.000000
     27          6.798434   0.000000
     28          7.532490   0.000000
     29          7.860758   0.000000
     30          8.514660   0.000000
     31          8.777923   0.000000
     32          8.928040   0.000000
     33          9.024297   0.000000
     34         10.105649   0.000000
     35         11.167639   0.000000
     36         11.311097   0.000000
     37         11.640269   0.000000
     38         11.759354   0.000000
     39         11.921036   0.000000
     40         12.384784   0.000000
     41         12.843441   0.000000
     42         13.426624   0.000000
     43         13.453930   0.000000
     44         15.349574   0.000000
     45         15.541392   0.000000
     46         16.030071   0.000000
     47         16.305179   0.000000
     48         16.327153   0.000000
 
  0.1500000E+00  0.3571429E-01  0.0000000E+00  0.3174603E-02
      1        -12.679071   1.000000
      2        -11.654875   1.000000
      3         -8.639356   1.000000
      4         -8.412515   1.000000
      5         -6.000574   1.000000
      6         -5.475386   1.000000
      7         -4.793406   1.000000
      8         -4.013817   1.000000
      9         -3.796483   1.000000
     10         -3.212207   1.000000
     11         -2.671516   1.000000
     12         -2.312605   1.000000
     13         -1.920224   1.000000
     14         -1.410299   1.000000
     15         -0.036552   1.000000
     16         -0.027117   1.000000
     17          0.085596   1.000000
     18          0.188737   1.000000
     19          0.461287   1.000000
     20          1.923003   0.081306
     21          1.994086   0.000329
     22          2.084751   0.000000
     23          5.532900   0.000000
     24          5.742134   0.000000
     25          5.852056   0.000000
     26          6.289923   0.000000
     27          6.713138   0.000000
     28          7.171237   0.000000
     29          8.069324   0.000000
     30          8.651055   0.000000
     31          9.032673   0.000000
     32          9.107707   0.000000
     33          9.182629   0.000000
     34         10.216063   0.000000
     35         10.919441   0.000000
     36         11.107156   0.000000
     37         11.240354   0.000000
     38         11.676843   0.000000
     39         12.138117   0.000000
     40         12.473465   0.000000
     41         13.095232   0.000000
     42         13.102540   0.000000
     43         13.984159   0.000000
     44         14.838881   0.000000
     45         15.722190   0.000000
     46         15.802809   0.000000
     47         16.196639   0.000000
     48         16.483863   0.000000
 
  0.2500000E+00  0.3571429E-01  0.0000000E+00  0.3174603E-02
      1        -12.593482   1.000000
      2        -11.787847   1.000000
      3         -8.595734   1.000000
      4         -8.397785   1.000000
      5         -5.978903   1.000000
      6         -5.801608   1.000000
      7         -4.747313   1.000000
      8         -3.886809   1.000000
      9         -3.285751   1.000000
     10         -2.839776   1.000000
     11         -2.720693   1.000000
     12         -2.272404   1.000000
     13         -2.030347   1.000000
     14         -1.914287   1.000000
     15         -0.229222   1.000000
     16          0.006038   1.000000
     17          0.134831   1.000000
     18          0.149747   1.000000
     19          0.431104   1.000000
     20          1.775338   0.997284
     21          1.855642   0.694591
     22          1.861500   0.634282
     23          5.653915   0.000000
     24          5.698587   0.000000
     25          6.161033   0.000000
     26          6.587459   0.000000
     27          6.747769   0.000000
     28          6.916859   0.000000
     29          8.219411   0.000000
     30          8.799695   0.000000
     31          8.976492   0.000000
     32          9.551972   0.000000
     33          9.627001   0.000000
     34         10.259247   0.000000
     35         10.462964   0.000000
     36         10.602343   0.000000
     37         11.359603   0.000000
     38         11.819554   0.000000
     39         12.372889   0.000000
     40         12.540223   0.000000
     41         12.772404   0.000000
     42         12.892138   0.000000
     43         14.609096   0.000000
     44         14.889254   0.000000
     45         15.201349   0.000000
     46         15.954139   0.000000
     47         15.974082   0.000000
     48         16.259917   0.000000
 
  0.3500000E+00  0.3571429E-01  0.0000000E+00  0.3174603E-02
      1        -12.470023   1.000000
      2        -11.957198   1.000000
      3         -8.533930   1.000000
      4         -8.394527   1.000000
      5         -6.059245   1.000000
      6         -6.034538   1.000000
      7         -4.420153   1.000000
      8         -3.718214   1.000000
      9         -3.033451   1.000000
     10         -2.901819   1.000000
     11         -2.450176   1.000000
     12         -2.259791   1.000000
     13         -2.154454   1.000000
     14         -2.130809   1.000000
     15         -0.528319   1.000000
     16         -0.254696   1.000000
     17          0.165302   1.000000
     18          0.240595   1.000000
     19          0.604068   1.000000
     20          1.520005   1.000000
     21          1.653039   1.000000
     22          1.713411   0.999997
     23          5.683611   0.000000
     24          5.739062   0.000000
     25          6.486530   0.000000
     26          6.658519   0.000000
     27          6.684274   0.000000
     28          7.396285   0.000000
     29          8.343243   0.000000
     30          8.669918   0.000000
     31          8.787565   0.000000
     32          9.514839   0.000000
     33         10.032946   0.000000
     34         10.097742   0.000000
     35         10.375514   0.000000
     36         11.122664   0.000000
     37         11.384664   0.000000
     38         11.920793   0.000000
     39         12.181432   0.000000
     40         12.251091   0.000000
     41         12.500451   0.000000
     42         13.235686   0.000000
     43         14.690254   0.000000
     44         14.950961   0.000000
     45         15.233173   0.000000
     46         15.348231   0.000000
     47         15.544910   0.000000
     48         16.348899   0.000000
 
  0.4500000E+00  0.3571429E-01  0.0000000E+00  0.3174603E-02
      1        -12.315339   1.000000
      2        -12.139543   1.000000
      3         -8.467900   1.000000
      4         -8.417036   1.000000
      5         -6.148245   1.000000
      6         -6.144111   1.000000
      7         -3.905233   1.000000
      8         -3.509405   1.000000
      9         -3.306279   1.000000
     10         -3.271920   1.000000
     11         -2.367176   1.000000
     12         -2.239589   1.000000
     13         -1.969874   1.000000
     14         -1.915776   1.000000
     15         -0.748874   1.000000
     16         -0.613152   1.000000
     17          0.248378   1.000000
     18          0.281881   1.000000
     19          0.864522   1.000000
     20          1.181558   1.000000
     21          1.572516   1.000000
     22          1.599805   1.000000
     23          5.711994   0.000000
     24          5.749887   0.000000
     25          6.465453   0.000000
     26          6.529539   0.000000
     27          7.352341   0.000000
     28          8.056120   0.000000
     29          8.078460   0.000000
     30          8.460465   0.000000
     31          8.598491   0.000000
     32          8.770648   0.000000
     33         10.480768   0.000000
     34         10.496058   0.000000
     35         10.737678   0.000000
     36         11.195320   0.000000
     37         11.379601   0.000000
     38         11.573852   0.000000
     39         11.906874   0.000000
     40         12.459043   0.000000
     41         12.695564   0.000000
     42         13.230454   0.000000
     43         14.568215   0.000000
     44         14.708217   0.000000
     45         14.845061   0.000000
     46         14.904085   0.000000
     47         16.071696   0.000000
     48         16.416684   0.000000
 
  0.5000000E-01  0.1071429E+00  0.0000000E+00  0.3174603E-02
      1        -12.698819   1.000000
      2        -11.559508   1.000000
      3         -8.641762   1.000000
      4         -8.400929   1.000000
      5         -6.041973   1.000000
      6         -5.101448   1.000000
      7         -4.649398   1.000000
      8         -4.576471   1.000000
      9         -4.181367   1.000000
     10         -3.526366   1.000000
     11         -3.294171   1.000000
     12         -1.801687   1.000000
     13         -1.098985   1.000000
     14         -1.043649   1.000000
     15         -0.310186   1.000000
     16         -0.282187   1.000000
     17          0.160446   1.000000
     18          0.238182   1.000000
     19          0.634652   1.000000
     20          1.741816   0.999904
     21          1.821486   0.929892
     22          2.257868   0.000000
     23          5.562965   0.000000
     24          5.693260   0.000000
     25          5.727993   0.000000
     26          5.990846   0.000000
     27          7.083785   0.000000
     28          7.817858   0.000000
     29          8.057982   0.000000
     30          8.170311   0.000000
     31          8.782375   0.000000
     32          9.073482   0.000000
     33          9.126355   0.000000
     34         10.556551   0.000000
     35         11.242979   0.000000
     36         11.381720   0.000000
     37         11.574384   0.000000
     38         11.861992   0.000000
     39         12.031824   0.000000
     40         12.664186   0.000000
     41         12.844068   0.000000
     42         13.164432   0.000000
     43         13.169697   0.000000
     44         15.301440   0.000000
     45         15.349802   0.000000
     46         15.829857   0.000000
     47         15.836739   0.000000
     48         16.190246   0.000000
 
  0.1500000E+00  0.1071429E+00  0.0000000E+00  0.3174603E-02
      1        -12.655187   1.000000
      2        -11.633169   1.000000
      3         -8.620475   1.000000
      4         -8.389806   1.000000
      5         -5.972093   1.000000
      6         -5.445320   1.000000
      7         -4.773419   1.000000
      8         -4.494307   1.000000
      9         -3.757498   1.000000
     10         -3.374667   1.000000
     11         -3.174257   1.000000
     12         -1.780039   1.000000
     13         -1.404890   1.000000
     14         -1.162198   1.000000
     15         -0.271365   1.000000
     16         -0.202530   1.000000
     17          0.127844   1.000000
     18          0.210199   1.000000
     19          0.531889   1.000000
     20          1.661402   1.000000
     21          1.745109   0.999861
     22          2.127244   0.000000
     23          5.638924   0.000000
     24          5.792144   0.000000
     25          5.919190   0.000000
     26          6.097165   0.000000
     27          7.000530   0.000000
     28          7.492960   0.000000
     29          8.203831   0.000000
     30          8.339658   0.000000
     31          9.103623   0.000000
     32          9.137382   0.000000
     33          9.393717   0.000000
     34         10.479871   0.000000
     35         10.851073   0.000000
     36         11.059958   0.000000
     37         11.436065   0.000000
     38         11.849671   0.000000
     39         12.251247   0.000000
     40         12.717382   0.000000
     41         12.843025   0.000000
     42         13.126556   0.000000
     43         13.702311   0.000000
     44         14.923810   0.000000
     45         15.369251   0.000000
     46         15.723409   0.000000
     47         15.765827   0.000000
     48         16.370340   0.000000
 
  0.2500000E+00  0.1071429E+00  0.0000000E+00  0.3174603E-02
      1        -12.569793   1.000000
      2        -11.765879   1.000000
      3         -8.576641   1.000000
      4         -8.375776   1.000000
      5         -5.947664   1.000000
      6         -5.771251   1.000000
      7         -4.730709   1.000000
      8         -4.386021   1.000000
      9         -3.496377   1.000000
     10         -3.232057   1.000000
     11         -2.708315   1.000000
     12         -1.909696   1.000000
     13         -1.735849   1.000000
     14         -1.324764   1.000000
     15         -0.231420   1.000000
     16         -0.224674   1.000000
     17          0.044932   1.000000
     18          0.197345   1.000000
     19          0.455591   1.000000
     20          1.526577   1.000000
     21          1.615169   1.000000
     22          1.879329   0.436026
     23          5.840139   0.000000
     24          5.919959   0.000000
     25          5.997987   0.000000
     26          6.545193   0.000000
     27          6.880120   0.000000
     28          7.265413   0.000000
     29          8.410213   0.000000
     30          8.472091   0.000000
     31          9.075860   0.000000
     32          9.589993   0.000000
     33          9.852310   0.000000
     34         10.103542   0.000000
     35         10.330838   0.000000
     36         10.799108   0.000000
     37         11.500757   0.000000
     38         12.084396   0.000000
     39         12.283686   0.000000
     40         12.534635   0.000000
     41         12.931756   0.000000
     42         13.001796   0.000000
     43         14.278811   0.000000
     44         15.056215   0.000000
     45         15.134755   0.000000
     46         15.616776   0.000000
     47         15.681554   0.000000
     48         16.390666   0.000000
 
  0.3500000E+00  0.1071429E+00  0.0000000E+00  0.3174603E-02
      1        -12.446600   1.000000
      2        -11.934874   1.000000
      3         -8.514591   1.000000
      4         -8.373407   1.000000
      5         -6.026800   1.000000
      6         -6.003315   1.000000
      7         -4.405688   1.000000
      8         -4.239203   1.000000
      9         -3.667552   1.000000
     10         -2.852922   1.000000
     11         -2.368736   1.000000
     12         -2.225526   1.000000
     13         -1.671746   1.000000
     14         -1.487514   1.000000
     15         -0.490021   1.000000
     16         -0.316883   1.000000
     17          0.076587   1.000000
     18          0.106937   1.000000
     19          0.614713   1.000000
     20          1.387062   1.000000
     21          1.469964   1.000000
     22          1.555789   1.000000
     23          5.857975   0.000000
     24          5.993331   0.000000
     25          6.502932   0.000000
     26          6.790954   0.000000
     27          6.864089   0.000000
     28          7.355762   0.000000
     29          8.399699   0.000000
     30          8.579587   0.000000
     31          8.917095   0.000000
     32          9.350756   0.000000
     33         10.049969   0.000000
     34         10.075445   0.000000
     35         10.420079   0.000000
     36         11.199512   0.000000
     37         11.342259   0.000000
     38         11.818018   0.000000
     39         12.265778   0.000000
     40         12.524407   0.000000
     41         12.700046   0.000000
     42         13.437491   0.000000
     43         14.739120   0.000000
     44         14.747469   0.000000
     45         15.125577   0.000000
     46         15.280947   0.000000
     47         15.622605   0.000000
     48         16.362308   0.000000
 
  0.4500000E+00  0.1071429E+00  0.0000000E+00  0.3174603E-02
      1        -12.292251   1.000000
      2        -12.116834   1.000000
      3         -8.448215   1.000000
      4         -8.396761   1.000000
      5         -6.116208   1.000000
      6         -6.111632   1.000000
      7         -4.060525   1.000000
      8         -3.897851   1.000000
      9         -3.856984   1.000000
     10         -3.293489   1.000000
     11         -2.114197   1.000000
     12         -1.921023   1.000000
     13         -1.603615   1.000000
     14         -1.599889   1.000000
     15         -0.710747   1.000000
     16         -0.609249   1.000000
     17          0.109981   1.000000
     18          0.141131   1.000000
     19          0.873904   1.000000
     20          1.187976   1.000000
     21          1.333649   1.000000
     22          1.357708   1.000000
     23          5.909428   0.000000
     24          5.975650   0.000000
     25          6.780352   0.000000
     26          6.830928   0.000000
     27          7.169553   0.000000
     28          7.880741   0.000000
     29          7.925026   0.000000
     30          8.606264   0.000000
     31          8.671804   0.000000
     32          8.784175   0.000000
     33         10.297843   0.000000
     34         10.546545   0.000000
     35         10.783951   0.000000
     36         10.886151   0.000000
     37         11.526863   0.000000
     38         11.632882   0.000000
     39         11.985491   0.000000
     40         12.627417   0.000000
     41         13.003338   0.000000
     42         13.461179   0.000000
     43         14.523005   0.000000
     44         14.707899   0.000000
     45         14.805621   0.000000
     46         15.023268   0.000000
     47         16.096584   0.000000
     48         16.391184   0.000000
 
  0.5000000E-01  0.1785714E+00  0.0000000E+00  0.3174603E-02
      1        -12.654523   1.000000
      2        -11.519752   1.000000
      3         -8.607468   1.000000
      4         -8.358340   1.000000
      5         -5.992615   1.000000
      6         -5.133196   1.000000
      7         -5.010852   1.000000
      8         -4.607693   1.000000
      9         -4.165032   1.000000
     10         -3.915859   1.000000
     11         -3.473215   1.000000
     12         -1.212131   1.000000
     13         -1.089694   1.000000
     14         -0.653457   1.000000
     15         -0.548412   1.000000
     16         -0.185749   1.000000
     17          0.181605   1.000000
     18          0.290878   1.000000
     19          0.712925   1.000000
     20          1.359699   1.000000
     21          1.423055   1.000000
     22          2.295851   0.000000
     23          5.274643   0.000000
     24          5.439571   0.000000
     25          6.107181   0.000000
     26          6.178567   0.000000
     27          7.517986   0.000000
     28          7.606813   0.000000
     29          8.299550   0.000000
     30          8.704971   0.000000
     31          8.861465   0.000000
     32          9.214482   0.000000
     33          9.347931   0.000000
     34         10.859587   0.000000
     35         11.295671   0.000000
     36         11.548621   0.000000
     37         11.681493   0.000000
     38         12.062201   0.000000
     39         12.247886   0.000000
     40         12.722588   0.000000
     41         12.735617   0.000000
     42         12.978935   0.000000
     43         13.202721   0.000000
     44         14.643781   0.000000
     45         15.131429   0.000000
     46         15.311122   0.000000
     47         15.404550   0.000000
     48         15.930166   0.000000
 
  0.1500000E+00  0.1785714E+00  0.0000000E+00  0.3174603E-02
      1        -12.611077   1.000000
      2        -11.593143   1.000000
      3         -8.585882   1.000000
      4         -8.347917   1.000000
      5         -5.919336   1.000000
      6         -5.397056   1.000000
      7         -5.035259   1.000000
      8         -4.735796   1.000000
      9         -3.981816   1.000000
     10         -3.715546   1.000000
     11         -3.134862   1.000000
     12         -1.396618   1.000000
     13         -1.185900   1.000000
     14         -0.760987   1.000000
     15         -0.510467   1.000000
     16         -0.104491   1.000000
     17          0.161547   1.000000
     18          0.235308   1.000000
     19          0.600421   1.000000
     20          1.280676   1.000000
     21          1.353390   1.000000
     22          2.160225   0.000000
     23          5.354979   0.000000
     24          5.784795   0.000000
     25          6.124630   0.000000
     26          6.221965   0.000000
     27          7.437374   0.000000
     28          7.763346   0.000000
     29          8.031850   0.000000
     30          8.796345   0.000000
     31          9.227030   0.000000
     32          9.264422   0.000000
     33          9.632142   0.000000
     34         10.495148   0.000000
     35         10.756669   0.000000
     36         11.252909   0.000000
     37         11.699398   0.000000
     38         12.174964   0.000000
     39         12.407549   0.000000
     40         12.478755   0.000000
     41         13.136637   0.000000
     42         13.250399   0.000000
     43         13.410994   0.000000
     44         14.654883   0.000000
     45         14.793692   0.000000
     46         15.249553   0.000000
     47         15.468478   0.000000
     48         15.958671   0.000000
 
  0.2500000E+00  0.1785714E+00  0.0000000E+00  0.3174603E-02
      1        -12.526024   1.000000
      2        -11.725340   1.000000
      3         -8.541622   1.000000
      4         -8.335208   1.000000
      5         -5.889514   1.000000
      6         -5.716474   1.000000
      7         -4.943648   1.000000
      8         -4.699698   1.000000
      9         -4.105115   1.000000
     10         -3.182043   1.000000
     11         -2.664425   1.000000
     12         -1.893341   1.000000
     13         -1.145365   1.000000
     14         -0.899972   1.000000
     15         -0.457681   1.000000
     16         -0.096639   1.000000
     17          0.005176   1.000000
     18          0.246969   1.000000
     19          0.485446   1.000000
     20          1.149360   1.000000
     21          1.235209   1.000000
     22          1.904012   0.195112
     23          5.675845   0.000000
     24          6.079683   0.000000
     25          6.260199   0.000000
     26          6.352048   0.000000
     27          7.335290   0.000000
     28          7.843028   0.000000
     29          7.997329   0.000000
     30          8.925078   0.000000
     31          9.222255   0.000000
     32          9.696589   0.000000
     33          9.831010   0.000000
     34         10.114310   0.000000
     35         10.232125   0.000000
     36         11.038245   0.000000
     37         11.565446   0.000000
     38         12.082066   0.000000
     39         12.485562   0.000000
     40         12.779823   0.000000
     41         13.018200   0.000000
     42         13.423050   0.000000
     43         13.933188   0.000000
     44         14.564572   0.000000
     45         14.843125   0.000000
     46         15.271360   0.000000
     47         15.486720   0.000000
     48         16.169385   0.000000
 
  0.3500000E+00  0.1785714E+00  0.0000000E+00  0.3174603E-02
      1        -12.403337   1.000000
      2        -11.893684   1.000000
      3         -8.479121   1.000000
      4         -8.334547   1.000000
      5         -5.966339   1.000000
      6         -5.945730   1.000000
      7         -4.808024   1.000000
      8         -4.379028   1.000000
      9         -4.269284   1.000000
     10         -2.814496   1.000000
     11         -2.327908   1.000000
     12         -2.184415   1.000000
     13         -1.088934   1.000000
     14         -1.036966   1.000000
     15         -0.463713   1.000000
     16         -0.382142   1.000000
     17          0.048939   1.000000
     18          0.052133   1.000000
     19          0.632278   1.000000
     20          1.019909   1.000000
     21          1.102612   1.000000
     22          1.569460   1.000000
     23          6.091254   0.000000
     24          6.210171   0.000000
     25          6.383380   0.000000
     26          6.786321   0.000000
     27          7.279896   0.000000
     28          7.764550   0.000000
     29          8.053195   0.000000
     30          9.024600   0.000000
     31          9.083916   0.000000
     32          9.154875   0.000000
     33          9.864896   0.000000
     34         10.163638   0.000000
     35         10.680098   0.000000
     36         11.055340   0.000000
     37         11.298434   0.000000
     38         11.928012   0.000000
     39         12.328101   0.000000
     40         12.963036   0.000000
     41         13.014036   0.000000
     42         13.766103   0.000000
     43         14.351967   0.000000
     44         14.368966   0.000000
     45         15.002162   0.000000
     46         15.096106   0.000000
     47         15.584447   0.000000
     48         16.347331   0.000000
 
  0.4500000E+00  0.1785714E+00  0.0000000E+00  0.3174603E-02
      1        -12.249623   1.000000
      2        -12.074915   1.000000
      3         -8.412081   1.000000
      4         -8.359508   1.000000
      5         -6.056749   1.000000
      6         -6.051155   1.000000
      7         -4.640537   1.000000
      8         -4.455232   1.000000
      9         -3.866844   1.000000
     10         -3.270977   1.000000
     11         -2.045842   1.000000
     12         -1.880632   1.000000
     13         -1.109191   1.000000
     14         -1.048318   1.000000
     15         -0.638479   1.000000
     16         -0.632630   1.000000
     17         -0.000498   1.000000
     18          0.043027   1.000000
     19          0.889544   1.000000
     20          0.957577   1.000000
     21          0.998202   1.000000
     22          1.216394   1.000000
     23          6.183010   0.000000
     24          6.301594   0.000000
     25          6.861993   0.000000
     26          7.200022   0.000000
     27          7.258199   0.000000
     28          7.605559   0.000000
     29          7.911352   0.000000
     30          8.421625   0.000000
     31          9.080388   0.000000
     32          9.112325   0.000000
     33          9.989077   0.000000
     34         10.461356   0.000000
     35         10.684972   0.000000
     36         10.957133   0.000000
     37         11.706897   0.000000
     38         11.723021   0.000000
     39         12.105672   0.000000
     40         12.883434   0.000000
     41         13.392215   0.000000
     42         13.738616   0.000000
     43         14.201004   0.000000
     44         14.355414   0.000000
     45         14.967191   0.000000
     46         15.106634   0.000000
     47         15.961473   0.000000
     48         16.264825   0.000000
 
  0.5000000E-01  0.2500000E+00  0.0000000E+00  0.3174603E-02
      1        -12.597135   1.000000
      2        -11.468395   1.000000
      3         -8.563659   1.000000
      4         -8.303245   1.000000
      5         -5.928552   1.000000
      6         -5.613847   1.000000
      7         -4.940797   1.000000
      8         -4.551599   1.000000
      9         -4.435719   1.000000
     10         -4.125777   1.000000
     11         -3.411354   1.000000
     12         -1.225428   1.000000
     13         -1.075466   1.000000
     14         -1.007264   1.000000
     15         -0.203193   1.000000
     16          0.209773   1.000000
     17          0.334091   1.000000
     18          0.584624   1.000000
     19          0.776494   1.000000
     20          0.975031   1.000000
     21          0.989121   1.000000
     22          2.329951   0.000000
     23          4.931956   0.000000
     24          5.146597   0.000000
     25          6.338556   0.000000
     26          6.568162   0.000000
     27          7.249068   0.000000
     28          7.947291   0.000000
     29          8.677786   0.000000
     30          9.039379   0.000000
     31          9.438168   0.000000
     32          9.559027   0.000000
     33          9.629109   0.000000
     34         10.721010   0.000000
     35         11.245129   0.000000
     36         11.943588   0.000000
     37         11.996917   0.000000
     38         12.270002   0.000000
     39         12.400529   0.000000
     40         12.425872   0.000000
     41         12.541240   0.000000
     42         12.964056   0.000000
     43         13.762152   0.000000
     44         13.855862   0.000000
     45         14.388205   0.000000
     46         15.076326   0.000000
     47         15.377493   0.000000
     48         15.825971   0.000000
 
  0.1500000E+00  0.2500000E+00  0.0000000E+00  0.3174603E-02
      1        -12.553920   1.000000
      2        -11.541420   1.000000
      3         -8.541665   1.000000
      4         -8.293773   1.000000
      5         -5.850657   1.000000
      6         -5.579095   1.000000
      7         -5.277449   1.000000
      8         -4.686012   1.000000