  14  14   0   0
  0.1021960E+02  0.5697000E-09  0.4047900E-09  0.6204200E-09  0.5000000E-15
  1.000000000000000E-004
  CAR 
 Kpoints                                 
     18.06666483    -14.20001170  301      1.87887621      1.00000000
    -14.200  0.0000E+00  0.0000E+00
    -14.092  0.0000E+00  0.0000E+00
    -13.985  0.0000E+00  0.0000E+00
    -13.877  0.0000E+00  0.0000E+00
    -13.770  0.0000E+00  0.0000E+00
    -13.662  0.0000E+00  0.0000E+00
    -13.555  0.0000E+00  0.0000E+00
    -13.447  0.0000E+00  0.0000E+00
    -13.340  0.0000E+00  0.0000E+00
    -13.232  0.0000E+00  0.0000E+00
    -13.124  0.0000E+00  0.0000E+00
    -13.017  0.6865E-17  0.7384E-18
    -12.909  0.8219E-08  0.8840E-09
    -12.802  0.1946E-02  0.2093E-03
    -12.694  0.4067E+00  0.4395E-01
    -12.587  0.2250E+01  0.2859E+00
    -12.479  0.3508E+01  0.6632E+00
    -12.372  0.4340E+01  0.1130E+01
    -12.264  0.3575E+01  0.1515E+01
    -12.156  0.2874E+01  0.1824E+01
    -12.049  0.2634E+01  0.2107E+01
    -11.941  0.2588E+01  0.2385E+01
    -11.834  0.2743E+01  0.2680E+01
    -11.726  0.3323E+01  0.3038E+01
    -11.619  0.3621E+01  0.3427E+01
    -11.511  0.3126E+01  0.3763E+01
    -11.404  0.1729E+01  0.3949E+01
    -11.296  0.4610E+00  0.3999E+01
    -11.188  0.9158E-02  0.4000E+01
    -11.081  0.3647E-06  0.4000E+01
    -10.973  0.3851E-14  0.4000E+01
    -10.866  0.0000E+00  0.4000E+01
    -10.758  0.0000E+00  0.4000E+01
    -10.651  0.0000E+00  0.4000E+01
    -10.543  0.0000E+00  0.4000E+01
    -10.436  0.0000E+00  0.4000E+01
    -10.328  0.0000E+00  0.4000E+01
    -10.220  0.0000E+00  0.4000E+01
    -10.113  0.0000E+00  0.4000E+01
    -10.005  0.0000E+00  0.4000E+01
     -9.898  0.0000E+00  0.4000E+01
     -9.790  0.0000E+00  0.4000E+01
     -9.683  0.0000E+00  0.4000E+01
     -9.575  0.0000E+00  0.4000E+01
     -9.468  0.0000E+00  0.4000E+01
     -9.360  0.0000E+00  0.4000E+01
     -9.252  0.0000E+00  0.4000E+01
     -9.145  0.0000E+00  0.4000E+01
     -9.037  0.1128E-08  0.4000E+01
     -8.930  0.7298E-03  0.4000E+01
     -8.822  0.3053E+00  0.4033E+01
     -8.715  0.2176E+01  0.4267E+01
     -8.607  0.5432E+01  0.4851E+01
     -8.500  0.7008E+01  0.5605E+01
     -8.392  0.6216E+01  0.6273E+01
     -8.284  0.5296E+01  0.6843E+01
     -8.177  0.4866E+01  0.7367E+01
     -8.069  0.3713E+01  0.7766E+01
     -7.962  0.1605E+01  0.7938E+01
     -7.854  0.5339E+00  0.7996E+01
     -7.747  0.3863E-01  0.8000E+01
     -7.639  0.2157E-04  0.8000E+01
     -7.532  0.5159E-11  0.8000E+01
     -7.424  0.0000E+00  0.8000E+01
     -7.316  0.0000E+00  0.8000E+01
     -7.209  0.2009E-13  0.8000E+01
     -7.101  0.6026E-06  0.8000E+01
     -6.994  0.4323E-02  0.8000E+01
     -6.886  0.1138E+00  0.8013E+01
     -6.779  0.2896E+00  0.8044E+01
     -6.671  0.4675E+00  0.8094E+01
     -6.564  0.7278E+00  0.8172E+01
     -6.456  0.9147E+00  0.8271E+01
     -6.348  0.1504E+01  0.8433E+01
     -6.241  0.2130E+01  0.8662E+01
     -6.133  0.3072E+01  0.8992E+01
     -6.026  0.3960E+01  0.9418E+01
     -5.918  0.3969E+01  0.9845E+01
     -5.811  0.4046E+01  0.1028E+02
     -5.703  0.4074E+01  0.1072E+02
     -5.596  0.4081E+01  0.1116E+02
     -5.488  0.4068E+01  0.1159E+02
     -5.380  0.4516E+01  0.1208E+02
     -5.273  0.4767E+01  0.1259E+02
     -5.165  0.4353E+01  0.1306E+02
     -5.058  0.3872E+01  0.1348E+02
     -4.950  0.3335E+01  0.1384E+02
     -4.843  0.2377E+01  0.1409E+02
     -4.735  0.2494E+01  0.1436E+02
     -4.628  0.2984E+01  0.1468E+02
     -4.520  0.3714E+01  0.1508E+02
     -4.412  0.3315E+01  0.1544E+02
     -4.305  0.3186E+01  0.1578E+02
     -4.197  0.2906E+01  0.1609E+02
     -4.090  0.2844E+01  0.1640E+02
     -3.982  0.3034E+01  0.1672E+02
     -3.875  0.3037E+01  0.1705E+02
     -3.767  0.2846E+01  0.1736E+02
     -3.660  0.3059E+01  0.1769E+02
     -3.552  0.2744E+01  0.1798E+02
     -3.444  0.2738E+01  0.1828E+02
     -3.337  0.2887E+01  0.1859E+02
     -3.229  0.2658E+01  0.1887E+02
     -3.122  0.2802E+01  0.1917E+02
     -3.014  0.2953E+01  0.1949E+02
     -2.907  0.3068E+01  0.1982E+02
     -2.799  0.2730E+01  0.2012E+02
     -2.692  0.2446E+01  0.2038E+02
     -2.584  0.2618E+01  0.2066E+02
     -2.476  0.3012E+01  0.2098E+02
     -2.369  0.3241E+01  0.2133E+02
     -2.261  0.3826E+01  0.2174E+02
     -2.154  0.3258E+01  0.2209E+02
     -2.046  0.3466E+01  0.2247E+02
     -1.939  0.4230E+01  0.2292E+02
     -1.831  0.4806E+01  0.2344E+02
     -1.724  0.5708E+01  0.2405E+02
     -1.616  0.5913E+01  0.2469E+02
     -1.508  0.6004E+01  0.2533E+02
     -1.401  0.6029E+01  0.2598E+02
     -1.293  0.5787E+01  0.2661E+02
     -1.186  0.4997E+01  0.2714E+02
     -1.078  0.5192E+01  0.2770E+02
     -0.971  0.3825E+01  0.2811E+02
     -0.863  0.2696E+01  0.2840E+02
     -0.756  0.2158E+01  0.2863E+02
     -0.648  0.3776E+01  0.2904E+02
     -0.540  0.5311E+01  0.2961E+02
     -0.433  0.5900E+01  0.3025E+02
     -0.325  0.6457E+01  0.3094E+02
     -0.218  0.6186E+01  0.3161E+02
     -0.110  0.6887E+01  0.3235E+02
     -0.003  0.6916E+01  0.3309E+02
      0.105  0.6264E+01  0.3376E+02
      0.212  0.6882E+01  0.3451E+02
      0.320  0.8678E+01  0.3544E+02
      0.428  0.8545E+01  0.3636E+02
      0.535  0.7967E+01  0.3721E+02
      0.643  0.4178E+01  0.3766E+02
      0.750  0.2860E+01  0.3797E+02
      0.858  0.3221E+01  0.3832E+02
      0.965  0.3316E+01  0.3867E+02
      1.073  0.3368E+01  0.3904E+02
      1.180  0.4034E+01  0.3947E+02
      1.288  0.3412E+01  0.3984E+02
      1.396  0.3757E+01  0.4024E+02
      1.503  0.4114E+01  0.4068E+02
      1.611  0.3878E+01  0.4110E+02
      1.718  0.3460E+01  0.4147E+02
      1.826  0.3406E+01  0.4184E+02
      1.933  0.2909E+01  0.4215E+02
      2.041  0.2448E+01  0.4242E+02
      2.148  0.2587E+01  0.4269E+02
      2.256  0.2417E+01  0.4295E+02
      2.364  0.1887E+01  0.4316E+02
      2.471  0.1127E+01  0.4328E+02
      2.579  0.9344E+00  0.4338E+02
      2.686  0.8091E+00  0.4347E+02
      2.794  0.6016E+00  0.4353E+02
      2.901  0.4477E+00  0.4358E+02
      3.009  0.5743E+00  0.4364E+02
      3.116  0.5570E+00  0.4370E+02
      3.224  0.4401E+00  0.4375E+02
      3.332  0.3558E+00  0.4379E+02
      3.439  0.3929E+00  0.4383E+02
      3.547  0.4417E+00  0.4388E+02
      3.654  0.2757E+00  0.4391E+02
      3.762  0.2789E+00  0.4394E+02
      3.869  0.3211E+00  0.4397E+02
      3.977  0.2062E+00  0.4399E+02
      4.084  0.7051E-01  0.4400E+02
      4.192  0.4178E-02  0.4400E+02
      4.300  0.9267E-01  0.4401E+02
      4.407  0.2718E+00  0.4404E+02
      4.515  0.3988E+00  0.4408E+02
      4.622  0.5814E+00  0.4414E+02
      4.730  0.7426E+00  0.4422E+02
      4.837  0.8448E+00  0.4432E+02
      4.945  0.8989E+00  0.4441E+02
      5.052  0.1013E+01  0.4452E+02
      5.160  0.1183E+01  0.4465E+02
      5.268  0.1441E+01  0.4480E+02
      5.375  0.1814E+01  0.4500E+02
      5.483  0.2258E+01  0.4524E+02
      5.590  0.2694E+01  0.4553E+02
      5.698  0.2981E+01  0.4585E+02
      5.805  0.3456E+01  0.4622E+02
      5.913  0.3798E+01  0.4663E+02
      6.020  0.4213E+01  0.4709E+02
      6.128  0.4667E+01  0.4759E+02
      6.236  0.4425E+01  0.4806E+02
      6.343  0.4137E+01  0.4851E+02
      6.451  0.4241E+01  0.4896E+02
      6.558  0.4325E+01  0.4943E+02
      6.666  0.3826E+01  0.4984E+02
      6.773  0.3500E+01  0.5022E+02
      6.881  0.4228E+01  0.5067E+02
      6.988  0.4438E+01  0.5115E+02
      7.096  0.4973E+01  0.5168E+02
      7.204  0.5074E+01  0.5223E+02
      7.311  0.4959E+01  0.5276E+02
      7.419  0.4441E+01  0.5324E+02
      7.526  0.4483E+01  0.5372E+02
      7.634  0.3952E+01  0.5415E+02
      7.741  0.3219E+01  0.5449E+02
      7.849  0.3141E+01  0.5483E+02
      7.956  0.3275E+01  0.5518E+02
      8.064  0.3336E+01  0.5554E+02
      8.172  0.3649E+01  0.5594E+02
      8.279  0.4112E+01  0.5638E+02
      8.387  0.3997E+01  0.5681E+02
      8.494  0.4029E+01  0.5724E+02
      8.602  0.4106E+01  0.5768E+02
      8.709  0.4468E+01  0.5816E+02
      8.817  0.4925E+01  0.5869E+02
      8.924  0.5241E+01  0.5926E+02
      9.032  0.4926E+01  0.5979E+02
      9.140  0.5128E+01  0.6034E+02
      9.247  0.5203E+01  0.6090E+02
      9.355  0.4732E+01  0.6141E+02
      9.462  0.4900E+01  0.6193E+02
      9.570  0.4381E+01  0.6240E+02
      9.677  0.4966E+01  0.6294E+02
      9.785  0.5174E+01  0.6350E+02
      9.892  0.5012E+01  0.6403E+02
     10.000  0.4842E+01  0.6456E+02
     10.108  0.3785E+01  0.6496E+02
     10.215  0.4294E+01  0.6542E+02
     10.323  0.4442E+01  0.6590E+02
     10.430  0.5491E+01  0.6649E+02
     10.538  0.5454E+01  0.6708E+02
     10.645  0.4755E+01  0.6759E+02
     10.753  0.4135E+01  0.6804E+02
     10.860  0.3801E+01  0.6844E+02
     10.968  0.3668E+01  0.6884E+02
     11.076  0.4979E+01  0.6937E+02
     11.183  0.5840E+01  0.7000E+02
     11.291  0.6308E+01  0.7068E+02
     11.398  0.5488E+01  0.7127E+02
     11.506  0.4612E+01  0.7177E+02
     11.613  0.4723E+01  0.7228E+02
     11.721  0.4748E+01  0.7279E+02
     11.828  0.4783E+01  0.7330E+02
     11.936  0.5606E+01  0.7390E+02
     12.044  0.6105E+01  0.7456E+02
     12.151  0.5803E+01  0.7518E+02
     12.259  0.5505E+01  0.7578E+02
     12.366  0.5141E+01  0.7633E+02
     12.474  0.5789E+01  0.7695E+02
     12.581  0.6069E+01  0.7760E+02
     12.689  0.5705E+01  0.7822E+02
     12.796  0.5914E+01  0.7885E+02
     12.904  0.5984E+01  0.7950E+02
     13.012  0.5822E+01  0.8012E+02
     13.119  0.6299E+01  0.8080E+02
     13.227  0.6007E+01  0.8145E+02
     13.334  0.5959E+01  0.8209E+02
     13.442  0.5411E+01  0.8267E+02
     13.549  0.5390E+01  0.8325E+02
     13.657  0.5325E+01  0.8382E+02
     13.764  0.5703E+01  0.8444E+02
     13.872  0.5714E+01  0.8505E+02
     13.980  0.5437E+01  0.8564E+02
     14.087  0.5259E+01  0.8620E+02
     14.195  0.5133E+01  0.8675E+02
     14.302  0.5083E+01  0.8730E+02
     14.410  0.4581E+01  0.8779E+02
     14.517  0.5114E+01  0.8834E+02
     14.625  0.5413E+01  0.8892E+02
     14.732  0.4912E+01  0.8945E+02
     14.840  0.4175E+01  0.8990E+02
     14.948  0.4813E+01  0.9042E+02
     15.055  0.5891E+01  0.9105E+02
     15.163  0.6095E+01  0.9171E+02
     15.270  0.5689E+01  0.9232E+02
     15.378  0.5895E+01  0.9295E+02
     15.485  0.5852E+01  0.9358E+02
     15.593  0.5943E+01  0.9422E+02
     15.700  0.4649E+01  0.9472E+02
     15.808  0.3295E+01  0.9508E+02
     15.916  0.2425E+01  0.9534E+02
     16.023  0.1842E+01  0.9554E+02
     16.131  0.1366E+01  0.9568E+02
     16.238  0.1008E+01  0.9579E+02
     16.346  0.9337E+00  0.9589E+02
     16.453  0.6940E+00  0.9597E+02
     16.561  0.2856E+00  0.9600E+02
     16.668  0.1784E-01  0.9600E+02
     16.776  0.5884E-04  0.9600E+02
     16.884  0.6849E-09  0.9600E+02
     16.991  0.1184E-17  0.9600E+02
     17.099  0.0000E+00  0.9600E+02
     17.206  0.0000E+00  0.9600E+02
     17.314  0.0000E+00  0.9600E+02
     17.421  0.0000E+00  0.9600E+02
     17.529  0.0000E+00  0.9600E+02
     17.636  0.0000E+00  0.9600E+02
     17.744  0.0000E+00  0.9600E+02
     17.852  0.0000E+00  0.9600E+02
     17.959  0.0000E+00  0.9600E+02
     18.067  0.0000E+00  0.9600E+02
