       N       E                     dE             d eps       ncg     rms          rms(c)
DAV:   1     0.578454209359E+02    0.57845E+02   -0.18053E+04120960   0.747E+02
DAV:   2    -0.927307191002E+02   -0.15058E+03   -0.14163E+03168576   0.153E+02
DAV:   3    -0.975894435605E+02   -0.48587E+01   -0.48331E+01176640   0.246E+01
DAV:   4    -0.976177194023E+02   -0.28276E-01   -0.28274E-01149064   0.215E+00
DAV:   5    -0.976180423331E+02   -0.32293E-03   -0.32292E-03176184   0.221E-01    0.123E+01
