 running   24 mpi-ranks, with    1 threads/rank, on    1 nodes
 distrk:  each k-point on   24 cores,    1 groups
 distr:  one band on    1 cores,   24 groups
 vasp.6.4.3 19Mar24 (build May 31 2024 16:31:43) complex                        
  
 POSCAR found type information on POSCAR B 
 POSCAR found :  1 types and      14 ions
 Reading from existing POTCAR
 scaLAPACK will be used
 Reading from existing POTCAR
 LDA part: xc-table for (Slater+PW92), standard interpolation
 POSCAR, INCAR and KPOINTS ok, starting setup
 FFT: planning ... GRIDC
 FFT: planning ... GRID_SOFT
 FFT: planning ... GRID
 WAVECAR not read
 entering main loop
       N       E                     dE             d eps       ncg     rms          rms(c)
DAV:   1     0.578454209359E+02    0.57845E+02   -0.18053E+04120960   0.747E+02
DAV:   2    -0.927307191002E+02   -0.15058E+03   -0.14163E+03168576   0.153E+02
DAV:   3    -0.975894435605E+02   -0.48587E+01   -0.48331E+01176640   0.246E+01
DAV:   4    -0.976177194023E+02   -0.28276E-01   -0.28274E-01149064   0.215E+00
DAV:   5    -0.976180423331E+02   -0.32293E-03   -0.32292E-03176184   0.221E-01    0.123E+01
DAV:   6    -0.922046014280E+02    0.54134E+01   -0.39473E+00174960   0.657E+00    0.679E+00
DAV:   7    -0.905539907398E+02    0.16506E+01   -0.32048E+00180624   0.585E+00    0.172E+00
DAV:   8    -0.905649989143E+02   -0.11008E-01   -0.22853E-01132696   0.163E+00    0.752E-01
DAV:   9    -0.905796759846E+02   -0.14677E-01   -0.17529E-02170856   0.455E-01    0.206E-01
DAV:  10    -0.905840440150E+02   -0.43680E-02   -0.26133E-03133536   0.180E-01    0.664E-02
DAV:  11    -0.905852238785E+02   -0.11799E-02   -0.68569E-04159432   0.906E-02    0.337E-02
DAV:  12    -0.905853228792E+02   -0.99001E-04   -0.67441E-05151536   0.315E-02    0.656E-03
DAV:  13    -0.905853324176E+02   -0.95385E-05   -0.73535E-06165768   0.105E-02    0.205E-03
DAV:  14    -0.905853334478E+02   -0.10302E-05   -0.61626E-07153720   0.334E-03    0.711E-04
DAV:  15    -0.905853336319E+02   -0.18411E-06   -0.11772E-07143040   0.147E-03
   1 F= -.90585334E+02 E0= -.90583507E+02  d E =-.365290E-02
