       N       E                     dE             d eps       ncg     rms          rms(c)
DAV:   1     0.133077873209E+03    0.13308E+03   -0.25118E+04120960   0.119E+03
DAV:   2    -0.891413591362E+02   -0.22222E+03   -0.20618E+03162048   0.200E+02
DAV:   3    -0.975959254537E+02   -0.84546E+01   -0.83834E+01180480   0.343E+01
DAV:   4    -0.976478704070E+02   -0.51945E-01   -0.51942E-01136080   0.310E+00
DAV:   5    -0.976484079992E+02   -0.53759E-03   -0.53758E-03180816   0.300E-01    0.123E+01
