       N       E                     dE             d eps       ncg     rms          rms(c)
DAV:   1     0.112173449586E+03    0.11217E+03   -0.23107E+04 16800   0.105E+03
DAV:   2    -0.901833114061E+02   -0.20236E+03   -0.18848E+03 22872   0.187E+02
DAV:   3    -0.976106393156E+02   -0.74273E+01   -0.73722E+01 24840   0.318E+01
DAV:   4    -0.976553573963E+02   -0.44718E-01   -0.44715E-01 19512   0.285E+00
DAV:   5    -0.976558354923E+02   -0.47810E-03   -0.47809E-03 24792   0.281E-01    0.123E+01
DAV:   6    -0.922397852551E+02    0.54161E+01   -0.39494E+00 24264   0.659E+00    0.680E+00
DAV:   7    -0.905882578741E+02    0.16515E+01   -0.32211E+00 25176   0.587E+00    0.171E+00
DAV:   8    -0.906007247940E+02   -0.12467E-01   -0.23558E-01 18648   0.168E+00    0.704E-01
DAV:   9    -0.906148944431E+02   -0.14170E-01   -0.16946E-02 23352   0.441E-01    0.198E-01
DAV:  10    -0.906189442995E+02   -0.40499E-02   -0.20992E-03 18984   0.162E-01    0.610E-02
DAV:  11    -0.906200151610E+02   -0.10709E-02   -0.63100E-04 21768   0.881E-02    0.321E-02
DAV:  12    -0.906201305934E+02   -0.11543E-03   -0.92604E-05 20760   0.378E-02    0.429E-03
DAV:  13    -0.906201354744E+02   -0.48810E-05   -0.41419E-06 23496   0.910E-03    0.182E-03
DAV:  14    -0.906201361588E+02   -0.68435E-06   -0.28727E-07 20520   0.239E-03
   1 F= -.90620136E+02 E0= -.90618529E+02  d E =-.321362E-02
