  14  14   0   0
  0.1023186E+02  0.5699279E-09  0.4049519E-09  0.6206682E-09  0.5000000E-15
  1.000000000000000E-004
  CAR 
 Convergence                             
     17.95444740    -14.18433606  301      1.87711873      1.00000000
    -14.184  0.0000E+00  0.0000E+00
    -14.077  0.0000E+00  0.0000E+00
    -13.970  0.0000E+00  0.0000E+00
    -13.863  0.0000E+00  0.0000E+00
    -13.756  0.0000E+00  0.0000E+00
    -13.649  0.0000E+00  0.0000E+00
    -13.542  0.0000E+00  0.0000E+00
    -13.434  0.0000E+00  0.0000E+00
    -13.327  0.0000E+00  0.0000E+00
    -13.220  0.0000E+00  0.0000E+00
    -13.113  0.0000E+00  0.0000E+00
    -13.006  0.4606E-16  0.4934E-17
    -12.899  0.3025E-07  0.3240E-08
    -12.792  0.3836E-02  0.4109E-03
    -12.685  0.5090E+00  0.5494E-01
    -12.577  0.2392E+01  0.3112E+00
    -12.470  0.3567E+01  0.6933E+00
    -12.363  0.4373E+01  0.1162E+01
    -12.256  0.3539E+01  0.1541E+01
    -12.149  0.2736E+01  0.1834E+01
    -12.042  0.2752E+01  0.2129E+01
    -11.935  0.2503E+01  0.2397E+01
    -11.827  0.2771E+01  0.2694E+01
    -11.720  0.3423E+01  0.3061E+01
    -11.613  0.3536E+01  0.3439E+01
    -11.506  0.3122E+01  0.3774E+01
    -11.399  0.1676E+01  0.3953E+01
    -11.292  0.4276E+00  0.3999E+01
    -11.185  0.7602E-02  0.4000E+01
    -11.078  0.1951E-06  0.4000E+01
    -10.970  0.1125E-14  0.4000E+01
    -10.863  0.0000E+00  0.4000E+01
    -10.756  0.0000E+00  0.4000E+01
    -10.649  0.0000E+00  0.4000E+01
    -10.542  0.0000E+00  0.4000E+01
    -10.435  0.0000E+00  0.4000E+01
    -10.328  0.0000E+00  0.4000E+01
    -10.221  0.0000E+00  0.4000E+01
    -10.113  0.0000E+00  0.4000E+01
    -10.006  0.0000E+00  0.4000E+01
     -9.899  0.0000E+00  0.4000E+01
     -9.792  0.0000E+00  0.4000E+01
     -9.685  0.0000E+00  0.4000E+01
     -9.578  0.0000E+00  0.4000E+01
     -9.471  0.0000E+00  0.4000E+01
     -9.364  0.0000E+00  0.4000E+01
     -9.256  0.0000E+00  0.4000E+01
     -9.149  0.0000E+00  0.4000E+01
     -9.042  0.9814E-09  0.4000E+01
     -8.935  0.6338E-03  0.4000E+01
     -8.828  0.2778E+00  0.4030E+01
     -8.721  0.2097E+01  0.4254E+01
     -8.614  0.5345E+01  0.4827E+01
     -8.506  0.6996E+01  0.5577E+01
     -8.399  0.6293E+01  0.6251E+01
     -8.292  0.5327E+01  0.6821E+01
     -8.185  0.4839E+01  0.7340E+01
     -8.078  0.3869E+01  0.7754E+01
     -7.971  0.1664E+01  0.7933E+01
     -7.864  0.5766E+00  0.7994E+01
     -7.757  0.5189E-01  0.8000E+01
     -7.649  0.2410E-04  0.8000E+01
     -7.542  0.2748E-11  0.8000E+01
     -7.435  0.0000E+00  0.8000E+01
     -7.328  0.0000E+00  0.8000E+01
     -7.221  0.0000E+00  0.8000E+01
     -7.114  0.4638E-09  0.8000E+01
     -7.007  0.3855E-03  0.8000E+01
     -6.900  0.1120E+00  0.8012E+01
     -6.792  0.2583E+00  0.8040E+01
     -6.685  0.4256E+00  0.8085E+01
     -6.578  0.7662E+00  0.8167E+01
     -6.471  0.8491E+00  0.8258E+01
     -6.364  0.1441E+01  0.8413E+01
     -6.257  0.1955E+01  0.8622E+01
     -6.150  0.3055E+01  0.8949E+01
     -6.043  0.3788E+01  0.9355E+01
     -5.935  0.4117E+01  0.9796E+01
     -5.828  0.4048E+01  0.1023E+02
     -5.721  0.3869E+01  0.1064E+02
     -5.614  0.4074E+01  0.1108E+02
     -5.507  0.4219E+01  0.1153E+02
     -5.400  0.4552E+01  0.1202E+02
     -5.293  0.4607E+01  0.1251E+02
     -5.185  0.4493E+01  0.1300E+02
     -5.078  0.3874E+01  0.1341E+02
     -4.971  0.3226E+01  0.1376E+02
     -4.864  0.2960E+01  0.1407E+02
     -4.757  0.2327E+01  0.1432E+02
     -4.650  0.2897E+01  0.1463E+02
     -4.543  0.3370E+01  0.1499E+02
     -4.436  0.3464E+01  0.1536E+02
     -4.328  0.3342E+01  0.1572E+02
     -4.221  0.2957E+01  0.1604E+02
     -4.114  0.2909E+01  0.1635E+02
     -4.007  0.2941E+01  0.1667E+02
     -3.900  0.2868E+01  0.1697E+02
     -3.793  0.3115E+01  0.1731E+02
     -3.686  0.2882E+01  0.1762E+02
     -3.579  0.2706E+01  0.1791E+02
     -3.471  0.3070E+01  0.1823E+02
     -3.364  0.2645E+01  0.1852E+02
     -3.257  0.2852E+01  0.1882E+02
     -3.150  0.2760E+01  0.1912E+02
     -3.043  0.2731E+01  0.1941E+02
     -2.936  0.3057E+01  0.1974E+02
     -2.829  0.2978E+01  0.2006E+02
     -2.722  0.2435E+01  0.2032E+02
     -2.614  0.2650E+01  0.2060E+02
     -2.507  0.3018E+01  0.2093E+02
     -2.400  0.2991E+01  0.2125E+02
     -2.293  0.3190E+01  0.2159E+02
     -2.186  0.4005E+01  0.2202E+02
     -2.079  0.3657E+01  0.2241E+02
     -1.972  0.3255E+01  0.2276E+02
     -1.864  0.5084E+01  0.2330E+02
     -1.757  0.5561E+01  0.2390E+02
     -1.650  0.5620E+01  0.2450E+02
     -1.543  0.6180E+01  0.2516E+02
     -1.436  0.6123E+01  0.2582E+02
     -1.329  0.5583E+01  0.2642E+02
     -1.222  0.4683E+01  0.2692E+02
     -1.115  0.6498E+01  0.2761E+02
     -1.007  0.4039E+01  0.2805E+02
     -0.900  0.2275E+01  0.2829E+02
     -0.793  0.2701E+01  0.2858E+02
     -0.686  0.2880E+01  0.2889E+02
     -0.579  0.4492E+01  0.2937E+02
     -0.472  0.6850E+01  0.3010E+02
     -0.365  0.5665E+01  0.3071E+02
     -0.258  0.6685E+01  0.3143E+02
     -0.150  0.6366E+01  0.3211E+02
     -0.043  0.6743E+01  0.3283E+02
      0.064  0.6783E+01  0.3356E+02
      0.171  0.6279E+01  0.3423E+02
      0.278  0.8816E+01  0.3518E+02
      0.385  0.8021E+01  0.3603E+02
      0.492  0.8691E+01  0.3697E+02
      0.600  0.5291E+01  0.3753E+02
      0.707  0.2959E+01  0.3785E+02
      0.814  0.3273E+01  0.3820E+02
      0.921  0.3589E+01  0.3858E+02
      1.028  0.3569E+01  0.3897E+02
      1.135  0.2796E+01  0.3927E+02
      1.242  0.3382E+01  0.3963E+02
      1.349  0.4491E+01  0.4011E+02
      1.457  0.3792E+01  0.4052E+02
      1.564  0.3715E+01  0.4091E+02
      1.671  0.4582E+01  0.4140E+02
      1.778  0.3269E+01  0.4176E+02
      1.885  0.2478E+01  0.4202E+02
      1.992  0.2667E+01  0.4231E+02
      2.099  0.2093E+01  0.4253E+02
      2.206  0.2651E+01  0.4281E+02
      2.314  0.2584E+01  0.4309E+02
      2.421  0.1950E+01  0.4330E+02
      2.528  0.8672E+00  0.4339E+02
      2.635  0.3785E+00  0.4343E+02
      2.742  0.5735E+00  0.4349E+02
      2.849  0.4201E+00  0.4354E+02
      2.956  0.3055E+00  0.4357E+02
      3.063  0.7512E+00  0.4365E+02
      3.171  0.1017E+01  0.4376E+02
      3.278  0.5469E+00  0.4382E+02
      3.385  0.1399E-01  0.4382E+02
      3.492  0.1279E+00  0.4384E+02
      3.599  0.3948E+00  0.4388E+02
      3.706  0.3328E+00  0.4391E+02
      3.813  0.3701E+00  0.4395E+02
      3.921  0.4053E+00  0.4400E+02
      4.028  0.2793E-01  0.4400E+02
      4.135  0.1944E-04  0.4400E+02
      4.242  0.2689E-01  0.4400E+02
      4.349  0.1723E+00  0.4402E+02
      4.456  0.3977E+00  0.4406E+02
      4.563  0.4637E+00  0.4411E+02
      4.670  0.6291E+00  0.4418E+02
      4.778  0.8839E+00  0.4428E+02
      4.885  0.8396E+00  0.4437E+02
      4.992  0.8592E+00  0.4446E+02
      5.099  0.1270E+01  0.4459E+02
      5.206  0.1160E+01  0.4472E+02
      5.313  0.1621E+01  0.4489E+02
      5.420  0.2176E+01  0.4512E+02
      5.527  0.2491E+01  0.4539E+02
      5.635  0.2792E+01  0.4569E+02
      5.742  0.3346E+01  0.4605E+02
      5.849  0.3232E+01  0.4640E+02
      5.956  0.4292E+01  0.4686E+02
      6.063  0.4775E+01  0.4737E+02
      6.170  0.4056E+01  0.4780E+02
      6.277  0.4618E+01  0.4830E+02
      6.384  0.4191E+01  0.4875E+02
      6.492  0.4000E+01  0.4917E+02
      6.599  0.4495E+01  0.4966E+02
      6.706  0.3235E+01  0.5000E+02
      6.813  0.3987E+01  0.5043E+02
      6.920  0.4611E+01  0.5092E+02
      7.027  0.4563E+01  0.5141E+02
      7.134  0.4340E+01  0.5188E+02
      7.242  0.5593E+01  0.5248E+02
      7.349  0.4945E+01  0.5301E+02
      7.456  0.4462E+01  0.5348E+02
      7.563  0.4204E+01  0.5393E+02
      7.670  0.3575E+01  0.5432E+02
      7.777  0.3119E+01  0.5465E+02
      7.884  0.3017E+01  0.5497E+02
      7.991  0.2975E+01  0.5529E+02
      8.099  0.4166E+01  0.5574E+02
      8.206  0.3899E+01  0.5616E+02
      8.313  0.3706E+01  0.5655E+02
      8.420  0.3997E+01  0.5698E+02
      8.527  0.4227E+01  0.5743E+02
      8.634  0.4469E+01  0.5791E+02
      8.741  0.4241E+01  0.5837E+02
      8.848  0.5291E+01  0.5893E+02
      8.956  0.4902E+01  0.5946E+02
      9.063  0.5290E+01  0.6003E+02
      9.170  0.5234E+01  0.6059E+02
      9.277  0.4984E+01  0.6112E+02
      9.384  0.4682E+01  0.6162E+02
      9.491  0.4380E+01  0.6209E+02
      9.598  0.5101E+01  0.6264E+02
      9.705  0.5030E+01  0.6318E+02
      9.813  0.5295E+01  0.6374E+02
      9.920  0.4485E+01  0.6422E+02
     10.027  0.3650E+01  0.6462E+02
     10.134  0.5182E+01  0.6517E+02
     10.241  0.4718E+01  0.6568E+02
     10.348  0.4131E+01  0.6612E+02
     10.455  0.5392E+01  0.6670E+02
     10.563  0.5817E+01  0.6732E+02
     10.670  0.4071E+01  0.6776E+02
     10.777  0.3893E+01  0.6817E+02
     10.884  0.3249E+01  0.6852E+02
     10.991  0.4674E+01  0.6902E+02
     11.098  0.5462E+01  0.6961E+02
     11.205  0.6220E+01  0.7027E+02
     11.312  0.5999E+01  0.7092E+02
     11.420  0.5257E+01  0.7148E+02
     11.527  0.4335E+01  0.7194E+02
     11.634  0.4475E+01  0.7242E+02
     11.741  0.4947E+01  0.7295E+02
     11.848  0.4811E+01  0.7347E+02
     11.955  0.6025E+01  0.7411E+02
     12.062  0.5975E+01  0.7475E+02
     12.169  0.6014E+01  0.7540E+02
     12.277  0.5597E+01  0.7600E+02
     12.384  0.5002E+01  0.7653E+02
     12.491  0.5700E+01  0.7714E+02
     12.598  0.5982E+01  0.7779E+02
     12.705  0.5998E+01  0.7843E+02
     12.812  0.5907E+01  0.7906E+02
     12.919  0.5871E+01  0.7969E+02
     13.027  0.5604E+01  0.8029E+02
     13.134  0.6349E+01  0.8097E+02
     13.241  0.6279E+01  0.8164E+02
     13.348  0.5408E+01  0.8222E+02
     13.455  0.6129E+01  0.8288E+02
     13.562  0.5370E+01  0.8345E+02
     13.669  0.4818E+01  0.8397E+02
     13.776  0.6147E+01  0.8463E+02
     13.884  0.5522E+01  0.8522E+02
     13.991  0.5352E+01  0.8579E+02
     14.098  0.5477E+01  0.8638E+02
     14.205  0.4682E+01  0.8688E+02
     14.312  0.4924E+01  0.8741E+02
     14.419  0.5001E+01  0.8795E+02
     14.526  0.4955E+01  0.8848E+02
     14.633  0.5274E+01  0.8904E+02
     14.741  0.5177E+01  0.8960E+02
     14.848  0.4094E+01  0.9003E+02
     14.955  0.5062E+01  0.9058E+02
     15.062  0.6174E+01  0.9124E+02
     15.169  0.5658E+01  0.9184E+02
     15.276  0.5689E+01  0.9245E+02
     15.383  0.6019E+01  0.9310E+02
     15.490  0.5745E+01  0.9371E+02
     15.598  0.5969E+01  0.9435E+02
     15.705  0.4603E+01  0.9485E+02
     15.812  0.2482E+01  0.9511E+02
     15.919  0.2707E+01  0.9540E+02
     16.026  0.1855E+01  0.9560E+02
     16.133  0.1141E+01  0.9572E+02
     16.240  0.8869E+00  0.9582E+02
     16.348  0.7012E+00  0.9589E+02
     16.455  0.8142E+00  0.9598E+02
     16.562  0.1787E+00  0.9600E+02
     16.669  0.1694E-02  0.9600E+02
     16.776  0.2110E-07  0.9600E+02
     16.883  0.3948E-16  0.9600E+02
     16.990  0.0000E+00  0.9600E+02
     17.097  0.0000E+00  0.9600E+02
     17.205  0.0000E+00  0.9600E+02
     17.312  0.0000E+00  0.9600E+02
     17.419  0.0000E+00  0.9600E+02
     17.526  0.0000E+00  0.9600E+02
     17.633  0.0000E+00  0.9600E+02
     17.740  0.0000E+00  0.9600E+02
     17.847  0.0000E+00  0.9600E+02
     17.954  0.0000E+00  0.9600E+02
