   14   14    1    1
  0.1023186E+02  0.5699279E-09  0.4049519E-09  0.6206682E-09  0.5000000E-15
  1.000000000000000E-004
  CAR 
 Convergence                             
     42    175     48
 
  0.5000000E-01  0.3571429E-01  0.0000000E+00  0.3174603E-02
      1        -12.723482   1.000000
      2        -11.581686   1.000000
      3         -8.659628   1.000000
      4         -8.423069   1.000000
      5         -6.066989   1.000000
      6         -5.133409   1.000000
      7         -4.669469   1.000000
      8         -4.276921   1.000000
      9         -4.036022   1.000000
     10         -3.547320   1.000000
     11         -2.598779   1.000000
     12         -2.329854   1.000000
     13         -1.839131   1.000000
     14         -1.100950   1.000000
     15         -0.074381   1.000000
     16         -0.044128   1.000000
     17          0.150098   1.000000
     18          0.171275   1.000000
     19          0.559581   1.000000
     20          2.012407   0.000065
     21          2.075298   0.000000
     22          2.209575   0.000000
     23          5.448576   0.000000
     24          5.739605   0.000000
     25          5.828033   0.000000
     26          5.949790   0.000000
     27          6.803783   0.000000
     28          7.537832   0.000000
     29          7.866434   0.000000
     30          8.521574   0.000000
     31          8.786020   0.000000
     32          8.935248   0.000000
     33          9.033498   0.000000
     34         10.111477   0.000000
     35         11.173050   0.000000
     36         11.318836   0.000000
     37         11.648351   0.000000
     38         11.766785   0.000000
     39         11.927643   0.000000
     40         12.390916   0.000000
     41         12.851706   0.000000
     42         13.435105   0.000000
     43         13.462393   0.000000
     44         15.360067   0.000000
     45         15.551089   0.000000
     46         16.040396   0.000000
     47         16.314328   0.000000
     48         16.336688   0.000000
 
  0.1500000E+00  0.3571429E-01  0.0000000E+00  0.3174603E-02
      1        -12.679751   1.000000
      2        -11.655487   1.000000
      3         -8.638510   1.000000
      4         -8.411568   1.000000
      5         -5.998856   1.000000
      6         -5.473917   1.000000
      7         -4.791664   1.000000
      8         -4.012369   1.000000
      9         -3.794945   1.000000
     10         -3.210171   1.000000
     11         -2.668918   1.000000
     12         -2.309848   1.000000
     13         -1.917499   1.000000
     14         -1.407769   1.000000
     15         -0.034139   1.000000
     16         -0.024120   1.000000
     17          0.088394   1.000000
     18          0.191922   1.000000
     19          0.464455   1.000000
     20          1.926241   0.082359
     21          1.997413   0.000334
     22          2.088505   0.000000
     23          5.537501   0.000000
     24          5.747289   0.000000
     25          5.856691   0.000000
     26          6.294896   0.000000
     27          6.718411   0.000000
     28          7.176390   0.000000
     29          8.075453   0.000000
     30          8.657955   0.000000
     31          9.041466   0.000000
     32          9.115590   0.000000
     33          9.189776   0.000000
     34         10.222674   0.000000
     35         10.926938   0.000000
     36         11.114868   0.000000
     37         11.245861   0.000000
     38         11.684146   0.000000
     39         12.144770   0.000000
     40         12.479836   0.000000
     41         13.103785   0.000000
     42         13.110881   0.000000
     43         13.993039   0.000000
     44         14.849020   0.000000
     45         15.731444   0.000000
     46         15.811508   0.000000
     47         16.206499   0.000000
     48         16.493594   0.000000
 
  0.2500000E+00  0.3571429E-01  0.0000000E+00  0.3174603E-02
      1        -12.594149   1.000000
      2        -11.788453   1.000000
      3         -8.594903   1.000000
      4         -8.396839   1.000000
      5         -5.977214   1.000000
      6         -5.800269   1.000000
      7         -4.745635   1.000000
      8         -3.885213   1.000000
      9         -3.284121   1.000000
     10         -2.837351   1.000000
     11         -2.718393   1.000000
     12         -2.269566   1.000000
     13         -2.027802   1.000000
     14         -1.911856   1.000000
     15         -0.225815   1.000000
     16          0.008778   1.000000
     17          0.137845   1.000000
     18          0.152266   1.000000
     19          0.434257   1.000000
     20          1.778586   0.997339
     21          1.859214   0.693718
     22          1.864778   0.636470
     23          5.658463   0.000000
     24          5.703765   0.000000
     25          6.165707   0.000000
     26          6.592621   0.000000
     27          6.752971   0.000000
     28          6.921943   0.000000
     29          8.225834   0.000000
     30          8.806530   0.000000
     31          8.984461   0.000000
     32          9.559800   0.000000
     33          9.634010   0.000000
     34         10.266386   0.000000
     35         10.470596   0.000000
     36         10.610135   0.000000
     37         11.365464   0.000000
     38         11.826653   0.000000
     39         12.379600   0.000000
     40         12.548740   0.000000
     41         12.779262   0.000000
     42         12.900862   0.000000
     43         14.618218   0.000000
     44         14.898823   0.000000
     45         15.209468   0.000000
     46         15.963729   0.000000
     47         15.983377   0.000000
     48         16.270180   0.000000
 
  0.3500000E+00  0.3571429E-01  0.0000000E+00  0.3174603E-02
      1        -12.470674   1.000000
      2        -11.957806   1.000000
      3         -8.533097   1.000000
      4         -8.393601   1.000000
      5         -6.057692   1.000000
      6         -6.033249   1.000000
      7         -4.418374   1.000000
      8         -3.716490   1.000000
      9         -3.031169   1.000000
     10         -2.900000   1.000000
     11         -2.448051   1.000000
     12         -2.257328   1.000000
     13         -2.151457   1.000000
     14         -2.128466   1.000000
     15         -0.524913   1.000000
     16         -0.251419   1.000000
     17          0.167852   1.000000
     18          0.243211   1.000000
     19          0.607287   1.000000
     20          1.523536   1.000000
     21          1.656133   1.000000
     22          1.716609   0.999997
     23          5.688693   0.000000
     24          5.743664   0.000000
     25          6.491548   0.000000
     26          6.663398   0.000000
     27          6.689202   0.000000
     28          7.401907   0.000000
     29          8.349850   0.000000
     30          8.676278   0.000000
     31          8.794869   0.000000
     32          9.521575   0.000000
     33         10.040689   0.000000
     34         10.104673   0.000000
     35         10.383193   0.000000
     36         11.131448   0.000000
     37         11.391340   0.000000
     38         11.929186   0.000000
     39         12.189096   0.000000
     40         12.259227   0.000000
     41         12.507417   0.000000
     42         13.242896   0.000000
     43         14.697928   0.000000
     44         14.959592   0.000000
     45         15.243276   0.000000
     46         15.357077   0.000000
     47         15.554277   0.000000
     48         16.358361   0.000000
 
  0.4500000E+00  0.3571429E-01  0.0000000E+00  0.3174603E-02
      1        -12.315972   1.000000
      2        -12.140160   1.000000
      3         -8.467043   1.000000
      4         -8.416143   1.000000
      5         -6.146925   1.000000
      6         -6.142697   1.000000
      7         -3.903302   1.000000
      8         -3.507527   1.000000
      9         -3.304202   1.000000
     10         -3.269843   1.000000
     11         -2.365256   1.000000
     12         -2.237355   1.000000
     13         -1.966979   1.000000
     14         -1.913232   1.000000
     15         -0.745458   1.000000
     16         -0.609823   1.000000
     17          0.250986   1.000000
     18          0.284530   1.000000
     19          0.867827   1.000000
     20          1.184971   1.000000
     21          1.575586   1.000000
     22          1.602924   1.000000
     23          5.716941   0.000000
     24          5.754659   0.000000
     25          6.470333   0.000000
     26          6.534369   0.000000
     27          7.357630   0.000000
     28          8.062113   0.000000
     29          8.084203   0.000000
     30          8.467257   0.000000
     31          8.605508   0.000000
     32          8.777015   0.000000
     33         10.487698   0.000000
     34         10.503342   0.000000
     35         10.745533   0.000000
     36         11.203309   0.000000
     37         11.387660   0.000000
     38         11.582574   0.000000
     39         11.915791   0.000000
     40         12.466923   0.000000
     41         12.702610   0.000000
     42         13.237887   0.000000
     43         14.575760   0.000000
     44         14.717219   0.000000
     45         14.853212   0.000000
     46         14.912119   0.000000
     47         16.081806   0.000000
     48         16.426653   0.000000
 
  0.5000000E-01  0.1071429E+00  0.0000000E+00  0.3174603E-02
      1        -12.699493   1.000000
      2        -11.560124   1.000000
      3         -8.640879   1.000000
      4         -8.399963   1.000000
      5         -6.040265   1.000000
      6         -5.099689   1.000000
      7         -4.647446   1.000000
      8         -4.575316   1.000000
      9         -4.179839   1.000000
     10         -3.524512   1.000000
     11         -3.291697   1.000000
     12         -1.798974   1.000000
     13         -1.096379   1.000000
     14         -1.040601   1.000000
     15         -0.307930   1.000000
     16         -0.279931   1.000000
     17          0.163600   1.000000
     18          0.241548   1.000000
     19          0.637856   1.000000
     20          1.744934   0.999908
     21          1.824698   0.930922
     22          2.261732   0.000000
     23          5.567409   0.000000
     24          5.698148   0.000000
     25          5.732555   0.000000
     26          5.996231   0.000000
     27          7.089365   0.000000
     28          7.823270   0.000000
     29          8.064355   0.000000
     30          8.176200   0.000000
     31          8.790383   0.000000
     32          9.082078   0.000000
     33          9.134308   0.000000
     34         10.562826   0.000000
     35         11.250564   0.000000
     36         11.387478   0.000000
     37         11.582397   0.000000
     38         11.869485   0.000000
     39         12.038393   0.000000
     40         12.670605   0.000000
     41         12.852186   0.000000
     42         13.172552   0.000000
     43         13.178116   0.000000
     44         15.311233   0.000000
     45         15.360017   0.000000
     46         15.839202   0.000000
     47         15.847338   0.000000
     48         16.200158   0.000000
 
  0.1500000E+00  0.1071429E+00  0.0000000E+00  0.3174603E-02
      1        -12.655855   1.000000
      2        -11.633779   1.000000
      3         -8.619610   1.000000
      4         -8.388841   1.000000
      5         -5.970347   1.000000
      6         -5.443843   1.000000
      7         -4.771658   1.000000
      8         -4.492936   1.000000
      9         -3.755836   1.000000
     10         -3.372287   1.000000
     11         -3.172171   1.000000
     12         -1.777306   1.000000
     13         -1.402356   1.000000
     14         -1.159379   1.000000
     15         -0.269060   1.000000
     16         -0.199924   1.000000
     17          0.131051   1.000000
     18          0.213371   1.000000
     19          0.535104   1.000000
     20          1.664481   1.000000
     21          1.748289   0.999866
     22          2.131029   0.000000
     23          5.643325   0.000000
     24          5.796943   0.000000
     25          5.924520   0.000000
     26          6.102020   0.000000
     27          7.006038   0.000000
     28          7.498280   0.000000
     29          8.210203   0.000000
     30          8.345969   0.000000
     31          9.112467   0.000000
     32          9.145122   0.000000
     33          9.401171   0.000000
     34         10.486704   0.000000
     35         10.858427   0.000000
     36         11.067596   0.000000
     37         11.441888   0.000000
     38         11.856985   0.000000
     39         12.257897   0.000000
     40         12.724407   0.000000
     41         12.850873   0.000000
     42         13.134918   0.000000
     43         13.710920   0.000000
     44         14.934027   0.000000
     45         15.378860   0.000000
     46         15.732222   0.000000
     47         15.775731   0.000000
     48         16.380262   0.000000
 
  0.2500000E+00  0.1071429E+00  0.0000000E+00  0.3174603E-02
      1        -12.570449   1.000000
      2        -11.766481   1.000000
      3         -8.575792   1.000000
      4         -8.374813   1.000000
      5         -5.945944   1.000000
      6         -5.769896   1.000000
      7         -4.729015   1.000000
      8         -4.384538   1.000000
      9         -3.494101   1.000000
     10         -3.230232   1.000000
     11         -2.706044   1.000000
     12         -1.907270   1.000000
     13         -1.733075   1.000000
     14         -1.322165   1.000000
     15         -0.228057   1.000000
     16         -0.222212   1.000000
     17          0.047553   1.000000
     18          0.200530   1.000000
     19          0.458771   1.000000
     20          1.529595   1.000000
     21          1.618295   1.000000
     22          1.882992   0.434033
     23          5.845342   0.000000
     24          5.924694   0.000000
     25          6.002625   0.000000
     26          6.550307   0.000000
     27          6.885522   0.000000
     28          7.270617   0.000000
     29          8.416521   0.000000
     30          8.478627   0.000000
     31          9.084105   0.000000
     32          9.597735   0.000000
     33          9.859466   0.000000
     34         10.110525   0.000000
     35         10.338240   0.000000
     36         10.807095   0.000000
     37         11.506938   0.000000
     38         12.091622   0.000000
     39         12.291827   0.000000
     40         12.541437   0.000000
     41         12.940481   0.000000
     42         13.008880   0.000000
     43         14.287584   0.000000
     44         15.066114   0.000000
     45         15.143769   0.000000
     46         15.626282   0.000000
     47         15.690573   0.000000
     48         16.400544   0.000000
 
  0.3500000E+00  0.1071429E+00  0.0000000E+00  0.3174603E-02
      1        -12.447240   1.000000
      2        -11.935475   1.000000
      3         -8.513741   1.000000
      4         -8.372465   1.000000
      5         -6.025213   1.000000
      6         -6.002003   1.000000
      7         -4.403893   1.000000
      8         -4.237597   1.000000
      9         -3.665441   1.000000
     10         -2.850890   1.000000
     11         -2.366533   1.000000
     12         -2.223106   1.000000
     13         -1.668907   1.000000
     14         -1.485082   1.000000
     15         -0.486534   1.000000
     16         -0.313881   1.000000
     17          0.079325   1.000000
     18          0.109531   1.000000
     19          0.617945   1.000000
     20          1.390051   1.000000
     21          1.473017   1.000000
     22          1.559284   1.000000
     23          5.863248   0.000000
     24          5.998140   0.000000
     25          6.507672   0.000000
     26          6.796206   0.000000
     27          6.869252   0.000000
     28          7.361151   0.000000
     29          8.405709   0.000000
     30          8.586263   0.000000
     31          8.924524   0.000000
     32          9.357318   0.000000
     33         10.057349   0.000000
     34         10.083173   0.000000
     35         10.427180   0.000000
     36         11.208408   0.000000
     37         11.349441   0.000000
     38         11.825800   0.000000
     39         12.274836   0.000000
     40         12.531447   0.000000
     41         12.707167   0.000000
     42         13.444922   0.000000
     43         14.747909   0.000000
     44         14.756034   0.000000
     45         15.135010   0.000000
     46         15.289788   0.000000
     47         15.632345   0.000000
     48         16.371649   0.000000
 
  0.4500000E+00  0.1071429E+00  0.0000000E+00  0.3174603E-02
      1        -12.292874   1.000000
      2        -12.117443   1.000000
      3         -8.447342   1.000000
      4         -8.395852   1.000000
      5         -6.114862   1.000000
      6         -6.110189   1.000000
      7         -4.058770   1.000000
      8         -3.895947   1.000000
      9         -3.855011   1.000000
     10         -3.291393   1.000000
     11         -2.112139   1.000000
     12         -1.918719   1.000000
     13         -1.600772   1.000000
     14         -1.597365   1.000000
     15         -0.707279   1.000000
     16         -0.605958   1.000000
     17          0.112571   1.000000
     18          0.143743   1.000000
     19          0.877218   1.000000
     20          1.191380   1.000000
     21          1.336590   1.000000
     22          1.360683   1.000000
     23          5.914583   0.000000
     24          5.980636   0.000000
     25          6.785455   0.000000
     26          6.835995   0.000000
     27          7.174634   0.000000
     28          7.886264   0.000000
     29          7.930845   0.000000
     30          8.612518   0.000000
     31          8.678635   0.000000
     32          8.791161   0.000000
     33         10.305291   0.000000
     34         10.553868   0.000000
     35         10.791060   0.000000
     36         10.893988   0.000000
     37         11.534902   0.000000
     38         11.641677   0.000000
     39         11.994595   0.000000
     40         12.635581   0.000000
     41         13.010657   0.000000
     42         13.468846   0.000000
     43         14.531580   0.000000
     44         14.716384   0.000000
     45         14.813843   0.000000
     46         15.031443   0.000000
     47         16.106520   0.000000
     48         16.401070   0.000000
 
  0.5000000E-01  0.1785714E+00  0.0000000E+00  0.3174603E-02
      1        -12.655172   1.000000
      2        -11.520364   1.000000
      3         -8.606552   1.000000
      4         -8.357336   1.000000
      5         -5.990859   1.000000
      6         -5.132104   1.000000
      7         -5.008997   1.000000
      8         -4.605706   1.000000
      9         -4.163561   1.000000
     10         -3.913538   1.000000
     11         -3.471329   1.000000
     12         -1.209567   1.000000
     13         -1.087077   1.000000
     14         -0.651463   1.000000
     15         -0.546115   1.000000
     16         -0.182469   1.000000
     17          0.184767   1.000000
     18          0.294319   1.000000
     19          0.716185   1.000000
     20          1.362573   1.000000
     21          1.426036   1.000000
     22          2.299755   0.000000
     23          5.278748   0.000000
     24          5.443907   0.000000
     25          6.112443   0.000000
     26          6.184182   0.000000
     27          7.524004   0.000000
     28          7.612816   0.000000
     29          8.305269   0.000000
     30          8.712053   0.000000
     31          8.868378   0.000000
     32          9.223317   0.000000
     33          9.355579   0.000000
     34         10.866619   0.000000
     35         11.302949   0.000000
     36         11.556233   0.000000
     37         11.687723   0.000000
     38         12.069843   0.000000
     39         12.254502   0.000000
     40         12.730147   0.000000
     41         12.743308   0.000000
     42         12.987746   0.000000
     43         13.209654   0.000000
     44         14.654150   0.000000
     45         15.140960   0.000000
     46         15.321375   0.000000
     47         15.412873   0.000000
     48         15.940333   0.000000
 
  0.1500000E+00  0.1785714E+00  0.0000000E+00  0.3174603E-02
      1        -12.611720   1.000000
      2        -11.593744   1.000000
      3         -8.584981   1.000000
      4         -8.346913   1.000000
      5         -5.917537   1.000000
      6         -5.395624   1.000000
      7         -5.033912   1.000000
      8         -4.733995   1.000000
      9         -3.979566   1.000000
     10         -3.713822   1.000000
     11         -3.132766   1.000000
     12         -1.394089   1.000000
     13         -1.183280   1.000000
     14         -0.758876   1.000000
     15         -0.508150   1.000000
     16         -0.101288   1.000000
     17          0.164929   1.000000
     18          0.238496   1.000000
     19          0.603702   1.000000
     20          1.283516   1.000000
     21          1.356349   1.000000
     22          2.164055   0.000000
     23          5.359058   0.000000
     24          5.789391   0.000000
     25          6.130239   0.000000
     26          6.227118   0.000000
     27          7.443344   0.000000
     28          7.769356   0.000000
     29          8.037560   0.000000
     30          8.803257   0.000000
     31          9.235608   0.000000
     32          9.271606   0.000000
     33          9.639942   0.000000
     34         10.502149   0.000000
     35         10.763937   0.000000
     36         11.260378   0.000000
     37         11.705655   0.000000
     38         12.182421   0.000000
     39         12.415079   0.000000
     40         12.485787   0.000000
     41         13.144928   0.000000
     42         13.257587   0.000000
     43         13.419475   0.000000
     44         14.664942   0.000000
     45         14.802970   0.000000
     46         15.260609   0.000000
     47         15.476760   0.000000
     48         15.968022   0.000000
 
  0.2500000E+00  0.1785714E+00  0.0000000E+00  0.3174603E-02
      1        -12.526658   1.000000
      2        -11.725934   1.000000
      3         -8.540741   1.000000
      4         -8.334214   1.000000
      5         -5.887738   1.000000
      6         -5.715100   1.000000
      7         -4.942281   1.000000
      8         -4.697973   1.000000
      9         -4.102998   1.000000
     10         -3.180121   1.000000
     11         -2.662127   1.000000
     12         -1.890903   1.000000
     13         -1.142706   1.000000
     14         -0.897797   1.000000
     15         -0.455304   1.000000
     16         -0.093032   1.000000
     17          0.008015   1.000000
     18          0.250246   1.000000
     19          0.488668   1.000000
     20          1.152137   1.000000
     21          1.238123   1.000000
     22          1.907723   0.193351
     23          5.680054   0.000000
     24          6.085280   0.000000
     25          6.265097   0.000000
     26          6.357117   0.000000
     27          7.341151   0.000000
     28          7.848582   0.000000
     29          8.003302   0.000000
     30          8.931940   0.000000
     31          9.230299   0.000000
     32          9.704063   0.000000
     33          9.837745   0.000000
     34         10.122061   0.000000
     35         10.239251   0.000000
     36         11.046174   0.000000
     37         11.572328   0.000000
     38         12.089493   0.000000
     39         12.493235   0.000000
     40         12.786780   0.000000
     41         13.026765   0.000000
     42         13.430655   0.000000
     43         13.941756   0.000000
     44         14.574296   0.000000
     45         14.852484   0.000000
     46         15.281886   0.000000
     47         15.495296   0.000000
     48         16.178731   0.000000
 
  0.3500000E+00  0.1785714E+00  0.0000000E+00  0.3174603E-02
      1        -12.403957   1.000000
      2        -11.894274   1.000000
      3         -8.478241   1.000000
      4         -8.333574   1.000000
      5         -5.964700   1.000000
      6         -5.944376   1.000000
      7         -4.806558   1.000000
      8         -4.377207   1.000000
      9         -4.267332   1.000000
     10         -2.812380   1.000000
     11         -2.325630   1.000000
     12         -2.181981   1.000000
     13         -1.086228   1.000000
     14         -1.034739   1.000000
     15         -0.461089   1.000000
     16         -0.378706   1.000000
     17          0.051824   1.000000
     18          0.055238   1.000000
     19          0.635531   1.000000
     20          1.022637   1.000000
     21          1.105469   1.000000
     22          1.573021   1.000000
     23          6.096753   0.000000
     24          6.214677   0.000000
     25          6.388532   0.000000
     26          6.791558   0.000000
     27          7.285571   0.000000
     28          7.769997   0.000000
     29          8.058887   0.000000
     30          9.031479   0.000000
     31          9.090450   0.000000
     32          9.161895   0.000000
     33          9.872456   0.000000
     34         10.171271   0.000000
     35         10.687080   0.000000
     36         11.062713   0.000000
     37         11.307386   0.000000
     38         11.935494   0.000000
     39         12.337222   0.000000
     40         12.970410   0.000000
     41         13.021404   0.000000
     42         13.774060   0.000000
     43         14.361368   0.000000
     44         14.377969   0.000000
     45         15.011379   0.000000
     46         15.105148   0.000000
     47         15.594196   0.000000
     48         16.356360   0.000000
 
  0.4500000E+00  0.1785714E+00  0.0000000E+00  0.3174603E-02
      1        -12.250228   1.000000
      2        -12.075509   1.000000
      3         -8.411178   1.000000
      4         -8.358567   1.000000
      5         -6.055352   1.000000
      6         -6.049658   1.000000
      7         -4.638932   1.000000
      8         -4.453462   1.000000
      9         -3.864868   1.000000
     10         -3.268852   1.000000
     11         -2.043605   1.000000
     12         -1.878261   1.000000
     13         -1.106768   1.000000
     14         -1.045650   1.000000
     15         -0.635415   1.000000
     16         -0.629318   1.000000
     17          0.002312   1.000000
     18          0.045843   1.000000
     19          0.892865   1.000000
     20          0.960317   1.000000
     21          1.001002   1.000000
     22          1.219823   1.000000
     23          6.188470   0.000000
     24          6.306920   0.000000
     25          6.866854   0.000000
     26          7.205421   0.000000
     27          7.263738   0.000000
     28          7.610753   0.000000
     29          7.916899   0.000000
     30          8.427565   0.000000
     31          9.087348   0.000000
     32          9.119362   0.000000
     33          9.996528   0.000000
     34         10.468711   0.000000
     35         10.692526   0.000000
     36         10.964072   0.000000
     37         11.715005   0.000000
     38         11.731846   0.000000
     39         12.115036   0.000000
     40         12.892080   0.000000
     41         13.399885   0.000000
     42         13.746620   0.000000
     43         14.209902   0.000000
     44         14.364369   0.000000
     45         14.975703   0.000000
     46         15.115294   0.000000
     47         15.971027   0.000000
     48         16.274567   0.000000
 
  0.5000000E-01  0.2500000E+00  0.0000000E+00  0.3174603E-02
      1        -12.597755   1.000000
      2        -11.469004   1.000000
      3         -8.562693   1.000000
      4         -8.302195   1.000000
      5         -5.926728   1.000000
      6         -5.612876   1.000000
      7         -4.938865   1.000000
      8         -4.549552   1.000000
      9         -4.433524   1.000000
     10         -4.124285   1.000000
     11         -3.409417   1.000000
     12         -1.223621   1.000000
     13         -1.072854   1.000000
     14         -1.005557   1.000000
     15         -0.200224   1.000000
     16          0.212963   1.000000
     17          0.337594   1.000000
     18          0.588036   1.000000
     19          0.779804   1.000000
     20          0.977740   1.000000
     21          0.991852   1.000000
     22          2.333900   0.000000
     23          4.935735   0.000000
     24          5.150709   0.000000
     25          6.344312   0.000000
     26          6.573879   0.000000
     27          7.254813   0.000000
     28          7.953914   0.000000
     29          8.685360   0.000000
     30          9.045526   0.000000
     31          9.446736   0.000000
     32          9.565612   0.000000
     33          9.636768   0.000000
     34         10.728053   0.000000
     35         11.252751   0.000000
     36         11.950759   0.000000
     37         12.003470   0.000000
     38         12.277982   0.000000
     39         12.407846   0.000000
     40         12.432861   0.000000
     41         12.548812   0.000000
     42         12.972942   0.000000
     43         13.772268   0.000000
     44         13.863619   0.000000
     45         14.397684   0.000000
     46         15.084734   0.000000
     47         15.385662   0.000000
     48         15.836974   0.000000
 
  0.1500000E+00  0.2500000E+00  0.0000000E+00  0.3174603E-02
      1        -12.554534   1.000000
      2        -11.542019   1.000000
      3         -8.540721   1.000000
      4         -8.292727   1.000000
      5         -5.848789   1.000000
      6         -5.578128   1.000000
      7         -5.275715   1.000000
      8         -4.684162   1.000000