<?xml version="1.0" encoding="ISO-8859-1"?>
<modeling>
 <generator>
  <i name="program" type="string">vasp </i>
  <i name="version" type="string">6.4.3  </i>
  <i name="subversion" type="string">19Mar24 (build May 31 2024 16:31:43) complex                          parallel </i>
  <i name="platform" type="string">LinuxIFC </i>
  <i name="date" type="string">2024 11 11 </i>
  <i name="time" type="string">15:58:15 </i>
 </generator>
 <incar>
  <i type="string" name="SYSTEM">Convergence</i>
  <i type="int" name="ISTART">     0</i>
  <i type="string" name="PREC">Accurate</i>
  <i type="string" name="ALGO">Normal</i>
  <i type="int" name="ISPIN">     1</i>
  <i type="int" name="ICHARG">     2</i>
  <i type="int" name="NELM">   100</i>
  <i type="int" name="IBRION">    -1</i>
  <i name="EDIFF">      0.00000100</i>
  <i name="EDIFFG">     -0.00100000</i>
  <i type="int" name="NSW">     0</i>
  <i type="int" name="ISIF">     2</i>
  <i name="ENCUT">    600.00000000</i>
  <i name="POTIM">      0.50000000</i>
  <i type="int" name="ISMEAR">     0</i>
  <i name="SIGMA">      0.05000000</i>
  <i type="logical" name="LWAVE"> F  </i>
  <i type="logical" name="LCHARG"> F  </i>
  <i type="string" name="GGA">PE</i>
 </incar>
 <primitive_cell>
  <structure name="primitive_cell" >
   <crystal>
    <varray name="basis" >
     <v>       5.69927880       0.00000000       0.00000000 </v>
     <v>       0.00000000       4.04951916       0.00000000 </v>
     <v>       0.00000000       0.00000000       6.20668168 </v>
    </varray>
    <i name="volume">    143.24610869 </i>
    <varray name="rec_basis" >
     <v>       0.17546080       0.00000000       0.00000000 </v>
     <v>       0.00000000       0.24694290       0.00000000 </v>
     <v>       0.00000000       0.00000000       0.16111669 </v>
    </varray>
   </crystal>
   <varray name="positions" >
    <v>       0.52123000       0.50000000       0.63796000 </v>
    <v>       0.47877000       0.50000000       0.36204000 </v>
    <v>       0.97877000       0.50000000       0.63796000 </v>
    <v>       0.02123000       0.50000000       0.36204000 </v>
    <v>       0.60090000       0.50000000       0.89991000 </v>
    <v>       0.39910000       0.50000000       0.10009000 </v>
    <v>       0.89910000       0.50000000       0.89991000 </v>
    <v>       0.10090000       0.50000000       0.10009000 </v>
    <v>       0.75000000       0.79171000       0.72973000 </v>
    <v>       0.25000000       0.20829000       0.27027000 </v>
    <v>       0.75000000       0.20829000       0.72973000 </v>
    <v>       0.25000000       0.79171000       0.27027000 </v>
    <v>       0.25000000       0.50000000       0.52367000 </v>
    <v>       0.75000000       0.50000000       0.47633000 </v>
   </varray>
  </structure>
  <varray name="primitive_index" >
   <v type="int" >        1 </v>
   <v type="int" >        2 </v>
   <v type="int" >        3 </v>
   <v type="int" >        4 </v>
   <v type="int" >        5 </v>
   <v type="int" >        6 </v>
   <v type="int" >        7 </v>
   <v type="int" >        8 </v>
   <v type="int" >        9 </v>
   <v type="int" >       10 </v>
   <v type="int" >       11 </v>
   <v type="int" >       12 </v>
   <v type="int" >       13 </v>
   <v type="int" >       14 </v>
  </varray>
 </primitive_cell>
 <kpoints>
  <generation param="Monkhorst-Pack">
   <v type="int" name="divisions">      10       14        9 </v>
   <v name="usershift">      0.00000000       0.00000000       0.00000000 </v>
   <v name="genvec1">      0.10000000       0.00000000       0.00000000 </v>
   <v name="genvec2">      0.00000000       0.07142857       0.00000000 </v>
   <v name="genvec3">      0.00000000       0.00000000       0.11111111 </v>
   <v name="shift">      0.50000000       0.50000000       0.00000000 </v>
  </generation>
  <varray name="kpointlist" >
   <v>       0.05000000       0.03571429       0.00000000 </v>
   <v>       0.15000000       0.03571429       0.00000000 </v>
   <v>       0.25000000       0.03571429       0.00000000 </v>
   <v>       0.35000000       0.03571429       0.00000000 </v>
   <v>       0.45000000       0.03571429       0.00000000 </v>
   <v>       0.05000000       0.10714286       0.00000000 </v>
   <v>       0.15000000       0.10714286       0.00000000 </v>
   <v>       0.25000000       0.10714286       0.00000000 </v>
   <v>       0.35000000       0.10714286       0.00000000 </v>
   <v>       0.45000000       0.10714286       0.00000000 </v>
   <v>       0.05000000       0.17857143       0.00000000 </v>
   <v>       0.15000000       0.17857143       0.00000000 </v>
   <v>       0.25000000       0.17857143       0.00000000 </v>
   <v>       0.35000000       0.17857143       0.00000000 </v>
   <v>       0.45000000       0.17857143       0.00000000 </v>
   <v>       0.05000000       0.25000000       0.00000000 </v>
   <v>       0.15000000       0.25000000       0.00000000 </v>
   <v>       0.25000000       0.25000000       0.00000000 </v>
   <v>       0.35000000       0.25000000       0.00000000 </v>
   <v>       0.45000000       0.25000000       0.00000000 </v>
   <v>       0.05000000       0.32142857       0.00000000 </v>
   <v>       0.15000000       0.32142857       0.00000000 </v>
   <v>       0.25000000       0.32142857       0.00000000 </v>
   <v>       0.35000000       0.32142857       0.00000000 </v>
   <v>       0.45000000       0.32142857       0.00000000 </v>
   <v>       0.05000000       0.39285714       0.00000000 </v>
   <v>       0.15000000       0.39285714       0.00000000 </v>
   <v>       0.25000000       0.39285714       0.00000000 </v>
   <v>       0.35000000       0.39285714       0.00000000 </v>
   <v>       0.45000000       0.39285714       0.00000000 </v>
   <v>       0.05000000       0.46428571       0.00000000 </v>
   <v>       0.15000000       0.46428571       0.00000000 </v>
   <v>       0.25000000       0.46428571       0.00000000 </v>
   <v>       0.35000000       0.46428571       0.00000000 </v>
   <v>       0.45000000       0.46428571       0.00000000 </v>
   <v>       0.05000000       0.03571429       0.11111111 </v>
   <v>       0.15000000       0.03571429       0.11111111 </v>
   <v>       0.25000000       0.03571429       0.11111111 </v>
   <v>       0.35000000       0.03571429       0.11111111 </v>
   <v>       0.45000000       0.03571429       0.11111111 </v>
   <v>       0.05000000       0.10714286       0.11111111 </v>
   <v>       0.15000000       0.10714286       0.11111111 </v>
   <v>       0.25000000       0.10714286       0.11111111 </v>
   <v>       0.35000000       0.10714286       0.11111111 </v>
   <v>       0.45000000       0.10714286       0.11111111 </v>
   <v>       0.05000000       0.17857143       0.11111111 </v>
   <v>       0.15000000       0.17857143       0.11111111 </v>
   <v>       0.25000000       0.17857143       0.11111111 </v>
   <v>       0.35000000       0.17857143       0.11111111 </v>
   <v>       0.45000000       0.17857143       0.11111111 </v>
   <v>       0.05000000       0.25000000       0.11111111 </v>
   <v>       0.15000000       0.25000000       0.11111111 </v>
   <v>       0.25000000       0.25000000       0.11111111 </v>
   <v>       0.35000000       0.25000000       0.11111111 </v>
   <v>       0.45000000       0.25000000       0.11111111 </v>
   <v>       0.05000000       0.32142857       0.11111111 </v>
   <v>       0.15000000       0.32142857       0.11111111 </v>
   <v>       0.25000000       0.32142857       0.11111111 </v>
   <v>       0.35000000       0.32142857       0.11111111 </v>
   <v>       0.45000000       0.32142857       0.11111111 </v>
   <v>       0.05000000       0.39285714       0.11111111 </v>
   <v>       0.15000000       0.39285714       0.11111111 </v>
   <v>       0.25000000       0.39285714       0.11111111 </v>
   <v>       0.35000000       0.39285714       0.11111111 </v>
   <v>       0.45000000       0.39285714       0.11111111 </v>
   <v>       0.05000000       0.46428571       0.11111111 </v>
   <v>       0.15000000       0.46428571       0.11111111 </v>
   <v>       0.25000000       0.46428571       0.11111111 </v>
   <v>       0.35000000       0.46428571       0.11111111 </v>
   <v>       0.45000000       0.46428571       0.11111111 </v>
   <v>       0.05000000       0.03571429       0.22222222 </v>
   <v>       0.15000000       0.03571429       0.22222222 </v>
   <v>       0.25000000       0.03571429       0.22222222 </v>
   <v>       0.35000000       0.03571429       0.22222222 </v>
   <v>       0.45000000       0.03571429       0.22222222 </v>
   <v>       0.05000000       0.10714286       0.22222222 </v>
   <v>       0.15000000       0.10714286       0.22222222 </v>
   <v>       0.25000000       0.10714286       0.22222222 </v>
   <v>       0.35000000       0.10714286       0.22222222 </v>
   <v>       0.45000000       0.10714286       0.22222222 </v>
   <v>       0.05000000       0.17857143       0.22222222 </v>
   <v>       0.15000000       0.17857143       0.22222222 </v>
   <v>       0.25000000       0.17857143       0.22222222 </v>
   <v>       0.35000000       0.17857143       0.22222222 </v>
   <v>       0.45000000       0.17857143       0.22222222 </v>
   <v>       0.05000000       0.25000000       0.22222222 </v>
   <v>       0.15000000       0.25000000       0.22222222 </v>
   <v>       0.25000000       0.25000000       0.22222222 </v>
   <v>       0.35000000       0.25000000       0.22222222 </v>
   <v>       0.45000000       0.25000000       0.22222222 </v>
   <v>       0.05000000       0.32142857       0.22222222 </v>
   <v>       0.15000000       0.32142857       0.22222222 </v>
   <v>       0.25000000       0.32142857       0.22222222 </v>
   <v>       0.35000000       0.32142857       0.22222222 </v>
   <v>       0.45000000       0.32142857       0.22222222 </v>
   <v>       0.05000000       0.39285714       0.22222222 </v>
   <v>       0.15000000       0.39285714       0.22222222 </v>
   <v>       0.25000000       0.39285714       0.22222222 </v>
   <v>       0.35000000       0.39285714       0.22222222 </v>
   <v>       0.45000000       0.39285714       0.22222222 </v>
   <v>       0.05000000       0.46428571       0.22222222 </v>
   <v>       0.15000000       0.46428571       0.22222222 </v>
   <v>       0.25000000       0.46428571       0.22222222 </v>
   <v>       0.35000000       0.46428571       0.22222222 </v>
   <v>       0.45000000       0.46428571       0.22222222 </v>
   <v>       0.05000000       0.03571429       0.33333333 </v>
   <v>       0.15000000       0.03571429       0.33333333 </v>
   <v>       0.25000000       0.03571429       0.33333333 </v>
   <v>       0.35000000       0.03571429       0.33333333 </v>
   <v>       0.45000000       0.03571429       0.33333333 </v>
   <v>       0.05000000       0.10714286       0.33333333 </v>
   <v>       0.15000000       0.10714286       0.33333333 </v>
   <v>       0.25000000       0.10714286       0.33333333 </v>
   <v>       0.35000000       0.10714286       0.33333333 </v>
   <v>       0.45000000       0.10714286       0.33333333 </v>
   <v>       0.05000000       0.17857143       0.33333333 </v>
   <v>       0.15000000       0.17857143       0.33333333 </v>
   <v>       0.25000000       0.17857143       0.33333333 </v>
   <v>       0.35000000       0.17857143       0.33333333 </v>
   <v>       0.45000000       0.17857143       0.33333333 </v>
   <v>       0.05000000       0.25000000       0.33333333 </v>
   <v>       0.15000000       0.25000000       0.33333333 </v>
   <v>       0.25000000       0.25000000       0.33333333 </v>
   <v>       0.35000000       0.25000000       0.33333333 </v>
   <v>       0.45000000       0.25000000       0.33333333 </v>
   <v>       0.05000000       0.32142857       0.33333333 </v>
   <v>       0.15000000       0.32142857       0.33333333 </v>
   <v>       0.25000000       0.32142857       0.33333333 </v>
   <v>       0.35000000       0.32142857       0.33333333 </v>
   <v>       0.45000000       0.32142857       0.33333333 </v>
   <v>       0.05000000       0.39285714       0.33333333 </v>
   <v>       0.15000000       0.39285714       0.33333333 </v>
   <v>       0.25000000       0.39285714       0.33333333 </v>
   <v>       0.35000000       0.39285714       0.33333333 </v>
   <v>       0.45000000       0.39285714       0.33333333 </v>
   <v>       0.05000000       0.46428571       0.33333333 </v>
   <v>       0.15000000       0.46428571       0.33333333 </v>
   <v>       0.25000000       0.46428571       0.33333333 </v>
   <v>       0.35000000       0.46428571       0.33333333 </v>
   <v>       0.45000000       0.46428571       0.33333333 </v>
   <v>       0.05000000       0.03571429       0.44444444 </v>
   <v>       0.15000000       0.03571429       0.44444444 </v>
   <v>       0.25000000       0.03571429       0.44444444 </v>
   <v>       0.35000000       0.03571429       0.44444444 </v>
   <v>       0.45000000       0.03571429       0.44444444 </v>
   <v>       0.05000000       0.10714286       0.44444444 </v>
   <v>       0.15000000       0.10714286       0.44444444 </v>
   <v>       0.25000000       0.10714286       0.44444444 </v>
   <v>       0.35000000       0.10714286       0.44444444 </v>
   <v>       0.45000000       0.10714286       0.44444444 </v>
   <v>       0.05000000       0.17857143       0.44444444 </v>
   <v>       0.15000000       0.17857143       0.44444444 </v>
   <v>       0.25000000       0.17857143       0.44444444 </v>
   <v>       0.35000000       0.17857143       0.44444444 </v>
   <v>       0.45000000       0.17857143       0.44444444 </v>
   <v>       0.05000000       0.25000000       0.44444444 </v>
   <v>       0.15000000       0.25000000       0.44444444 </v>
   <v>       0.25000000       0.25000000       0.44444444 </v>
   <v>       0.35000000       0.25000000       0.44444444 </v>
   <v>       0.45000000       0.25000000       0.44444444 </v>
   <v>       0.05000000       0.32142857       0.44444444 </v>
   <v>       0.15000000       0.32142857       0.44444444 </v>
   <v>       0.25000000       0.32142857       0.44444444 </v>
   <v>       0.35000000       0.32142857       0.44444444 </v>
   <v>       0.45000000       0.32142857       0.44444444 </v>
   <v>       0.05000000       0.39285714       0.44444444 </v>
   <v>       0.15000000       0.39285714       0.44444444 </v>
   <v>       0.25000000       0.39285714       0.44444444 </v>
   <v>       0.35000000       0.39285714       0.44444444 </v>
   <v>       0.45000000       0.39285714       0.44444444 </v>
   <v>       0.05000000       0.46428571       0.44444444 </v>
   <v>       0.15000000       0.46428571       0.44444444 </v>
   <v>       0.25000000       0.46428571       0.44444444 </v>
   <v>       0.35000000       0.46428571       0.44444444 </v>
   <v>       0.45000000       0.46428571       0.44444444 </v>
  </varray>
  <varray name="weights" >
   <v>       0.00317460 </v>
   <v>       0.00317460 </v>
   <v>       0.00317460 </v>
   <v>       0.00317460 </v>
   <v>       0.00317460 </v>
   <v>       0.00317460 </v>
   <v>       0.00317460 </v>
   <v>       0.00317460 </v>
   <v>       0.00317460 </v>
   <v>       0.00317460 </v>
   <v>       0.00317460 </v>
   <v>       0.00317460 </v>
   <v>       0.00317460 </v>
   <v>       0.00317460 </v>
   <v>       0.00317460 </v>
   <v>       0.00317460 </v>
   <v>       0.00317460 </v>
   <v>       0.00317460 </v>
   <v>       0.00317460 </v>
   <v>       0.00317460 </v>
   <v>       0.00317460 </v>
   <v>       0.00317460 </v>
   <v>       0.00317460 </v>
   <v>       0.00317460 </v>
   <v>       0.00317460 </v>
   <v>       0.00317460 </v>
   <v>       0.00317460 </v>
   <v>       0.00317460 </v>
   <v>       0.00317460 </v>
   <v>       0.00317460 </v>
   <v>       0.00317460 </v>
   <v>       0.00317460 </v>
   <v>       0.00317460 </v>
   <v>       0.00317460 </v>
   <v>       0.00317460 </v>
   <v>       0.00634921 </v>
   <v>       0.00634921 </v>
   <v>       0.00634921 </v>
   <v>       0.00634921 </v>
   <v>       0.00634921 </v>
   <v>       0.00634921 </v>
   <v>       0.00634921 </v>
   <v>       0.00634921 </v>
   <v>       0.00634921 </v>
   <v>       0.00634921 </v>
   <v>       0.00634921 </v>
   <v>       0.00634921 </v>
   <v>       0.00634921 </v>
   <v>       0.00634921 </v>
   <v>       0.00634921 </v>
   <v>       0.00634921 </v>
   <v>       0.00634921 </v>
   <v>       0.00634921 </v>
   <v>       0.00634921 </v>
   <v>       0.00634921 </v>
   <v>       0.00634921 </v>
   <v>       0.00634921 </v>
   <v>       0.00634921 </v>
   <v>       0.00634921 </v>
   <v>       0.00634921 </v>
   <v>       0.00634921 </v>
   <v>       0.00634921 </v>
   <v>       0.00634921 </v>
   <v>       0.00634921 </v>
   <v>       0.00634921 </v>
   <v>       0.00634921 </v>
   <v>       0.00634921 </v>
   <v>       0.00634921 </v>
   <v>       0.00634921 </v>
   <v>       0.00634921 </v>
   <v>       0.00634921 </v>
   <v>       0.00634921 </v>
   <v>       0.00634921 </v>
   <v>       0.00634921 </v>
   <v>       0.00634921 </v>
   <v>       0.00634921 </v>
   <v>       0.00634921 </v>
   <v>       0.00634921 </v>
   <v>       0.00634921 </v>
   <v>       0.00634921 </v>
   <v>       0.00634921 </v>
   <v>       0.00634921 </v>
   <v>       0.00634921 </v>
   <v>       0.00634921 </v>
   <v>       0.00634921 </v>
   <v>       0.00634921 </v>
   <v>       0.00634921 </v>
   <v>       0.00634921 </v>
   <v>       0.00634921 </v>
   <v>       0.00634921 </v>
   <v>       0.00634921 </v>
   <v>       0.00634921 </v>
   <v>       0.00634921 </v>
   <v>       0.00634921 </v>
   <v>       0.00634921 </v>
   <v>       0.00634921 </v>
   <v>       0.00634921 </v>
   <v>       0.00634921 </v>
   <v>       0.00634921 </v>
   <v>       0.00634921 </v>
   <v>       0.00634921 </v>
   <v>       0.00634921 </v>
   <v>       0.00634921 </v>
   <v>       0.00634921 </v>
   <v>       0.00634921 </v>
   <v>       0.00634921 </v>
   <v>       0.00634921 </v>
   <v>       0.00634921 </v>
   <v>       0.00634921 </v>
   <v>       0.00634921 </v>
   <v>       0.00634921 </v>
   <v>       0.00634921 </v>
   <v>       0.00634921 </v>
   <v>       0.00634921 </v>
   <v>       0.00634921 </v>
   <v>       0.00634921 </v>
   <v>       0.00634921 </v>
   <v>       0.00634921 </v>
   <v>       0.00634921 </v>
   <v>       0.00634921 </v>
   <v>       0.00634921 </v>
   <v>       0.00634921 </v>
   <v>       0.00634921 </v>
   <v>       0.00634921 </v>
   <v>       0.00634921 </v>
   <v>       0.00634921 </v>
   <v>       0.00634921 </v>
   <v>       0.00634921 </v>
   <v>       0.00634921 </v>
   <v>       0.00634921 </v>
   <v>       0.00634921 </v>
   <v>       0.00634921 </v>
   <v>       0.00634921 </v>
   <v>       0.00634921 </v>
   <v>       0.00634921 </v>
   <v>       0.00634921 </v>
   <v>       0.00634921 </v>
   <v>       0.00634921 </v>
   <v>       0.00634921 </v>
   <v>       0.00634921 </v>
   <v>       0.00634921 </v>
   <v>       0.00634921 </v>
   <v>       0.00634921 </v>
   <v>       0.00634921 </v>
   <v>       0.00634921 </v>
   <v>       0.00634921 </v>
   <v>       0.00634921 </v>
   <v>       0.00634921 </v>
   <v>       0.00634921 </v>
   <v>       0.00634921 </v>
   <v>       0.00634921 </v>
   <v>       0.00634921 </v>
   <v>       0.00634921 </v>
   <v>       0.00634921 </v>
   <v>       0.00634921 </v>
   <v>       0.00634921 </v>
   <v>       0.00634921 </v>
   <v>       0.00634921 </v>
   <v>       0.00634921 </v>
   <v>       0.00634921 </v>
   <v>       0.00634921 </v>
   <v>       0.00634921 </v>
   <v>       0.00634921 </v>
   <v>       0.00634921 </v>
   <v>       0.00634921 </v>
   <v>       0.00634921 </v>
   <v>       0.00634921 </v>
   <v>       0.00634921 </v>
   <v>       0.00634921 </v>
   <v>       0.00634921 </v>
   <v>       0.00634921 </v>
   <v>       0.00634921 </v>
   <v>       0.00634921 </v>
   <v>       0.00634921 </v>
   <v>       0.00634921 </v>
  </varray>
 </kpoints>
 <parameters>
  <separator name="general" >
   <i type="string" name="SYSTEM">Convergence</i>
   <i type="logical" name="LCOMPAT"> F  </i>
  </separator>
  <separator name="electronic" >
   <i type="string" name="PREC">accura</i>
   <i name="ENMAX">    600.00000000</i>
   <i name="ENAUG">    535.51400000</i>
   <i name="EDIFF">      0.00000100</i>
   <i type="int" name="IALGO">    38</i>
   <i type="int" name="IWAVPR">    10</i>
   <i type="int" name="NBANDS">    48</i>
   <i type="int" name="NBANDSLOW">    -1</i>
   <i type="int" name="NBANDSHIGH">    -1</i>
   <i name="NELECT">     42.00000000</i>
   <i type="int" name="TURBO">     0</i>
   <i type="int" name="IRESTART">     0</i>
   <i type="int" name="NREBOOT">     0</i>
   <i type="int" name="NMIN">     0</i>
   <i name="EREF">      0.00000000</i>
   <separator name="electronic smearing" >
    <i type="int" name="ISMEAR">     0</i>
    <i name="SIGMA">      0.05000000</i>
    <i name="KSPACING">      0.50000000</i>
    <i type="logical" name="KGAMMA"> T  </i>
    <i type="logical" name="KBLOWUP"> T  </i>
   </separator>
   <separator name="electronic projectors" >
    <i type="logical" name="LREAL"> F  </i>
    <v name="ROPT">      0.00000000</v>
    <i type="int" name="LMAXPAW">  -100</i>
    <i type="int" name="LMAXMIX">     2</i>
    <i type="logical" name="NLSPLINE"> F  </i>
   </separator>
   <separator name="electronic startup" >
    <i type="int" name="ISTART">     0</i>
    <i type="int" name="ICHARG">     2</i>
    <i type="int" name="INIWAV">     1</i>
   </separator>
   <separator name="electronic spin" >
    <i type="int" name="ISPIN">     1</i>
    <i type="logical" name="LNONCOLLINEAR"> F  </i>
    <v name="MAGMOM">      1.00000000      1.00000000      1.00000000      1.00000000      1.00000000      1.00000000      1.00000000      1.00000000      1.00000000      1.00000000      1.00000000      1.00000000      1.00000000      1.00000000</v>
    <i name="NUPDOWN">     -1.00000000</i>
    <i type="logical" name="LSORBIT"> F  </i>
    <v name="SAXIS">      0.00000000      0.00000000      1.00000000</v>
    <i type="logical" name="LSPIRAL"> F  </i>
    <v name="QSPIRAL">      0.00000000      0.00000000      0.00000000</v>
    <i type="logical" name="LZEROZ"> F  </i>
   </separator>
   <separator name="electronic exchange-correlation" >
    <i type="logical" name="LASPH"> F  </i>
   </separator>
   <separator name="electronic convergence" >
    <i type="int" name="NELM">   100</i>
    <i type="int" name="NELMDL">    -5</i>
    <i type="int" name="NELMIN">     2</i>
    <i name="ENINI">    600.00000000</i>
    <separator name="electronic convergence detail" >
     <i type="logical" name="LDIAG"> T  </i>
     <i type="logical" name="LSUBROT"> F  </i>
     <i name="WEIMIN">      0.00000000</i>
     <i name="EBREAK">      0.00000001</i>
     <i name="DEPER">      0.30000000</i>
     <i type="int" name="NRMM">     4</i>
     <i name="TIME">      0.40000000</i>
    </separator>
   </separator>
   <separator name="electronic mixer" >
    <i name="AMIX">      0.40000000</i>
    <i name="BMIX">      1.00000000</i>
    <i name="AMIN">      0.10000000</i>
    <i name="AMIX_MAG">      1.60000000</i>
    <i name="BMIX_MAG">      1.00000000</i>
    <separator name="electronic mixer details" >
     <i type="int" name="IMIX">     4</i>
     <i type="logical" name="MIXFIRST"> F  </i>
     <i type="int" name="MAXMIX">   -45</i>
     <i name="WC">    100.00000000</i>
     <i type="int" name="INIMIX">     1</i>
     <i type="int" name="MIXPRE">     1</i>
     <i type="int" name="MREMOVE">     5</i>
    </separator>
   </separator>
   <separator name="electronic dipolcorrection" >
    <i type="logical" name="LDIPOL"> F  </i>
    <i type="logical" name="LMONO"> F  </i>
    <i type="int" name="IDIPOL">     0</i>
    <i name="EPSILON">      1.00000000</i>
    <v name="DIPOL">   -100.00000000   -100.00000000   -100.00000000</v>
    <i name="EFIELD">      0.00000000</i>
    <i type="logical" name="LVACPOTAV"> F  </i>
   </separator>
  </separator>
  <separator name="grids" >
   <i type="int" name="NGX">    48</i>
   <i type="int" name="NGY">    32</i>
   <i type="int" name="NGZ">    50</i>
   <i type="int" name="NGXF">    96</i>
   <i type="int" name="NGYF">    64</i>
   <i type="int" name="NGZF">   100</i>
   <i type="logical" name="ADDGRID"> F  </i>
  </separator>
  <separator name="ionic" >
   <i type="int" name="NSW">     0</i>
   <i type="int" name="IBRION">    -1</i>
   <i type="int" name="MDALGO">     0</i>
   <i type="int" name="ISIF">     2</i>
   <i name="PSTRESS">      0.00000000</i>
   <i name="EDIFFG">     -0.00100000</i>
   <i type="int" name="NFREE">     0</i>
   <i name="POTIM">      0.50000000</i>
   <i name="SMASS">     -3.00000000</i>
   <i name="SCALEE">      1.00000000</i>
  </separator>
  <separator name="ionic md" >
   <i name="TEBEG">      0.00010000</i>
   <i name="TEEND">      0.00010000</i>
   <i type="int" name="NBLOCK">     1</i>
   <i type="int" name="KBLOCK">     1</i>
   <i type="int" name="NPACO">   256</i>
   <i name="APACO">     10.00000000</i>
  </separator>
  <separator name="symmetry" >
   <i type="int" name="ISYM">     2</i>
   <i name="SYMPREC">      0.00001000</i>
  </separator>
  <separator name="dos" >
   <i type="int" name="LORBIT">     0</i>
   <v name="RWIGS">     -1.00000000</v>
   <i type="int" name="NEDOS">   301</i>
   <i name="EMIN">     10.00000000</i>
   <i name="EMAX">    -10.00000000</i>
   <i name="EFERMI">      0.00000000</i>
  </separator>
  <separator name="writing" >
   <i type="int" name="NWRITE">     2</i>
   <i type="logical" name="LWAVE"> F  </i>
   <i type="logical" name="LDOWNSAMPLE"> F  </i>
   <i type="logical" name="LCHARG"> F  </i>
   <i type="logical" name="LPARD"> F  </i>
   <i type="logical" name="LVTOT"> F  </i>
   <i type="logical" name="LVHAR"> F  </i>
   <i type="logical" name="LELF"> F  </i>
   <i type="logical" name="LOPTICS"> F  </i>
   <v name="STM">      0.00000000      0.00000000      0.00000000      0.00000000      0.00000000      0.00000000      0.00000000</v>
  </separator>
  <separator name="performance" >
   <i type="int" name="NPAR">    24</i>
   <i type="int" name="NSIM">     4</i>
   <i type="int" name="NBLK">    -1</i>
   <i type="logical" name="LPLANE"> T  </i>
   <i type="logical" name="LSCALAPACK"> T  </i>
   <i type="logical" name="LSCAAWARE"> F  </i>
   <i type="logical" name="LSCALU"> F  </i>
   <i type="logical" name="LASYNC"> F  </i>
   <i type="logical" name="LORBITALREAL"> F  </i>
  </separator>
  <separator name="miscellaneous" >
   <i type="int" name="IDIOT">     3</i>
   <i type="int" name="PHON_NSTRUCT">    -1</i>
   <i type="logical" name="LMUSIC"> F  </i>
   <v name="POMASS">     10.81100000</v>
   <v name="DARWINR">      0.00000000</v>
   <v name="DARWINV">      1.00000000</v>
   <i type="logical" name="LCORR"> T  </i>
  </separator>
  <i type="logical" name="GGA_COMPAT"> T  </i>
  <i type="logical" name="LBERRY"> F  </i>
  <i type="int" name="ICORELEVEL">     0</i>
  <i type="logical" name="LDAU"> F  </i>
  <i type="int" name="I_CONSTRAINED_M">     0</i>
  <separator name="electronic exchange-correlation" >
   <i type="string" name="GGA    ">PE</i>
   <i type="string" name="XC_C">1</i>
   <i type="int" name="VOSKOWN">     0</i>
   <i type="logical" name="LHFCALC"> F  </i>
   <i type="string" name="PRECFOCK"></i>
   <i type="logical" name="LSYMGRAD"> F  </i>
   <i type="logical" name="LHFONE"> F  </i>
   <i type="logical" name="LRHFCALC"> F  </i>
   <i type="logical" name="LTHOMAS"> F  </i>
   <i type="logical" name="LMODELHF"> F  </i>
   <i type="logical" name="LFOCKACE"> F  </i>
   <i name="ENCUT4O">     -1.00000000</i>
   <i type="int" name="EXXOEP">     0</i>
   <i type="int" name="FOURORBIT">     0</i>
   <i name="AEXX">      0.00000000</i>
   <i name="HFALPHA">      0.00000000</i>
   <i name="MCALPHA">      0.00000000</i>
   <i name="ALDAX">      1.00000000</i>
   <i name="AGGAX">      1.00000000</i>
   <i name="AMGGAX">      1.00000000</i>
   <i name="ALDAC">      1.00000000</i>
   <i name="AGGAC">      1.00000000</i>
   <i name="AMGGAC">      1.00000000</i>
   <i type="int" name="NKREDX">     1</i>
   <i type="int" name="NKREDY">     1</i>
   <i type="int" name="NKREDZ">     1</i>
   <i type="logical" name="SHIFTRED"> F  </i>
   <i type="logical" name="ODDONLY"> F  </i>
   <i type="logical" name="EVENONLY"> F  </i>
   <i type="int" name="LMAXFOCK">     0</i>
   <i type="int" name="NMAXFOCKAE">     0</i>
   <i type="logical" name="LFOCKAEDFT"> F  </i>
   <i name="HFSCREEN">      0.00000000</i>
   <i name="HFSCREENC">      0.00000000</i>
   <i type="int" name="NBANDSGWLOW">     0</i>
  </separator>
  <separator name="vdW DFT" >
   <i type="logical" name="LUSE_VDW"> F  </i>
   <i type="int" name="IVDW_NL">    -1</i>
   <i type="logical" name="LSPIN_VDW"> F  </i>
   <i name="ZAB_VDW">     -0.84910000</i>
   <i name="GAMMA_VDW">      1.39626340</i>
   <i name="ALPHA_VDW">      0.00000000</i>
   <i name="PARAM1">      0.12340000</i>
   <i name="PARAM2">      1.00000000</i>
   <i name="BPARAM">      6.30000000</i>
   <i name="CPARAM">      0.00930000</i>
  </separator>
  <separator name="model GW" >
   <i type="int" name="MODEL_GW">     0</i>
   <i name="MODEL_EPS0">      6.13911894</i>
   <i name="MODEL_ALPHA">      1.00000000</i>
  </separator>
  <separator name="linear response parameters" >
   <i type="logical" name="LEPSILON"> F  </i>
   <i type="logical" name="LRPA"> F  </i>
   <i type="logical" name="LNABLA"> F  </i>
   <i type="logical" name="LVEL"> F  </i>
   <i name="CSHIFT">      0.10000000</i>
   <i name="OMEGAMAX">     -1.00000000</i>
   <i name="DEG_THRESHOLD">      0.00200000</i>
   <i name="RTIME">     -0.10000000</i>
   <i name="WPLASMAI">      0.00000000</i>
   <v name="DFIELD">      0.00000000      0.00000000      0.00000000</v>
   <v name="WPLASMA">      0.00000000      0.00000000      0.00000000      0.00000000      0.00000000      0.00000000      0.00000000      0.00000000      0.00000000</v>
  </separator>
  <separator name="orbital magnetization" >
   <i type="logical" name="NUCIND"> F  </i>
   <v name="MAGPOS">      0.00000000      0.00000000      0.00000000</v>
   <i type="logical" name="LNICSALL"> T  </i>
   <i type="logical" name="ORBITALMAG"> F  </i>
   <i type="logical" name="LMAGBLOCH"> F  </i>
   <i type="logical" name="LCHIMAG"> F  </i>
   <i type="logical" name="LGAUGE"> T  </i>
   <i type="int" name="MAGATOM">     0</i>
   <v name="MAGDIPOL">      0.00000000      0.00000000      0.00000000</v>
   <v name="AVECCONST">      0.00000000      0.00000000      0.00000000</v>
  </separator>
  <separator name="response functions" >
   <i type="logical" name="LALL_IN_ONE"> F  </i>
   <i type="int" name="IALL_IN_ONE">    -1</i>
   <i type="int" name="NBANDS_WAVE">    -1</i>
   <i type="logical" name="LFINITE_TEMPERATURE"> F  </i>
   <i type="logical" name="LADDER"> F  </i>
   <i type="logical" name="LRPAFORCE"> F  </i>
   <i type="logical" name="LFXC"> F  </i>
   <i type="logical" name="LHARTREE"> T  </i>
   <i type="int" name="IBSE">     0</i>
   <v type="int" name="KPOINT">    -1     0     0     0</v>
   <i type="logical" name="LTCTC"> F  </i>
   <i type="logical" name="LTCTE"> F  </i>
   <i type="logical" name="LTETE"> F  </i>
   <i type="logical" name="LTRIPLET"> F  </i>
   <i type="logical" name="LFXCEPS"> F  </i>
   <i type="logical" name="LFXHEG"> F  </i>
   <i type="int" name="NATURALO">     2</i>
   <i type="logical" name="LHOLEGF"> F  </i>
   <i type="logical" name="L2ORDER"> F  </i>
   <i type="logical" name="LDMP1"> F  </i>
   <i type="logical" name="LMP2LT"> F  </i>
   <i type="logical" name="LSMP2LT"> F  </i>
   <i type="logical" name="LGWLF"> F  </i>
   <i name="ENCUTGW">     -1.60000002</i>
   <i name="ENCUTGWSOFT">     -1.60000002</i>
   <i name="ENCUTLF">     -1.00000000</i>
   <i type="logical" name="ESF_SPLINES"> F  </i>
   <i name="ESF_CONV">      0.01000000</i>
   <i type="int" name="ESF_NINTER">    15</i>
   <i type="int" name="LMAXMP2">    -1</i>
   <i name="SCISSOR">      0.00000000</i>
   <i type="int" name="NOMEGA">     0</i>
   <i type="int" name="NOMEGAR">     0</i>
   <i type="int" name="NBANDSGW">    -1</i>
   <i type="int" name="NBANDSO">    -1</i>
   <i type="int" name="NBANDSV">    -1</i>
   <i type="int" name="NELMGW">     1</i>
   <i type="int" name="NELMHF">     1</i>
   <i type="int" name="DIM">     3</i>
   <i type="int" name="IESPILON">     4</i>
   <i type="int" name="ANTIRES">     0</i>
   <i name="OMEGAMAX">    -30.00000000</i>
   <i name="OMEGAMIN">    -30.00000000</i>
   <i name="OMEGATL">   -200.00000000</i>
   <i type="int" name="OMEGAGRID">     0</i>
   <i name="CSHIFT">     -0.10000000</i>
   <i type="logical" name="LSELFENERGY"> F  </i>
   <i type="logical" name="LSPECTRAL"> F  </i>
   <i type="logical" name="LSPECTRALGW"> F  </i>
   <i type="logical" name="LSINGLES"> F  </i>
   <i type="logical" name="LFERMIGW"> F  </i>
   <i type="logical" name="ODDONLYGW"> F  </i>
   <i type="logical" name="EVENONLYGW"> F  </i>
   <i type="int" name="NKREDLFX">     1</i>
   <i type="int" name="NKREDLFY">     1</i>
   <i type="int" name="NKREDLFZ">     1</i>
   <i type="int" name="MAXMEM">  2800</i>
   <i type="int" name="TELESCOPE">     0</i>
   <i type="int" name="NTAUPAR">    -1</i>
   <i type="int" name="NOMEGAPAR">    -1</i>
   <i name="DAMP_NEWTON">      0.80000001</i>
   <i name="LAMBDA">      1.00000000</i>
  </separator>
  <separator name="External order field" >
   <i name="OFIELD_KAPPA">      0.00000000</i>
   <v name="OFIELD_K">      0.00000000      0.00000000      0.00000000</v>
   <i name="OFIELD_Q6_NEAR">      0.00000000</i>
   <i name="OFIELD_Q6_FAR">      0.00000000</i>
   <i name="OFIELD_A">      0.00000000</i>
  </separator>
  <separator name="optional k-points parameters" >
   <i type="int" name="KPOINTS_OPT_MODE">     1</i>
   <i type="logical" name="LKPOINTS_OPT"> F  </i>
  </separator>
 </parameters>
 <atominfo>
  <atoms>      14 </atoms>
  <types>       1 </types>
  <array name="atoms" >
   <dimension dim="1">ion</dimension>
   <field type="string">element</field>
   <field type="int">atomtype</field>
   <set>
    <rc><c>B </c><c>   1</c></rc>
    <rc><c>B </c><c>   1</c></rc>
    <rc><c>B </c><c>   1</c></rc>
    <rc><c>B </c><c>   1</c></rc>
    <rc><c>B </c><c>   1</c></rc>
    <rc><c>B </c><c>   1</c></rc>
    <rc><c>B </c><c>   1</c></rc>
    <rc><c>B </c><c>   1</c></rc>
    <rc><c>B </c><c>   1</c></rc>
    <rc><c>B </c><c>   1</c></rc>
    <rc><c>B </c><c>   1</c></rc>
    <rc><c>B </c><c>   1</c></rc>
    <rc><c>B </c><c>   1</c></rc>
    <rc><c>B </c><c>   1</c></rc>
   </set>
  </array>
  <array name="atomtypes" >
   <dimension dim="1">type</dimension>
   <field type="int">atomspertype</field>
   <field type="string">element</field>
   <field>mass</field>
   <field>valence</field>
   <field type="string">pseudopotential</field>
   <set>
    <rc><c>  14</c><c>B </c><c>     10.81100000</c><c>      3.00000000</c><c>  PAW_PBE B 06Sep2000                   </c></rc>
   </set>
  </array>
 </atominfo>
 <structure name="initialpos" >
  <crystal>
   <varray name="basis" >
    <v>       5.69927880       0.00000000       0.00000000 </v>
    <v>       0.00000000       4.04951916       0.00000000 </v>
    <v>       0.00000000       0.00000000       6.20668168 </v>
   </varray>
   <i name="volume">    143.24610869 </i>
   <varray name="rec_basis" >
    <v>       0.17546080       0.00000000       0.00000000 </v>
    <v>       0.00000000       0.24694290       0.00000000 </v>
    <v>       0.00000000       0.00000000       0.16111669 </v>
   </varray>
  </crystal>
  <varray name="positions" >
   <v>       0.52123000       0.50000000       0.63796000 </v>
   <v>       0.47877000       0.50000000       0.36204000 </v>
   <v>       0.97877000       0.50000000       0.63796000 </v>
   <v>       0.02123000       0.50000000       0.36204000 </v>
   <v>       0.60090000       0.50000000       0.89991000 </v>
   <v>       0.39910000       0.50000000       0.10009000 </v>
   <v>       0.89910000       0.50000000       0.89991000 </v>
   <v>       0.10090000       0.50000000       0.10009000 </v>
   <v>       0.75000000       0.79171000       0.72973000 </v>
   <v>       0.25000000       0.20829000       0.27027000 </v>
   <v>       0.75000000       0.20829000       0.72973000 </v>
   <v>       0.25000000       0.79171000       0.27027000 </v>
   <v>       0.25000000       0.50000000       0.52367000 </v>
   <v>       0.75000000       0.50000000       0.47633000 </v>
  </varray>
 </structure>
 <calculation>
  <scstep>
   <time name="dav">    5.57    5.58</time>
   <time name="total">    5.59    5.60</time>
   <energy>
    <i name="alphaZ">     94.13057803 </i>
    <i name="ewald">   -795.44840155 </i>
    <i name="hartreedc">   -271.45554301 </i>
    <i name="XCdc">     97.47074374 </i>
    <i name="pawpsdc">    608.99811708 </i>
    <i name="pawaedc">   -597.02363782 </i>
    <i name="eentropy">     -0.00139482 </i>
    <i name="bandstr">    -54.59777771 </i>
    <i name="atom">    996.37441054 </i>
    <i name="e_fr_energy">     78.44709448 </i>
    <i name="e_wo_entrp">     78.44848930 </i>
    <i name="e_0_energy">     78.44779189 </i>
   </energy>
  </scstep>
  <scstep>
   <time name="dav">    7.32    7.32</time>
   <time name="total">    7.32    7.32</time>
   <energy>
    <i name="e_fr_energy">    -91.78071980 </i>
    <i name="e_wo_entrp">    -91.77669623 </i>
    <i name="e_0_energy">    -91.77870801 </i>
   </energy>
  </scstep>
  <scstep>
   <time name="dav">    7.84    7.84</time>
   <time name="total">    7.84    7.84</time>
   <energy>
    <i name="e_fr_energy">    -97.58617096 </i>
    <i name="e_wo_entrp">    -97.58251116 </i>
    <i name="e_0_energy">    -97.58434106 </i>
   </energy>
  </scstep>
  <scstep>
   <time name="dav">    6.45    6.45</time>
   <time name="total">    6.45    6.45</time>
   <energy>
    <i name="e_fr_energy">    -97.62055341 </i>
    <i name="e_wo_entrp">    -97.61689606 </i>
    <i name="e_0_energy">    -97.61872473 </i>
   </energy>
  </scstep>
  <scstep>
   <time name="dav">    7.80    7.80</time>
   <time name="total">    7.90    7.90</time>
   <energy>
    <i name="e_fr_energy">    -97.62093765 </i>
    <i name="e_wo_entrp">    -97.61728028 </i>
    <i name="e_0_energy">    -97.61910897 </i>
   </energy>
  </scstep>
  <scstep>
   <time name="dav">    7.66    7.66</time>
   <time name="total">    7.77    7.77</time>
   <energy>
    <i name="e_fr_energy">    -92.22301313 </i>
    <i name="e_wo_entrp">    -92.21957598 </i>
    <i name="e_0_energy">    -92.22129455 </i>
   </energy>
  </scstep>
  <scstep>
   <time name="dav">    7.91    7.91</time>
   <time name="total">    8.01    8.01</time>
   <energy>
    <i name="e_fr_energy">    -90.57610000 </i>
    <i name="e_wo_entrp">    -90.57296196 </i>
    <i name="e_0_energy">    -90.57453098 </i>
   </energy>
  </scstep>
  <scstep>
   <time name="dav">    5.99    5.99</time>
   <time name="total">    6.09    6.09</time>
   <energy>
    <i name="e_fr_energy">    -90.58859391 </i>
    <i name="e_wo_entrp">    -90.58541574 </i>
    <i name="e_0_energy">    -90.58700483 </i>
   </energy>
  </scstep>
  <scstep>
   <time name="dav">    7.42    7.42</time>
   <time name="total">    7.53    7.53</time>
   <energy>
    <i name="e_fr_energy">    -90.60276342 </i>
    <i name="e_wo_entrp">    -90.59949917 </i>
    <i name="e_0_energy">    -90.60113130 </i>
   </energy>
  </scstep>
  <scstep>
   <time name="dav">    6.13    6.13</time>
   <time name="total">    6.23    6.23</time>
   <energy>
    <i name="e_fr_energy">    -90.60680158 </i>
    <i name="e_wo_entrp">    -90.60358346 </i>
    <i name="e_0_energy">    -90.60519252 </i>
   </energy>
  </scstep>
  <scstep>
   <time name="dav">    6.87    6.87</time>
   <time name="total">    6.98    6.98</time>
   <energy>
    <i name="e_fr_energy">    -90.60786947 </i>
    <i name="e_wo_entrp">    -90.60466200 </i>
    <i name="e_0_energy">    -90.60626573 </i>
   </energy>
  </scstep>
  <scstep>
   <time name="dav">    6.59    6.59</time>
   <time name="total">    6.69    6.70</time>
   <energy>
    <i name="e_fr_energy">    -90.60798501 </i>
    <i name="e_wo_entrp">    -90.60477137 </i>
    <i name="e_0_energy">    -90.60637819 </i>
   </energy>
  </scstep>
  <scstep>
   <time name="dav">    7.40    7.40</time>
   <time name="total">    7.50    7.50</time>
   <energy>
    <i name="e_fr_energy">    -90.60798990 </i>
    <i name="e_wo_entrp">    -90.60477601 </i>
    <i name="e_0_energy">    -90.60638296 </i>
   </energy>
  </scstep>
  <scstep>
   <time name="dav">    6.58    6.58</time>
   <time name="total">    6.59    6.59</time>
   <energy>
    <i name="alphaZ">     94.13057803 </i>
    <i name="ewald">   -795.44840155 </i>
    <i name="hartreedc">   -349.11940559 </i>
    <i name="XCdc">    101.56037123 </i>
    <i name="pawpsdc">   3730.13380042 </i>
    <i name="pawaedc">  -3719.31776494 </i>
    <i name="eentropy">     -0.00321402 </i>
    <i name="bandstr">   -148.91836470 </i>
    <i name="atom">    996.37441054 </i>
    <i name="e_fr_energy">    -90.60799058 </i>
    <i name="e_wo_entrp">    -90.60477657 </i>
    <i name="e_0_energy">    -90.60638357 </i>
   </energy>
  </scstep>
  <structure>
   <crystal>
    <varray name="basis" >
     <v>       5.69927880       0.00000000       0.00000000 </v>
     <v>       0.00000000       4.04951916       0.00000000 </v>
     <v>       0.00000000       0.00000000       6.20668168 </v>
    </varray>
    <i name="volume">    143.24610869 </i>
    <varray name="rec_basis" >
     <v>       0.17546080       0.00000000       0.00000000 </v>
     <v>       0.00000000       0.24694290       0.00000000 </v>
     <v>       0.00000000       0.00000000       0.16111669 </v>
    </varray>
   </crystal>
   <varray name="positions" >
    <v>       0.52123000       0.50000000       0.63796000 </v>
    <v>       0.47877000       0.50000000       0.36204000 </v>
    <v>       0.97877000       0.50000000       0.63796000 </v>
    <v>       0.02123000       0.50000000       0.36204000 </v>
    <v>       0.60090000       0.50000000       0.89991000 </v>
    <v>       0.39910000       0.50000000       0.10009000 </v>
    <v>       0.89910000       0.50000000       0.89991000 </v>
    <v>       0.10090000       0.50000000       0.10009000 </v>
    <v>       0.75000000       0.79171000       0.72973000 </v>
    <v>       0.25000000       0.20829000       0.27027000 </v>
    <v>       0.75000000       0.20829000       0.72973000 </v>
    <v>       0.25000000       0.79171000       0.27027000 </v>
    <v>       0.25000000       0.50000000       0.52367000 </v>
    <v>       0.75000000       0.50000000       0.47633000 </v>
   </varray>
  </structure>
  <varray name="forces" >
   <v>       0.00254049      -0.00000000       0.04855861 </v>
   <v>      -0.00254049       0.00000000      -0.04855861 </v>
   <v>      -0.00254049      -0.00000000       0.04855861 </v>
   <v>       0.00254049       0.00000000      -0.04855861 </v>
   <v>      -0.82730392      -0.00000000       0.27000795 </v>
   <v>       0.82730392      -0.00000000      -0.27000795 </v>
   <v>       0.82730392       0.00000000       0.27000795 </v>
   <v>      -0.82730392       0.00000000      -0.27000795 </v>
   <v>      -0.00000000       0.06131105      -0.07670924 </v>
   <v>      -0.00000000      -0.06131105       0.07670924 </v>
   <v>       0.00000000      -0.06131105      -0.07670924 </v>
   <v>      -0.00000000       0.06131105       0.07670924 </v>
   <v>      -0.00000000      -0.00000000       0.06415114 </v>
   <v>      -0.00000000      -0.00000000      -0.06415114 </v>
  </varray>
  <varray name="stress" >
   <v>      11.68562131       0.00000000       0.00000000 </v>
   <v>       0.00000000      -0.64554828       0.00000000 </v>
   <v>       0.00000000       0.00000000      -9.16163059 </v>
  </varray>
  <energy>
   <i name="e_fr_energy">    -90.60799058 </i>
   <i name="e_wo_entrp">    -90.60477657 </i>
   <i name="e_0_energy">    -90.60638357 </i>
  </energy>
  <time name="totalsc">  103.23  103.26</time>
  <eigenvalues>
   <array>
    <dimension dim="1">band</dimension>
    <dimension dim="2">kpoint</dimension>
    <dimension dim="3">spin</dimension>
    <field>eigene</field>
    <field>occ</field>
    <set>
     <set comment="spin 1">
      <set comment="kpoint 1">
       <r>  -12.7235    1.0000 </r>
       <r>  -11.5817    1.0000 </r>
       <r>   -8.6596    1.0000 </r>
       <r>   -8.4231    1.0000 </r>
       <r>   -6.0670    1.0000 </r>
       <r>   -5.1334    1.0000 </r>
       <r>   -4.6695    1.0000 </r>
       <r>   -4.2769    1.0000 </r>
       <r>   -4.0360    1.0000 </r>
       <r>   -3.5473    1.0000 </r>
       <r>   -2.5988    1.0000 </r>
       <r>   -2.3299    1.0000 </r>
       <r>   -1.8391    1.0000 </r>
       <r>   -1.1010    1.0000 </r>
       <r>   -0.0744    1.0000 </r>
       <r>   -0.0441    1.0000 </r>
       <r>    0.1501    1.0000 </r>
       <r>    0.1713    1.0000 </r>
       <r>    0.5596    1.0000 </r>
       <r>    2.0124    0.0001 </r>
       <r>    2.0753    0.0000 </r>
       <r>    2.2096    0.0000 </r>
       <r>    5.4486    0.0000 </r>
       <r>    5.7396    0.0000 </r>
       <r>    5.8280    0.0000 </r>
       <r>    5.9498    0.0000 </r>
       <r>    6.8038    0.0000 </r>
       <r>    7.5378    0.0000 </r>
       <r>    7.8664    0.0000 </r>
       <r>    8.5216    0.0000 </r>
       <r>    8.7860    0.0000 </r>
       <r>    8.9352    0.0000 </r>
       <r>    9.0335    0.0000 </r>
       <r>   10.1115    0.0000 </r>
       <r>   11.1730    0.0000 </r>
       <r>   11.3188    0.0000 </r>
       <r>   11.6484    0.0000 </r>
       <r>   11.7668    0.0000 </r>
       <r>   11.9276    0.0000 </r>
       <r>   12.3909    0.0000 </r>
       <r>   12.8517    0.0000 </r>
       <r>   13.4351    0.0000 </r>
       <r>   13.4624    0.0000 </r>
       <r>   15.3601    0.0000 </r>
       <r>   15.5511    0.0000 </r>
       <r>   16.0404    0.0000 </r>
       <r>   16.3143    0.0000 </r>
       <r>   16.3367    0.0000 </r>
      </set>
      <set comment="kpoint 2">
       <r>  -12.6798    1.0000 </r>
       <r>  -11.6555    1.0000 </r>
       <r>   -8.6385    1.0000 </r>
       <r>   -8.4116    1.0000 </r>
       <r>   -5.9989    1.0000 </r>
       <r>   -5.4739    1.0000 </r>
       <r>   -4.7917    1.0000 </r>
       <r>   -4.0124    1.0000 </r>
       <r>   -3.7949    1.0000 </r>
       <r>   -3.2102    1.0000 </r>
       <r>   -2.6689    1.0000 </r>
       <r>   -2.3098    1.0000 </r>
       <r>   -1.9175    1.0000 </r>
       <r>   -1.4078    1.0000 </r>
       <r>   -0.0341    1.0000 </r>
       <r>   -0.0241    1.0000 </r>
       <r>    0.0884    1.0000 </r>
       <r>    0.1919    1.0000 </r>
       <r>    0.4645    1.0000 </r>
       <r>    1.9262    0.0824 </r>
       <r>    1.9974    0.0003 </r>
       <r>    2.0885    0.0000 </r>
       <r>    5.5375    0.0000 </r>
       <r>    5.7473    0.0000 </r>
       <r>    5.8567    0.0000 </r>
       <r>    6.2949    0.0000 </r>
       <r>    6.7184    0.0000 </r>
       <r>    7.1764    0.0000 </r>
       <r>    8.0755    0.0000 </r>
       <r>    8.6580    0.0000 </r>
       <r>    9.0415    0.0000 </r>
       <r>    9.1156    0.0000 </r>
       <r>    9.1898    0.0000 </r>
       <r>   10.2227    0.0000 </r>
       <r>   10.9269    0.0000 </r>
       <r>   11.1149    0.0000 </r>
       <r>   11.2459    0.0000 </r>
       <r>   11.6841    0.0000 </r>
       <r>   12.1448    0.0000 </r>
       <r>   12.4798    0.0000 </r>
       <r>   13.1038    0.0000 </r>
       <r>   13.1109    0.0000 </r>
       <r>   13.9930    0.0000 </r>
       <r>   14.8490    0.0000 </r>
       <r>   15.7314    0.0000 </r>
       <r>   15.8115    0.0000 </r>
       <r>   16.2065    0.0000 </r>
       <r>   16.4936    0.0000 </r>
      </set>
      <set comment="kpoint 3">
       <r>  -12.5941    1.0000 </r>
       <r>  -11.7885    1.0000 </r>
       <r>   -8.5949    1.0000 </r>
       <r>   -8.3968    1.0000 </r>
       <r>   -5.9772    1.0000 </r>
       <r>   -5.8003    1.0000 </r>
       <r>   -4.7456    1.0000 </r>
       <r>   -3.8852    1.0000 </r>
       <r>   -3.2841    1.0000 </r>
       <r>   -2.8374    1.0000 </r>
       <r>   -2.7184    1.0000 </r>
       <r>   -2.2696    1.0000 </r>
       <r>   -2.0278    1.0000 </r>
       <r>   -1.9119    1.0000 </r>
       <r>   -0.2258    1.0000 </r>
       <r>    0.0088    1.0000 </r>
       <r>    0.1378    1.0000 </r>
       <r>    0.1523    1.0000 </r>
       <r>    0.4343    1.0000 </r>
       <r>    1.7786    0.9973 </r>
       <r>    1.8592    0.6937 </r>
       <r>    1.8648    0.6365 </r>
       <r>    5.6585    0.0000 </r>
       <r>    5.7038    0.0000 </r>
       <r>    6.1657    0.0000 </r>
       <r>    6.5926    0.0000 </r>
       <r>    6.7530    0.0000 </r>
       <r>    6.9219    0.0000 </r>
       <r>    8.2258    0.0000 </r>
       <r>    8.8065    0.0000 </r>
       <r>    8.9845    0.0000 </r>
       <r>    9.5598    0.0000 </r>
       <r>    9.6340    0.0000 </r>
       <r>   10.2664    0.0000 </r>
       <r>   10.4706    0.0000 </r>
       <r>   10.6101    0.0000 </r>
       <r>   11.3655    0.0000 </r>
       <r>   11.8267    0.0000 </r>
       <r>   12.3796    0.0000 </r>
       <r>   12.5487    0.0000 </r>
       <r>   12.7793    0.0000 </r>
       <r>   12.9009    0.0000 </r>
       <r>   14.6182    0.0000 </r>
       <r>   14.8988    0.0000 </r>
       <r>   15.2095    0.0000 </r>
       <r>   15.9637    0.0000 </r>
       <r>   15.9834    0.0000 </r>
       <r>   16.2702    0.0000 </r>
      </set>
      <set comment="kpoint 4">
       <r>  -12.4707    1.0000 </r>
       <r>  -11.9578    1.0000 </r>
       <r>   -8.5331    1.0000 </r>
       <r>   -8.3936    1.0000 </r>
       <r>   -6.0577    1.0000 </r>
       <r>   -6.0332    1.0000 </r>
       <r>   -4.4184    1.0000 </r>
       <r>   -3.7165    1.0000 </r>
       <r>   -3.0312    1.0000 </r>
       <r>   -2.9000    1.0000 </r>
       <r>   -2.4481    1.0000 </r>
       <r>   -2.2573    1.0000 </r>
       <r>   -2.1515    1.0000 </r>
       <r>   -2.1285    1.0000 </r>
       <r>   -0.5249    1.0000 </r>
       <r>   -0.2514    1.0000 </r>
       <r>    0.1679    1.0000 </r>
       <r>    0.2432    1.0000 </r>
       <r>    0.6073    1.0000 </r>
       <r>    1.5235    1.0000 </r>
       <r>    1.6561    1.0000 </r>
       <r>    1.7166    1.0000 </r>
       <r>    5.6887    0.0000 </r>
       <r>    5.7437    0.0000 </r>
       <r>    6.4915    0.0000 </r>
       <r>    6.6634    0.0000 </r>
       <r>    6.6892    0.0000 </r>
       <r>    7.4019    0.0000 </r>
       <r>    8.3499    0.0000 </r>
       <r>    8.6763    0.0000 </r>
       <r>    8.7949    0.0000 </r>
       <r>    9.5216    0.0000 </r>
       <r>   10.0407    0.0000 </r>
       <r>   10.1047    0.0000 </r>
       <r>   10.3832    0.0000 </r>
       <r>   11.1314    0.0000 </r>
       <r>   11.3913    0.0000 </r>
       <r>   11.9292    0.0000 </r>
       <r>   12.1891    0.0000 </r>
       <r>   12.2592    0.0000 </r>
       <r>   12.5074    0.0000 </r>
       <r>   13.2429    0.0000 </r>
       <r>   14.6979    0.0000 </r>
       <r>   14.9596    0.0000 </r>
       <r>   15.2433    0.0000 </r>
       <r>   15.3571    0.0000 </r>
       <r>   15.5543    0.0000 </r>
       <r>   16.3584    0.0000 </r>
      </set>
      <set comment="kpoint 5">
       <r>  -12.3160    1.0000 </r>
       <r>  -12.1402    1.0000 </r>
       <r>   -8.4670    1.0000 </r>
       <r>   -8.4161    1.0000 </r>
       <r>   -6.1469    1.0000 </r>
       <r>   -6.1427    1.0000 </r>
       <r>   -3.9033    1.0000 </r>
       <r>   -3.5075    1.0000 </r>
       <r>   -3.3042    1.0000 </r>
       <r>   -3.2698    1.0000 </r>
       <r>   -2.3653    1.0000 </r>
       <r>   -2.2374    1.0000 </r>
       <r>   -1.9670    1.0000 </r>
       <r>   -1.9132    1.0000 </r>
       <r>   -0.7455    1.0000 </r>
       <r>   -0.6098    1.0000 </r>
       <r>    0.2510    1.0000 </r>
       <r>    0.2845    1.0000 </r>
       <r>    0.8678    1.0000 </r>
       <r>    1.1850    1.0000 </r>
       <r>    1.5756    1.0000 </r>
       <r>    1.6029    1.0000 </r>
       <r>    5.7169    0.0000 </r>
       <r>    5.7547    0.0000 </r>
       <r>    6.4703    0.0000 </r>
       <r>    6.5344    0.0000 </r>
       <r>    7.3576    0.0000 </r>
       <r>    8.0621    0.0000 </r>
       <r>    8.0842    0.0000 </r>
       <r>    8.4673    0.0000 </r>
       <r>    8.6055    0.0000 </r>
       <r>    8.7770    0.0000 </r>
       <r>   10.4877    0.0000 </r>
       <r>   10.5033    0.0000 </r>
       <r>   10.7455    0.0000 </r>
       <r>   11.2033    0.0000 </r>
       <r>   11.3877    0.0000 </r>
       <r>   11.5826    0.0000 </r>
       <r>   11.9158    0.0000 </r>
       <r>   12.4669    0.0000 </r>
       <r>   12.7026    0.0000 </r>
       <r>   13.2379    0.0000 </r>
       <r>   14.5758    0.0000 </r>
       <r>   14.7172    0.0000 </r>
       <r>   14.8532    0.0000 </r>
       <r>   14.9121    0.0000 </r>
       <r>   16.0818    0.0000 </r>
       <r>   16.4267    0.0000 </r>
      </set>
      <set comment="kpoint 6">
       <r>  -12.6995    1.0000 </r>
       <r>  -11.5601    1.0000 </r>
       <r>   -8.6409    1.0000 </r>
       <r>   -8.4000    1.0000 </r>
       <r>   -6.0403    1.0000 </r>
       <r>   -5.0997    1.0000 </r>
       <r>   -4.6474    1.0000 </r>
       <r>   -4.5753    1.0000 </r>
       <r>   -4.1798    1.0000 </r>
       <r>   -3.5245    1.0000 </r>
       <r>   -3.2917    1.0000 </r>
       <r>   -1.7990    1.0000 </r>
       <r>   -1.0964    1.0000 </r>
       <r>   -1.0406    1.0000 </r>
       <r>   -0.3079    1.0000 </r>
       <r>   -0.2799    1.0000 </r>
       <r>    0.1636    1.0000 </r>
       <r>    0.2415    1.0000 </r>
       <r>    0.6379    1.0000 </r>
       <r>    1.7449    0.9999 </r>
       <r>    1.8247    0.9309 </r>
       <r>    2.2617    0.0000 </r>
       <r>    5.5674    0.0000 </r>
       <r>    5.6981    0.0000 </r>
       <r>    5.7326    0.0000 </r>
       <r>    5.9962    0.0000 </r>
       <r>    7.0894    0.0000 </r>
       <r>    7.8233    0.0000 </r>
       <r>    8.0644    0.0000 </r>
       <r>    8.1762    0.0000 </r>
       <r>    8.7904    0.0000 </r>
       <r>    9.0821    0.0000 </r>
       <r>    9.1343    0.0000 </r>
       <r>   10.5628    0.0000 </r>
       <r>   11.2506    0.0000 </r>
       <r>   11.3875    0.0000 </r>
       <r>   11.5824    0.0000 </r>
       <r>   11.8695    0.0000 </r>
       <r>   12.0384    0.0000 </r>
       <r>   12.6706    0.0000 </r>
       <r>   12.8522    0.0000 </r>
       <r>   13.1726    0.0000 </r>
       <r>   13.1781    0.0000 </r>
       <r>   15.3112    0.0000 </r>
       <r>   15.3600    0.0000 </r>
       <r>   15.8392    0.0000 </r>
       <r>   15.8473    0.0000 </r>
       <r>   16.2002    0.0000 </r>
      </set>
      <set comment="kpoint 7">
       <r>  -12.6559    1.0000 </r>
       <r>  -11.6338    1.0000 </r>
       <r>   -8.6196    1.0000 </r>
       <r>   -8.3888    1.0000 </r>
       <r>   -5.9703    1.0000 </r>
       <r>   -5.4438    1.0000 </r>
       <r>   -4.7717    1.0000 </r>
       <r>   -4.4929    1.0000 </r>
       <r>   -3.7558    1.0000 </r>
       <r>   -3.3723    1.0000 </r>
       <r>   -3.1722    1.0000 </r>
       <r>   -1.7773    1.0000 </r>
       <r>   -1.4024    1.0000 </r>
       <r>   -1.1594    1.0000 </r>
       <r>   -0.2691    1.0000 </r>
       <r>   -0.1999    1.0000 </r>
       <r>    0.1311    1.0000 </r>
       <r>    0.2134    1.0000 </r>
       <r>    0.5351    1.0000 </r>
       <r>    1.6645    1.0000 </r>
       <r>    1.7483    0.9999 </r>
       <r>    2.1310    0.0000 </r>
       <r>    5.6433    0.0000 </r>
       <r>    5.7969    0.0000 </r>
       <r>    5.9245    0.0000 </r>
       <r>    6.1020    0.0000 </r>
       <r>    7.0060    0.0000 </r>
       <r>    7.4983    0.0000 </r>
       <r>    8.2102    0.0000 </r>
       <r>    8.3460    0.0000 </r>
       <r>    9.1125    0.0000 </r>
       <r>    9.1451    0.0000 </r>
       <r>    9.4012    0.0000 </r>
       <r>   10.4867    0.0000 </r>
       <r>   10.8584    0.0000 </r>
       <r>   11.0676    0.0000 </r>
       <r>   11.4419    0.0000 </r>
       <r>   11.8570    0.0000 </r>
       <r>   12.2579    0.0000 </r>
       <r>   12.7244    0.0000 </r>
       <r>   12.8509    0.0000 </r>
       <r>   13.1349    0.0000 </r>
       <r>   13.7109    0.0000 </r>
       <r>   14.9340    0.0000 </r>
       <r>   15.3789    0.0000 </r>
       <r>   15.7322    0.0000 </r>
       <r>   15.7757    0.0000 </r>
       <r>   16.3803    0.0000 </r>
      </set>
      <set comment="kpoint 8">
       <r>  -12.5704    1.0000 </r>
       <r>  -11.7665    1.0000 </r>
       <r>   -8.5758    1.0000 </r>
       <r>   -8.3748    1.0000 </r>
       <r>   -5.9459    1.0000 </r>
       <r>   -5.7699    1.0000 </r>
       <r>   -4.7290    1.0000 </r>
       <r>   -4.3845    1.0000 </r>
       <r>   -3.4941    1.0000 </r>
       <r>   -3.2302    1.0000 </r>
       <r>   -2.7060    1.0000 </r>
       <r>   -1.9073    1.0000 </r>
       <r>   -1.7331    1.0000 </r>
       <r>   -1.3222    1.0000 </r>
       <r>   -0.2281    1.0000 </r>
       <r>   -0.2222    1.0000 </r>
       <r>    0.0476    1.0000 </r>
       <r>    0.2005    1.0000 </r>
       <r>    0.4588    1.0000 </r>
       <r>    1.5296    1.0000 </r>
       <r>    1.6183    1.0000 </r>
       <r>    1.8830    0.4340 </r>
       <r>    5.8453    0.0000 </r>
       <r>    5.9247    0.0000 </r>
       <r>    6.0026    0.0000 </r>
       <r>    6.5503    0.0000 </r>
       <r>    6.8855    0.0000 </r>
       <r>    7.2706    0.0000 </r>
       <r>    8.4165    0.0000 </r>
       <r>    8.4786    0.0000 </r>
       <r>    9.0841    0.0000 </r>
       <r>    9.5977    0.0000 </r>
       <r>    9.8595    0.0000 </r>
       <r>   10.1105    0.0000 </r>
       <r>   10.3382    0.0000 </r>
       <r>   10.8071    0.0000 </r>
       <r>   11.5069    0.0000 </r>
       <r>   12.0916    0.0000 </r>
       <r>   12.2918    0.0000 </r>
       <r>   12.5414    0.0000 </r>
       <r>   12.9405    0.0000 </r>
       <r>   13.0089    0.0000 </r>
       <r>   14.2876    0.0000 </r>
       <r>   15.0661    0.0000 </r>
       <r>   15.1438    0.0000 </r>
       <r>   15.6263    0.0000 </r>
       <r>   15.6906    0.0000 </r>
       <r>   16.4005    0.0000 </r>
      </set>
      <set comment="kpoint 9">
       <r>  -12.4472    1.0000 </r>
       <r>  -11.9355    1.0000 </r>
       <r>   -8.5137    1.0000 </r>
       <r>   -8.3725    1.0000 </r>
       <r>   -6.0252    1.0000 </r>
       <r>   -6.0020    1.0000 </r>
       <r>   -4.4039    1.0000 </r>
       <r>   -4.2376    1.0000 </r>
       <r>   -3.6654    1.0000 </r>
       <r>   -2.8509    1.0000 </r>
       <r>   -2.3665    1.0000 </r>
       <r>   -2.2231    1.0000 </r>
       <r>   -1.6689    1.0000 </r>
       <r>   -1.4851    1.0000 </r>
       <r>   -0.4865    1.0000 </r>
       <r>   -0.3139    1.0000 </r>
       <r>    0.0793    1.0000 </r>
       <r>    0.1095    1.0000 </r>
       <r>    0.6179    1.0000 </r>
       <r>    1.3901    1.0000 </r>
       <r>    1.4730    1.0000 </r>
       <r>    1.5593    1.0000 </r>
       <r>    5.8632    0.0000 </r>
       <r>    5.9981    0.0000 </r>
       <r>    6.5077    0.0000 </r>
       <r>    6.7962    0.0000 </r>
       <r>    6.8693    0.0000 </r>
       <r>    7.3612    0.0000 </r>
       <r>    8.4057    0.0000 </r>
       <r>    8.5863    0.0000 </r>
       <r>    8.9245    0.0000 </r>
       <r>    9.3573    0.0000 </r>
       <r>   10.0573    0.0000 </r>
       <r>   10.0832    0.0000 </r>
       <r>   10.4272    0.0000 </r>
       <r>   11.2084    0.0000 </r>
       <r>   11.3494    0.0000 </r>
       <r>   11.8258    0.0000 </r>
       <r>   12.2748    0.0000 </r>
       <r>   12.5314    0.0000 </r>
       <r>   12.7072    0.0000 </r>
       <r>   13.4449    0.0000 </r>
       <r>   14.7479    0.0000 </r>
       <r>   14.7560    0.0000 </r>
       <r>   15.1350    0.0000 </r>
       <r>   15.2898    0.0000 </r>
       <r>   15.6323    0.0000 </r>
       <r>   16.3716    0.0000 </r>
      </set>
      <set comment="kpoint 10">
       <r>  -12.2929    1.0000 </r>
       <r>  -12.1174    1.0000 </r>
       <r>   -8.4473    1.0000 </r>
       <r>   -8.3959    1.0000 </r>
       <r>   -6.1149    1.0000 </r>
       <r>   -6.1102    1.0000 </r>
       <r>   -4.0588    1.0000 </r>
       <r>   -3.8959    1.0000 </r>
       <r>   -3.8550    1.0000 </r>
       <r>   -3.2914    1.0000 </r>
       <r>   -2.1121    1.0000 </r>
       <r>   -1.9187    1.0000 </r>
       <r>   -1.6008    1.0000 </r>
       <r>   -1.5974    1.0000 </r>
       <r>   -0.7073    1.0000 </r>
       <r>   -0.6060    1.0000 </r>
       <r>    0.1126    1.0000 </r>
       <r>    0.1437    1.0000 </r>
       <r>    0.8772    1.0000 </r>
       <r>    1.1914    1.0000 </r>
       <r>    1.3366    1.0000 </r>
       <r>    1.3607    1.0000 </r>
       <r>    5.9146    0.0000 </r>
       <r>    5.9806    0.0000 </r>
       <r>    6.7855    0.0000 </r>
       <r>    6.8360    0.0000 </r>
       <r>    7.1746    0.0000 </r>
       <r>    7.8863    0.0000 </r>
       <r>    7.9308    0.0000 </r>
       <r>    8.6125    0.0000 </r>
       <r>    8.6786    0.0000 </r>
       <r>    8.7912    0.0000 </r>
       <r>   10.3053    0.0000 </r>
       <r>   10.5539    0.0000 </r>
       <r>   10.7911    0.0000 </r>
       <r>   10.8940    0.0000 </r>
       <r>   11.5349    0.0000 </r>
       <r>   11.6417    0.0000 </r>
       <r>   11.9946    0.0000 </r>
       <r>   12.6356    0.0000 </r>
       <r>   13.0107    0.0000 </r>
       <r>   13.4688    0.0000 </r>
       <r>   14.5316    0.0000 </r>
       <r>   14.7164    0.0000 </r>
       <r>   14.8138    0.0000 </r>
       <r>   15.0314    0.0000 </r>
       <r>   16.1065    0.0000 </r>
       <r>   16.4011    0.0000 </r>
      </set>
      <set comment="kpoint 11">
       <r>  -12.6552    1.0000 </r>
       <r>  -11.5204    1.0000 </r>
       <r>   -8.6066    1.0000 </r>
       <r>   -8.3573    1.0000 </r>
       <r>   -5.9909    1.0000 </r>
       <r>   -5.1321    1.0000 </r>
       <r>   -5.0090    1.0000 </r>
       <r>   -4.6057    1.0000 </r>
       <r>   -4.1636    1.0000 </r>
       <r>   -3.9135    1.0000 </r>
       <r>   -3.4713    1.0000 </r>
       <r>   -1.2096    1.0000 </r>
       <r>   -1.0871    1.0000 </r>
       <r>   -0.6515    1.0000 </r>
       <r>   -0.5461    1.0000 </r>
       <r>   -0.1825    1.0000 </r>
       <r>    0.1848    1.0000 </r>
       <r>    0.2943    1.0000 </r>
       <r>    0.7162    1.0000 </r>
       <r>    1.3626    1.0000 </r>
       <r>    1.4260    1.0000 </r>
       <r>    2.2998    0.0000 </r>
       <r>    5.2787    0.0000 </r>
       <r>    5.4439    0.0000 </r>
       <r>    6.1124    0.0000 </r>
       <r>    6.1842    0.0000 </r>
       <r>    7.5240    0.0000 </r>
       <r>    7.6128    0.0000 </r>
       <r>    8.3053    0.0000 </r>
       <r>    8.7121    0.0000 </r>
       <r>    8.8684    0.0000 </r>
       <r>    9.2233    0.0000 </r>
       <r>    9.3556    0.0000 </r>
       <r>   10.8666    0.0000 </r>
       <r>   11.3029    0.0000 </r>
       <r>   11.5562    0.0000 </r>
       <r>   11.6877    0.0000 </r>
       <r>   12.0698    0.0000 </r>
       <r>   12.2545    0.0000 </r>
       <r>   12.7301    0.0000 </r>
       <r>   12.7433    0.0000 </r>
       <r>   12.9877    0.0000 </r>
       <r>   13.2097    0.0000 </r>
       <r>   14.6542    0.0000 </r>
       <r>   15.1410    0.0000 </r>
       <r>   15.3214    0.0000 </r>
       <r>   15.4129    0.0000 </r>
       <r>   15.9403    0.0000 </r>
      </set>
      <set comment="kpoint 12">
       <r>  -12.6117    1.0000 </r>
       <r>  -11.5937    1.0000 </r>
       <r>   -8.5850    1.0000 </r>
       <r>   -8.3469    1.0000 </r>
       <r>   -5.9175    1.0000 </r>
       <r>   -5.3956    1.0000 </r>
       <r>   -5.0339    1.0000 </r>
       <r>   -4.7340    1.0000 </r>
       <r>   -3.9796    1.0000 </r>
       <r>   -3.7138    1.0000 </r>
       <r>   -3.1328    1.0000 </r>
       <r>   -1.3941    1.0000 </r>
       <r>   -1.1833    1.0000 </r>
       <r>   -0.7589    1.0000 </r>
       <r>   -0.5081    1.0000 </r>
       <r>   -0.1013    1.0000 </r>
       <r>    0.1649    1.0000 </r>
       <r>    0.2385    1.0000 </r>
       <r>    0.6037    1.0000 </r>
       <r>    1.2835    1.0000 </r>
       <r>    1.3563    1.0000 </r>
       <r>    2.1641    0.0000 </r>
       <r>    5.3591    0.0000 </r>
       <r>    5.7894    0.0000 </r>
       <r>    6.1302    0.0000 </r>
       <r>    6.2271    0.0000 </r>
       <r>    7.4433    0.0000 </r>
       <r>    7.7694    0.0000 </r>
       <r>    8.0376    0.0000 </r>
       <r>    8.8033    0.0000 </r>
       <r>    9.2356    0.0000 </r>
       <r>    9.2716    0.0000 </r>
       <r>    9.6399    0.0000 </r>
       <r>   10.5021    0.0000 </r>
       <r>   10.7639    0.0000 </r>
       <r>   11.2604    0.0000 </r>
       <r>   11.7057    0.0000 </r>
       <r>   12.1824    0.0000 </r>
       <r>   12.4151    0.0000 </r>
       <r>   12.4858    0.0000 </r>
       <r>   13.1449    0.0000 </r>
       <r>   13.2576    0.0000 </r>
       <r>   13.4195    0.0000 </r>
       <r>   14.6649    0.0000 </r>
       <r>   14.8030    0.0000 </r>
       <r>   15.2606    0.0000 </r>
       <r>   15.4768    0.0000 </r>
       <r>   15.9680    0.0000 </r>
      </set>
      <set comment="kpoint 13">
       <r>  -12.5267    1.0000 </r>
       <r>  -11.7259    1.0000 </r>
       <r>   -8.5407    1.0000 </r>
       <r>   -8.3342    1.0000 </r>
       <r>   -5.8877    1.0000 </r>
       <r>   -5.7151    1.0000 </r>
       <r>   -4.9423    1.0000 </r>
       <r>   -4.6980    1.0000 </r>
       <r>   -4.1030    1.0000 </r>
       <r>   -3.1801    1.0000 </r>
       <r>   -2.6621    1.0000 </r>
       <r>   -1.8909    1.0000 </r>
       <r>   -1.1427    1.0000 </r>
       <r>   -0.8978    1.0000 </r>
       <r>   -0.4553    1.0000 </r>
       <r>   -0.0930    1.0000 </r>
       <r>    0.0080    1.0000 </r>
       <r>    0.2502    1.0000 </r>
       <r>    0.4887    1.0000 </r>
       <r>    1.1521    1.0000 </r>
       <r>    1.2381    1.0000 </r>
       <r>    1.9077    0.1934 </r>
       <r>    5.6801    0.0000 </r>
       <r>    6.0853    0.0000 </r>
       <r>    6.2651    0.0000 </r>
       <r>    6.3571    0.0000 </r>
       <r>    7.3412    0.0000 </r>
       <r>    7.8486    0.0000 </r>
       <r>    8.0033    0.0000 </r>
       <r>    8.9319    0.0000 </r>
       <r>    9.2303    0.0000 </r>
       <r>    9.7041    0.0000 </r>
       <r>    9.8377    0.0000 </r>
       <r>   10.1221    0.0000 </r>
       <r>   10.2393    0.0000 </r>
       <r>   11.0462    0.0000 </r>
       <r>   11.5723    0.0000 </r>
       <r>   12.0895    0.0000 </r>
       <r>   12.4932    0.0000 </r>
       <r>   12.7868    0.0000 </r>
       <r>   13.0268    0.0000 </r>
       <r>   13.4307    0.0000 </r>
       <r>   13.9418    0.0000 </r>
       <r>   14.5743    0.0000 </r>
       <r>   14.8525    0.0000 </r>
       <r>   15.2819    0.0000 </r>
       <r>   15.4953    0.0000 </r>
       <r>   16.1787    0.0000 </r>
      </set>
      <set comment="kpoint 14">
       <r>  -12.4040    1.0000 </r>
       <r>  -11.8943    1.0000 </r>
       <r>   -8.4782    1.0000 </r>
       <r>   -8.3336    1.0000 </r>
       <r>   -5.9647    1.0000 </r>
       <r>   -5.9444    1.0000 </r>
       <r>   -4.8066    1.0000 </r>
       <r>   -4.3772    1.0000 </r>
       <r>   -4.2673    1.0000 </r>
       <r>   -2.8124    1.0000 </r>
       <r>   -2.3256    1.0000 </r>
       <r>   -2.1820    1.0000 </r>
       <r>   -1.0862    1.0000 </r>
       <r>   -1.0347    1.0000 </r>
       <r>   -0.4611    1.0000 </r>
       <r>   -0.3787    1.0000 </r>
       <r>    0.0518    1.0000 </r>
       <r>    0.0552    1.0000 </r>
       <r>    0.6355    1.0000 </r>
       <r>    1.0226    1.0000 </r>
       <r>    1.1055    1.0000 </r>
       <r>    1.5730    1.0000 </r>
       <r>    6.0968    0.0000 </r>
       <r>    6.2147    0.0000 </r>
       <r>    6.3885    0.0000 </r>
       <r>    6.7916    0.0000 </r>
       <r>    7.2856    0.0000 </r>
       <r>    7.7700    0.0000 </r>
       <r>    8.0589    0.0000 </r>
       <r>    9.0315    0.0000 </r>
       <r>    9.0904    0.0000 </r>
       <r>    9.1619    0.0000 </r>
       <r>    9.8725    0.0000 </r>
       <r>   10.1713    0.0000 </r>
       <r>   10.6871    0.0000 </r>
       <r>   11.0627    0.0000 </r>
       <r>   11.3074    0.0000 </r>
       <r>   11.9355    0.0000 </r>
       <r>   12.3372    0.0000 </r>
       <r>   12.9704    0.0000 </r>
       <r>   13.0214    0.0000 </r>
       <r>   13.7741    0.0000 </r>
       <r>   14.3614    0.0000 </r>
       <r>   14.3780    0.0000 </r>
       <r>   15.0114    0.0000 </r>
       <r>   15.1051    0.0000 </r>
       <r>   15.5942    0.0000 </r>
       <r>   16.3564    0.0000 </r>
      </set>
      <set comment="kpoint 15">
       <r>  -12.2502    1.0000 </r>
       <r>  -12.0755    1.0000 </r>
       <r>   -8.4112    1.0000 </r>
       <r>   -8.3586    1.0000 </r>
       <r>   -6.0554    1.0000 </r>
       <r>   -6.0497    1.0000 </r>
       <r>   -4.6389    1.0000 </r>
       <r>   -4.4535    1.0000 </r>
       <r>   -3.8649    1.0000 </r>
       <r>   -3.2689    1.0000 </r>
       <r>   -2.0436    1.0000 </r>
       <r>   -1.8783    1.0000 </r>
       <r>   -1.1068    1.0000 </r>
       <r>   -1.0456    1.0000 </r>
       <r>   -0.6354    1.0000 </r>
       <r>   -0.6293    1.0000 </r>
       <r>    0.0023    1.0000 </r>
       <r>    0.0458    1.0000 </r>
       <r>    0.8929    1.0000 </r>
       <r>    0.9603    1.0000 </r>
       <r>    1.0010    1.0000 </r>
       <r>    1.2198    1.0000 </r>
       <r>    6.1885    0.0000 </r>
       <r>    6.3069    0.0000 </r>
       <r>    6.8669    0.0000 </r>
       <r>    7.2054    0.0000 </r>
       <r>    7.2637    0.0000 </r>
       <r>    7.6108    0.0000 </r>
       <r>    7.9169    0.0000 </r>
       <r>    8.4276    0.0000 </r>
       <r>    9.0873    0.0000 </r>
       <r>    9.1194    0.0000 </r>
       <r>    9.9965    0.0000 </r>
       <r>   10.4687    0.0000 </r>
       <r>   10.6925    0.0000 </r>
       <r>   10.9641    0.0000 </r>
       <r>   11.7150    0.0000 </r>
       <r>   11.7318    0.0000 </r>
       <r>   12.1150    0.0000 </r>
       <r>   12.8921    0.0000 </r>
       <r>   13.3999    0.0000 </r>
       <r>   13.7466    0.0000 </r>
       <r>   14.2099    0.0000 </r>
       <r>   14.3644    0.0000 </r>
       <r>   14.9757    0.0000 </r>
       <r>   15.1153    0.0000 </r>
       <r>   15.9710    0.0000 </r>
       <r>   16.2746    0.0000 </r>
      </set>
      <set comment="kpoint 16">
       <r>  -12.5978    1.0000 </r>
       <r>  -11.4690    1.0000 </r>
       <r>   -8.5627    1.0000 </r>
       <r>   -8.3022    1.0000 </r>
       <r>   -5.9267    1.0000 </r>
       <r>   -5.6129    1.0000 </r>
       <r>   -4.9389    1.0000 </r>
       <r>   -4.5496    1.0000 </r>
       <r>   -4.4335    1.0000 </r>
       <r>   -4.1243    1.0000 </r>
       <r>   -3.4094    1.0000 </r>
       <r>   -1.2236    1.0000 </r>
       <r>   -1.0729    1.0000 </r>
       <r>   -1.0056    1.0000 </r>
       <r>   -0.2002    1.0000 </r>
       <r>    0.2130    1.0000 </r>
       <r>    0.3376    1.0000 </r>
       <r>    0.5880    1.0000 </r>
       <r>    0.7798    1.0000 </r>
       <r>    0.9777    1.0000 </r>
       <r>    0.9919    1.0000 </r>
       <r>    2.3339    0.0000 </r>
       <r>    4.9357    0.0000 </r>
       <r>    5.1507    0.0000 </r>
       <r>    6.3443    0.0000 </r>
       <r>    6.5739    0.0000 </r>
       <r>    7.2548    0.0000 </r>
       <r>    7.9539    0.0000 </r>
       <r>    8.6854    0.0000 </r>
       <r>    9.0455    0.0000 </r>
       <r>    9.4467    0.0000 </r>
       <r>    9.5656    0.0000 </r>
       <r>    9.6368    0.0000 </r>
       <r>   10.7281    0.0000 </r>
       <r>   11.2528    0.0000 </r>
       <r>   11.9508    0.0000 </r>
       <r>   12.0035    0.0000 </r>
       <r>   12.2780    0.0000 </r>
       <r>   12.4078    0.0000 </r>
       <r>   12.4329    0.0000 </r>
       <r>   12.5488    0.0000 </r>
       <r>   12.9729    0.0000 </r>
       <r>   13.7723    0.0000 </r>
       <r>   13.8636    0.0000 </r>
       <r>   14.3977    0.0000 </r>
       <r>   15.0847    0.0000 </r>
       <r>   15.3857    0.0000 </r>
       <r>   15.8370    0.0000 </r>
      </set>
      <set comment="kpoint 17">
       <r>  -12.5545    1.0000 </r>
       <r>  -11.5420    1.0000 </r>
       <r>   -8.5407    1.0000 </r>
       <r>   -8.2927    1.0000 </r>
       <r>   -5.8488    1.0000 </r>
       <r>   -5.5781    1.0000 </r>
       <r>   -5.2757    1.0000 </r>
       <r>   -4.6842    1.0000 </r>
       <r>   -4.4989    1.0000 </r>
       <r>   -3.6601    1.0000 </r>
       <r>   -3.0712    1.0000 </r>
       <r>   -1.3879    1.0000 </r>
       <r>   -1.1664    1.0000 </r>
       <r>   -1.0204    1.0000 </r>
       <r>   -0.2015    1.0000 </r>
       <r>    0.1976    1.0000 </r>
       <r>    0.2701    1.0000 </r>
       <r>    0.5675    1.0000 </r>
       <r>    0.6584    1.0000 </r>
       <r>    0.9123    1.0000 </r>
       <r>    0.9504    1.0000 </r>
       <r>    2.1962    0.0000 </r>
       <r>    5.0318    0.0000 </r>
       <r>    5.4819    0.0000 </r>
       <r>    6.2904    0.0000 </r>
       <r>    6.7059    0.0000 </r>
       <r>    7.3903    0.0000 </r>
       <r>    7.9115    0.0000 </r>
       <r>    8.6200    0.0000 </r>
       <r>    9.1602    0.0000 </r>
       <r>    9.4117    0.0000 </r>
       <r>    9.7754    0.0000 </r>
       <r>    9.8800    0.0000 </r>
       <r>   10.3205    0.0000 </r>
       <r>   10.6914    0.0000 </r>
       <r>   11.6894    0.0000 </r>
       <r>   11.8707    0.0000 </r>
       <r>   12.2298    0.0000 </r>
       <r>   12.4616    0.0000 </r>
       <r>   12.6270    0.0000 </r>
       <r>   12.9435    0.0000 </r>
       <r>   13.3735    0.0000 </r>
       <r>   13.7715    0.0000 </r>
       <r>   13.9059    0.0000 </r>
       <r>   14.2355    0.0000 </r>
       <r>   15.0559    0.0000 </r>
       <r>   15.4147    0.0000 </r>
       <r>   15.7105    0.0000 </r>
      </set>
      <set comment="kpoint 18">
       <r>  -12.4699    1.0000 </r>
       <r>  -11.6735    1.0000 </r>
       <r>   -8.4959    1.0000 </r>
       <r>   -8.2818    1.0000 </r>
       <r>   -5.8115    1.0000 </r>
       <r>   -5.6629    1.0000 </r>
       <r>   -5.4234    1.0000 </r>
       <r>   -4.6582    1.0000 </r>
       <r>   -4.6210    1.0000 </r>
       <r>   -3.1210    1.0000 </r>
       <r>   -2.6018    1.0000 </r>
       <r>   -1.8720    1.0000 </r>
       <r>   -1.1058    1.0000 </r>
       <r>   -1.0393    1.0000 </r>
       <r>   -0.2197    1.0000 </r>
       <r>   -0.0565    1.0000 </r>
       <r>    0.3082    1.0000 </r>
       <r>    0.5000    1.0000 </r>
       <r>    0.5160    1.0000 </r>
       <r>    0.8237    1.0000 </r>
       <r>    0.8833    1.0000 </r>
       <r>    1.9362    0.0473 </r>
       <r>    5.3572    0.0000 </r>
       <r>    5.9561    0.0000 </r>
       <r>    6.2631    0.0000 </r>
       <r>    6.8191    0.0000 </r>
       <r>    7.5576    0.0000 </r>
       <r>    7.9323    0.0000 </r>
       <r>    8.5466    0.0000 </r>
       <r>    9.3485    0.0000 </r>
       <r>    9.3792    0.0000 </r>
       <r>    9.5780    0.0000 </r>
       <r>   10.0281    0.0000 </r>
       <r>   10.0951    0.0000 </r>
       <r>   10.5435    0.0000 </r>
       <r>   11.3708    0.0000 </r>
       <r>   11.3822    0.0000 </r>
       <r>   12.2234    0.0000 </r>
       <r>   12.7226    0.0000 </r>
       <r>   12.9406    0.0000 </r>
       <r>   13.1628    0.0000 </r>
       <r>   13.5033    0.0000 </r>
       <r>   13.7448    0.0000 </r>
       <r>   13.9981    0.0000 </r>
       <r>   14.3711    0.0000 </r>
       <r>   15.1474    0.0000 </r>
       <r>   15.3402    0.0000 </r>
       <r>   15.9723    0.0000 </r>
      </set>
      <set comment="kpoint 19">
       <r>  -12.3479    1.0000 </r>
       <r>  -11.8410    1.0000 </r>
       <r>   -8.4328    1.0000 </r>
       <r>   -8.2835    1.0000 </r>
       <r>   -5.8852    1.0000 </r>
       <r>   -5.8718    1.0000 </r>
       <r>   -5.3102    1.0000 </r>
       <r>   -4.7851    1.0000 </r>
       <r>   -4.3415    1.0000 </r>
       <r>   -2.7677    1.0000 </r>
       <r>   -2.2832    1.0000 </r>
       <r>   -2.1263    1.0000 </r>
       <r>   -1.0477    1.0000 </r>
       <r>   -1.0214    1.0000 </r>
       <r>   -0.3804    1.0000 </r>
       <r>   -0.3351    1.0000 </r>
       <r>    0.1454    1.0000 </r>
       <r>    0.3699    1.0000 </r>
       <r>    0.6555    1.0000 </r>
       <r>    0.7675    1.0000 </r>
       <r>    0.8169    1.0000 </r>
       <r>    1.5977    1.0000 </r>
       <r>    5.8841    0.0000 </r>
       <r>    6.2955    0.0000 </r>
       <r>    6.5342    0.0000 </r>
       <r>    6.7710    0.0000 </r>
       <r>    7.5574    0.0000 </r>
       <r>    7.9914    0.0000 </r>
       <r>    8.5009    0.0000 </r>
       <r>    8.9019    0.0000 </r>
       <r>    9.2573    0.0000 </r>
       <r>    9.5673    0.0000 </r>
       <r>    9.8876    0.0000 </r>
       <r>   10.3292    0.0000 </r>
       <r>   10.7792    0.0000 </r>
       <r>   11.0780    0.0000 </r>
       <r>   11.4245    0.0000 </r>
       <r>   12.1518    0.0000 </r>
       <r>   12.4028    0.0000 </r>
       <r>   13.1420    0.0000 </r>
       <r>   13.2638    0.0000 </r>
       <r>   13.6396    0.0000 </r>
       <r>   13.8813    0.0000 </r>
       <r>   14.1330    0.0000 </r>
       <r>   14.7392    0.0000 </r>
       <r>   14.9732    0.0000 </r>
       <r>   15.4139    0.0000 </r>
       <r>   16.3068    0.0000 </r>
      </set>
      <set comment="kpoint 20">
       <r>  -12.1950    1.0000 </r>
       <r>  -12.0213    1.0000 </r>
       <r>   -8.3648    1.0000 </r>
       <r>   -8.3107    1.0000 </r>
       <r>   -5.9780    1.0000 </r>
       <r>   -5.9704    1.0000 </r>
       <r>   -5.1491    1.0000 </r>
       <r>   -4.9677    1.0000 </r>
       <r>   -3.8328    1.0000 </r>
       <r>   -3.2387    1.0000 </r>
       <r>   -1.9868    1.0000 </r>
       <r>   -1.8322    1.0000 </r>
       <r>   -0.9852    1.0000 </r>
       <r>   -0.9257    1.0000 </r>
       <r>   -0.6777    1.0000 </r>
       <r>   -0.6346    1.0000 </r>
       <r>    0.1216    1.0000 </r>
       <r>    0.2223    1.0000 </r>
       <r>    0.7519    1.0000 </r>
       <r>    0.7679    1.0000 </r>
       <r>    0.9186    1.0000 </r>
       <r>    1.2414    1.0000 </r>
       <r>    6.4286    0.0000 </r>
       <r>    6.5443    0.0000 </r>
       <r>    6.6079    0.0000 </r>
       <r>    7.1237    0.0000 </r>
       <r>    7.1946    0.0000 </r>
       <r>    7.6804    0.0000 </r>
       <r>    8.4899    0.0000 </r>
       <r>    8.5540    0.0000 </r>
       <r>    9.4515    0.0000 </r>
       <r>    9.6233    0.0000 </r>
       <r>    9.8280    0.0000 </r>
       <r>   10.1260    0.0000 </r>
       <r>   10.8430    0.0000 </r>
       <r>   11.2185    0.0000 </r>
       <r>   11.8510    0.0000 </r>
       <r>   11.9272    0.0000 </r>
       <r>   12.2363    0.0000 </r>
       <r>   13.1275    0.0000 </r>
       <r>   13.4194    0.0000 </r>
       <r>   13.6039    0.0000 </r>
       <r>   13.8215    0.0000 </r>
       <r>   13.9289    0.0000 </r>
       <r>   15.0818    0.0000 </r>
       <r>   15.0991    0.0000 </r>
       <r>   15.6477    0.0000 </r>
       <r>   15.9495    0.0000 </r>
      </set>
      <set comment="kpoint 21">
       <r>  -12.5377    1.0000 </r>
[...]
       <r>   -2.3222    1.0000 </r>
       <r>   -2.1491    1.0000 </r>
       <r>   -1.9857    1.0000 </r>
       <r>   -1.4973    1.0000 </r>
       <r>   -0.7430    1.0000 </r>
       <r>   -0.2083    1.0000 </r>
       <r>    0.1609    1.0000 </r>
       <r>    0.3800    1.0000 </r>
       <r>    0.5055    1.0000 </r>
       <r>    1.5814    1.0000 </r>
       <r>    1.6084    1.0000 </r>
       <r>    1.8637    0.6483 </r>
       <r>    5.5028    0.0000 </r>
       <r>    6.1363    0.0000 </r>
       <r>    6.6567    0.0000 </r>
       <r>    7.2035    0.0000 </r>
       <r>    7.7665    0.0000 </r>
       <r>    8.2130    0.0000 </r>
       <r>    8.9781    0.0000 </r>
       <r>    9.1358    0.0000 </r>
       <r>    9.7060    0.0000 </r>
       <r>    9.9410    0.0000 </r>
       <r>   10.5708    0.0000 </r>
       <r>   11.0179    0.0000 </r>
       <r>   11.1869    0.0000 </r>
       <r>   11.4575    0.0000 </r>
       <r>   11.5496    0.0000 </r>
       <r>   11.9339    0.0000 </r>
       <r>   12.8195    0.0000 </r>
       <r>   13.1217    0.0000 </r>
       <r>   13.3496    0.0000 </r>
       <r>   13.7287    0.0000 </r>
       <r>   13.8501    0.0000 </r>
       <r>   14.1362    0.0000 </r>
       <r>   14.4553    0.0000 </r>
       <r>   14.9489    0.0000 </r>
       <r>   15.0734    0.0000 </r>
       <r>   15.3736    0.0000 </r>
      </set>
      <set comment="kpoint 175">
       <r>  -12.0198    1.0000 </r>
       <r>  -11.8806    1.0000 </r>
       <r>   -8.5491    1.0000 </r>
       <r>   -8.4368    1.0000 </r>
       <r>   -5.9292    1.0000 </r>
       <r>   -5.8232    1.0000 </r>
       <r>   -4.8960    1.0000 </r>
       <r>   -4.5729    1.0000 </r>
       <r>   -4.4173    1.0000 </r>
       <r>   -3.9797    1.0000 </r>
       <r>   -2.2013    1.0000 </r>
       <r>   -2.1399    1.0000 </r>
       <r>   -2.0645    1.0000 </r>
       <r>   -1.7801    1.0000 </r>
       <r>   -0.2255    1.0000 </r>
       <r>   -0.0126    1.0000 </r>
       <r>    0.3830    1.0000 </r>
       <r>    0.4708    1.0000 </r>
       <r>    0.5410    1.0000 </r>
       <r>    0.8676    1.0000 </r>
       <r>    1.6225    1.0000 </r>
       <r>    1.7221    1.0000 </r>
       <r>    5.8490    0.0000 </r>
       <r>    6.0342    0.0000 </r>
       <r>    6.8591    0.0000 </r>
       <r>    7.3917    0.0000 </r>
       <r>    7.4622    0.0000 </r>
       <r>    7.5612    0.0000 </r>
       <r>    9.3827    0.0000 </r>
       <r>    9.5658    0.0000 </r>
       <r>    9.7742    0.0000 </r>
       <r>    9.9517    0.0000 </r>
       <r>   10.4467    0.0000 </r>
       <r>   10.7954    0.0000 </r>
       <r>   11.2225    0.0000 </r>
       <r>   11.4921    0.0000 </r>
       <r>   11.4992    0.0000 </r>
       <r>   11.5958    0.0000 </r>
       <r>   13.0633    0.0000 </r>
       <r>   13.1688    0.0000 </r>
       <r>   13.6976    0.0000 </r>
       <r>   14.0336    0.0000 </r>
       <r>   14.1671    0.0000 </r>
       <r>   14.2685    0.0000 </r>
       <r>   14.5727    0.0000 </r>
       <r>   14.7185    0.0000 </r>
       <r>   14.8676    0.0000 </r>
       <r>   15.0241    0.0000 </r>
      </set>
     </set>
    </set>
   </array>
  </eigenvalues>
  <separator name="orbital magnetization" >
   <v name="MAGDIPOLOUT">      0.00000000      0.00000000      0.00000000</v>
  </separator>
  <dos>
   <i name="efermi">      1.87711873 </i>
   <total>
    <array>
     <dimension dim="1">gridpoints</dimension>
     <dimension dim="2">spin</dimension>
     <field>energy</field>
     <field>total</field>
     <field>integrated</field>
     <set>
      <set comment="spin 1">
       <r>   -14.1843     0.0000     0.0000 </r>
       <r>   -14.0772     0.0000     0.0000 </r>
       <r>   -13.9701     0.0000     0.0000 </r>
       <r>   -13.8629     0.0000     0.0000 </r>
       <r>   -13.7558     0.0000     0.0000 </r>
       <r>   -13.6487     0.0000     0.0000 </r>
       <r>   -13.5416     0.0000     0.0000 </r>
       <r>   -13.4344     0.0000     0.0000 </r>
       <r>   -13.3273     0.0000     0.0000 </r>
       <r>   -13.2202     0.0000     0.0000 </r>
       <r>   -13.1130     0.0000     0.0000 </r>
       <r>   -13.0059     0.0000     0.0000 </r>
       <r>   -12.8988     0.0000     0.0000 </r>
       <r>   -12.7917     0.0038     0.0004 </r>
       <r>   -12.6845     0.5090     0.0549 </r>
       <r>   -12.5774     2.3917     0.3112 </r>
       <r>   -12.4703     3.5669     0.6933 </r>
       <r>   -12.3631     4.3735     1.1618 </r>
       <r>   -12.2560     3.5390     1.5409 </r>
       <r>   -12.1489     2.7357     1.8340 </r>
       <r>   -12.0418     2.7523     2.1289 </r>
       <r>   -11.9346     2.5032     2.3970 </r>
       <r>   -11.8275     2.7713     2.6939 </r>
       <r>   -11.7204     3.4226     3.0606 </r>
       <r>   -11.6132     3.5358     3.4394 </r>
       <r>   -11.5061     3.1216     3.7738 </r>
       <r>   -11.3990     1.6763     3.9534 </r>
       <r>   -11.2918     0.4276     3.9992 </r>
       <r>   -11.1847     0.0076     4.0000 </r>
       <r>   -11.0776     0.0000     4.0000 </r>
       <r>   -10.9705     0.0000     4.0000 </r>
       <r>   -10.8633     0.0000     4.0000 </r>
       <r>   -10.7562     0.0000     4.0000 </r>
       <r>   -10.6491     0.0000     4.0000 </r>
       <r>   -10.5419     0.0000     4.0000 </r>
       <r>   -10.4348     0.0000     4.0000 </r>
       <r>   -10.3277     0.0000     4.0000 </r>
       <r>   -10.2206     0.0000     4.0000 </r>
       <r>   -10.1134     0.0000     4.0000 </r>
       <r>   -10.0063     0.0000     4.0000 </r>
       <r>    -9.8992     0.0000     4.0000 </r>
       <r>    -9.7920     0.0000     4.0000 </r>
       <r>    -9.6849     0.0000     4.0000 </r>
       <r>    -9.5778     0.0000     4.0000 </r>
       <r>    -9.4706     0.0000     4.0000 </r>
       <r>    -9.3635     0.0000     4.0000 </r>
       <r>    -9.2564     0.0000     4.0000 </r>
       <r>    -9.1493     0.0000     4.0000 </r>
       <r>    -9.0421     0.0000     4.0000 </r>
       <r>    -8.9350     0.0006     4.0001 </r>
       <r>    -8.8279     0.2778     4.0298 </r>
       <r>    -8.7207     2.0969     4.2545 </r>
       <r>    -8.6136     5.3454     4.8271 </r>
       <r>    -8.5065     6.9964     5.5766 </r>
       <r>    -8.3994     6.2932     6.2508 </r>
       <r>    -8.2922     5.3266     6.8215 </r>
       <r>    -8.1851     4.8389     7.3398 </r>
       <r>    -8.0780     3.8695     7.7544 </r>
       <r>    -7.9708     1.6642     7.9327 </r>
       <r>    -7.8637     0.5766     7.9944 </r>
       <r>    -7.7566     0.0519     8.0000 </r>
       <r>    -7.6495     0.0000     8.0000 </r>
       <r>    -7.5423     0.0000     8.0000 </r>
       <r>    -7.4352     0.0000     8.0000 </r>
       <r>    -7.3281     0.0000     8.0000 </r>
       <r>    -7.2209     0.0000     8.0000 </r>
       <r>    -7.1138     0.0000     8.0000 </r>
       <r>    -7.0067     0.0004     8.0000 </r>
       <r>    -6.8995     0.1120     8.0120 </r>
       <r>    -6.7924     0.2583     8.0397 </r>
       <r>    -6.6853     0.4256     8.0853 </r>
       <r>    -6.5782     0.7662     8.1674 </r>
       <r>    -6.4710     0.8491     8.2584 </r>
       <r>    -6.3639     1.4412     8.4127 </r>
       <r>    -6.2568     1.9548     8.6222 </r>
       <r>    -6.1496     3.0550     8.9494 </r>
       <r>    -6.0425     3.7885     9.3553 </r>
       <r>    -5.9354     4.1173     9.7964 </r>
       <r>    -5.8283     4.0477    10.2300 </r>
       <r>    -5.7211     3.8694    10.6445 </r>
       <r>    -5.6140     4.0738    11.0810 </r>
       <r>    -5.5069     4.2195    11.5330 </r>
       <r>    -5.3997     4.5520    12.0206 </r>
       <r>    -5.2926     4.6069    12.5142 </r>
       <r>    -5.1855     4.4931    12.9955 </r>
       <r>    -5.0783     3.8738    13.4105 </r>
       <r>    -4.9712     3.2258    13.7561 </r>
       <r>    -4.8641     2.9598    14.0732 </r>
       <r>    -4.7570     2.3274    14.3225 </r>
       <r>    -4.6498     2.8966    14.6328 </r>
       <r>    -4.5427     3.3704    14.9939 </r>
       <r>    -4.4356     3.4635    15.3649 </r>
       <r>    -4.3284     3.3420    15.7230 </r>
       <r>    -4.2213     2.9569    16.0397 </r>
       <r>    -4.1142     2.9088    16.3514 </r>
       <r>    -4.0071     2.9409    16.6664 </r>
       <r>    -3.8999     2.8676    16.9736 </r>
       <r>    -3.7928     3.1154    17.3074 </r>
       <r>    -3.6857     2.8823    17.6161 </r>
       <r>    -3.5785     2.7057    17.9060 </r>
       <r>    -3.4714     3.0695    18.2348 </r>
       <r>    -3.3643     2.6449    18.5182 </r>
       <r>    -3.2571     2.8518    18.8237 </r>
       <r>    -3.1500     2.7597    19.1193 </r>
       <r>    -3.0429     2.7306    19.4119 </r>
       <r>    -2.9358     3.0574    19.7394 </r>
       <r>    -2.8286     2.9783    20.0585 </r>
       <r>    -2.7215     2.4353    20.3194 </r>
       <r>    -2.6144     2.6505    20.6033 </r>
       <r>    -2.5072     3.0180    20.9266 </r>
       <r>    -2.4001     2.9912    21.2471 </r>
       <r>    -2.2930     3.1898    21.5888 </r>
       <r>    -2.1859     4.0053    22.0179 </r>
       <r>    -2.0787     3.6568    22.4096 </r>
       <r>    -1.9716     3.2550    22.7583 </r>
       <r>    -1.8645     5.0842    23.3030 </r>
       <r>    -1.7573     5.5607    23.8987 </r>
       <r>    -1.6502     5.6196    24.5007 </r>
       <r>    -1.5431     6.1803    25.1628 </r>
       <r>    -1.4360     6.1227    25.8187 </r>
       <r>    -1.3288     5.5834    26.4169 </r>
       <r>    -1.2217     4.6832    26.9186 </r>
       <r>    -1.1146     6.4977    27.6147 </r>
       <r>    -1.0074     4.0386    28.0474 </r>
       <r>    -0.9003     2.2749    28.2911 </r>
       <r>    -0.7932     2.7011    28.5804 </r>
       <r>    -0.6860     2.8805    28.8890 </r>
       <r>    -0.5789     4.4920    29.3702 </r>
       <r>    -0.4718     6.8501    30.1041 </r>
       <r>    -0.3647     5.6645    30.7109 </r>
       <r>    -0.2575     6.6847    31.4270 </r>
       <r>    -0.1504     6.3655    32.1090 </r>
       <r>    -0.0433     6.7432    32.8314 </r>
       <r>     0.0639     6.7828    33.5580 </r>
       <r>     0.1710     6.2794    34.2307 </r>
       <r>     0.2781     8.8156    35.1751 </r>
       <r>     0.3852     8.0214    36.0345 </r>
       <r>     0.4924     8.6912    36.9655 </r>
       <r>     0.5995     5.2909    37.5323 </r>
       <r>     0.7066     2.9595    37.8494 </r>
       <r>     0.8138     3.2729    38.2000 </r>
       <r>     0.9209     3.5886    38.5845 </r>
       <r>     1.0280     3.5691    38.9668 </r>
       <r>     1.1352     2.7956    39.2663 </r>
       <r>     1.2423     3.3818    39.6286 </r>
       <r>     1.3494     4.4913    40.1097 </r>
       <r>     1.4565     3.7918    40.5160 </r>
       <r>     1.5637     3.7155    40.9140 </r>
       <r>     1.6708     4.5816    41.4048 </r>
       <r>     1.7779     3.2689    41.7550 </r>
       <r>     1.8851     2.4779    42.0205 </r>
       <r>     1.9922     2.6670    42.3062 </r>
       <r>     2.0993     2.0930    42.5304 </r>
       <r>     2.2064     2.6514    42.8145 </r>
       <r>     2.3136     2.5837    43.0912 </r>
       <r>     2.4207     1.9497    43.3001 </r>
       <r>     2.5278     0.8672    43.3930 </r>
       <r>     2.6350     0.3785    43.4336 </r>
       <r>     2.7421     0.5735    43.4950 </r>
       <r>     2.8492     0.4201    43.5400 </r>
       <r>     2.9563     0.3055    43.5727 </r>
       <r>     3.0635     0.7512    43.6532 </r>
       <r>     3.1706     1.0174    43.7622 </r>
       <r>     3.2777     0.5469    43.8208 </r>
       <r>     3.3849     0.0140    43.8223 </r>
       <r>     3.4920     0.1279    43.8360 </r>
       <r>     3.5991     0.3948    43.8783 </r>
       <r>     3.7063     0.3328    43.9139 </r>
       <r>     3.8134     0.3701    43.9536 </r>
       <r>     3.9205     0.4053    43.9970 </r>
       <r>     4.0276     0.0279    44.0000 </r>
       <r>     4.1348     0.0000    44.0000 </r>
       <r>     4.2419     0.0269    44.0029 </r>
       <r>     4.3490     0.1723    44.0213 </r>
       <r>     4.4562     0.3977    44.0640 </r>
       <r>     4.5633     0.4637    44.1136 </r>
       <r>     4.6704     0.6291    44.1810 </r>
       <r>     4.7775     0.8839    44.2757 </r>
       <r>     4.8847     0.8396    44.3657 </r>
       <r>     4.9918     0.8592    44.4577 </r>
       <r>     5.0989     1.2704    44.5938 </r>
       <r>     5.2061     1.1605    44.7181 </r>
       <r>     5.3132     1.6208    44.8918 </r>
       <r>     5.4203     2.1763    45.1249 </r>
       <r>     5.5275     2.4912    45.3918 </r>
       <r>     5.6346     2.7916    45.6908 </r>
       <r>     5.7417     3.3458    46.0493 </r>
       <r>     5.8488     3.2316    46.3955 </r>
       <r>     5.9560     4.2918    46.8553 </r>
       <r>     6.0631     4.7755    47.3669 </r>
       <r>     6.1702     4.0561    47.8014 </r>
       <r>     6.2774     4.6175    48.2961 </r>
       <r>     6.3845     4.1909    48.7450 </r>
       <r>     6.4916     3.9995    49.1735 </r>
       <r>     6.5987     4.4947    49.6550 </r>
       <r>     6.7059     3.2351    50.0016 </r>
       <r>     6.8130     3.9866    50.4287 </r>
       <r>     6.9201     4.6110    50.9226 </r>
       <r>     7.0273     4.5626    51.4114 </r>
       <r>     7.1344     4.3405    51.8764 </r>
       <r>     7.2415     5.5929    52.4756 </r>
       <r>     7.3486     4.9451    53.0053 </r>
       <r>     7.4558     4.4620    53.4833 </r>
       <r>     7.5629     4.2040    53.9337 </r>
       <r>     7.6700     3.5747    54.3167 </r>
       <r>     7.7772     3.1186    54.6508 </r>
       <r>     7.8843     3.0166    54.9739 </r>
       <r>     7.9914     2.9746    55.2926 </r>
       <r>     8.0986     4.1658    55.7389 </r>
       <r>     8.2057     3.8994    56.1566 </r>
       <r>     8.3128     3.7061    56.5536 </r>
       <r>     8.4199     3.9968    56.9818 </r>
       <r>     8.5271     4.2268    57.4346 </r>
       <r>     8.6342     4.4692    57.9134 </r>
       <r>     8.7413     4.2411    58.3678 </r>
       <r>     8.8485     5.2907    58.9346 </r>
       <r>     8.9556     4.9017    59.4597 </r>
       <r>     9.0627     5.2903    60.0264 </r>
       <r>     9.1698     5.2336    60.5871 </r>
       <r>     9.2770     4.9843    61.1210 </r>
       <r>     9.3841     4.6821    61.6226 </r>
       <r>     9.4912     4.3799    62.0919 </r>
       <r>     9.5984     5.1009    62.6383 </r>
       <r>     9.7055     5.0303    63.1772 </r>
       <r>     9.8126     5.2955    63.7445 </r>
       <r>     9.9198     4.4850    64.2250 </r>
       <r>    10.0269     3.6505    64.6161 </r>
       <r>    10.1340     5.1821    65.1712 </r>
       <r>    10.2411     4.7175    65.6766 </r>
       <r>    10.3483     4.1307    66.1191 </r>
       <r>    10.4554     5.3919    66.6967 </r>
       <r>    10.5625     5.8175    67.3200 </r>
       <r>    10.6697     4.0710    67.7561 </r>
       <r>    10.7768     3.8933    68.1732 </r>
       <r>    10.8839     3.2490    68.5212 </r>
       <r>    10.9910     4.6737    69.0219 </r>
       <r>    11.0982     5.4624    69.6071 </r>
       <r>    11.2053     6.2198    70.2734 </r>
       <r>    11.3124     5.9985    70.9161 </r>
       <r>    11.4196     5.2574    71.4793 </r>
       <r>    11.5267     4.3347    71.9436 </r>
       <r>    11.6338     4.4748    72.4230 </r>
       <r>    11.7409     4.9474    72.9530 </r>
       <r>    11.8481     4.8114    73.4685 </r>
       <r>    11.9552     6.0247    74.1139 </r>
       <r>    12.0623     5.9748    74.7540 </r>
       <r>    12.1695     6.0137    75.3982 </r>
       <r>    12.2766     5.5967    75.9978 </r>
       <r>    12.3837     5.0017    76.5336 </r>
       <r>    12.4909     5.6995    77.1442 </r>
       <r>    12.5980     5.9818    77.7850 </r>
       <r>    12.7051     5.9985    78.4277 </r>
       <r>    12.8122     5.9069    79.0605 </r>
       <r>    12.9194     5.8713    79.6894 </r>
       <r>    13.0265     5.6042    80.2898 </r>
       <r>    13.1336     6.3488    80.9700 </r>
       <r>    13.2408     6.2793    81.6427 </r>
       <r>    13.3479     5.4081    82.2220 </r>
       <r>    13.4550     6.1294    82.8787 </r>
       <r>    13.5621     5.3697    83.4539 </r>
       <r>    13.6693     4.8182    83.9701 </r>
       <r>    13.7764     6.1474    84.6286 </r>
       <r>    13.8835     5.5220    85.2202 </r>
       <r>    13.9907     5.3521    85.7936 </r>
       <r>    14.0978     5.4766    86.3803 </r>
       <r>    14.2049     4.6822    86.8819 </r>
       <r>    14.3121     4.9238    87.4094 </r>
       <r>    14.4192     5.0014    87.9452 </r>
       <r>    14.5263     4.9554    88.4760 </r>
       <r>    14.6334     5.2738    89.0410 </r>
       <r>    14.7406     5.1767    89.5956 </r>
       <r>    14.8477     4.0944    90.0342 </r>
       <r>    14.9548     5.0616    90.5764 </r>
       <r>    15.0620     6.1740    91.2379 </r>
       <r>    15.1691     5.6580    91.8440 </r>
       <r>    15.2762     5.6893    92.4535 </r>
       <r>    15.3833     6.0193    93.0983 </r>
       <r>    15.4905     5.7452    93.7138 </r>
       <r>    15.5976     5.9691    94.3533 </r>
       <r>    15.7047     4.6028    94.8464 </r>
       <r>    15.8119     2.4822    95.1123 </r>
       <r>    15.9190     2.7071    95.4023 </r>
       <r>    16.0261     1.8553    95.6011 </r>
       <r>    16.1332     1.1413    95.7233 </r>
       <r>    16.2404     0.8869    95.8183 </r>
       <r>    16.3475     0.7012    95.8935 </r>
       <r>    16.4546     0.8142    95.9807 </r>
       <r>    16.5618     0.1787    95.9998 </r>
       <r>    16.6689     0.0017    96.0000 </r>
       <r>    16.7760     0.0000    96.0000 </r>
       <r>    16.8832     0.0000    96.0000 </r>
       <r>    16.9903     0.0000    96.0000 </r>
       <r>    17.0974     0.0000    96.0000 </r>
       <r>    17.2045     0.0000    96.0000 </r>
       <r>    17.3117     0.0000    96.0000 </r>
       <r>    17.4188     0.0000    96.0000 </r>
       <r>    17.5259     0.0000    96.0000 </r>
       <r>    17.6331     0.0000    96.0000 </r>
       <r>    17.7402     0.0000    96.0000 </r>
       <r>    17.8473     0.0000    96.0000 </r>
       <r>    17.9544     0.0000    96.0000 </r>
      </set>
     </set>
    </array>
   </total>
  </dos>
 </calculation>
 <structure name="finalpos" >
  <crystal>
   <varray name="basis" >
    <v>       5.69927880       0.00000000       0.00000000 </v>
    <v>       0.00000000       4.04951916       0.00000000 </v>
    <v>       0.00000000       0.00000000       6.20668168 </v>
   </varray>
   <i name="volume">    143.24610869 </i>
   <varray name="rec_basis" >
    <v>       0.17546080       0.00000000       0.00000000 </v>
    <v>       0.00000000       0.24694290       0.00000000 </v>
    <v>       0.00000000       0.00000000       0.16111669 </v>
   </varray>
  </crystal>
  <varray name="positions" >
   <v>       0.52123000       0.50000000       0.63796000 </v>
   <v>       0.47877000       0.50000000       0.36204000 </v>
   <v>       0.97877000       0.50000000       0.63796000 </v>
   <v>       0.02123000       0.50000000       0.36204000 </v>
   <v>       0.60090000       0.50000000       0.89991000 </v>
   <v>       0.39910000       0.50000000       0.10009000 </v>
   <v>       0.89910000       0.50000000       0.89991000 </v>
   <v>       0.10090000       0.50000000       0.10009000 </v>
   <v>       0.75000000       0.79171000       0.72973000 </v>
   <v>       0.25000000       0.20829000       0.27027000 </v>
   <v>       0.75000000       0.20829000       0.72973000 </v>
   <v>       0.25000000       0.79171000       0.27027000 </v>
   <v>       0.25000000       0.50000000       0.52367000 </v>
   <v>       0.75000000       0.50000000       0.47633000 </v>
  </varray>
 </structure>
</modeling>
