Automatically generated mesh
    1053
Reciprocal lattice
    0.02777777777778    0.00000000000000    0.00000000000000             2
    0.08333333333334    0.00000000000000    0.00000000000000             2
    0.13888888888889    0.00000000000000    0.00000000000000             2
    0.19444444444444    0.00000000000000    0.00000000000000             2
    0.25000000000000    0.00000000000000    0.00000000000000             2
    0.30555555555556    0.00000000000000    0.00000000000000             2
    0.36111111111111    0.00000000000000    0.00000000000000             2
    0.41666666666666    0.00000000000000    0.00000000000000             2
    0.47222222222222    0.00000000000000    0.00000000000000             2
    0.02777777777778    0.04000000000000    0.00000000000000             4
    0.08333333333334    0.04000000000000    0.00000000000000             4
    0.13888888888889    0.04000000000000    0.00000000000000             4
    0.19444444444444    0.04000000000000    0.00000000000000             4
    0.25000000000000    0.04000000000000    0.00000000000000             4
    0.30555555555556    0.04000000000000    0.00000000000000             4
    0.36111111111111    0.04000000000000    0.00000000000000             4
    0.41666666666666    0.04000000000000    0.00000000000000             4
    0.47222222222222    0.04000000000000    0.00000000000000             4
    0.02777777777778    0.08000000000000    0.00000000000000             4
    0.08333333333334    0.08000000000000    0.00000000000000             4
    0.13888888888889    0.08000000000000    0.00000000000000             4
    0.19444444444444    0.08000000000000    0.00000000000000             4
    0.25000000000000    0.08000000000000    0.00000000000000             4
    0.30555555555556    0.08000000000000    0.00000000000000             4
    0.36111111111111    0.08000000000000    0.00000000000000             4
    0.41666666666666    0.08000000000000    0.00000000000000             4
    0.47222222222222    0.08000000000000    0.00000000000000             4
    0.02777777777778    0.12000000000000    0.00000000000000             4
    0.08333333333334    0.12000000000000    0.00000000000000             4
    0.13888888888889    0.12000000000000    0.00000000000000             4
    0.19444444444444    0.12000000000000    0.00000000000000             4
    0.25000000000000    0.12000000000000    0.00000000000000             4
    0.30555555555556    0.12000000000000    0.00000000000000             4
    0.36111111111111    0.12000000000000    0.00000000000000             4
    0.41666666666666    0.12000000000000    0.00000000000000             4
    0.47222222222222    0.12000000000000    0.00000000000000             4
    0.02777777777778    0.16000000000000    0.00000000000000             4
    0.08333333333334    0.16000000000000    0.00000000000000             4
    0.13888888888889    0.16000000000000    0.00000000000000             4
    0.19444444444444    0.16000000000000    0.00000000000000             4
    0.25000000000000    0.16000000000000    0.00000000000000             4
    0.30555555555556    0.16000000000000    0.00000000000000             4
    0.36111111111111    0.16000000000000    0.00000000000000             4
    0.41666666666666    0.16000000000000    0.00000000000000             4
    0.47222222222222    0.16000000000000    0.00000000000000             4
    0.02777777777778    0.20000000000000    0.00000000000000             4
    0.08333333333334    0.20000000000000    0.00000000000000             4
    0.13888888888889    0.20000000000000    0.00000000000000             4
    0.19444444444444    0.20000000000000    0.00000000000000             4
    0.25000000000000    0.20000000000000    0.00000000000000             4
    0.30555555555556    0.20000000000000    0.00000000000000             4
    0.36111111111111    0.20000000000000    0.00000000000000             4
    0.41666666666666    0.20000000000000    0.00000000000000             4
    0.47222222222222    0.20000000000000    0.00000000000000             4
    0.02777777777778    0.24000000000000    0.00000000000000             4
    0.08333333333334    0.24000000000000    0.00000000000000             4
    0.13888888888889    0.24000000000000    0.00000000000000             4
    0.19444444444444    0.24000000000000    0.00000000000000             4
    0.25000000000000    0.24000000000000    0.00000000000000             4
    0.30555555555556    0.24000000000000    0.00000000000000             4
    0.36111111111111    0.24000000000000    0.00000000000000             4
    0.41666666666666    0.24000000000000    0.00000000000000             4
    0.47222222222222    0.24000000000000    0.00000000000000             4
    0.02777777777778    0.28000000000000    0.00000000000000             4
    0.08333333333334    0.28000000000000    0.00000000000000             4
    0.13888888888889    0.28000000000000    0.00000000000000             4
    0.19444444444444    0.28000000000000    0.00000000000000             4
    0.25000000000000    0.28000000000000    0.00000000000000             4
    0.30555555555556    0.28000000000000    0.00000000000000             4
    0.36111111111111    0.28000000000000    0.00000000000000             4
    0.41666666666666    0.28000000000000    0.00000000000000             4
    0.47222222222222    0.28000000000000    0.00000000000000             4
    0.02777777777778    0.32000000000000    0.00000000000000             4
    0.08333333333334    0.32000000000000    0.00000000000000             4
    0.13888888888889    0.32000000000000    0.00000000000000             4
    0.19444444444444    0.32000000000000    0.00000000000000             4
    0.25000000000000    0.32000000000000    0.00000000000000             4
    0.30555555555556    0.32000000000000    0.00000000000000             4
    0.36111111111111    0.32000000000000    0.00000000000000             4
    0.41666666666666    0.32000000000000    0.00000000000000             4
    0.47222222222222    0.32000000000000    0.00000000000000             4
    0.02777777777778    0.36000000000000    0.00000000000000             4
    0.08333333333334    0.36000000000000    0.00000000000000             4
    0.13888888888889    0.36000000000000    0.00000000000000             4
    0.19444444444444    0.36000000000000    0.00000000000000             4
    0.25000000000000    0.36000000000000    0.00000000000000             4
    0.30555555555556    0.36000000000000    0.00000000000000             4
    0.36111111111111    0.36000000000000    0.00000000000000             4
    0.41666666666666    0.36000000000000    0.00000000000000             4
    0.47222222222222    0.36000000000000    0.00000000000000             4
    0.02777777777778    0.40000000000000    0.00000000000000             4
    0.08333333333334    0.40000000000000    0.00000000000000             4
    0.13888888888889    0.40000000000000    0.00000000000000             4
    0.19444444444444    0.40000000000000    0.00000000000000             4
    0.25000000000000    0.40000000000000    0.00000000000000             4
    0.30555555555556    0.40000000000000    0.00000000000000             4
    0.36111111111111    0.40000000000000    0.00000000000000             4
    0.41666666666666    0.40000000000000    0.00000000000000             4
    0.47222222222222    0.40000000000000    0.00000000000000             4
    0.02777777777778    0.44000000000000    0.00000000000000             4
    0.08333333333334    0.44000000000000    0.00000000000000             4
    0.13888888888889    0.44000000000000    0.00000000000000             4
    0.19444444444444    0.44000000000000    0.00000000000000             4
    0.25000000000000    0.44000000000000    0.00000000000000             4
    0.30555555555556    0.44000000000000    0.00000000000000             4
    0.36111111111111    0.44000000000000    0.00000000000000             4
    0.41666666666666    0.44000000000000    0.00000000000000             4
    0.47222222222222    0.44000000000000    0.00000000000000             4
    0.02777777777778    0.48000000000000    0.00000000000000             4
    0.08333333333334    0.48000000000000    0.00000000000000             4
    0.13888888888889    0.48000000000000    0.00000000000000             4
    0.19444444444444    0.48000000000000    0.00000000000000             4
    0.25000000000000    0.48000000000000    0.00000000000000             4
    0.30555555555556    0.48000000000000    0.00000000000000             4
    0.36111111111111    0.48000000000000    0.00000000000000             4
    0.41666666666666    0.48000000000000    0.00000000000000             4
    0.47222222222222    0.48000000000000    0.00000000000000             4
    0.02777777777778    0.00000000000000    0.05882352941177             4
    0.08333333333334    0.00000000000000    0.05882352941177             4
    0.13888888888889    0.00000000000000    0.05882352941177             4
    0.19444444444444    0.00000000000000    0.05882352941177             4
    0.25000000000000    0.00000000000000    0.05882352941177             4
    0.30555555555556    0.00000000000000    0.05882352941177             4
    0.36111111111111    0.00000000000000    0.05882352941177             4
    0.41666666666666    0.00000000000000    0.05882352941177             4
    0.47222222222222    0.00000000000000    0.05882352941177             4
    0.02777777777778    0.04000000000000    0.05882352941177             8
    0.08333333333334    0.04000000000000    0.05882352941177             8
    0.13888888888889    0.04000000000000    0.05882352941177             8
    0.19444444444444    0.04000000000000    0.05882352941177             8
    0.25000000000000    0.04000000000000    0.05882352941177             8
    0.30555555555556    0.04000000000000    0.05882352941177             8
    0.36111111111111    0.04000000000000    0.05882352941177             8
    0.41666666666666    0.04000000000000    0.05882352941177             8
    0.47222222222222    0.04000000000000    0.05882352941177             8
    0.02777777777778    0.08000000000000    0.05882352941177             8
    0.08333333333334    0.08000000000000    0.05882352941177             8
    0.13888888888889    0.08000000000000    0.05882352941177             8
    0.19444444444444    0.08000000000000    0.05882352941177             8
    0.25000000000000    0.08000000000000    0.05882352941177             8
    0.30555555555556    0.08000000000000    0.05882352941177             8
    0.36111111111111    0.08000000000000    0.05882352941177             8
    0.41666666666666    0.08000000000000    0.05882352941177             8
    0.47222222222222    0.08000000000000    0.05882352941177             8
    0.02777777777778    0.12000000000000    0.05882352941177             8
    0.08333333333334    0.12000000000000    0.05882352941177             8
    0.13888888888889    0.12000000000000    0.05882352941177             8
    0.19444444444444    0.12000000000000    0.05882352941177             8
    0.25000000000000    0.12000000000000    0.05882352941177             8
    0.30555555555556    0.12000000000000    0.05882352941177             8
    0.36111111111111    0.12000000000000    0.05882352941177             8
    0.41666666666666    0.12000000000000    0.05882352941177             8
    0.47222222222222    0.12000000000000    0.05882352941177             8
    0.02777777777778    0.16000000000000    0.05882352941177             8
    0.08333333333334    0.16000000000000    0.05882352941177             8
    0.13888888888889    0.16000000000000    0.05882352941177             8
    0.19444444444444    0.16000000000000    0.05882352941177             8
    0.25000000000000    0.16000000000000    0.05882352941177             8
    0.30555555555556    0.16000000000000    0.05882352941177             8
    0.36111111111111    0.16000000000000    0.05882352941177             8
    0.41666666666666    0.16000000000000    0.05882352941177             8
    0.47222222222222    0.16000000000000    0.05882352941177             8
    0.02777777777778    0.20000000000000    0.05882352941177             8
    0.08333333333334    0.20000000000000    0.05882352941177             8
    0.13888888888889    0.20000000000000    0.05882352941177             8
    0.19444444444444    0.20000000000000    0.05882352941177             8
    0.25000000000000    0.20000000000000    0.05882352941177             8
    0.30555555555556    0.20000000000000    0.05882352941177             8
    0.36111111111111    0.20000000000000    0.05882352941177             8
    0.41666666666666    0.20000000000000    0.05882352941177             8
    0.47222222222222    0.20000000000000    0.05882352941177             8
    0.02777777777778    0.24000000000000    0.05882352941177             8
    0.08333333333334    0.24000000000000    0.05882352941177             8
    0.13888888888889    0.24000000000000    0.05882352941177             8
    0.19444444444444    0.24000000000000    0.05882352941177             8
    0.25000000000000    0.24000000000000    0.05882352941177             8
    0.30555555555556    0.24000000000000    0.05882352941177             8
    0.36111111111111    0.24000000000000    0.05882352941177             8
    0.41666666666666    0.24000000000000    0.05882352941177             8
    0.47222222222222    0.24000000000000    0.05882352941177             8
    0.02777777777778    0.28000000000000    0.05882352941177             8
    0.08333333333334    0.28000000000000    0.05882352941177             8
    0.13888888888889    0.28000000000000    0.05882352941177             8
    0.19444444444444    0.28000000000000    0.05882352941177             8
    0.25000000000000    0.28000000000000    0.05882352941177             8
    0.30555555555556    0.28000000000000    0.05882352941177             8
    0.36111111111111    0.28000000000000    0.05882352941177             8
    0.41666666666666    0.28000000000000    0.05882352941177             8
    0.47222222222222    0.28000000000000    0.05882352941177             8
    0.02777777777778    0.32000000000000    0.05882352941177             8
    0.08333333333334    0.32000000000000    0.05882352941177             8
    0.13888888888889    0.32000000000000    0.05882352941177             8
    0.19444444444444    0.32000000000000    0.05882352941177             8
    0.25000000000000    0.32000000000000    0.05882352941177             8
    0.30555555555556    0.32000000000000    0.05882352941177             8
    0.36111111111111    0.32000000000000    0.05882352941177             8
    0.41666666666666    0.32000000000000    0.05882352941177             8
    0.47222222222222    0.32000000000000    0.05882352941177             8
    0.02777777777778    0.36000000000000    0.05882352941177             8
    0.08333333333334    0.36000000000000    0.05882352941177             8
    0.13888888888889    0.36000000000000    0.05882352941177             8
    0.19444444444444    0.36000000000000    0.05882352941177             8
    0.25000000000000    0.36000000000000    0.05882352941177             8
    0.30555555555556    0.36000000000000    0.05882352941177             8
    0.36111111111111    0.36000000000000    0.05882352941177             8
    0.41666666666666    0.36000000000000    0.05882352941177             8
    0.47222222222222    0.36000000000000    0.05882352941177             8
    0.02777777777778    0.40000000000000    0.05882352941177             8
    0.08333333333334    0.40000000000000    0.05882352941177             8
    0.13888888888889    0.40000000000000    0.05882352941177             8
    0.19444444444444    0.40000000000000    0.05882352941177             8
    0.25000000000000    0.40000000000000    0.05882352941177             8
    0.30555555555556    0.40000000000000    0.05882352941177             8
    0.36111111111111    0.40000000000000    0.05882352941177             8
    0.41666666666666    0.40000000000000    0.05882352941177             8
    0.47222222222222    0.40000000000000    0.05882352941177             8
    0.02777777777778    0.44000000000000    0.05882352941177             8
    0.08333333333334    0.44000000000000    0.05882352941177             8
    0.13888888888889    0.44000000000000    0.05882352941177             8
    0.19444444444444    0.44000000000000    0.05882352941177             8
    0.25000000000000    0.44000000000000    0.05882352941177             8
    0.30555555555556    0.44000000000000    0.05882352941177             8
    0.36111111111111    0.44000000000000    0.05882352941177             8
    0.41666666666666    0.44000000000000    0.05882352941177             8
    0.47222222222222    0.44000000000000    0.05882352941177             8
    0.02777777777778    0.48000000000000    0.05882352941177             8
    0.08333333333334    0.48000000000000    0.05882352941177             8
    0.13888888888889    0.48000000000000    0.05882352941177             8
    0.19444444444444    0.48000000000000    0.05882352941177             8
    0.25000000000000    0.48000000000000    0.05882352941177             8
    0.30555555555556    0.48000000000000    0.05882352941177             8
    0.36111111111111    0.48000000000000    0.05882352941177             8
    0.41666666666666    0.48000000000000    0.05882352941177             8
    0.47222222222222    0.48000000000000    0.05882352941177             8
    0.02777777777778    0.00000000000000    0.11764705882353             4
    0.08333333333334    0.00000000000000    0.11764705882353             4
    0.13888888888889    0.00000000000000    0.11764705882353             4
    0.19444444444444    0.00000000000000    0.11764705882353             4
    0.25000000000000    0.00000000000000    0.11764705882353             4
    0.30555555555556    0.00000000000000    0.11764705882353             4
    0.36111111111111    0.00000000000000    0.11764705882353             4
    0.41666666666666    0.00000000000000    0.11764705882353             4
    0.47222222222222    0.00000000000000    0.11764705882353             4
    0.02777777777778    0.04000000000000    0.11764705882353             8
    0.08333333333334    0.04000000000000    0.11764705882353             8
    0.13888888888889    0.04000000000000    0.11764705882353             8
    0.19444444444444    0.04000000000000    0.11764705882353             8
    0.25000000000000    0.04000000000000    0.11764705882353             8
    0.30555555555556    0.04000000000000    0.11764705882353             8
    0.36111111111111    0.04000000000000    0.11764705882353             8
    0.41666666666666    0.04000000000000    0.11764705882353             8
    0.47222222222222    0.04000000000000    0.11764705882353             8
    0.02777777777778    0.08000000000000    0.11764705882353             8
    0.08333333333334    0.08000000000000    0.11764705882353             8
    0.13888888888889    0.08000000000000    0.11764705882353             8
    0.19444444444444    0.08000000000000    0.11764705882353             8
    0.25000000000000    0.08000000000000    0.11764705882353             8
    0.30555555555556    0.08000000000000    0.11764705882353             8
    0.36111111111111    0.08000000000000    0.11764705882353             8
    0.41666666666666    0.08000000000000    0.11764705882353             8
    0.47222222222222    0.08000000000000    0.11764705882353             8
    0.02777777777778    0.12000000000000    0.11764705882353             8
    0.08333333333334    0.12000000000000    0.11764705882353             8
    0.13888888888889    0.12000000000000    0.11764705882353             8
    0.19444444444444    0.12000000000000    0.11764705882353             8
    0.25000000000000    0.12000000000000    0.11764705882353             8
    0.30555555555556    0.12000000000000    0.11764705882353             8
    0.36111111111111    0.12000000000000    0.11764705882353             8
    0.41666666666666    0.12000000000000    0.11764705882353             8
    0.47222222222222    0.12000000000000    0.11764705882353             8
    0.02777777777778    0.16000000000000    0.11764705882353             8
    0.08333333333334    0.16000000000000    0.11764705882353             8
    0.13888888888889    0.16000000000000    0.11764705882353             8
    0.19444444444444    0.16000000000000    0.11764705882353             8
    0.25000000000000    0.16000000000000    0.11764705882353             8
    0.30555555555556    0.16000000000000    0.11764705882353             8
    0.36111111111111    0.16000000000000    0.11764705882353             8
    0.41666666666666    0.16000000000000    0.11764705882353             8
    0.47222222222222    0.16000000000000    0.11764705882353             8
    0.02777777777778    0.20000000000000    0.11764705882353             8
    0.08333333333334    0.20000000000000    0.11764705882353             8
    0.13888888888889    0.20000000000000    0.11764705882353             8
    0.19444444444444    0.20000000000000    0.11764705882353             8
    0.25000000000000    0.20000000000000    0.11764705882353             8
    0.30555555555556    0.20000000000000    0.11764705882353             8
    0.36111111111111    0.20000000000000    0.11764705882353             8
    0.41666666666666    0.20000000000000    0.11764705882353             8
    0.47222222222222    0.20000000000000    0.11764705882353             8
    0.02777777777778    0.24000000000000    0.11764705882353             8
    0.08333333333334    0.24000000000000    0.11764705882353             8
    0.13888888888889    0.24000000000000    0.11764705882353             8
    0.19444444444444    0.24000000000000    0.11764705882353             8
    0.25000000000000    0.24000000000000    0.11764705882353             8
    0.30555555555556    0.24000000000000    0.11764705882353             8
    0.36111111111111    0.24000000000000    0.11764705882353             8
    0.41666666666666    0.24000000000000    0.11764705882353             8
    0.47222222222222    0.24000000000000    0.11764705882353             8
    0.02777777777778    0.28000000000000    0.11764705882353             8
    0.08333333333334    0.28000000000000    0.11764705882353             8
    0.13888888888889    0.28000000000000    0.11764705882353             8
    0.19444444444444    0.28000000000000    0.11764705882353             8
    0.25000000000000    0.28000000000000    0.11764705882353             8
    0.30555555555556    0.28000000000000    0.11764705882353             8
    0.36111111111111    0.28000000000000    0.11764705882353             8
    0.41666666666666    0.28000000000000    0.11764705882353             8
    0.47222222222222    0.28000000000000    0.11764705882353             8
    0.02777777777778    0.32000000000000    0.11764705882353             8
    0.08333333333334    0.32000000000000    0.11764705882353             8
    0.13888888888889    0.32000000000000    0.11764705882353             8
    0.19444444444444    0.32000000000000    0.11764705882353             8
    0.25000000000000    0.32000000000000    0.11764705882353             8
    0.30555555555556    0.32000000000000    0.11764705882353             8
    0.36111111111111    0.32000000000000    0.11764705882353             8
    0.41666666666666    0.32000000000000    0.11764705882353             8
    0.47222222222222    0.32000000000000    0.11764705882353             8
    0.02777777777778    0.36000000000000    0.11764705882353             8
    0.08333333333334    0.36000000000000    0.11764705882353             8
    0.13888888888889    0.36000000000000    0.11764705882353             8
    0.19444444444444    0.36000000000000    0.11764705882353             8
    0.25000000000000    0.36000000000000    0.11764705882353             8
    0.30555555555556    0.36000000000000    0.11764705882353             8
    0.36111111111111    0.36000000000000    0.11764705882353             8
    0.41666666666666    0.36000000000000    0.11764705882353             8
    0.47222222222222    0.36000000000000    0.11764705882353             8
    0.02777777777778    0.40000000000000    0.11764705882353             8
    0.08333333333334    0.40000000000000    0.11764705882353             8
    0.13888888888889    0.40000000000000    0.11764705882353             8
    0.19444444444444    0.40000000000000    0.11764705882353             8
    0.25000000000000    0.40000000000000    0.11764705882353             8
    0.30555555555556    0.40000000000000    0.11764705882353             8
    0.36111111111111    0.40000000000000    0.11764705882353             8
    0.41666666666666    0.40000000000000    0.11764705882353             8
    0.47222222222222    0.40000000000000    0.11764705882353             8
    0.02777777777778    0.44000000000000    0.11764705882353             8
    0.08333333333334    0.44000000000000    0.11764705882353             8
    0.13888888888889    0.44000000000000    0.11764705882353             8
    0.19444444444444    0.44000000000000    0.11764705882353             8
    0.25000000000000    0.44000000000000    0.11764705882353             8
    0.30555555555556    0.44000000000000    0.11764705882353             8
    0.36111111111111    0.44000000000000    0.11764705882353             8
    0.41666666666666    0.44000000000000    0.11764705882353             8
    0.47222222222222    0.44000000000000    0.11764705882353             8
    0.02777777777778    0.48000000000000    0.11764705882353             8
    0.08333333333334    0.48000000000000    0.11764705882353             8
    0.13888888888889    0.48000000000000    0.11764705882353             8
    0.19444444444444    0.48000000000000    0.11764705882353             8
    0.25000000000000    0.48000000000000    0.11764705882353             8
    0.30555555555556    0.48000000000000    0.11764705882353             8
    0.36111111111111    0.48000000000000    0.11764705882353             8
    0.41666666666666    0.48000000000000    0.11764705882353             8
    0.47222222222222    0.48000000000000    0.11764705882353             8
    0.02777777777778    0.00000000000000    0.17647058823530             4
    0.08333333333334    0.00000000000000    0.17647058823530             4
    0.13888888888889    0.00000000000000    0.17647058823530             4
    0.19444444444444    0.00000000000000    0.17647058823530             4
    0.25000000000000    0.00000000000000    0.17647058823530             4
    0.30555555555556    0.00000000000000    0.17647058823530             4
    0.36111111111111    0.00000000000000    0.17647058823530             4
    0.41666666666666    0.00000000000000    0.17647058823530             4
    0.47222222222222    0.00000000000000    0.17647058823530             4
    0.02777777777778    0.04000000000000    0.17647058823530             8
    0.08333333333334    0.04000000000000    0.17647058823530             8
    0.13888888888889    0.04000000000000    0.17647058823530             8
    0.19444444444444    0.04000000000000    0.17647058823530             8
    0.25000000000000    0.04000000000000    0.17647058823530             8
    0.30555555555556    0.04000000000000    0.17647058823530             8
    0.36111111111111    0.04000000000000    0.17647058823530             8
    0.41666666666666    0.04000000000000    0.17647058823530             8
    0.47222222222222    0.04000000000000    0.17647058823530             8
    0.02777777777778    0.08000000000000    0.17647058823530             8
    0.08333333333334    0.08000000000000    0.17647058823530             8
    0.13888888888889    0.08000000000000    0.17647058823530             8
    0.19444444444444    0.08000000000000    0.17647058823530             8
    0.25000000000000    0.08000000000000    0.17647058823530             8
    0.30555555555556    0.08000000000000    0.17647058823530             8
    0.36111111111111    0.08000000000000    0.17647058823530             8
    0.41666666666666    0.08000000000000    0.17647058823530             8
    0.47222222222222    0.08000000000000    0.17647058823530             8
    0.02777777777778    0.12000000000000    0.17647058823530             8
    0.08333333333334    0.12000000000000    0.17647058823530             8
    0.13888888888889    0.12000000000000    0.17647058823530             8
    0.19444444444444    0.12000000000000    0.17647058823530             8
    0.25000000000000    0.12000000000000    0.17647058823530             8
    0.30555555555556    0.12000000000000    0.17647058823530             8
    0.36111111111111    0.12000000000000    0.17647058823530             8
    0.41666666666666    0.12000000000000    0.17647058823530             8
    0.47222222222222    0.12000000000000    0.17647058823530             8
    0.02777777777778    0.16000000000000    0.17647058823530             8
    0.08333333333334    0.16000000000000    0.17647058823530             8
    0.13888888888889    0.16000000000000    0.17647058823530             8
    0.19444444444444    0.16000000000000    0.17647058823530             8
    0.25000000000000    0.16000000000000    0.17647058823530             8
    0.30555555555556    0.16000000000000    0.17647058823530             8
    0.36111111111111    0.16000000000000    0.17647058823530             8
    0.41666666666666    0.16000000000000    0.17647058823530             8
    0.47222222222222    0.16000000000000    0.17647058823530             8
    0.02777777777778    0.20000000000000    0.17647058823530             8
    0.08333333333334    0.20000000000000    0.17647058823530             8
    0.13888888888889    0.20000000000000    0.17647058823530             8