 running   24 mpi-ranks, with    1 threads/rank, on    1 nodes
 distrk:  each k-point on   24 cores,    1 groups
 distr:  one band on    1 cores,   24 groups
 vasp.6.4.3 19Mar24 (build May 31 2024 16:31:43) complex                        
  
 POSCAR found type information on POSCAR B 
 POSCAR found :  1 types and       1 ions
 Reading from existing POTCAR
 scaLAPACK will be used
 Reading from existing POTCAR
 LDA part: xc-table for (Slater+PW92), standard interpolation
 POSCAR, INCAR and KPOINTS ok, starting setup
 FFT: planning ... GRIDC
 FFT: planning ... GRID_SOFT
 FFT: planning ... GRID
 WAVECAR not read
 entering main loop
       N       E                     dE             d eps       ncg     rms          rms(c)
DAV:   1     0.858165674759E+01    0.85817E+01   -0.36151E+02  8400   0.462E+01
DAV:   2     0.162010218498E+00   -0.84196E+01   -0.83689E+01 15888   0.611E+00
DAV:   3    -0.535977854580E-01   -0.21561E+00   -0.19216E+00  8856   0.172E+00
DAV:   4    -0.582025655268E-01   -0.46048E-02   -0.42197E-02  9648   0.211E-01
DAV:   5    -0.582535051833E-01   -0.50940E-04   -0.50904E-04 13200   0.252E-02    0.291E-03
DAV:   6    -0.582554635550E-01   -0.19584E-05   -0.30089E-06 11760   0.264E-03    0.156E-03
DAV:   7    -0.582567511554E-01   -0.12876E-05   -0.30382E-07 11304   0.240E-03    0.182E-04
DAV:   8    -0.582567823353E-01   -0.31180E-07   -0.23484E-09 13632   0.144E-04
   1 F= -.58256782E-01 E0= -.31756112E-01  d E =-.530013E-01
