 vasp.6.4.3 19Mar24 (build May 31 2024 16:31:43) complex                        
  
 executed on             LinuxIFC date 2024.10.30  19:25:41
 running   24 mpi-ranks, with    1 threads/rank, on    1 nodes
 distrk:  each k-point on   24 cores,    1 groups
 distr:  one band on NCORE=   1 cores,   24 groups


--------------------------------------------------------------------------------------------------------


 INCAR:
   SYSTEM = Kpoints
   ISTART = 0
   ICHARG = 2
   PREC = Accurate
   ENCUT = 320
   LCHARG = .FALSE.
   LWAVE = .FALSE.
   ALGO = Normal
   NELM = 100
   EDIFF = 1E-6
   EDIFFG = -1E-3
   SIGMA = 0.05
   ISMEAR = 0
   ISPIN = 1
   NSW = 0
   IBRION = -1
   POTIM = .5
   ISIF = 2
   GGA = PE

 POTCAR:    PAW_PBE B 06Sep2000                   
 POTCAR:    PAW_PBE B 06Sep2000                   
   SHA256 =  a32ced30f5ae56fd4d10b4325ff17eb3e4e38ee0f4288bc219fb012fddfa6e97 B/POTCAR              
   COPYR  = (c) Copyright 06Sep2000 Georg Kresse                                                    
   COPYR  = This file is part of the software VASP. Any use, copying, and all other rights are regul
   COPYR  = If you do not have a valid VASP license, you may not use, copy or distribute this file. 
   VRHFIN =B: s2p1                                                                                  
   LEXCH  = PE                                                                                      
   EATOM  =    71.1703 eV,    5.2309 Ry                                                             
                                                                                                    
   TITEL  = PAW_PBE B 06Sep2000                                                                     
   LULTRA =        F    use ultrasoft PP ?                                                          
   IUNSCR =        1    unscreen: 0-lin 1-nonlin 2-no                                               
   RPACOR =    1.200    partial core radius                                                         
   POMASS =   10.811; ZVAL   =    3.000    mass and valenz                                          
   RCORE  =    1.700    outmost cutoff radius                                                       
   RWIGS  =    1.710; RWIGS  =    0.905    wigner-seitz radius (au A)                               
   ENMAX  =  318.614; ENMIN  =  238.960 eV                                                          
   ICORE  =        2    local potential                                                             
   LCOR   =        T    correct aug charges                                                         
   LPAW   =        T    paw PP                                                                      
   EAUG   =  535.514                                                                                
   DEXC   =    0.000                                                                                
   RMAX   =    1.732    core radius for proj-oper                                                   
   RAUG   =    1.300    factor for augmentation sphere                                              
   RDEP   =    1.757    radius for radial grids                                                     
   RDEPT  =    1.436    core radius for aug-charge                                                  
                                                                                                    
   Atomic configuration                                                                             
    4 entries                                                                                       
     n  l   j            E        occ.                                                              
     1  0  0.50      -180.5896   2.0000                                                             
     2  0  0.50        -9.4431   2.0000                                                             
     2  1  0.50        -3.6068   1.0000                                                             
     3  2  1.50        -4.0817   0.0000                                                             
   Description                                                                                      
     l       E           TYP  RCUT    TYP  RCUT                                                     
     0     -9.4430752     23  1.500                                                                 
     0      0.8675899     23  1.500                                                                 
     1     -3.6067955     23  1.700                                                                 
     1      6.1086146     23  1.700                                                                 
     2     -4.0817478      7  1.700                                                                 
  local pseudopotential read in
  partial core-charges read in
  partial kinetic energy density read in
  atomic valenz-charges read in
  non local Contribution for L=           0  read in
    real space projection operators read in
  non local Contribution for L=           0  read in
    real space projection operators read in
  non local Contribution for L=           1  read in
    real space projection operators read in
  non local Contribution for L=           1  read in
    real space projection operators read in
    PAW grid and wavefunctions read in
 
   number of l-projection  operators is LMAX  =           4
   number of lm-projection operators is LMMAX =           8
 
  PAW_PBE B 06Sep2000                   :
 energy of atom  1       EATOM=  -71.1703
 kinetic energy error for atom=    0.0069 (will be added to EATOM!!)
 
 
 POSCAR: o-B14
  positions in direct lattice
  No initial velocities read in


 exchange-correlation table for PE
   RHO(1)=    0.500       N(1)  =     2000
   RHO(2)=  100.500       N(2)  =     4000
 


--------------------------------------------------------------------------------------------------------


 ion  position               nearest neighbor table
   1  0.521  0.500  0.638-  14 1.64   5 1.69  13 1.70   2 1.73   9 1.85  11 1.85
   2  0.479  0.500  0.362-  13 1.64   6 1.69  14 1.70   1 1.73  10 1.85  12 1.85
   3  0.979  0.500  0.638-  14 1.64   7 1.69  13 1.70   4 1.73   9 1.85  11 1.85
   4  0.021  0.500  0.362-  13 1.64   8 1.69  14 1.70   3 1.73  10 1.85  12 1.85
   5  0.601  0.500  0.900-   1 1.69   6 1.69   7 1.70   9 1.80  11 1.80
   6  0.399  0.500  0.100-   2 1.69   5 1.69   8 1.70  10 1.80  12 1.80
   7  0.899  0.500  0.900-   3 1.69   8 1.69   5 1.70   9 1.80  11 1.80
   8  0.101  0.500  0.100-   4 1.69   7 1.69   6 1.70  10 1.80  12 1.80
   9  0.750  0.792  0.730-  11 1.69   7 1.80   5 1.80   3 1.85   1 1.85  14 1.97
  10  0.250  0.208  0.270-  12 1.69   8 1.80   6 1.80   4 1.85   2 1.85  13 1.97
  11  0.750  0.208  0.730-   9 1.69   7 1.80   5 1.80   3 1.85   1 1.85  14 1.97
  12  0.250  0.792  0.270-  10 1.69   8 1.80   6 1.80   4 1.85   2 1.85  13 1.97
  13  0.250  0.500  0.524-   2 1.64   4 1.64   3 1.70   1 1.70  10 1.97  12 1.97
  14  0.750  0.500  0.476-   1 1.64   3 1.64   2 1.70   4 1.70   9 1.97  11 1.97
 
  LATTYP: Found a simple orthorhombic cell.
 ALAT       =     4.0479000000
 B/A-ratio  =     1.4073964278
 C/A-ratio  =     1.5326959658
  
  Lattice vectors:
  
 A1 = (   0.0000000000,  -4.0479000000,   0.0000000000)
 A2 = (   5.6970000000,   0.0000000000,   0.0000000000)
 A3 = (   0.0000000000,   0.0000000000,   6.2042000000)


Analysis of symmetry for initial positions (statically):
=====================================================================
 Subroutine PRICEL returns:
 Original cell was already a primitive cell.
 

 Routine SETGRP: Setting up the symmetry group for a 
 simple orthorhombic supercell.


 Subroutine GETGRP returns: Found  8 space group operations
 (whereof  4 operations were pure point group operations)
 out of a pool of  8 trial point group operations.


The static configuration has the point symmetry C_2h.
 The point group associated with its full space group is D_2h.


Analysis of symmetry for dynamics (positions and initial velocities):
=====================================================================
 Subroutine PRICEL returns:
 Original cell was already a primitive cell.
 

 Routine SETGRP: Setting up the symmetry group for a 
 simple orthorhombic supercell.


 Subroutine GETGRP returns: Found  8 space group operations
 (whereof  4 operations were pure point group operations)
 out of a pool of  8 trial point group operations.


The dynamic configuration has the point symmetry C_2h.
 The point group associated with its full space group is D_2h.


 Subroutine INISYM returns: Found  8 space group operations
 (whereof  4 operations are pure point group operations),
 and found     1 'primitive' translations


----------------------------------------------------------------------------------------

                                     Primitive cell                                     

  volume of cell :     143.0744

  direct lattice vectors                    reciprocal lattice vectors
     5.697000000  0.000000000  0.000000000     0.175530981  0.000000000  0.000000000
     0.000000000  4.047900000  0.000000000     0.000000000  0.247041676  0.000000000
     0.000000000  0.000000000  6.204200000     0.000000000  0.000000000  0.161181135

  length of vectors
     5.697000000  4.047900000  6.204200000     0.175530981  0.247041676  0.161181135

  position of ions in fractional coordinates (direct lattice)
     0.521230000  0.500000000  0.637960000
     0.478770000  0.500000000  0.362040000
     0.978770000  0.500000000  0.637960000
     0.021230000  0.500000000  0.362040000
     0.600900000  0.500000000  0.899910000
     0.399100000  0.500000000  0.100090000
     0.899100000  0.500000000  0.899910000
     0.100900000  0.500000000  0.100090000
     0.750000000  0.791710000  0.729730000
     0.250000000  0.208290000  0.270270000
     0.750000000  0.208290000  0.729730000
     0.250000000  0.791710000  0.270270000
     0.250000000  0.500000000  0.523670000
     0.750000000  0.500000000  0.476330000

  ion indices of the primitive-cell ions
   primitive index   ion index
                 1           1
                 2           2
                 3           3
                 4           4
                 5           5
                 6           6
                 7           7
                 8           8
                 9           9
                10          10
                11          11
                12          12
                13          13
                14          14

----------------------------------------------------------------------------------------

 
 
 KPOINTS: k-points                                

Automatic generation of k-mesh.
 Grid dimensions read from file:
 generate k-points for:   10   14    9

 Generating k-lattice:

  Cartesian coordinates                     Fractional coordinates (reciprocal lattice)
     0.017553098  0.000000000  0.000000000     0.100000000  0.000000000  0.000000000
     0.000000000  0.017645834  0.000000000     0.000000000  0.071428571  0.000000000
     0.000000000  0.000000000  0.017909015     0.000000000  0.000000000  0.111111111

  Length of vectors
     0.017553098  0.017645834  0.017909015

  Shift w.r.t. Gamma in fractional coordinates (k-lattice)
     0.500000000  0.500000000  0.000000000

 
 Subroutine IBZKPT returns following result:
 ===========================================
 
 Found    175 irreducible k-points:
 
 Following reciprocal coordinates:
            Coordinates               Weight
  0.050000  0.035714  0.000000      4.000000
  0.150000  0.035714  0.000000      4.000000
  0.250000  0.035714  0.000000      4.000000
  0.350000  0.035714  0.000000      4.000000
  0.450000  0.035714  0.000000      4.000000
  0.050000  0.107143  0.000000      4.000000
  0.150000  0.107143  0.000000      4.000000
  0.250000  0.107143  0.000000      4.000000
  0.350000  0.107143  0.000000      4.000000
  0.450000  0.107143  0.000000      4.000000
  0.050000  0.178571  0.000000      4.000000
  0.150000  0.178571  0.000000      4.000000
  0.250000  0.178571  0.000000      4.000000
  0.350000  0.178571  0.000000      4.000000
  0.450000  0.178571  0.000000      4.000000
  0.050000  0.250000  0.000000      4.000000
  0.150000  0.250000  0.000000      4.000000
  0.250000  0.250000  0.000000      4.000000
  0.350000  0.250000  0.000000      4.000000
  0.450000  0.250000  0.000000      4.000000
  0.050000  0.321429  0.000000      4.000000
  0.150000  0.321429  0.000000      4.000000
  0.250000  0.321429  0.000000      4.000000
  0.350000  0.321429  0.000000      4.000000
  0.450000  0.321429  0.000000      4.000000
  0.050000  0.392857  0.000000      4.000000
  0.150000  0.392857  0.000000      4.000000
  0.250000  0.392857  0.000000      4.000000
  0.350000  0.392857  0.000000      4.000000
  0.450000  0.392857  0.000000      4.000000
  0.050000  0.464286  0.000000      4.000000
  0.150000  0.464286  0.000000      4.000000
  0.250000  0.464286  0.000000      4.000000
  0.350000  0.464286  0.000000      4.000000
  0.450000  0.464286  0.000000      4.000000
  0.050000  0.035714  0.111111      8.000000
  0.150000  0.035714  0.111111      8.000000
  0.250000  0.035714  0.111111      8.000000
  0.350000  0.035714  0.111111      8.000000
  0.450000  0.035714  0.111111      8.000000
  0.050000  0.107143  0.111111      8.000000
  0.150000  0.107143  0.111111      8.000000
  0.250000  0.107143  0.111111      8.000000
  0.350000  0.107143  0.111111      8.000000
  0.450000  0.107143  0.111111      8.000000
  0.050000  0.178571  0.111111      8.000000
  0.150000  0.178571  0.111111      8.000000
  0.250000  0.178571  0.111111      8.000000
  0.350000  0.178571  0.111111      8.000000
  0.450000  0.178571  0.111111      8.000000
  0.050000  0.250000  0.111111      8.000000
  0.150000  0.250000  0.111111      8.000000
  0.250000  0.250000  0.111111      8.000000
  0.350000  0.250000  0.111111      8.000000
  0.450000  0.250000  0.111111      8.000000
  0.050000  0.321429  0.111111      8.000000
  0.150000  0.321429  0.111111      8.000000
  0.250000  0.321429  0.111111      8.000000
  0.350000  0.321429  0.111111      8.000000
  0.450000  0.321429  0.111111      8.000000
  0.050000  0.392857  0.111111      8.000000
  0.150000  0.392857  0.111111      8.000000
  0.250000  0.392857  0.111111      8.000000
  0.350000  0.392857  0.111111      8.000000
  0.450000  0.392857  0.111111      8.000000
  0.050000  0.464286  0.111111      8.000000
  0.150000  0.464286  0.111111      8.000000
  0.250000  0.464286  0.111111      8.000000
  0.350000  0.464286  0.111111      8.000000
  0.450000  0.464286  0.111111      8.000000
  0.050000  0.035714  0.222222      8.000000
  0.150000  0.035714  0.222222      8.000000
  0.250000  0.035714  0.222222      8.000000
  0.350000  0.035714  0.222222      8.000000
  0.450000  0.035714  0.222222      8.000000
  0.050000  0.107143  0.222222      8.000000
  0.150000  0.107143  0.222222      8.000000
  0.250000  0.107143  0.222222      8.000000
  0.350000  0.107143  0.222222      8.000000
  0.450000  0.107143  0.222222      8.000000
  0.050000  0.178571  0.222222      8.000000
  0.150000  0.178571  0.222222      8.000000
  0.250000  0.178571  0.222222      8.000000
  0.350000  0.178571  0.222222      8.000000
  0.450000  0.178571  0.222222      8.000000
  0.050000  0.250000  0.222222      8.000000
  0.150000  0.250000  0.222222      8.000000
  0.250000  0.250000  0.222222      8.000000
  0.350000  0.250000  0.222222      8.000000
  0.450000  0.250000  0.222222      8.000000
  0.050000  0.321429  0.222222      8.000000
  0.150000  0.321429  0.222222      8.000000
  0.250000  0.321429  0.222222      8.000000
  0.350000  0.321429  0.222222      8.000000
  0.450000  0.321429  0.222222      8.000000
  0.050000  0.392857  0.222222      8.000000
  0.150000  0.392857  0.222222      8.000000
  0.250000  0.392857  0.222222      8.000000
  0.350000  0.392857  0.222222      8.000000
  0.450000  0.392857  0.222222      8.000000
  0.050000  0.464286  0.222222      8.000000
  0.150000  0.464286  0.222222      8.000000
  0.250000  0.464286  0.222222      8.000000
  0.350000  0.464286  0.222222      8.000000
  0.450000  0.464286  0.222222      8.000000
  0.050000  0.035714  0.333333      8.000000
  0.150000  0.035714  0.333333      8.000000
  0.250000  0.035714  0.333333      8.000000
  0.350000  0.035714  0.333333      8.000000
  0.450000  0.035714  0.333333      8.000000
  0.050000  0.107143  0.333333      8.000000
  0.150000  0.107143  0.333333      8.000000
  0.250000  0.107143  0.333333      8.000000
  0.350000  0.107143  0.333333      8.000000
  0.450000  0.107143  0.333333      8.000000
  0.050000  0.178571  0.333333      8.000000
  0.150000  0.178571  0.333333      8.000000
  0.250000  0.178571  0.333333      8.000000
  0.350000  0.178571  0.333333      8.000000
  0.450000  0.178571  0.333333      8.000000
  0.050000  0.250000  0.333333      8.000000
  0.150000  0.250000  0.333333      8.000000
  0.250000  0.250000  0.333333      8.000000
  0.350000  0.250000  0.333333      8.000000
  0.450000  0.250000  0.333333      8.000000
  0.050000  0.321429  0.333333      8.000000
  0.150000  0.321429  0.333333      8.000000
  0.250000  0.321429  0.333333      8.000000
  0.350000  0.321429  0.333333      8.000000
  0.450000  0.321429  0.333333      8.000000
  0.050000  0.392857  0.333333      8.000000
  0.150000  0.392857  0.333333      8.000000
  0.250000  0.392857  0.333333      8.000000
  0.350000  0.392857  0.333333      8.000000
  0.450000  0.392857  0.333333      8.000000
  0.050000  0.464286  0.333333      8.000000
  0.150000  0.464286  0.333333      8.000000
  0.250000  0.464286  0.333333      8.000000
  0.350000  0.464286  0.333333      8.000000
  0.450000  0.464286  0.333333      8.000000
  0.050000  0.035714  0.444444      8.000000
  0.150000  0.035714  0.444444      8.000000
  0.250000  0.035714  0.444444      8.000000
  0.350000  0.035714  0.444444      8.000000
  0.450000  0.035714  0.444444      8.000000
  0.050000  0.107143  0.444444      8.000000
  0.150000  0.107143  0.444444      8.000000
  0.250000  0.107143  0.444444      8.000000
  0.350000  0.107143  0.444444      8.000000
  0.450000  0.107143  0.444444      8.000000
  0.050000  0.178571  0.444444      8.000000
  0.150000  0.178571  0.444444      8.000000
  0.250000  0.178571  0.444444      8.000000
  0.350000  0.178571  0.444444      8.000000
  0.450000  0.178571  0.444444      8.000000
  0.050000  0.250000  0.444444      8.000000
  0.150000  0.250000  0.444444      8.000000
  0.250000  0.250000  0.444444      8.000000
  0.350000  0.250000  0.444444      8.000000
  0.450000  0.250000  0.444444      8.000000
  0.050000  0.321429  0.444444      8.000000
  0.150000  0.321429  0.444444      8.000000
  0.250000  0.321429  0.444444      8.000000
  0.350000  0.321429  0.444444      8.000000
  0.450000  0.321429  0.444444      8.000000
  0.050000  0.392857  0.444444      8.000000
  0.150000  0.392857  0.444444      8.000000
  0.250000  0.392857  0.444444      8.000000
  0.350000  0.392857  0.444444      8.000000
  0.450000  0.392857  0.444444      8.000000
  0.050000  0.464286  0.444444      8.000000
  0.150000  0.464286  0.444444      8.000000
  0.250000  0.464286  0.444444      8.000000
  0.350000  0.464286  0.444444      8.000000
  0.450000  0.464286  0.444444      8.000000
 
 Following cartesian coordinates:
            Coordinates               Weight
  0.008777  0.008823  0.000000      4.000000
  0.026330  0.008823  0.000000      4.000000
  0.043883  0.008823  0.000000      4.000000
  0.061436  0.008823  0.000000      4.000000
  0.078989  0.008823  0.000000      4.000000
  0.008777  0.026469  0.000000      4.000000
  0.026330  0.026469  0.000000      4.000000
  0.043883  0.026469  0.000000      4.000000
  0.061436  0.026469  0.000000      4.000000
  0.078989  0.026469  0.000000      4.000000
  0.008777  0.044115  0.000000      4.000000
  0.026330  0.044115  0.000000      4.000000
  0.043883  0.044115  0.000000      4.000000
  0.061436  0.044115  0.000000      4.000000
  0.078989  0.044115  0.000000      4.000000
  0.008777  0.061760  0.000000      4.000000
  0.026330  0.061760  0.000000      4.000000
  0.043883  0.061760  0.000000      4.000000
  0.061436  0.061760  0.000000      4.000000
  0.078989  0.061760  0.000000      4.000000
  0.008777  0.079406  0.000000      4.000000
  0.026330  0.079406  0.000000      4.000000
  0.043883  0.079406  0.000000      4.000000
  0.061436  0.079406  0.000000      4.000000
  0.078989  0.079406  0.000000      4.000000
  0.008777  0.097052  0.000000      4.000000
  0.026330  0.097052  0.000000      4.000000
  0.043883  0.097052  0.000000      4.000000
  0.061436  0.097052  0.000000      4.000000
  0.078989  0.097052  0.000000      4.000000
  0.008777  0.114698  0.000000      4.000000
  0.026330  0.114698  0.000000      4.000000
  0.043883  0.114698  0.000000      4.000000
  0.061436  0.114698  0.000000      4.000000
  0.078989  0.114698  0.000000      4.000000
  0.008777  0.008823  0.017909      8.000000
  0.026330  0.008823  0.017909      8.000000
  0.043883  0.008823  0.017909      8.000000
  0.061436  0.008823  0.017909      8.000000
  0.078989  0.008823  0.017909      8.000000
  0.008777  0.026469  0.017909      8.000000
  0.026330  0.026469  0.017909      8.000000
  0.043883  0.026469  0.017909      8.000000
  0.061436  0.026469  0.017909      8.000000
  0.078989  0.026469  0.017909      8.000000
  0.008777  0.044115  0.017909      8.000000
  0.026330  0.044115  0.017909      8.000000
  0.043883  0.044115  0.017909      8.000000
  0.061436  0.044115  0.017909      8.000000
  0.078989  0.044115  0.017909      8.000000
  0.008777  0.061760  0.017909      8.000000
  0.026330  0.061760  0.017909      8.000000
  0.043883  0.061760  0.017909      8.000000
  0.061436  0.061760  0.017909      8.000000
  0.078989  0.061760  0.017909      8.000000
  0.008777  0.079406  0.017909      8.000000
  0.026330  0.079406  0.017909      8.000000
  0.043883  0.079406  0.017909      8.000000
  0.061436  0.079406  0.017909      8.000000
  0.078989  0.079406  0.017909      8.000000
  0.008777  0.097052  0.017909      8.000000
  0.026330  0.097052  0.017909      8.000000
  0.043883  0.097052  0.017909      8.000000
  0.061436  0.097052  0.017909      8.000000
  0.078989  0.097052  0.017909      8.000000
  0.008777  0.114698  0.017909      8.000000
  0.026330  0.114698  0.017909      8.000000
  0.043883  0.114698  0.017909      8.000000
  0.061436  0.114698  0.017909      8.000000
  0.078989  0.114698  0.017909      8.000000
  0.008777  0.008823  0.035818      8.000000
  0.026330  0.008823  0.035818      8.000000
  0.043883  0.008823  0.035818      8.000000
  0.061436  0.008823  0.035818      8.000000
  0.078989  0.008823  0.035818      8.000000
  0.008777  0.026469  0.035818      8.000000
  0.026330  0.026469  0.035818      8.000000
  0.043883  0.026469  0.035818      8.000000
  0.061436  0.026469  0.035818      8.000000
  0.078989  0.026469  0.035818      8.000000
  0.008777  0.044115  0.035818      8.000000
  0.026330  0.044115  0.035818      8.000000
  0.043883  0.044115  0.035818      8.000000
  0.061436  0.044115  0.035818      8.000000
  0.078989  0.044115  0.035818      8.000000
  0.008777  0.061760  0.035818      8.000000
  0.026330  0.061760  0.035818      8.000000
  0.043883  0.061760  0.035818      8.000000
  0.061436  0.061760  0.035818      8.000000
  0.078989  0.061760  0.035818      8.000000
  0.008777  0.079406  0.035818      8.000000
  0.026330  0.079406  0.035818      8.000000
  0.043883  0.079406  0.035818      8.000000
  0.061436  0.079406  0.035818      8.000000
  0.078989  0.079406  0.035818      8.000000
  0.008777  0.097052  0.035818      8.000000
  0.026330  0.097052  0.035818      8.000000
  0.043883  0.097052  0.035818      8.000000
  0.061436  0.097052  0.035818      8.000000
  0.078989  0.097052  0.035818      8.000000
  0.008777  0.114698  0.035818      8.000000
  0.026330  0.114698  0.035818      8.000000
  0.043883  0.114698  0.035818      8.000000
  0.061436  0.114698  0.035818      8.000000
  0.078989  0.114698  0.035818      8.000000
  0.008777  0.008823  0.053727      8.000000
  0.026330  0.008823  0.053727      8.000000
  0.043883  0.008823  0.053727      8.000000
  0.061436  0.008823  0.053727      8.000000
  0.078989  0.008823  0.053727      8.000000
  0.008777  0.026469  0.053727      8.000000
  0.026330  0.026469  0.053727      8.000000
  0.043883  0.026469  0.053727      8.000000
  0.061436  0.026469  0.053727      8.000000
  0.078989  0.026469  0.053727      8.000000
  0.008777  0.044115  0.053727      8.000000
  0.026330  0.044115  0.053727      8.000000
  0.043883  0.044115  0.053727      8.000000
  0.061436  0.044115  0.053727      8.000000
  0.078989  0.044115  0.053727      8.000000
  0.008777  0.061760  0.053727      8.000000
  0.026330  0.061760  0.053727      8.000000
  0.043883  0.061760  0.053727      8.000000
  0.061436  0.061760  0.053727      8.000000
  0.078989  0.061760  0.053727      8.000000
  0.008777  0.079406  0.053727      8.000000
  0.026330  0.079406  0.053727      8.000000
  0.043883  0.079406  0.053727      8.000000
  0.061436  0.079406  0.053727      8.000000
  0.078989  0.079406  0.053727      8.000000
  0.008777  0.097052  0.053727      8.000000
  0.026330  0.097052  0.053727      8.000000
  0.043883  0.097052  0.053727      8.000000
  0.061436  0.097052  0.053727      8.000000
  0.078989  0.097052  0.053727      8.000000
  0.008777  0.114698  0.053727      8.000000
  0.026330  0.114698  0.053727      8.000000
  0.043883  0.114698  0.053727      8.000000
  0.061436  0.114698  0.053727      8.000000
  0.078989  0.114698  0.053727      8.000000
  0.008777  0.008823  0.071636      8.000000
  0.026330  0.008823  0.071636      8.000000
  0.043883  0.008823  0.071636      8.000000
  0.061436  0.008823  0.071636      8.000000
  0.078989  0.008823  0.071636      8.000000
  0.008777  0.026469  0.071636      8.000000
  0.026330  0.026469  0.071636      8.000000
  0.043883  0.026469  0.071636      8.000000
  0.061436  0.026469  0.071636      8.000000
  0.078989  0.026469  0.071636      8.000000
  0.008777  0.044115  0.071636      8.000000
  0.026330  0.044115  0.071636      8.000000
  0.043883  0.044115  0.071636      8.000000
  0.061436  0.044115  0.071636      8.000000
  0.078989  0.044115  0.071636      8.000000
  0.008777  0.061760  0.071636      8.000000
  0.026330  0.061760  0.071636      8.000000
  0.043883  0.061760  0.071636      8.000000
  0.061436  0.061760  0.071636      8.000000
  0.078989  0.061760  0.071636      8.000000
  0.008777  0.079406  0.071636      8.000000
  0.026330  0.079406  0.071636      8.000000
  0.043883  0.079406  0.071636      8.000000
  0.061436  0.079406  0.071636      8.000000
  0.078989  0.079406  0.071636      8.000000
  0.008777  0.097052  0.071636      8.000000
  0.026330  0.097052  0.071636      8.000000
  0.043883  0.097052  0.071636      8.000000
  0.061436  0.097052  0.071636      8.000000
  0.078989  0.097052  0.071636      8.000000
  0.008777  0.114698  0.071636      8.000000
  0.026330  0.114698  0.071636      8.000000
  0.043883  0.114698  0.071636      8.000000
  0.061436  0.114698  0.071636      8.000000
  0.078989  0.114698  0.071636      8.000000
 


--------------------------------------------------------------------------------------------------------




 Dimension of arrays:
   k-points           NKPTS =    175   k-points in BZ     NKDIM =    175   number of bands    NBANDS=     48
   number of dos      NEDOS =    301   number of ions     NIONS =     14
   non local maximal  LDIM  =      4   non local SUM 2l+1 LMDIM =      8
   total plane-waves  NPLWV =  31104
   max r-space proj   IRMAX =      1   max aug-charges    IRDMAX=   3589
   dimension x,y,z NGX =    36 NGY =   24 NGZ =   36
   dimension x,y,z NGXF=    72 NGYF=   48 NGZF=   72
   support grid    NGXF=    72 NGYF=   48 NGZF=   72
   ions per type =              14
   NGX,Y,Z   is equivalent  to a cutoff of  10.51,  9.86,  9.65 a.u.
   NGXF,Y,Z  is equivalent  to a cutoff of  21.01, 19.71, 19.29 a.u.

 SYSTEM =  Kpoints                                 
 POSCAR =  o-B14

 Startparameter for this run:
   NWRITE =      2    write-flag & timer
   PREC   = accura    normal or accurate (medium, high low for compatibility)
   ISTART =      0    job   : 0-new  1-cont  2-samecut
   ICHARG =      2    charge: 1-file 2-atom 10-const
   ISPIN  =      1    spin polarized calculation?
   LNONCOLLINEAR =      F non collinear calculations
   LSORBIT =      F    spin-orbit coupling
   INIWAV =      1    electr: 0-lowe 1-rand  2-diag
   LASPH  =      F    aspherical Exc in radial PAW
 Electronic Relaxation 1
   ENCUT  =  320.0 eV  23.52 Ry    4.85 a.u.   8.31  5.90  9.05*2*pi/ulx,y,z
   ENINI  =  320.0     initial cutoff
   ENAUG  =  535.5 eV  augmentation charge cutoff
   NELM   =    100;   NELMIN=  2; NELMDL= -5     # of ELM steps 
   EDIFF  = 0.1E-05   stopping-criterion for ELM
   LREAL  =      F    real-space projection
   NLSPLINE    = F    spline interpolate recip. space projectors
   LCOMPAT=      F    compatible to vasp.4.4
   GGA_COMPAT  = T    GGA compatible to vasp.4.4-vasp.4.6
   LMAXPAW     = -100 max onsite density
   LMAXMIX     =    2 max onsite mixed and CHGCAR
   VOSKOWN=      0    Vosko Wilk Nusair interpolation
   ROPT   =    0.00000
 Ionic relaxation
   EDIFFG = -.1E-02   stopping-criterion for IOM
   NSW    =      0    number of steps for IOM
   NBLOCK =      1;   KBLOCK =      1    inner block; outer block 
   IBRION =     -1    ionic relax: 0-MD 1-quasi-New 2-CG
   NFREE  =      0    steps in history (QN), initial steepest desc. (CG)
   ISIF   =      2    stress and relaxation
   IWAVPR =     10    prediction:  0-non 1-charg 2-wave 3-comb
   ISYM   =      2    0-nonsym 1-usesym 2-fastsym
   LCORR  =      T    Harris-Foulkes like correction to forces

   POTIM  = 0.5000    time-step for ionic-motion
   TEIN   =    0.0    initial temperature
   TEBEG  =    0.0;   TEEND  =   0.0 temperature during run
   SMASS  =  -3.00    Nose mass-parameter (am)
   estimated Nose-frequenzy (Omega)   =  0.10E-29 period in steps = 0.13E+47 mass=  -0.742E-27a.u.
   SCALEE = 1.0000    scale energy and forces
   NPACO  =    256;   APACO  = 10.0  distance and # of slots for P.C.
   PSTRESS=    0.0 pullay stress

  Mass of Ions in am
   POMASS =  10.81
  Ionic Valenz
   ZVAL   =   3.00
  Atomic Wigner-Seitz radii
   RWIGS  =  -1.00
  virtual crystal weights 
   VCA    =   1.00
   NELECT =      42.0000    total number of electrons
   NUPDOWN=      -1.0000    fix difference up-down

 DOS related values:
   EMIN   =  10.00;   EMAX   =-10.00  energy-range for DOS
   EFERMI =   0.00;   METHOD = LEGACY      
   ISMEAR =     0;   SIGMA  =   0.05  broadening in eV -4-tet -1-fermi 0-gaus

 Electronic relaxation 2 (details)
   IALGO  =     38    algorithm
   LDIAG  =      T    sub-space diagonalisation (order eigenvalues)
   LSUBROT=      F    optimize rotation matrix (better conditioning)
   TURBO    =      0    0=normal 1=particle mesh
   IRESTART =      0    0=no restart 2=restart with 2 vectors
   NREBOOT  =      0    no. of reboots
   NMIN     =      0    reboot dimension
   EREF     =   0.00    reference energy to select bands
   IMIX   =      4    mixing-type and parameters
     AMIX     =   0.40;   BMIX     =  1.00
     AMIX_MAG =   1.60;   BMIX_MAG =  1.00
     AMIN     =   0.10
     WC   =   100.;   INIMIX=   1;  MIXPRE=   1;  MAXMIX= -45

 Intra band minimization:
   WEIMIN = 0.0000     energy-eigenvalue tresh-hold
   EBREAK =  0.52E-08  absolut break condition
   DEPER  =   0.30     relativ break condition  

   TIME   =   0.40     timestep for ELM

  volume/ion in A,a.u.               =      10.22        68.97
  Fermi-wavevector in a.u.,A,eV,Ry     =   1.088021  2.056062 16.106441  1.183790
  Thomas-Fermi vector in A             =   2.224193
 
 Write flags
   LWAVE        =      F    write WAVECAR
   LDOWNSAMPLE  =      F    k-point downsampling of WAVECAR
   LCHARG       =      F    write CHGCAR
   LVTOT        =      F    write LOCPOT, total local potential
   LVHAR        =      F    write LOCPOT, Hartree potential only
   WRT_POTENTIAL= false  ! write potential to hdf5 file
   LELF         =      F    write electronic localiz. function (ELF)
   LORBIT       =      0    0 simple, 1 ext, 2 COOP (PROOUT), +10 PAW based schemes


 Dipole corrections
   LMONO      =      F    monopole corrections only (constant potential shift)
   LDIPOL     =      F    correct potential (dipole corrections)
   IDIPOL     =      0    1-x, 2-y, 3-z, 4-all directions 
   EPSILON    =  1.0000000 bulk dielectric constant
   LVACPOTAV  =      F  vacuum potentials using an averaging scheme for the charge density
   VACPOTFLAT =  0.1000000 required flatness to determine vacuum potential
 Exchange correlation treatment:
   GGA     = PE    functional components
   XC_C    = 1    coefficients multiplying the functional components
   LIBXC   =     F    Libxc                    
   VOSKOWN =     0    Vosko Wilk Nusair interpolation
   LHFCALC =     F    Hartree Fock is set to
   LHFONE  =     F    Hartree Fock one center treatment
   AEXX    =    0.0000 exact exchange contribution

 Parameters of functionals:
   PE:
     No parameter
 
 Van der Waals corrections
   IVDW    =     0    specifies the selected vdW correction

 Linear response parameters
   LEPSILON=     F    determine dielectric tensor
   LRPA    =     F    only Hartree local field effects (RPA)
   LNABLA  =     F    use nabla operator in PAW spheres
   LVEL    =     F    velocity operator in full k-point grid
   CSHIFT  =0.1000    complex shift for real part using Kramers Kronig
   OMEGAMAX=  -1.0    maximum frequency
   DEG_THRESHOLD= 0.2000000E-02 threshold for treating states as degnerate
   RTIME   =   -0.100 relaxation time in fs
  (WPLASMAI=    0.000 imaginary part of plasma frequency in eV, 0.658/RTIME)
   DFIELD  = 0.0000000 0.0000000 0.0000000 field for delta impulse in time
 
  Optional k-point grid parameters
   LKPOINTS_OPT  =     F    use optional k-point grid
   KPOINTS_OPT_MODE=     1    mode for optional k-point grid
 
 Orbital magnetization related:
   ORBITALMAG=     F  switch on orbital magnetization
   LCHIMAG   =     F  perturbation theory with respect to B field
   DQ        =  0.001000  dq finite difference perturbation B field
   LLRAUG    =     F  two centre corrections for induced B field
   LBONE     =     F  B-component reconstruction in AE one-centre
   LVGVCALC  =     T  calculate vGv susceptibility
   LVGVAPPL  =     F  apply vGv susceptibility instead of pGv for G=0

 Random number generation:
   RANDOM_GENERATOR = DEFAULT
   PCG_SEED         = not used


--------------------------------------------------------------------------------------------------------


 Static calculation
 charge density and potential will be updated during run
 non-spin polarized calculation
 Variant of blocked Davidson
 Davidson routine will perform the subspace rotation
 perform sub-space diagonalisation
    after iterative eigenvector-optimisation
 modified Broyden-mixing scheme, WC =      100.0
 initial mixing is a Kerker type mixing with AMIX =  0.4000 and BMIX =      1.0000
 Hartree-type preconditioning will be used
 using additional bands           27
 reciprocal scheme for non local part
 use partial core corrections
 calculate Harris-corrections to forces 
   (improved forces if not selfconsistent)
 use gradient corrections 
 use of overlap-Matrix (Vanderbilt PP)
 Gauss-broadening in eV      SIGMA  =   0.05


--------------------------------------------------------------------------------------------------------


  energy-cutoff  :      320.00
  volume of cell :      143.07
      direct lattice vectors                 reciprocal lattice vectors
     5.697000000  0.000000000  0.000000000     0.175530981  0.000000000  0.000000000
     0.000000000  4.047900000  0.000000000     0.000000000  0.247041676  0.000000000
     0.000000000  0.000000000  6.204200000     0.000000000  0.000000000  0.161181135

  length of vectors
     5.697000000  4.047900000  6.204200000     0.175530981  0.247041676  0.161181135


 
 k-points in units of 2pi/SCALE and weight: k-points                                
   0.00877655  0.00882292  0.00000000       0.003
   0.02632965  0.00882292  0.00000000       0.003
   0.04388275  0.00882292  0.00000000       0.003
   0.06143584  0.00882292  0.00000000       0.003
   0.07898894  0.00882292  0.00000000       0.003
   0.00877655  0.02646875  0.00000000       0.003
   0.02632965  0.02646875  0.00000000       0.003
   0.04388275  0.02646875  0.00000000       0.003
   0.06143584  0.02646875  0.00000000       0.003
   0.07898894  0.02646875  0.00000000       0.003
   0.00877655  0.04411458  0.00000000       0.003
   0.02632965  0.04411458  0.00000000       0.003
   0.04388275  0.04411458  0.00000000       0.003
   0.06143584  0.04411458  0.00000000       0.003
   0.07898894  0.04411458  0.00000000       0.003
   0.00877655  0.06176042  0.00000000       0.003
   0.02632965  0.06176042  0.00000000       0.003
   0.04388275  0.06176042  0.00000000       0.003
   0.06143584  0.06176042  0.00000000       0.003
   0.07898894  0.06176042  0.00000000       0.003
   0.00877655  0.07940625  0.00000000       0.003
   0.02632965  0.07940625  0.00000000       0.003
   0.04388275  0.07940625  0.00000000       0.003
   0.06143584  0.07940625  0.00000000       0.003
   0.07898894  0.07940625  0.00000000       0.003
   0.00877655  0.09705209  0.00000000       0.003
   0.02632965  0.09705209  0.00000000       0.003
   0.04388275  0.09705209  0.00000000       0.003
   0.06143584  0.09705209  0.00000000       0.003
   0.07898894  0.09705209  0.00000000       0.003
   0.00877655  0.11469792  0.00000000       0.003
   0.02632965  0.11469792  0.00000000       0.003
   0.04388275  0.11469792  0.00000000       0.003
   0.06143584  0.11469792  0.00000000       0.003
   0.07898894  0.11469792  0.00000000       0.003
   0.00877655  0.00882292  0.01790902       0.006
   0.02632965  0.00882292  0.01790902       0.006
   0.04388275  0.00882292  0.01790902       0.006
   0.06143584  0.00882292  0.01790902       0.006
   0.07898894  0.00882292  0.01790902       0.006
   0.00877655  0.02646875  0.01790902       0.006
   0.02632965  0.02646875  0.01790902       0.006
   0.04388275  0.02646875  0.01790902       0.006
   0.06143584  0.02646875  0.01790902       0.006
   0.07898894  0.02646875  0.01790902       0.006
   0.00877655  0.04411458  0.01790902       0.006
   0.02632965  0.04411458  0.01790902       0.006
   0.04388275  0.04411458  0.01790902       0.006
   0.06143584  0.04411458  0.01790902       0.006
   0.07898894  0.04411458  0.01790902       0.006
   0.00877655  0.06176042  0.01790902       0.006
   0.02632965  0.06176042  0.01790902       0.006
   0.04388275  0.06176042  0.01790902       0.006
   0.06143584  0.06176042  0.01790902       0.006
   0.07898894  0.06176042  0.01790902       0.006
   0.00877655  0.07940625  0.01790902       0.006
   0.02632965  0.07940625  0.01790902       0.006
   0.04388275  0.07940625  0.01790902       0.006
   0.06143584  0.07940625  0.01790902       0.006
   0.07898894  0.07940625  0.01790902       0.006
   0.00877655  0.09705209  0.01790902       0.006
   0.02632965  0.09705209  0.01790902       0.006
   0.04388275  0.09705209  0.01790902       0.006
   0.06143584  0.09705209  0.01790902       0.006
   0.07898894  0.09705209  0.01790902       0.006
   0.00877655  0.11469792  0.01790902       0.006
   0.02632965  0.11469792  0.01790902       0.006
   0.04388275  0.11469792  0.01790902       0.006
   0.06143584  0.11469792  0.01790902       0.006
   0.07898894  0.11469792  0.01790902       0.006
   0.00877655  0.00882292  0.03581803       0.006
   0.02632965  0.00882292  0.03581803       0.006
   0.04388275  0.00882292  0.03581803       0.006
   0.06143584  0.00882292  0.03581803       0.006
   0.07898894  0.00882292  0.03581803       0.006
   0.00877655  0.02646875  0.03581803       0.006
   0.02632965  0.02646875  0.03581803       0.006
   0.04388275  0.02646875  0.03581803       0.006
   0.06143584  0.02646875  0.03581803       0.006
   0.07898894  0.02646875  0.03581803       0.006
   0.00877655  0.04411458  0.03581803       0.006
   0.02632965  0.04411458  0.03581803       0.006
   0.04388275  0.04411458  0.03581803       0.006
   0.06143584  0.04411458  0.03581803       0.006
   0.07898894  0.04411458  0.03581803       0.006
   0.00877655  0.06176042  0.03581803       0.006
   0.02632965  0.06176042  0.03581803       0.006
   0.04388275  0.06176042  0.03581803       0.006
   0.06143584  0.06176042  0.03581803       0.006
   0.07898894  0.06176042  0.03581803       0.006
   0.00877655  0.07940625  0.03581803       0.006
   0.02632965  0.07940625  0.03581803       0.006
   0.04388275  0.07940625  0.03581803       0.006
   0.06143584  0.07940625  0.03581803       0.006
   0.07898894  0.07940625  0.03581803       0.006
   0.00877655  0.09705209  0.03581803       0.006
   0.02632965  0.09705209  0.03581803       0.006
   0.04388275  0.09705209  0.03581803       0.006
   0.06143584  0.09705209  0.03581803       0.006
   0.07898894  0.09705209  0.03581803       0.006
   0.00877655  0.11469792  0.03581803       0.006
   0.02632965  0.11469792  0.03581803       0.006
   0.04388275  0.11469792  0.03581803       0.006
   0.06143584  0.11469792  0.03581803       0.006
   0.07898894  0.11469792  0.03581803       0.006
   0.00877655  0.00882292  0.05372705       0.006
   0.02632965  0.00882292  0.05372705       0.006
   0.04388275  0.00882292  0.05372705       0.006
   0.06143584  0.00882292  0.05372705       0.006
   0.07898894  0.00882292  0.05372705       0.006
   0.00877655  0.02646875  0.05372705       0.006
   0.02632965  0.02646875  0.05372705       0.006
   0.04388275  0.02646875  0.05372705       0.006
   0.06143584  0.02646875  0.05372705       0.006
   0.07898894  0.02646875  0.05372705       0.006
   0.00877655  0.04411458  0.05372705       0.006
   0.02632965  0.04411458  0.05372705       0.006
   0.04388275  0.04411458  0.05372705       0.006
   0.06143584  0.04411458  0.05372705       0.006
   0.07898894  0.04411458  0.05372705       0.006
   0.00877655  0.06176042  0.05372705       0.006
   0.02632965  0.06176042  0.05372705       0.006
   0.04388275  0.06176042  0.05372705       0.006
   0.06143584  0.06176042  0.05372705       0.006
   0.07898894  0.06176042  0.05372705       0.006
   0.00877655  0.07940625  0.05372705       0.006
   0.02632965  0.07940625  0.05372705       0.006
   0.04388275  0.07940625  0.05372705       0.006
   0.06143584  0.07940625  0.05372705       0.006
   0.07898894  0.07940625  0.05372705       0.006
   0.00877655  0.09705209  0.05372705       0.006
   0.02632965  0.09705209  0.05372705       0.006
   0.04388275  0.09705209  0.05372705       0.006
   0.06143584  0.09705209  0.05372705       0.006
   0.07898894  0.09705209  0.05372705       0.006
   0.00877655  0.11469792  0.05372705       0.006
   0.02632965  0.11469792  0.05372705       0.006
   0.04388275  0.11469792  0.05372705       0.006
   0.06143584  0.11469792  0.05372705       0.006
   0.07898894  0.11469792  0.05372705       0.006
   0.00877655  0.00882292  0.07163606       0.006
   0.02632965  0.00882292  0.07163606       0.006
   0.04388275  0.00882292  0.07163606       0.006
   0.06143584  0.00882292  0.07163606       0.006
   0.07898894  0.00882292  0.07163606       0.006
   0.00877655  0.02646875  0.07163606       0.006
   0.02632965  0.02646875  0.07163606       0.006
   0.04388275  0.02646875  0.07163606       0.006
   0.06143584  0.02646875  0.07163606       0.006
   0.07898894  0.02646875  0.07163606       0.006
   0.00877655  0.04411458  0.07163606       0.006
   0.02632965  0.04411458  0.07163606       0.006
   0.04388275  0.04411458  0.07163606       0.006
   0.06143584  0.04411458  0.07163606       0.006
   0.07898894  0.04411458  0.07163606       0.006
   0.00877655  0.06176042  0.07163606       0.006
   0.02632965  0.06176042  0.07163606       0.006
   0.04388275  0.06176042  0.07163606       0.006
   0.06143584  0.06176042  0.07163606       0.006
   0.07898894  0.06176042  0.07163606       0.006
   0.00877655  0.07940625  0.07163606       0.006
   0.02632965  0.07940625  0.07163606       0.006
   0.04388275  0.07940625  0.07163606       0.006
   0.06143584  0.07940625  0.07163606       0.006
   0.07898894  0.07940625  0.07163606       0.006
   0.00877655  0.09705209  0.07163606       0.006
   0.02632965  0.09705209  0.07163606       0.006
   0.04388275  0.09705209  0.07163606       0.006
   0.06143584  0.09705209  0.07163606       0.006
   0.07898894  0.09705209  0.07163606       0.006
   0.00877655  0.11469792  0.07163606       0.006
   0.02632965  0.11469792  0.07163606       0.006
   0.04388275  0.11469792  0.07163606       0.006
   0.06143584  0.11469792  0.07163606       0.006
   0.07898894  0.11469792  0.07163606       0.006
 
 k-points in reciprocal lattice and weights: k-points                                
   0.05000000  0.03571429  0.00000000       0.003
   0.15000000  0.03571429  0.00000000       0.003
   0.25000000  0.03571429  0.00000000       0.003
   0.35000000  0.03571429  0.00000000       0.003
   0.45000000  0.03571429  0.00000000       0.003
   0.05000000  0.10714286  0.00000000       0.003
   0.15000000  0.10714286  0.00000000       0.003
   0.25000000  0.10714286  0.00000000       0.003
   0.35000000  0.10714286  0.00000000       0.003
   0.45000000  0.10714286  0.00000000       0.003
   0.05000000  0.17857143  0.00000000       0.003
   0.15000000  0.17857143  0.00000000       0.003
   0.25000000  0.17857143  0.00000000       0.003
   0.35000000  0.17857143  0.00000000       0.003
   0.45000000  0.17857143  0.00000000       0.003
   0.05000000  0.25000000  0.00000000       0.003
   0.15000000  0.25000000  0.00000000       0.003
   0.25000000  0.25000000  0.00000000       0.003
   0.35000000  0.25000000  0.00000000       0.003
   0.45000000  0.25000000  0.00000000       0.003
   0.05000000  0.32142857  0.00000000       0.003
   0.15000000  0.32142857  0.00000000       0.003
   0.25000000  0.32142857  0.00000000       0.003
   0.35000000  0.32142857  0.00000000       0.003
   0.45000000  0.32142857  0.00000000       0.003
   0.05000000  0.39285714  0.00000000       0.003
   0.15000000  0.39285714  0.00000000       0.003
   0.25000000  0.39285714  0.00000000       0.003
   0.35000000  0.39285714  0.00000000       0.003
   0.45000000  0.39285714  0.00000000       0.003
   0.05000000  0.46428571  0.00000000       0.003
   0.15000000  0.46428571  0.00000000       0.003
   0.25000000  0.46428571  0.00000000       0.003
   0.35000000  0.46428571  0.00000000       0.003
   0.45000000  0.46428571  0.00000000       0.003
   0.05000000  0.03571429  0.11111111       0.006
   0.15000000  0.03571429  0.11111111       0.006
   0.25000000  0.03571429  0.11111111       0.006
   0.35000000  0.03571429  0.11111111       0.006
   0.45000000  0.03571429  0.11111111       0.006
   0.05000000  0.10714286  0.11111111       0.006
   0.15000000  0.10714286  0.11111111       0.006
   0.25000000  0.10714286  0.11111111       0.006
   0.35000000  0.10714286  0.11111111       0.006
   0.45000000  0.10714286  0.11111111       0.006
   0.05000000  0.17857143  0.11111111       0.006
   0.15000000  0.17857143  0.11111111       0.006
   0.25000000  0.17857143  0.11111111       0.006
   0.35000000  0.17857143  0.11111111       0.006
   0.45000000  0.17857143  0.11111111       0.006
   0.05000000  0.25000000  0.11111111       0.006
   0.15000000  0.25000000  0.11111111       0.006
   0.25000000  0.25000000  0.11111111       0.006
   0.35000000  0.25000000  0.11111111       0.006
   0.45000000  0.25000000  0.11111111       0.006
   0.05000000  0.32142857  0.11111111       0.006
   0.15000000  0.32142857  0.11111111       0.006
   0.25000000  0.32142857  0.11111111       0.006
   0.35000000  0.32142857  0.11111111       0.006
   0.45000000  0.32142857  0.11111111       0.006
   0.05000000  0.39285714  0.11111111       0.006
   0.15000000  0.39285714  0.11111111       0.006
   0.25000000  0.39285714  0.11111111       0.006
   0.35000000  0.39285714  0.11111111       0.006
   0.45000000  0.39285714  0.11111111       0.006
   0.05000000  0.46428571  0.11111111       0.006
   0.15000000  0.46428571  0.11111111       0.006
   0.25000000  0.46428571  0.11111111       0.006
   0.35000000  0.46428571  0.11111111       0.006
   0.45000000  0.46428571  0.11111111       0.006
   0.05000000  0.03571429  0.22222222       0.006
   0.15000000  0.03571429  0.22222222       0.006
   0.25000000  0.03571429  0.22222222       0.006
   0.35000000  0.03571429  0.22222222       0.006
   0.45000000  0.03571429  0.22222222       0.006
   0.05000000  0.10714286  0.22222222       0.006
   0.15000000  0.10714286  0.22222222       0.006
   0.25000000  0.10714286  0.22222222       0.006
   0.35000000  0.10714286  0.22222222       0.006
   0.45000000  0.10714286  0.22222222       0.006
   0.05000000  0.17857143  0.22222222       0.006
   0.15000000  0.17857143  0.22222222       0.006
   0.25000000  0.17857143  0.22222222       0.006
   0.35000000  0.17857143  0.22222222       0.006
   0.45000000  0.17857143  0.22222222       0.006
   0.05000000  0.25000000  0.22222222       0.006
   0.15000000  0.25000000  0.22222222       0.006
   0.25000000  0.25000000  0.22222222       0.006
   0.35000000  0.25000000  0.22222222       0.006
   0.45000000  0.25000000  0.22222222       0.006
   0.05000000  0.32142857  0.22222222       0.006
   0.15000000  0.32142857  0.22222222       0.006
   0.25000000  0.32142857  0.22222222       0.006
   0.35000000  0.32142857  0.22222222       0.006
   0.45000000  0.32142857  0.22222222       0.006
   0.05000000  0.39285714  0.22222222       0.006
   0.15000000  0.39285714  0.22222222       0.006
   0.25000000  0.39285714  0.22222222       0.006
   0.35000000  0.39285714  0.22222222       0.006
   0.45000000  0.39285714  0.22222222       0.006
   0.05000000  0.46428571  0.22222222       0.006
   0.15000000  0.46428571  0.22222222       0.006
   0.25000000  0.46428571  0.22222222       0.006
   0.35000000  0.46428571  0.22222222       0.006
   0.45000000  0.46428571  0.22222222       0.006
   0.05000000  0.03571429  0.33333333       0.006
   0.15000000  0.03571429  0.33333333       0.006
   0.25000000  0.03571429  0.33333333       0.006
   0.35000000  0.03571429  0.33333333       0.006
   0.45000000  0.03571429  0.33333333       0.006
   0.05000000  0.10714286  0.33333333       0.006
   0.15000000  0.10714286  0.33333333       0.006
   0.25000000  0.10714286  0.33333333       0.006
   0.35000000  0.10714286  0.33333333       0.006
   0.45000000  0.10714286  0.33333333       0.006
   0.05000000  0.17857143  0.33333333       0.006
   0.15000000  0.17857143  0.33333333       0.006
   0.25000000  0.17857143  0.33333333       0.006
   0.35000000  0.17857143  0.33333333       0.006
   0.45000000  0.17857143  0.33333333       0.006
   0.05000000  0.25000000  0.33333333       0.006
   0.15000000  0.25000000  0.33333333       0.006
   0.25000000  0.25000000  0.33333333       0.006
   0.35000000  0.25000000  0.33333333       0.006
   0.45000000  0.25000000  0.33333333       0.006
   0.05000000  0.32142857  0.33333333       0.006
   0.15000000  0.32142857  0.33333333       0.006
   0.25000000  0.32142857  0.33333333       0.006
   0.35000000  0.32142857  0.33333333       0.006
   0.45000000  0.32142857  0.33333333       0.006
   0.05000000  0.39285714  0.33333333       0.006
   0.15000000  0.39285714  0.33333333       0.006
   0.25000000  0.39285714  0.33333333       0.006
   0.35000000  0.39285714  0.33333333       0.006
   0.45000000  0.39285714  0.33333333       0.006
   0.05000000  0.46428571  0.33333333       0.006
   0.15000000  0.46428571  0.33333333       0.006
   0.25000000  0.46428571  0.33333333       0.006
   0.35000000  0.46428571  0.33333333       0.006
   0.45000000  0.46428571  0.33333333       0.006
   0.05000000  0.03571429  0.44444444       0.006
   0.15000000  0.03571429  0.44444444       0.006
   0.25000000  0.03571429  0.44444444       0.006
   0.35000000  0.03571429  0.44444444       0.006
   0.45000000  0.03571429  0.44444444       0.006
   0.05000000  0.10714286  0.44444444       0.006
   0.15000000  0.10714286  0.44444444       0.006
   0.25000000  0.10714286  0.44444444       0.006
   0.35000000  0.10714286  0.44444444       0.006
   0.45000000  0.10714286  0.44444444       0.006
   0.05000000  0.17857143  0.44444444       0.006
   0.15000000  0.17857143  0.44444444       0.006
   0.25000000  0.17857143  0.44444444       0.006
   0.35000000  0.17857143  0.44444444       0.006
   0.45000000  0.17857143  0.44444444       0.006
   0.05000000  0.25000000  0.44444444       0.006
   0.15000000  0.25000000  0.44444444       0.006
   0.25000000  0.25000000  0.44444444       0.006
   0.35000000  0.25000000  0.44444444       0.006
   0.45000000  0.25000000  0.44444444       0.006
   0.05000000  0.32142857  0.44444444       0.006
   0.15000000  0.32142857  0.44444444       0.006
   0.25000000  0.32142857  0.44444444       0.006
   0.35000000  0.32142857  0.44444444       0.006
   0.45000000  0.32142857  0.44444444       0.006
   0.05000000  0.39285714  0.44444444       0.006
   0.15000000  0.39285714  0.44444444       0.006
   0.25000000  0.39285714  0.44444444       0.006
   0.35000000  0.39285714  0.44444444       0.006
   0.45000000  0.39285714  0.44444444       0.006
   0.05000000  0.46428571  0.44444444       0.006
   0.15000000  0.46428571  0.44444444       0.006
   0.25000000  0.46428571  0.44444444       0.006
   0.35000000  0.46428571  0.44444444       0.006
   0.45000000  0.46428571  0.44444444       0.006
 
 position of ions in fractional coordinates (direct lattice) 
   0.52123000  0.50000000  0.63796000
   0.47877000  0.50000000  0.36204000
   0.97877000  0.50000000  0.63796000
   0.02123000  0.50000000  0.36204000
   0.60090000  0.50000000  0.89991000
   0.39910000  0.50000000  0.10009000
   0.89910000  0.50000000  0.89991000
   0.10090000  0.50000000  0.10009000
   0.75000000  0.79171000  0.72973000
   0.25000000  0.20829000  0.27027000
   0.75000000  0.20829000  0.72973000
   0.25000000  0.79171000  0.27027000
   0.25000000  0.50000000  0.52367000
   0.75000000  0.50000000  0.47633000
 
 position of ions in cartesian coordinates  (Angst):
   2.96944731  2.02395000  3.95803143
   2.72755269  2.02395000  2.24616857
   5.57605269  2.02395000  3.95803143
   0.12094731  2.02395000  2.24616857
   3.42332730  2.02395000  5.58322162
   2.27367270  2.02395000  0.62097838
   5.12217270  2.02395000  5.58322162
   0.57482730  2.02395000  0.62097838
   4.27275000  3.20476291  4.52739087
   1.42425000  0.84313709  1.67680913
   4.27275000  0.84313709  4.52739087
   1.42425000  3.20476291  1.67680913
   1.42425000  2.02395000  3.24895341
   4.27275000  2.02395000  2.95524659
 


--------------------------------------------------------------------------------------------------------


 k-point     1 :   0.0500 0.0357 0.0000  plane waves:    1851
 k-point     2 :   0.1500 0.0357 0.0000  plane waves:    1843
 k-point     3 :   0.2500 0.0357 0.0000  plane waves:    1847
 k-point     4 :   0.3500 0.0357 0.0000  plane waves:    1837
 k-point     5 :   0.4500 0.0357 0.0000  plane waves:    1849
 k-point     6 :   0.0500 0.1071 0.0000  plane waves:    1847
 k-point     7 :   0.1500 0.1071 0.0000  plane waves:    1847
 k-point     8 :   0.2500 0.1071 0.0000  plane waves:    1845
 k-point     9 :   0.3500 0.1071 0.0000  plane waves:    1851
 k-point    10 :   0.4500 0.1071 0.0000  plane waves:    1851
 k-point    11 :   0.0500 0.1786 0.0000  plane waves:    1850
 k-point    12 :   0.1500 0.1786 0.0000  plane waves:    1853
 k-point    13 :   0.2500 0.1786 0.0000  plane waves:    1859
 k-point    14 :   0.3500 0.1786 0.0000  plane waves:    1861
 k-point    15 :   0.4500 0.1786 0.0000  plane waves:    1848
 k-point    16 :   0.0500 0.2500 0.0000  plane waves:    1854
 k-point    17 :   0.1500 0.2500 0.0000  plane waves:    1857
 k-point    18 :   0.2500 0.2500 0.0000  plane waves:    1854
 k-point    19 :   0.3500 0.2500 0.0000  plane waves:    1860
 k-point    20 :   0.4500 0.2500 0.0000  plane waves:    1854
 k-point    21 :   0.0500 0.3214 0.0000  plane waves:    1867
 k-point    22 :   0.1500 0.3214 0.0000  plane waves:    1864
 k-point    23 :   0.2500 0.3214 0.0000  plane waves:    1864
 k-point    24 :   0.3500 0.3214 0.0000  plane waves:    1856
 k-point    25 :   0.4500 0.3214 0.0000  plane waves:    1847
 k-point    26 :   0.0500 0.3929 0.0000  plane waves:    1863
 k-point    27 :   0.1500 0.3929 0.0000  plane waves:    1866
 k-point    28 :   0.2500 0.3929 0.0000  plane waves:    1860
 k-point    29 :   0.3500 0.3929 0.0000  plane waves:    1864
 k-point    30 :   0.4500 0.3929 0.0000  plane waves:    1857
 k-point    31 :   0.0500 0.4643 0.0000  plane waves:    1856
 k-point    32 :   0.1500 0.4643 0.0000  plane waves:    1860
 k-point    33 :   0.2500 0.4643 0.0000  plane waves:    1860
 k-point    34 :   0.3500 0.4643 0.0000  plane waves:    1867
 k-point    35 :   0.4500 0.4643 0.0000  plane waves:    1873
 k-point    36 :   0.0500 0.0357 0.1111  plane waves:    1854
 k-point    37 :   0.1500 0.0357 0.1111  plane waves:    1850
 k-point    38 :   0.2500 0.0357 0.1111  plane waves:    1850
 k-point    39 :   0.3500 0.0357 0.1111  plane waves:    1846
 k-point    40 :   0.4500 0.0357 0.1111  plane waves:    1840
 k-point    41 :   0.0500 0.1071 0.1111  plane waves:    1852
 k-point    42 :   0.1500 0.1071 0.1111  plane waves:    1850
 k-point    43 :   0.2500 0.1071 0.1111  plane waves:    1840
 k-point    44 :   0.3500 0.1071 0.1111  plane waves:    1845
 k-point    45 :   0.4500 0.1071 0.1111  plane waves:    1850
 k-point    46 :   0.0500 0.1786 0.1111  plane waves:    1855
 k-point    47 :   0.1500 0.1786 0.1111  plane waves:    1857
 k-point    48 :   0.2500 0.1786 0.1111  plane waves:    1859
 k-point    49 :   0.3500 0.1786 0.1111  plane waves:    1860
 k-point    50 :   0.4500 0.1786 0.1111  plane waves:    1854
 k-point    51 :   0.0500 0.2500 0.1111  plane waves:    1863
 k-point    52 :   0.1500 0.2500 0.1111  plane waves:    1857
 k-point    53 :   0.2500 0.2500 0.1111  plane waves:    1860
 k-point    54 :   0.3500 0.2500 0.1111  plane waves:    1862
 k-point    55 :   0.4500 0.2500 0.1111  plane waves:    1853
 k-point    56 :   0.0500 0.3214 0.1111  plane waves:    1867
 k-point    57 :   0.1500 0.3214 0.1111  plane waves:    1866
 k-point    58 :   0.2500 0.3214 0.1111  plane waves:    1862
 k-point    59 :   0.3500 0.3214 0.1111  plane waves:    1859
 k-point    60 :   0.4500 0.3214 0.1111  plane waves:    1856
 k-point    61 :   0.0500 0.3929 0.1111  plane waves:    1862
 k-point    62 :   0.1500 0.3929 0.1111  plane waves:    1860
 k-point    63 :   0.2500 0.3929 0.1111  plane waves:    1872
 k-point    64 :   0.3500 0.3929 0.1111  plane waves:    1858
 k-point    65 :   0.4500 0.3929 0.1111  plane waves:    1865
 k-point    66 :   0.0500 0.4643 0.1111  plane waves:    1872
 k-point    67 :   0.1500 0.4643 0.1111  plane waves:    1861
 k-point    68 :   0.2500 0.4643 0.1111  plane waves:    1862
 k-point    69 :   0.3500 0.4643 0.1111  plane waves:    1864
 k-point    70 :   0.4500 0.4643 0.1111  plane waves:    1868
 k-point    71 :   0.0500 0.0357 0.2222  plane waves:    1858
 k-point    72 :   0.1500 0.0357 0.2222  plane waves:    1853
 k-point    73 :   0.2500 0.0357 0.2222  plane waves:    1854
 k-point    74 :   0.3500 0.0357 0.2222  plane waves:    1849
 k-point    75 :   0.4500 0.0357 0.2222  plane waves:    1847
 k-point    76 :   0.0500 0.1071 0.2222  plane waves:    1858
 k-point    77 :   0.1500 0.1071 0.2222  plane waves:    1859
 k-point    78 :   0.2500 0.1071 0.2222  plane waves:    1851
 k-point    79 :   0.3500 0.1071 0.2222  plane waves:    1850
 k-point    80 :   0.4500 0.1071 0.2222  plane waves:    1851
 k-point    81 :   0.0500 0.1786 0.2222  plane waves:    1861
 k-point    82 :   0.1500 0.1786 0.2222  plane waves:    1860
 k-point    83 :   0.2500 0.1786 0.2222  plane waves:    1862
 k-point    84 :   0.3500 0.1786 0.2222  plane waves:    1856
 k-point    85 :   0.4500 0.1786 0.2222  plane waves:    1858
 k-point    86 :   0.0500 0.2500 0.2222  plane waves:    1856
 k-point    87 :   0.1500 0.2500 0.2222  plane waves:    1865
 k-point    88 :   0.2500 0.2500 0.2222  plane waves:    1863
 k-point    89 :   0.3500 0.2500 0.2222  plane waves:    1864
 k-point    90 :   0.4500 0.2500 0.2222  plane waves:    1864
 k-point    91 :   0.0500 0.3214 0.2222  plane waves:    1864
 k-point    92 :   0.1500 0.3214 0.2222  plane waves:    1864
 k-point    93 :   0.2500 0.3214 0.2222  plane waves:    1869
 k-point    94 :   0.3500 0.3214 0.2222  plane waves:    1863
 k-point    95 :   0.4500 0.3214 0.2222  plane waves:    1861
 k-point    96 :   0.0500 0.3929 0.2222  plane waves:    1863
 k-point    97 :   0.1500 0.3929 0.2222  plane waves:    1864
 k-point    98 :   0.2500 0.3929 0.2222  plane waves:    1866
 k-point    99 :   0.3500 0.3929 0.2222  plane waves:    1861
 k-point   100 :   0.4500 0.3929 0.2222  plane waves:    1861
 k-point   101 :   0.0500 0.4643 0.2222  plane waves:    1868
 k-point   102 :   0.1500 0.4643 0.2222  plane waves:    1864
 k-point   103 :   0.2500 0.4643 0.2222  plane waves:    1861
 k-point   104 :   0.3500 0.4643 0.2222  plane waves:    1864
 k-point   105 :   0.4500 0.4643 0.2222  plane waves:    1859
 k-point   106 :   0.0500 0.0357 0.3333  plane waves:    1862
 k-point   107 :   0.1500 0.0357 0.3333  plane waves:    1859
 k-point   108 :   0.2500 0.0357 0.3333  plane waves:    1855
 k-point   109 :   0.3500 0.0357 0.3333  plane waves:    1857
 k-point   110 :   0.4500 0.0357 0.3333  plane waves:    1859
 k-point   111 :   0.0500 0.1071 0.3333  plane waves:    1857
 k-point   112 :   0.1500 0.1071 0.3333  plane waves:    1854
 k-point   113 :   0.2500 0.1071 0.3333  plane waves:    1856
 k-point   114 :   0.3500 0.1071 0.3333  plane waves:    1855
 k-point   115 :   0.4500 0.1071 0.3333  plane waves:    1857
 k-point   116 :   0.0500 0.1786 0.3333  plane waves:    1854
 k-point   117 :   0.1500 0.1786 0.3333  plane waves:    1855
 k-point   118 :   0.2500 0.1786 0.3333  plane waves:    1857
 k-point   119 :   0.3500 0.1786 0.3333  plane waves:    1860
 k-point   120 :   0.4500 0.1786 0.3333  plane waves:    1862
 k-point   121 :   0.0500 0.2500 0.3333  plane waves:    1854
 k-point   122 :   0.1500 0.2500 0.3333  plane waves:    1861
 k-point   123 :   0.2500 0.2500 0.3333  plane waves:    1859
 k-point   124 :   0.3500 0.2500 0.3333  plane waves:    1865
 k-point   125 :   0.4500 0.2500 0.3333  plane waves:    1868
 k-point   126 :   0.0500 0.3214 0.3333  plane waves:    1868
 k-point   127 :   0.1500 0.3214 0.3333  plane waves:    1870
 k-point   128 :   0.2500 0.3214 0.3333  plane waves:    1862
 k-point   129 :   0.3500 0.3214 0.3333  plane waves:    1859
 k-point   130 :   0.4500 0.3214 0.3333  plane waves:    1865
 k-point   131 :   0.0500 0.3929 0.3333  plane waves:    1875
 k-point   132 :   0.1500 0.3929 0.3333  plane waves:    1872
 k-point   133 :   0.2500 0.3929 0.3333  plane waves:    1871
 k-point   134 :   0.3500 0.3929 0.3333  plane waves:    1858
 k-point   135 :   0.4500 0.3929 0.3333  plane waves:    1857
 k-point   136 :   0.0500 0.4643 0.3333  plane waves:    1874
 k-point   137 :   0.1500 0.4643 0.3333  plane waves:    1874
 k-point   138 :   0.2500 0.4643 0.3333  plane waves:    1869
 k-point   139 :   0.3500 0.4643 0.3333  plane waves:    1862
 k-point   140 :   0.4500 0.4643 0.3333  plane waves:    1853
 k-point   141 :   0.0500 0.0357 0.4444  plane waves:    1866
 k-point   142 :   0.1500 0.0357 0.4444  plane waves:    1852
 k-point   143 :   0.2500 0.0357 0.4444  plane waves:    1853
 k-point   144 :   0.3500 0.0357 0.4444  plane waves:    1857
 k-point   145 :   0.4500 0.0357 0.4444  plane waves:    1867
 k-point   146 :   0.0500 0.1071 0.4444  plane waves:    1859
 k-point   147 :   0.1500 0.1071 0.4444  plane waves:    1854
 k-point   148 :   0.2500 0.1071 0.4444  plane waves:    1848
 k-point   149 :   0.3500 0.1071 0.4444  plane waves:    1857
 k-point   150 :   0.4500 0.1071 0.4444  plane waves:    1859
 k-point   151 :   0.0500 0.1786 0.4444  plane waves:    1853
 k-point   152 :   0.1500 0.1786 0.4444  plane waves:    1859
 k-point   153 :   0.2500 0.1786 0.4444  plane waves:    1857
 k-point   154 :   0.3500 0.1786 0.4444  plane waves:    1853
 k-point   155 :   0.4500 0.1786 0.4444  plane waves:    1864
 k-point   156 :   0.0500 0.2500 0.4444  plane waves:    1856
 k-point   157 :   0.1500 0.2500 0.4444  plane waves:    1857
 k-point   158 :   0.2500 0.2500 0.4444  plane waves:    1861
 k-point   159 :   0.3500 0.2500 0.4444  plane waves:    1860
 k-point   160 :   0.4500 0.2500 0.4444  plane waves:    1869
 k-point   161 :   0.0500 0.3214 0.4444  plane waves:    1864
 k-point   162 :   0.1500 0.3214 0.4444  plane waves:    1863
 k-point   163 :   0.2500 0.3214 0.4444  plane waves:    1863
 k-point   164 :   0.3500 0.3214 0.4444  plane waves:    1862
 k-point   165 :   0.4500 0.3214 0.4444  plane waves:    1872
 k-point   166 :   0.0500 0.3929 0.4444  plane waves:    1883
 k-point   167 :   0.1500 0.3929 0.4444  plane waves:    1879
 k-point   168 :   0.2500 0.3929 0.4444  plane waves:    1866
 k-point   169 :   0.3500 0.3929 0.4444  plane waves:    1863
 k-point   170 :   0.4500 0.3929 0.4444  plane waves:    1861
 k-point   171 :   0.0500 0.4643 0.4444  plane waves:    1869
 k-point   172 :   0.1500 0.4643 0.4444  plane waves:    1879
 k-point   173 :   0.2500 0.4643 0.4444  plane waves:    1871
 k-point   174 :   0.3500 0.4643 0.4444  plane waves:    1860
 k-point   175 :   0.4500 0.4643 0.4444  plane waves:    1863

 maximum and minimum number of plane-waves per node :      1883     1837

 maximum number of plane-waves:      1883
 maximum index in each direction: 
   IXMAX=    8   IYMAX=    5   IZMAX=    9
   IXMIN=   -8   IYMIN=   -6   IZMIN=   -9


 serial   3D FFT for wavefunctions
 parallel 3D FFT for charge:
    minimum data exchange during FFTs selected (reduces bandwidth)


 total amount of memory used by VASP MPI-rank0    65250. kBytes
=======================================================================

   base      :      30000. kBytes
   nonl-proj :      21659. kBytes
   fftplans  :        495. kBytes
   grid      :       1764. kBytes
   one-center:         43. kBytes
   wavefun   :      11289. kBytes
 
     INWAV:  cpu time      0.0000: real time      0.0000
 Broyden mixing: mesh for mixing (old mesh)
   NGX = 17   NGY = 11   NGZ = 19
  (NGX  = 72   NGY  = 48   NGZ  = 72)
  gives a total of   3553 points

 initial charge density was supplied:
 charge density of overlapping atoms calculated
 number of electron      42.0000000 magnetization 
 keeping initial charge density in first step


--------------------------------------------------------------------------------------------------------


 Maximum index for augmentation-charges          243 (set IRDMAX)


--------------------------------------------------------------------------------------------------------


 First call to EWALD:  gamma=   0.339
 Maximum number of real-space cells 3x 3x 2
 Maximum number of reciprocal cells 3x 2x 3

    FEWALD:  cpu time      0.0011: real time      0.0011


--------------------------------------- Ionic step        1  -------------------------------------------




--------------------------------------- Iteration      1(   1)  ---------------------------------------


    POTLOK:  cpu time      0.0060: real time      0.0071
    SETDIJ:  cpu time      0.0013: real time      0.0013
     EDDAV:  cpu time      2.6352: real time      2.6533
       DOS:  cpu time      0.0014: real time      0.0014
    --------------------------------------------
      LOOP:  cpu time      2.6440: real time      2.6631

 eigenvalue-minimisations  : 16800
 total energy-change (2. order) : 0.1657384E+02  (-0.1395646E+04)
 number of electron      42.0000000 magnetization 
 augmentation part       42.0000000 magnetization 

 Free energy of the ion-electron system (eV)
  ---------------------------------------------------
  alpha Z        PSCENC =        94.24357992
  Ewald energy   TEWEN  =      -795.76658092
  -Hartree energ DENC   =      -271.33601302
  -exchange      EXHF   =         0.00000000
  -V(xc)+E(xc)   XCENC  =        97.50108131
  PAW double counting   =       608.99811708     -597.02363782
  entropy T*S    EENTRO =        -0.00313752
  eigenvalues    EBANDS =      -116.32722486
  atomic energy  EATOM  =       996.28765503
  Solvation  Ediel_sol  =         0.00000000
  ---------------------------------------------------
  free energy    TOTEN  =        16.57383920 eV

  energy without entropy =       16.57697672  energy(sigma->0) =       16.57540796


--------------------------------------------------------------------------------------------------------




--------------------------------------- Iteration      1(   2)  ---------------------------------------


     EDDAV:  cpu time      3.8181: real time      3.8189
       DOS:  cpu time      0.0012: real time      0.0011
    --------------------------------------------
      LOOP:  cpu time      3.8192: real time      3.8201

 eigenvalue-minimisations  : 24120
 total energy-change (2. order) :-0.1108785E+03  (-0.1049179E+03)
 number of electron      42.0000000 magnetization 
 augmentation part       42.0000000 magnetization 

 Free energy of the ion-electron system (eV)
  ---------------------------------------------------
  alpha Z        PSCENC =        94.24357992
  Ewald energy   TEWEN  =      -795.76658092
  -Hartree energ DENC   =      -271.33601302
  -exchange      EXHF   =         0.00000000
  -V(xc)+E(xc)   XCENC  =        97.50108131
  PAW double counting   =       608.99811708     -597.02363782
  entropy T*S    EENTRO =        -0.00364170
  eigenvalues    EBANDS =      -227.20523023
  atomic energy  EATOM  =       996.28765503
  Solvation  Ediel_sol  =         0.00000000
  ---------------------------------------------------
  free energy    TOTEN  =       -94.30467035 eV

  energy without entropy =      -94.30102865  energy(sigma->0) =      -94.30284950


--------------------------------------------------------------------------------------------------------




--------------------------------------- Iteration      1(   3)  ---------------------------------------


     EDDAV:  cpu time      3.7351: real time      3.7362
       DOS:  cpu time      0.0011: real time      0.0011
    --------------------------------------------
      LOOP:  cpu time      3.7362: real time      3.7372

 eigenvalue-minimisations  : 23640
 total energy-change (2. order) :-0.3189687E+01  (-0.3179127E+01)
 number of electron      42.0000000 magnetization 
 augmentation part       42.0000000 magnetization 

 Free energy of the ion-electron system (eV)
  ---------------------------------------------------
  alpha Z        PSCENC =        94.24357992
  Ewald energy   TEWEN  =      -795.76658092
  -Hartree energ DENC   =      -271.33601302
  -exchange      EXHF   =         0.00000000
  -V(xc)+E(xc)   XCENC  =        97.50108131
  PAW double counting   =       608.99811708     -597.02363782
  entropy T*S    EENTRO =        -0.00365150
  eigenvalues    EBANDS =      -230.39490719
  atomic energy  EATOM  =       996.28765503
  Solvation  Ediel_sol  =         0.00000000
  ---------------------------------------------------
  free energy    TOTEN  =       -97.49435712 eV

  energy without entropy =      -97.49070561  energy(sigma->0) =      -97.49253136


--------------------------------------------------------------------------------------------------------




--------------------------------------- Iteration      1(   4)  ---------------------------------------


     EDDAV:  cpu time      3.5085: real time      3.5093
       DOS:  cpu time      0.0012: real time      0.0012
    --------------------------------------------
      LOOP:  cpu time      3.5097: real time      3.5105

 eigenvalue-minimisations  : 22392
 total energy-change (2. order) :-0.1820619E-01  (-0.1820498E-01)
 number of electron      42.0000000 magnetization 
 augmentation part       42.0000000 magnetization 

 Free energy of the ion-electron system (eV)
  ---------------------------------------------------
  alpha Z        PSCENC =        94.24357992
  Ewald energy   TEWEN  =      -795.76658092
  -Hartree energ DENC   =      -271.33601302
  -exchange      EXHF   =         0.00000000
  -V(xc)+E(xc)   XCENC  =        97.50108131
  PAW double counting   =       608.99811708     -597.02363782
  entropy T*S    EENTRO =        -0.00365243
  eigenvalues    EBANDS =      -230.41311246
  atomic energy  EATOM  =       996.28765503
  Solvation  Ediel_sol  =         0.00000000
  ---------------------------------------------------
  free energy    TOTEN  =       -97.51256331 eV

  energy without entropy =      -97.50891088  energy(sigma->0) =      -97.51073710


--------------------------------------------------------------------------------------------------------




--------------------------------------- Iteration      1(   5)  ---------------------------------------


     EDDAV:  cpu time      3.6530: real time      3.6540
       DOS:  cpu time      0.0017: real time      0.0019
    CHARGE:  cpu time      0.0343: real time      0.0354
    MIXING:  cpu time      0.0010: real time      0.0010
    --------------------------------------------
      LOOP:  cpu time      3.6900: real time      3.6922

 eigenvalue-minimisations  : 23136
 total energy-change (2. order) :-0.2176139E-03  (-0.2176100E-03)
 number of electron      41.9999999 magnetization 
 augmentation part       -0.1467640 magnetization 

 Broyden mixing:
  rms(total) = 0.12570E+01    rms(broyden)= 0.12568E+01
  rms(prec ) = 0.22784E+01
  weight for this iteration     100.00

 Free energy of the ion-electron system (eV)
  ---------------------------------------------------
  alpha Z        PSCENC =        94.24357992
  Ewald energy   TEWEN  =      -795.76658092
  -Hartree energ DENC   =      -271.33601302
  -exchange      EXHF   =         0.00000000
  -V(xc)+E(xc)   XCENC  =        97.50108131
  PAW double counting   =       608.99811708     -597.02363782
  entropy T*S    EENTRO =        -0.00365245
  eigenvalues    EBANDS =      -230.41333005
  atomic energy  EATOM  =       996.28765503
  Solvation  Ediel_sol  =         0.00000000
  ---------------------------------------------------
  free energy    TOTEN  =       -97.51278092 eV

  energy without entropy =      -97.50912847  energy(sigma->0) =      -97.51095470


--------------------------------------------------------------------------------------------------------




--------------------------------------- Iteration      1(   6)  ---------------------------------------


    POTLOK:  cpu time      0.0049: real time      0.0057
    SETDIJ:  cpu time      0.0010: real time      0.0010
     EDDAV:  cpu time      3.8836: real time      3.8838
       DOS:  cpu time      0.0017: real time      0.0019
    CHARGE:  cpu time      0.0327: real time      0.0332
    MIXING:  cpu time      0.0006: real time      0.0006
    --------------------------------------------
      LOOP:  cpu time      3.9246: real time      3.9263

 eigenvalue-minimisations  : 24336
 total energy-change (2. order) : 0.5398128E+01  (-0.3931190E+00)
 number of electron      41.9999999 magnetization 
 augmentation part       -0.1704371 magnetization 

 Broyden mixing:
  rms(total) = 0.69402E+00    rms(broyden)= 0.69401E+00
  rms(prec ) = 0.11733E+01
  weight for this iteration     100.00

 eigenvalues of (default mixing * dielectric matrix)
  average eigenvalue GAMMA=   2.0867
  2.0867

 Free energy of the ion-electron system (eV)
  ---------------------------------------------------
  alpha Z        PSCENC =        94.24357992
  Ewald energy   TEWEN  =      -795.76658092
  -Hartree energ DENC   =      -306.16210034
  -exchange      EXHF   =         0.00000000
  -V(xc)+E(xc)   XCENC  =        99.15413375
  PAW double counting   =      1553.69559346    -1542.33155451
  entropy T*S    EENTRO =        -0.00342624
  eigenvalues    EBANDS =      -191.23195308
  atomic energy  EATOM  =       996.28765503
  Solvation  Ediel_sol  =         0.00000000
  ---------------------------------------------------
  free energy    TOTEN  =       -92.11465292 eV

  energy without entropy =      -92.11122669  energy(sigma->0) =      -92.11293981


--------------------------------------------------------------------------------------------------------




--------------------------------------- Iteration      1(   7)  ---------------------------------------


    POTLOK:  cpu time      0.0048: real time      0.0055
    SETDIJ:  cpu time      0.0010: real time      0.0010
     EDDAV:  cpu time      4.0363: real time      4.0363
       DOS:  cpu time      0.0022: real time      0.0023
    CHARGE:  cpu time      0.0321: real time      0.0322
    MIXING:  cpu time      0.0005: real time      0.0005
    --------------------------------------------
      LOOP:  cpu time      4.0770: real time      4.0779

 eigenvalue-minimisations  : 25176
 total energy-change (2. order) : 0.1649051E+01  (-0.3208600E+00)
 number of electron      41.9999999 magnetization 
 augmentation part       -0.1887251 magnetization 

 Broyden mixing:
  rms(total) = 0.17326E+00    rms(broyden)= 0.17324E+00
  rms(prec ) = 0.25037E+00
  weight for this iteration     100.00

 eigenvalues of (default mixing * dielectric matrix)
  average eigenvalue GAMMA=   1.8929
  1.5229  2.2628

 Free energy of the ion-electron system (eV)
  ---------------------------------------------------
  alpha Z        PSCENC =        94.24357992
  Ewald energy   TEWEN  =      -795.76658092
  -Hartree energ DENC   =      -342.79532055
  -exchange      EXHF   =         0.00000000
  -V(xc)+E(xc)   XCENC  =       101.11953910
  PAW double counting   =      3222.91672771    -3212.10300689
  entropy T*S    EENTRO =        -0.00313705
  eigenvalues    EBANDS =      -154.36505844
  atomic energy  EATOM  =       996.28765503
  Solvation  Ediel_sol  =         0.00000000
  ---------------------------------------------------
  free energy    TOTEN  =       -90.46560209 eV

  energy without entropy =      -90.46246504  energy(sigma->0) =      -90.46403356


--------------------------------------------------------------------------------------------------------




--------------------------------------- Iteration      1(   8)  ---------------------------------------


    POTLOK:  cpu time      0.0045: real time      0.0053
    SETDIJ:  cpu time      0.0010: real time      0.0010
     EDDAV:  cpu time      2.9331: real time      2.9333
       DOS:  cpu time      0.0013: real time      0.0019
    CHARGE:  cpu time      0.0318: real time      0.0318
    MIXING:  cpu time      0.0005: real time      0.0005
    --------------------------------------------
      LOOP:  cpu time      2.9722: real time      2.9737

 eigenvalue-minimisations  : 18912
 total energy-change (2. order) :-0.1216005E-01  (-0.2296852E-01)
 number of electron      41.9999999 magnetization 
 augmentation part       -0.1952481 magnetization 

 Broyden mixing:
  rms(total) = 0.72454E-01    rms(broyden)= 0.72447E-01
  rms(prec ) = 0.10644E+00
  weight for this iteration     100.00

 eigenvalues of (default mixing * dielectric matrix)
  average eigenvalue GAMMA=   1.7945
[...]
     43      13.8362      0.00000
     44      14.2642      0.00000
     45      14.7082      0.00000
     46      14.7723      0.00000
     47      15.0366      0.00000
     48      15.3926      0.00000

 k-point   170 :       0.4500    0.3929    0.4444
  band No.  band energies     occupation 
      1     -12.0484      2.00000
      2     -11.9090      2.00000
      3      -8.5739      2.00000
      4      -8.4614      2.00000
      5      -5.7789      2.00000
      6      -5.6735      2.00000
      7      -4.9256      2.00000
      8      -4.6131      2.00000
      9      -4.4372      2.00000
     10      -4.0018      2.00000
     11      -2.1242      2.00000
     12      -2.0112      2.00000
     13      -2.0083      2.00000
     14      -1.7756      2.00000
     15      -0.2335      2.00000
     16      -0.0236      2.00000
     17       0.5155      2.00000
     18       0.5515      2.00000
     19       0.6420      2.00000
     20       0.8586      2.00000
     21       1.3562      2.00000
     22       1.4645      2.00000
     23       5.9230      0.00000
     24       6.0910      0.00000
     25       6.9364      0.00000
     26       7.3938      0.00000
     27       7.5178      0.00000
     28       7.6182      0.00000
     29       9.0700      0.00000
     30       9.2063      0.00000
     31       9.8793      0.00000
     32      10.1092      0.00000
     33      10.2907      0.00000
     34      10.4876      0.00000
     35      11.2097      0.00000
     36      11.5029      0.00000
     37      11.8469      0.00000
     38      11.8544      0.00000
     39      13.0951      0.00000
     40      13.2177      0.00000
     41      13.3695      0.00000
     42      13.7398      0.00000
     43      14.0036      0.00000
     44      14.1923      0.00000
     45      14.4886      0.00000
     46      14.6292      0.00000
     47      14.8952      0.00000
     48      15.2820      0.00000

 k-point   171 :       0.0500    0.4643    0.4444
  band No.  band energies     occupation 
      1     -12.3681      2.00000
      2     -11.5052      2.00000
      3      -8.4313      2.00000
      4      -7.8795      2.00000
      5      -6.5875      2.00000
      6      -6.2438      2.00000
      7      -5.6132      2.00000
      8      -5.3698      2.00000
      9      -3.2495      2.00000
     10      -2.7712      2.00000
     11      -2.0281      2.00000
     12      -1.5944      2.00000
     13      -1.4937      2.00000
     14      -1.3780      2.00000
     15      -1.3040      2.00000
     16      -0.8761      2.00000
     17      -0.6774      2.00000
     18      -0.4366      2.00000
     19       0.4377      2.00000
     20       1.7454      1.99994
     21       2.1472      0.00000
     22       3.8949      0.00000
     23       4.6294      0.00000
     24       5.7671      0.00000
     25       6.4657      0.00000
     26       7.2718      0.00000
     27       7.3146      0.00000
     28       7.8930      0.00000
     29       9.1096      0.00000
     30       9.4444      0.00000
     31       9.4583      0.00000
     32      10.1154      0.00000
     33      11.0877      0.00000
     34      11.3427      0.00000
     35      11.5951      0.00000
     36      11.7191      0.00000
     37      11.8708      0.00000
     38      12.0171      0.00000
     39      12.3034      0.00000
     40      12.5986      0.00000
     41      12.7583      0.00000
     42      12.8811      0.00000
     43      13.2828      0.00000
     44      13.3879      0.00000
     45      14.1140      0.00000
     46      15.3554      0.00000
     47      15.4087      0.00000
     48      15.5934      0.00000

 k-point   172 :       0.1500    0.4643    0.4444
  band No.  band energies     occupation 
      1     -12.3297      2.00000
      2     -11.5481      2.00000
      3      -8.5045      2.00000
      4      -7.9638      2.00000
      5      -6.3388      2.00000
      6      -6.2055      2.00000
      7      -5.6299      2.00000
      8      -5.2780      2.00000
      9      -3.4574      2.00000
     10      -2.6940      2.00000
     11      -2.2890      2.00000
     12      -1.7538      2.00000
     13      -1.5417      2.00000
     14      -1.4949      2.00000
     15      -1.2347      2.00000
     16      -0.7170      2.00000
     17      -0.4466      2.00000
     18      -0.1559      2.00000
     19       0.4281      2.00000
     20       1.7149      2.00000
     21       2.1000      0.00000
     22       3.2365      0.00000
     23       4.7905      0.00000
     24       6.2925      0.00000
     25       6.3678      0.00000
     26       7.0567      0.00000
     27       7.6199      0.00000
     28       8.1651      0.00000
     29       8.8690      0.00000
     30       9.2086      0.00000
     31       9.4818      0.00000
     32      10.4353      0.00000
     33      10.7430      0.00000
     34      11.3394      0.00000
     35      11.4155      0.00000
     36      11.5240      0.00000
     37      11.8223      0.00000
     38      12.0089      0.00000
     39      12.5004      0.00000
     40      12.6254      0.00000
     41      12.8320      0.00000
     42      13.0701      0.00000
     43      13.5224      0.00000
     44      13.6094      0.00000
     45      14.4202      0.00000
     46      14.8727      0.00000
     47      15.4253      0.00000
     48      15.5564      0.00000

 k-point   173 :       0.2500    0.4643    0.4444
  band No.  band energies     occupation 
      1     -12.2551      2.00000
      2     -11.6310      2.00000
      3      -8.5774      2.00000
      4      -8.1100      2.00000
      5      -6.1335      2.00000
      6      -5.9164      2.00000
      7      -5.6668      2.00000
      8      -5.1076      2.00000
      9      -3.7693      2.00000
     10      -2.8130      2.00000
     11      -2.5100      2.00000
     12      -1.9916      2.00000
     13      -1.7548      2.00000
     14      -1.3332      2.00000
     15      -1.1448      2.00000
     16      -0.4859      2.00000
     17      -0.1282      2.00000
     18       0.1515      2.00000
     19       0.4659      2.00000
     20       1.6636      2.00000
     21       2.0061      0.00080
     22       2.4136      0.00000
     23       5.1030      0.00000
     24       6.2346      0.00000
     25       6.7956      0.00000
     26       6.8661      0.00000
     27       7.9441      0.00000
     28       8.5232      0.00000
     29       8.6432      0.00000
     30       8.9416      0.00000
     31       9.6541      0.00000
     32      10.0798      0.00000
     33      10.7755      0.00000
     34      11.0724      0.00000
     35      11.3242      0.00000
     36      11.4616      0.00000
     37      11.6663      0.00000
     38      12.2756      0.00000
     39      12.4751      0.00000
     40      12.7116      0.00000
     41      13.2253      0.00000
     42      13.4238      0.00000
     43      13.7852      0.00000
     44      14.0883      0.00000
     45      14.0939      0.00000
     46      14.8589      0.00000
     47      15.2861      0.00000
     48      15.4638      0.00000

 k-point   174 :       0.3500    0.4643    0.4444
  band No.  band energies     occupation 
      1     -12.1496      2.00000
      2     -11.7466      2.00000
      3      -8.5968      2.00000
      4      -8.2794      2.00000
      5      -6.0362      2.00000
      6      -5.7323      2.00000
      7      -5.3993      2.00000
      8      -4.8661      2.00000
      9      -4.1113      2.00000
     10      -3.3795      2.00000
     11      -2.3147      2.00000
     12      -2.1436      2.00000
     13      -1.9801      2.00000
     14      -1.4894      2.00000
     15      -0.7354      2.00000
     16      -0.1986      2.00000
     17       0.1693      2.00000
     18       0.3889      2.00000
     19       0.5162      2.00000
     20       1.5917      2.00000
     21       1.6200      2.00000
     22       1.8750      1.27898
     23       5.5143      0.00000
     24       6.1477      0.00000
     25       6.6686      0.00000
     26       7.2196      0.00000
     27       7.7829      0.00000
     28       8.2275      0.00000
     29       8.9932      0.00000
     30       9.1525      0.00000
     31       9.7220      0.00000
     32       9.9576      0.00000
     33      10.5893      0.00000
     34      11.0326      0.00000
     35      11.2063      0.00000
     36      11.4767      0.00000
     37      11.5680      0.00000
     38      11.9522      0.00000
     39      12.8385      0.00000
     40      13.1444      0.00000
     41      13.3687      0.00000
     42      13.7505      0.00000
     43      13.8730      0.00000
     44      14.1578      0.00000
     45      14.4792      0.00000
     46      14.9678      0.00000
     47      15.0947      0.00000
     48      15.3951      0.00000

 k-point   175 :       0.4500    0.4643    0.4444
  band No.  band energies     occupation 
      1     -12.0213      2.00000
      2     -11.8821      2.00000
      3      -8.5469      2.00000
      4      -8.4346      2.00000
      5      -5.9267      2.00000
      6      -5.8205      2.00000
      7      -4.8905      2.00000
      8      -4.5669      2.00000
      9      -4.4118      2.00000
     10      -3.9733      2.00000
     11      -2.1961      2.00000
     12      -2.1345      2.00000
     13      -2.0570      2.00000
     14      -1.7724      2.00000
     15      -0.2172      2.00000
     16      -0.0030      2.00000
     17       0.3920      2.00000
     18       0.4796      2.00000
     19       0.5514      2.00000
     20       0.8771      2.00000
     21       1.6341      2.00000
     22       1.7336      1.99999
     23       5.8606      0.00000
     24       6.0455      0.00000
     25       6.8714      0.00000
     26       7.4078      0.00000
     27       7.4758      0.00000
     28       7.5774      0.00000
     29       9.3982      0.00000
     30       9.5821      0.00000
     31       9.7910      0.00000
     32       9.9690      0.00000
     33      10.4651      0.00000
     34      10.8148      0.00000
     35      11.2372      0.00000
     36      11.5093      0.00000
     37      11.5181      0.00000
     38      11.6133      0.00000
     39      13.0827      0.00000
     40      13.1887      0.00000
     41      13.7202      0.00000
     42      14.0557      0.00000
     43      14.1895      0.00000
     44      14.2910      0.00000
     45      14.5950      0.00000
     46      14.7379      0.00000
     47      14.8861      0.00000
     48      15.0491      0.00000


--------------------------------------------------------------------------------------------------------


 soft charge-density along one line, spin component           1
         0         1         2         3         4         5         6         7         8         9
 total charge-density along one line
 
 pseudopotential strength for first ion, spin component:           1
  6.445   9.813  -0.000  -0.009   0.005  -0.000  -0.014   0.008
  9.813  14.937  -0.000  -0.013   0.007  -0.000  -0.021   0.011
 -0.000  -0.000  -2.174  -0.000   0.000  -3.696  -0.000   0.000
 -0.009  -0.013  -0.000  -2.179  -0.001  -0.000  -3.706  -0.002
  0.005   0.007   0.000  -0.001  -2.178   0.000  -0.002  -3.704
 -0.000  -0.000  -3.696  -0.000   0.000  -6.082  -0.000   0.000
 -0.014  -0.021  -0.000  -3.706  -0.002  -0.000  -6.104  -0.004
  0.008   0.011   0.000  -0.002  -3.704   0.000  -0.004  -6.099
 total augmentation occupancy for first ion, spin component:           1
  3.724  -1.012  -0.000  -0.248   0.423   0.000   0.125  -0.180
 -1.012   0.298   0.000   0.166  -0.201   0.000  -0.059   0.075
  0.000   0.000   2.385   0.000   0.000  -0.589   0.000   0.000
 -0.248   0.166   0.000   3.936   0.343   0.000  -1.124  -0.128
  0.423  -0.201   0.000   0.343   3.757   0.000  -0.128  -1.047
  0.000   0.000  -0.589  -0.000   0.000   0.149   0.000   0.000
  0.125  -0.059   0.000  -1.124  -0.128   0.000   0.330   0.046
 -0.180   0.075   0.000  -0.128  -1.047   0.000   0.046   0.301


------------------------ aborting loop because EDIFF is reached ----------------------------------------


    CHARGE:  cpu time      0.0328: real time      0.0328
    FORLOC:  cpu time      0.0007: real time      0.0007
    FORNL :  cpu time      0.3292: real time      0.3292
    STRESS:  cpu time      1.5668: real time      1.5669
    FORCOR:  cpu time      0.0049: real time      0.0049
    FORHAR:  cpu time      0.0016: real time      0.0016
    MIXING:  cpu time      0.0004: real time      0.0004
    OFIELD:  cpu time      0.0000: real time      0.0000

  FORCE on cell =-STRESS in cart. coord.  units (eV):
  Direction    XX          YY          ZZ          XY          YZ          ZX
  --------------------------------------------------------------------------------------
  Alpha Z    94.24358    94.24358    94.24358
  Ewald     -90.05465  -558.27634  -147.43815    -0.00000    -0.00000     0.00000
  Hartree   186.97712     5.92871   156.14665    -0.00000    -0.00000    -0.00000
  E(xc)    -134.95300  -135.92298  -134.91442     0.00000     0.00000     0.00000
  Local    -494.89712   125.08474  -406.90797     0.00000    -0.00000    -0.00000
  n-local    -9.63049   -11.59346    -9.97516    -0.00618    -0.00515     0.07850
  augment     1.48188     1.52106     1.50906     0.00000     0.00000     0.00000
  Kinetic   446.96796   477.99196   445.61400     0.27682     0.07111    -1.17950
  Fock        0.00000     0.00000     0.00000     0.00000     0.00000     0.00000
  -------------------------------------------------------------------------------------
  Total       0.13529    -1.02274    -1.72241     0.00000     0.00000    -0.00000
  in kB       1.51502   -11.45282   -19.28795     0.00000     0.00000    -0.00000
  external pressure =       -9.74 kB  Pullay stress =        0.00 kB


 VOLUME and BASIS-vectors are now :
 -----------------------------------------------------------------------------
  energy-cutoff  :      320.00
  volume of cell :      143.07
      direct lattice vectors                 reciprocal lattice vectors
     5.697000000  0.000000000  0.000000000     0.175530981  0.000000000  0.000000000
     0.000000000  4.047900000  0.000000000     0.000000000  0.247041676  0.000000000
     0.000000000  0.000000000  6.204200000     0.000000000  0.000000000  0.161181135

  length of vectors
     5.697000000  4.047900000  6.204200000     0.175530981  0.247041676  0.161181135


 FORCES acting on ions
    electron-ion (+dipol)            ewald-force                    non-local-force                 convergence-correction
 -----------------------------------------------------------------------------------------------
   0.497E+02 0.349E-12 -.250E+02   -.515E+02 0.211E-14 0.284E+02   0.181E+01 0.506E-19 -.335E+01   -.470E-04 0.162E-14 0.518E-04
   -.497E+02 -.270E-12 0.250E+02   0.515E+02 0.448E-16 -.284E+02   -.181E+01 0.178E-19 0.335E+01   0.470E-04 0.137E-14 -.518E-04
   -.497E+02 0.844E-12 -.250E+02   0.515E+02 0.587E-14 0.284E+02   -.181E+01 -.417E-19 -.335E+01   0.470E-04 0.190E-14 0.518E-04
   0.497E+02 0.152E-13 0.250E+02   -.515E+02 0.181E-14 -.284E+02   0.181E+01 0.546E-19 0.335E+01   -.470E-04 0.151E-14 -.518E-04
   0.313E+02 0.833E-12 -.527E+02   -.341E+02 0.342E-14 0.571E+02   0.193E+01 -.393E-19 -.409E+01   -.824E-04 0.136E-14 -.987E-04
   -.313E+02 0.333E-12 0.527E+02   0.341E+02 0.354E-14 -.571E+02   -.193E+01 -.362E-19 0.409E+01   0.824E-04 0.135E-14 0.987E-04
   -.313E+02 -.212E-12 -.527E+02   0.341E+02 0.299E-14 0.571E+02   -.193E+01 0.511E-19 -.409E+01   0.824E-04 0.109E-14 -.987E-04
   0.313E+02 0.169E-13 0.527E+02   -.341E+02 0.353E-14 -.571E+02   0.193E+01 0.476E-19 0.409E+01   -.824E-04 0.182E-14 0.987E-04
   -.212E-13 -.558E+02 -.155E+02   -.720E-14 0.613E+02 0.166E+02   -.212E-17 -.537E+01 -.112E+01   0.791E-14 0.421E-04 0.471E-05
   -.344E-13 0.558E+02 0.155E+02   0.108E-13 -.613E+02 -.166E+02   -.381E-18 0.537E+01 0.112E+01   0.855E-14 -.421E-04 -.471E-05
   -.208E-13 0.558E+02 -.155E+02   0.393E-14 -.613E+02 0.166E+02   -.920E-18 0.537E+01 -.112E+01   0.795E-14 -.421E-04 0.471E-05
   -.346E-13 -.558E+02 0.155E+02   0.643E-14 0.613E+02 -.166E+02   0.135E-17 -.537E+01 0.112E+01   0.801E-14 0.421E-04 -.471E-05
   -.142E-13 0.134E-13 -.623E+02   0.123E-13 0.532E-14 0.649E+02   -.379E-18 0.164E-18 -.254E+01   0.544E-14 0.169E-14 0.252E-04
   -.196E-13 -.285E-12 0.623E+02   0.173E-13 0.235E-14 -.649E+02   -.130E-18 0.129E-18 0.254E+01   -.609E-14 0.171E-14 -.252E-04
 -----------------------------------------------------------------------------------------------
   -.512E-12 0.197E-11 0.569E-12   0.152E-13 0.767E-14 -.284E-13   0.219E-15 0.888E-15 0.000E+00   0.424E-13 0.136E-13 -.527E-13
 
 
 POSITION                                       TOTAL-FORCE (eV/Angst)
 -----------------------------------------------------------------------------------
      2.96945      2.02395      3.95803        -0.008152      0.000000      0.047464
      2.72755      2.02395      2.24617         0.008152     -0.000000     -0.047464
      5.57605      2.02395      3.95803         0.008152     -0.000000      0.047464
      0.12095      2.02395      2.24617        -0.008152      0.000000     -0.047464
      3.42333      2.02395      5.58322        -0.834904     -0.000000      0.279073
      2.27367      2.02395      0.62098         0.834904      0.000000     -0.279073
      5.12217      2.02395      5.58322         0.834904      0.000000      0.279073
      0.57483      2.02395      0.62098        -0.834904     -0.000000     -0.279073
      4.27275      3.20476      4.52739         0.000000      0.075590     -0.072467
      1.42425      0.84314      1.67681        -0.000000     -0.075590      0.072467
      4.27275      0.84314      4.52739        -0.000000     -0.075590     -0.072467
      1.42425      3.20476      1.67681        -0.000000      0.075590      0.072467
      1.42425      2.02395      3.24895        -0.000000     -0.000000      0.081505
      4.27275      2.02395      2.95525         0.000000     -0.000000     -0.081505
 -----------------------------------------------------------------------------------
    total drift:                               -0.000000      0.000000      0.000000


--------------------------------------------------------------------------------------------------------



  FREE ENERGIE OF THE ION-ELECTRON SYSTEM (eV)
  ---------------------------------------------------
  free  energy   TOTEN  =       -90.49713659 eV

  energy  without entropy=      -90.49391984  energy(sigma->0) =      -90.49552822
 


--------------------------------------------------------------------------------------------------------


    POTLOK:  cpu time      0.0065: real time      0.0065


--------------------------------------------------------------------------------------------------------


     LOOP+:  cpu time     50.8511: real time     50.8886
    4ORBIT:  cpu time      0.0000: real time      0.0000

 total amount of memory used by VASP MPI-rank0    65250. kBytes
=======================================================================

   base      :      30000. kBytes
   nonl-proj :      21659. kBytes
   fftplans  :        495. kBytes
   grid      :       1764. kBytes
   one-center:         43. kBytes
   wavefun   :      11289. kBytes
 
  
  
 General timing and accounting informations for this job:
 ========================================================
  
                  Total CPU time used (sec):       53.682
                            User time (sec):       51.963
                          System time (sec):        1.719
                         Elapsed time (sec):       54.764
  
                   Maximum memory used (kb):      382984.
                   Average memory used (kb):          N/A
  
                          Minor page faults:        95909
                          Major page faults:         1928
                 Voluntary context switches:         4507
