  14  14   0   0
  0.1021040E+02  0.5695291E-09  0.4046686E-09  0.6202339E-09  0.5000000E-15
  1.000000000000000E-004
  CAR 
 Convergence                             
     17.99042554    -14.18856786  301      1.88932790      1.00000000
    -14.189  0.0000E+00  0.0000E+00
    -14.081  0.0000E+00  0.0000E+00
    -13.974  0.0000E+00  0.0000E+00
    -13.867  0.0000E+00  0.0000E+00
    -13.760  0.0000E+00  0.0000E+00
    -13.652  0.0000E+00  0.0000E+00
    -13.545  0.0000E+00  0.0000E+00
    -13.438  0.0000E+00  0.0000E+00
    -13.330  0.0000E+00  0.0000E+00
    -13.223  0.0000E+00  0.0000E+00
    -13.116  0.0000E+00  0.0000E+00
    -13.009  0.4272E-16  0.4582E-17
    -12.901  0.2922E-07  0.3134E-08
    -12.794  0.3803E-02  0.4079E-03
    -12.687  0.5082E+00  0.5492E-01
    -12.580  0.2389E+01  0.3112E+00
    -12.472  0.3562E+01  0.6933E+00
    -12.365  0.4370E+01  0.1162E+01
    -12.258  0.3539E+01  0.1542E+01
    -12.151  0.2735E+01  0.1835E+01
    -12.043  0.2750E+01  0.2130E+01
    -11.936  0.2506E+01  0.2399E+01
    -11.829  0.2771E+01  0.2696E+01
    -11.722  0.3431E+01  0.3064E+01
    -11.614  0.3535E+01  0.3443E+01
    -11.507  0.3109E+01  0.3777E+01
    -11.400  0.1660E+01  0.3955E+01
    -11.292  0.4157E+00  0.3999E+01
    -11.185  0.6904E-02  0.4000E+01
    -11.078  0.1557E-06  0.4000E+01
    -10.971  0.7623E-15  0.4000E+01
    -10.863  0.0000E+00  0.4000E+01
    -10.756  0.0000E+00  0.4000E+01
    -10.649  0.0000E+00  0.4000E+01
    -10.542  0.0000E+00  0.4000E+01
    -10.434  0.0000E+00  0.4000E+01
    -10.327  0.0000E+00  0.4000E+01
    -10.220  0.0000E+00  0.4000E+01
    -10.113  0.0000E+00  0.4000E+01
    -10.005  0.0000E+00  0.4000E+01
     -9.898  0.0000E+00  0.4000E+01
     -9.791  0.0000E+00  0.4000E+01
     -9.684  0.0000E+00  0.4000E+01
     -9.576  0.0000E+00  0.4000E+01
     -9.469  0.0000E+00  0.4000E+01
     -9.362  0.0000E+00  0.4000E+01
     -9.254  0.0000E+00  0.4000E+01
     -9.147  0.0000E+00  0.4000E+01
     -9.040  0.9085E-09  0.4000E+01
     -8.933  0.6146E-03  0.4000E+01
     -8.825  0.2750E+00  0.4030E+01
     -8.718  0.2086E+01  0.4253E+01
     -8.611  0.5322E+01  0.4824E+01
     -8.504  0.6982E+01  0.5573E+01
     -8.396  0.6300E+01  0.6249E+01
     -8.289  0.5324E+01  0.6820E+01
     -8.182  0.4832E+01  0.7338E+01
     -8.075  0.3874E+01  0.7754E+01
     -7.967  0.1666E+01  0.7933E+01
     -7.860  0.5765E+00  0.7994E+01
     -7.753  0.5165E-01  0.8000E+01
     -7.646  0.2355E-04  0.8000E+01
     -7.538  0.2577E-11  0.8000E+01
     -7.431  0.0000E+00  0.8000E+01
     -7.324  0.0000E+00  0.8000E+01
     -7.216  0.0000E+00  0.8000E+01
     -7.109  0.5029E-09  0.8000E+01
     -7.002  0.4063E-03  0.8000E+01
     -6.895  0.1137E+00  0.8012E+01
     -6.787  0.2573E+00  0.8040E+01
     -6.680  0.4267E+00  0.8086E+01
     -6.573  0.7661E+00  0.8168E+01
     -6.466  0.8526E+00  0.8259E+01
     -6.358  0.1448E+01  0.8415E+01
     -6.251  0.1970E+01  0.8626E+01
     -6.144  0.3058E+01  0.8954E+01
     -6.037  0.3780E+01  0.9359E+01
     -5.929  0.4112E+01  0.9800E+01
     -5.822  0.4044E+01  0.1023E+02
     -5.715  0.3856E+01  0.1065E+02
     -5.608  0.4072E+01  0.1108E+02
     -5.500  0.4221E+01  0.1154E+02
     -5.393  0.4540E+01  0.1202E+02
     -5.286  0.4593E+01  0.1252E+02
     -5.178  0.4489E+01  0.1300E+02
     -5.071  0.3865E+01  0.1341E+02
     -4.964  0.3229E+01  0.1376E+02
     -4.857  0.2947E+01  0.1408E+02
     -4.749  0.2344E+01  0.1433E+02
     -4.642  0.2896E+01  0.1464E+02
     -4.535  0.3368E+01  0.1500E+02
     -4.428  0.3478E+01  0.1537E+02
     -4.320  0.3324E+01  0.1573E+02
     -4.213  0.2952E+01  0.1605E+02
     -4.106  0.2906E+01  0.1636E+02
     -3.999  0.2949E+01  0.1667E+02
     -3.891  0.2855E+01  0.1698E+02
     -3.784  0.3123E+01  0.1731E+02
     -3.677  0.2869E+01  0.1762E+02
     -3.570  0.2705E+01  0.1791E+02
     -3.462  0.3062E+01  0.1824E+02
     -3.355  0.2633E+01  0.1852E+02
     -3.248  0.2869E+01  0.1883E+02
     -3.140  0.2732E+01  0.1912E+02
     -3.033  0.2747E+01  0.1942E+02
     -2.926  0.3036E+01  0.1974E+02
     -2.819  0.2972E+01  0.2006E+02
     -2.711  0.2427E+01  0.2032E+02
     -2.604  0.2662E+01  0.2061E+02
     -2.497  0.3023E+01  0.2093E+02
     -2.390  0.2981E+01  0.2125E+02
     -2.282  0.3197E+01  0.2160E+02
     -2.175  0.4013E+01  0.2203E+02
     -2.068  0.3655E+01  0.2242E+02
     -1.961  0.3287E+01  0.2277E+02
     -1.853  0.5162E+01  0.2332E+02
     -1.746  0.5592E+01  0.2392E+02
     -1.639  0.5593E+01  0.2452E+02
     -1.531  0.6185E+01  0.2519E+02
     -1.424  0.6101E+01  0.2584E+02
     -1.317  0.5555E+01  0.2644E+02
     -1.210  0.4685E+01  0.2694E+02
     -1.102  0.6496E+01  0.2764E+02
     -0.995  0.3928E+01  0.2806E+02
     -0.888  0.2268E+01  0.2830E+02
     -0.781  0.2697E+01  0.2859E+02
     -0.673  0.2880E+01  0.2890E+02
     -0.566  0.4549E+01  0.2939E+02
     -0.459  0.6872E+01  0.3012E+02
     -0.352  0.5654E+01  0.3073E+02
     -0.244  0.6720E+01  0.3145E+02
     -0.137  0.6357E+01  0.3213E+02
     -0.030  0.6749E+01  0.3286E+02
      0.077  0.6734E+01  0.3358E+02
      0.185  0.6315E+01  0.3426E+02
      0.292  0.8797E+01  0.3520E+02
      0.399  0.7954E+01  0.3605E+02
      0.507  0.8702E+01  0.3699E+02
      0.614  0.5204E+01  0.3755E+02
      0.721  0.2915E+01  0.3786E+02
      0.828  0.3309E+01  0.3821E+02
      0.936  0.3586E+01  0.3860E+02
      1.043  0.3553E+01  0.3898E+02
      1.150  0.2788E+01  0.3928E+02
      1.257  0.3401E+01  0.3964E+02
      1.365  0.4501E+01  0.4013E+02
      1.472  0.3768E+01  0.4053E+02
      1.579  0.3732E+01  0.4093E+02
      1.686  0.4572E+01  0.4142E+02
      1.794  0.3197E+01  0.4176E+02
      1.901  0.2482E+01  0.4203E+02
      2.008  0.2654E+01  0.4231E+02
      2.115  0.2093E+01  0.4254E+02
      2.223  0.2653E+01  0.4282E+02
      2.330  0.2560E+01  0.4310E+02
      2.437  0.1923E+01  0.4330E+02
      2.545  0.8361E+00  0.4339E+02
      2.652  0.3783E+00  0.4343E+02
      2.759  0.5713E+00  0.4350E+02
      2.866  0.4192E+00  0.4354E+02
      2.974  0.3057E+00  0.4357E+02
      3.081  0.7663E+00  0.4366E+02
      3.188  0.1011E+01  0.4376E+02
      3.295  0.5269E+00  0.4382E+02
      3.403  0.1200E-01  0.4382E+02
      3.510  0.1350E+00  0.4384E+02
      3.617  0.3970E+00  0.4388E+02
      3.724  0.3268E+00  0.4391E+02
      3.832  0.3751E+00  0.4395E+02
      3.939  0.3981E+00  0.4400E+02
      4.046  0.2488E-01  0.4400E+02
      4.153  0.3769E-04  0.4400E+02
      4.261  0.3503E-01  0.4400E+02
      4.368  0.1793E+00  0.4402E+02
      4.475  0.4053E+00  0.4407E+02
      4.583  0.4766E+00  0.4412E+02
      4.690  0.6381E+00  0.4419E+02
      4.797  0.8923E+00  0.4428E+02
      4.904  0.8433E+00  0.4437E+02
      5.012  0.8564E+00  0.4446E+02
      5.119  0.1281E+01  0.4460E+02
      5.226  0.1147E+01  0.4472E+02
      5.333  0.1642E+01  0.4490E+02
      5.441  0.2202E+01  0.4514E+02
      5.548  0.2484E+01  0.4540E+02
      5.655  0.2787E+01  0.4570E+02
      5.762  0.3385E+01  0.4607E+02
      5.870  0.3210E+01  0.4641E+02
      5.977  0.4330E+01  0.4687E+02
      6.084  0.4744E+01  0.4738E+02
      6.191  0.4038E+01  0.4782E+02
      6.299  0.4628E+01  0.4831E+02
      6.406  0.4121E+01  0.4875E+02
      6.513  0.4034E+01  0.4919E+02
      6.621  0.4466E+01  0.4967E+02
      6.728  0.3222E+01  0.5001E+02
      6.835  0.4007E+01  0.5044E+02
      6.942  0.4614E+01  0.5094E+02
      7.050  0.4542E+01  0.5142E+02
      7.157  0.4342E+01  0.5189E+02
      7.264  0.5606E+01  0.5249E+02
      7.371  0.4904E+01  0.5302E+02
      7.479  0.4446E+01  0.5349E+02
      7.586  0.4180E+01  0.5394E+02
      7.693  0.3560E+01  0.5432E+02
      7.800  0.3130E+01  0.5466E+02
      7.908  0.3003E+01  0.5498E+02
      8.015  0.2983E+01  0.5530E+02
      8.122  0.4170E+01  0.5575E+02
      8.229  0.3879E+01  0.5617E+02
      8.337  0.3676E+01  0.5656E+02
      8.444  0.3988E+01  0.5699E+02
      8.551  0.4205E+01  0.5744E+02
      8.659  0.4450E+01  0.5792E+02
      8.766  0.4206E+01  0.5837E+02
      8.873  0.5246E+01  0.5893E+02
      8.980  0.4974E+01  0.5946E+02
      9.088  0.5294E+01  0.6003E+02
      9.195  0.5241E+01  0.6059E+02
      9.302  0.4958E+01  0.6112E+02
      9.409  0.4696E+01  0.6163E+02
      9.517  0.4361E+01  0.6210E+02
      9.624  0.5108E+01  0.6264E+02
      9.731  0.5024E+01  0.6318E+02
      9.838  0.5305E+01  0.6375E+02
      9.946  0.4474E+01  0.6423E+02
     10.053  0.3624E+01  0.6462E+02
     10.160  0.5175E+01  0.6518E+02
     10.267  0.4712E+01  0.6568E+02
     10.375  0.4107E+01  0.6612E+02
     10.482  0.5438E+01  0.6671E+02
     10.589  0.5801E+01  0.6733E+02
     10.697  0.4061E+01  0.6776E+02
     10.804  0.3878E+01  0.6818E+02
     10.911  0.3227E+01  0.6853E+02
     11.018  0.4665E+01  0.6903E+02
     11.126  0.5500E+01  0.6962E+02
     11.233  0.6169E+01  0.7028E+02
     11.340  0.5988E+01  0.7092E+02
     11.447  0.5305E+01  0.7149E+02
     11.555  0.4275E+01  0.7195E+02
     11.662  0.4473E+01  0.7243E+02
     11.769  0.4922E+01  0.7295E+02
     11.876  0.4803E+01  0.7347E+02
     11.984  0.6042E+01  0.7412E+02
     12.091  0.5950E+01  0.7476E+02
     12.198  0.5970E+01  0.7540E+02
     12.305  0.5631E+01  0.7600E+02
     12.413  0.5013E+01  0.7654E+02
     12.520  0.5678E+01  0.7715E+02
     12.627  0.5995E+01  0.7779E+02
     12.735  0.6038E+01  0.7844E+02
     12.842  0.5873E+01  0.7907E+02
     12.949  0.5857E+01  0.7970E+02
     13.056  0.5589E+01  0.8030E+02
     13.164  0.6350E+01  0.8098E+02
     13.271  0.6251E+01  0.8165E+02
     13.378  0.5372E+01  0.8222E+02
     13.485  0.6136E+01  0.8288E+02
     13.593  0.5320E+01  0.8345E+02
     13.700  0.4805E+01  0.8397E+02
     13.807  0.6119E+01  0.8462E+02
     13.914  0.5522E+01  0.8522E+02
     14.022  0.5340E+01  0.8579E+02
     14.129  0.5474E+01  0.8638E+02
     14.236  0.4687E+01  0.8688E+02
     14.343  0.4894E+01  0.8740E+02
     14.451  0.5031E+01  0.8794E+02
     14.558  0.4966E+01  0.8848E+02
     14.665  0.5273E+01  0.8904E+02
     14.773  0.5158E+01  0.8960E+02
     14.880  0.4090E+01  0.9003E+02
     14.987  0.5098E+01  0.9058E+02
     15.094  0.6196E+01  0.9125E+02
     15.202  0.5625E+01  0.9185E+02
     15.309  0.5663E+01  0.9246E+02
     15.416  0.6035E+01  0.9310E+02
     15.523  0.5726E+01  0.9372E+02
     15.631  0.5938E+01  0.9436E+02
     15.738  0.4583E+01  0.9485E+02
     15.845  0.2459E+01  0.9511E+02
     15.952  0.2705E+01  0.9540E+02
     16.060  0.1863E+01  0.9560E+02
     16.167  0.1147E+01  0.9572E+02
     16.274  0.8834E+00  0.9582E+02
     16.381  0.7037E+00  0.9589E+02
     16.489  0.8140E+00  0.9598E+02
     16.596  0.1742E+00  0.9600E+02
     16.703  0.1675E-02  0.9600E+02
     16.811  0.2041E-07  0.9600E+02
     16.918  0.3943E-16  0.9600E+02
     17.025  0.0000E+00  0.9600E+02
     17.132  0.0000E+00  0.9600E+02
     17.240  0.0000E+00  0.9600E+02
     17.347  0.0000E+00  0.9600E+02
     17.454  0.0000E+00  0.9600E+02
     17.561  0.0000E+00  0.9600E+02
     17.669  0.0000E+00  0.9600E+02
     17.776  0.0000E+00  0.9600E+02
     17.883  0.0000E+00  0.9600E+02
     17.990  0.0000E+00  0.9600E+02
