   14   14    1    1
  0.1021040E+02  0.5695291E-09  0.4046686E-09  0.6202339E-09  0.5000000E-15
  1.000000000000000E-004
  CAR 
 Convergence                             
     42    175     48
 
  0.5000000E-01  0.3571429E-01  0.0000000E+00  0.3174603E-02
      1        -12.725886   1.000000
      2        -11.583847   1.000000
      3         -8.656600   1.000000
      4         -8.419748   1.000000
      5         -6.061099   1.000000
      6         -5.127294   1.000000
      7         -4.662722   1.000000
      8         -4.273184   1.000000
      9         -4.030470   1.000000
     10         -3.540934   1.000000
     11         -2.589490   1.000000
     12         -2.320323   1.000000
     13         -1.829062   1.000000
     14         -1.091848   1.000000
     15         -0.066059   1.000000
     16         -0.035949   1.000000
     17          0.161131   1.000000
     18          0.183052   1.000000
     19          0.570622   1.000000
     20          2.023861   0.000071
     21          2.087068   0.000000
     22          2.222987   0.000000
     23          5.464974   0.000000
     24          5.756280   0.000000
     25          5.845865   0.000000
     26          5.966352   0.000000
     27          6.822527   0.000000
     28          7.556527   0.000000
     29          7.886301   0.000000
     30          8.545798   0.000000
     31          8.814391   0.000000
     32          8.960495   0.000000
     33          9.065743   0.000000
     34         10.131902   0.000000
     35         11.192001   0.000000
     36         11.345959   0.000000
     37         11.676682   0.000000
     38         11.792818   0.000000
     39         11.950777   0.000000
     40         12.412400   0.000000
     41         12.880674   0.000000
     42         13.464820   0.000000
     43         13.492046   0.000000
     44         15.396840   0.000000
     45         15.585010   0.000000
     46         16.076512   0.000000
     47         16.346373   0.000000
     48         16.370081   0.000000
 
  0.1500000E+00  0.3571429E-01  0.0000000E+00  0.3174603E-02
      1        -12.682130   1.000000
      2        -11.657626   1.000000
      3         -8.635534   1.000000
      4         -8.408247   1.000000
      5         -5.992832   1.000000
      6         -5.468768   1.000000
      7         -4.785554   1.000000
      8         -4.007296   1.000000
      9         -3.789550   1.000000
     10         -3.203033   1.000000
     11         -2.659814   1.000000
     12         -2.300170   1.000000
     13         -1.907944   1.000000
     14         -1.398891   1.000000
     15         -0.025680   1.000000
     16         -0.013652   1.000000
     17          0.098246   1.000000
     18          0.203089   1.000000
     19          0.475558   1.000000
     20          1.937597   0.086087
     21          2.009091   0.000353
     22          2.101678   0.000000
     23          5.553635   0.000000
     24          5.765356   0.000000
     25          5.872948   0.000000
     26          6.312335   0.000000
     27          6.736893   0.000000
     28          7.194464   0.000000
     29          8.096942   0.000000
     30          8.682135   0.000000
     31          9.072262   0.000000
     32          9.143227   0.000000
     33          9.214840   0.000000
     34         10.245860   0.000000
     35         10.953230   0.000000
     36         11.141902   0.000000
     37         11.265155   0.000000
     38         11.709751   0.000000
     39         12.168094   0.000000
     40         12.502166   0.000000
     41         13.133780   0.000000
     42         13.140118   0.000000
     43         14.024161   0.000000
     44         14.884553   0.000000
     45         15.763818   0.000000
     46         15.842014   0.000000
     47         16.241021   0.000000
     48         16.527744   0.000000
 
  0.2500000E+00  0.3571429E-01  0.0000000E+00  0.3174603E-02
      1        -12.596483   1.000000
      2        -11.790570   1.000000
      3         -8.591979   1.000000
      4         -8.393532   1.000000
      5         -5.971289   1.000000
      6         -5.795590   1.000000
      7         -4.739752   1.000000
      8         -3.879621   1.000000
      9         -3.278422   1.000000
     10         -2.828851   1.000000
     11         -2.710329   1.000000
     12         -2.259613   1.000000
     13         -2.018874   1.000000
     14         -1.903338   1.000000
     15         -0.213876   1.000000
     16          0.018350   1.000000
     17          0.148434   1.000000
     18          0.161112   1.000000
     19          0.445311   1.000000
     20          1.789978   0.997523
     21          1.871745   0.690518
     22          1.876262   0.644147
     23          5.674394   0.000000
     24          5.721919   0.000000
     25          6.182086   0.000000
     26          6.610697   0.000000
     27          6.771203   0.000000
     28          6.939761   0.000000
     29          8.248323   0.000000
     30          8.830465   0.000000
     31          9.012356   0.000000
     32          9.587236   0.000000
     33          9.658586   0.000000
     34         10.291434   0.000000
     35         10.497324   0.000000
     36         10.637413   0.000000
     37         11.386002   0.000000
     38         11.851541   0.000000
     39         12.403120   0.000000
     40         12.578585   0.000000
     41         12.803288   0.000000
     42         12.931409   0.000000
     43         14.650196   0.000000
     44         14.932330   0.000000
     45         15.237927   0.000000
     46         15.997293   0.000000
     47         16.015935   0.000000
     48         16.306151   0.000000
 
  0.3500000E+00  0.3571429E-01  0.0000000E+00  0.3174603E-02
      1        -12.472946   1.000000
      2        -11.959930   1.000000
      3         -8.530171   1.000000
      4         -8.390356   1.000000
      5         -6.052248   1.000000
      6         -6.028733   1.000000
      7         -4.412133   1.000000
      8         -3.710438   1.000000
      9         -3.023168   1.000000
     10         -2.893623   1.000000
     11         -2.440598   1.000000
     12         -2.248692   1.000000
     13         -2.140945   1.000000
     14         -2.120249   1.000000
     15         -0.512972   1.000000
     16         -0.239931   1.000000
     17          0.176797   1.000000
     18          0.252391   1.000000
     19          0.618569   1.000000
     20          1.535916   1.000000
     21          1.666990   1.000000
     22          1.727829   0.999998
     23          5.706503   0.000000
     24          5.759793   0.000000
     25          6.509141   0.000000
     26          6.680504   0.000000
     27          6.706484   0.000000
     28          7.421619   0.000000
     29          8.373006   0.000000
     30          8.698563   0.000000
     31          8.820460   0.000000
     32          9.545187   0.000000
     33         10.067821   0.000000
     34         10.128975   0.000000
     35         10.410113   0.000000
     36         11.162225   0.000000
     37         11.414731   0.000000
     38         11.958603   0.000000
     39         12.215713   0.000000
     40         12.287998   0.000000
     41         12.531828   0.000000
     42         13.268164   0.000000
     43         14.724823   0.000000
     44         14.989839   0.000000
     45         15.278690   0.000000
     46         15.388043   0.000000
     47         15.587138   0.000000
     48         16.391492   0.000000
 
  0.4500000E+00  0.3571429E-01  0.0000000E+00  0.3174603E-02
      1        -12.318183   1.000000
      2        -12.142316   1.000000
      3         -8.464033   1.000000
      4         -8.413007   1.000000
      5         -6.142295   1.000000
      6         -6.137734   1.000000
      7         -3.896530   1.000000
      8         -3.500948   1.000000
      9         -3.296915   1.000000
     10         -3.262564   1.000000
     11         -2.358526   1.000000
     12         -2.229532   1.000000
     13         -1.956825   1.000000
     14         -1.904301   1.000000
     15         -0.733478   1.000000
     16         -0.598149   1.000000
     17          0.260130   1.000000
     18          0.293817   1.000000
     19          0.879423   1.000000
     20          1.196953   1.000000
     21          1.586360   1.000000
     22          1.613865   1.000000
     23          5.734283   0.000000
     24          5.771390   0.000000
     25          6.487446   0.000000
     26          6.551304   0.000000
     27          7.376165   0.000000
     28          8.083115   0.000000
     29          8.104336   0.000000
     30          8.491063   0.000000
     31          8.630097   0.000000
     32          8.799345   0.000000
     33         10.511984   0.000000
     34         10.528872   0.000000
     35         10.773069   0.000000
     36         11.231312   0.000000
     37         11.415916   0.000000
     38         11.613139   0.000000
     39         11.947034   0.000000
     40         12.494534   0.000000
     41         12.727315   0.000000
     42         13.263959   0.000000
     43         14.602193   0.000000
     44         14.748812   0.000000
     45         14.881754   0.000000
     46         14.940317   0.000000
     47         16.117245   0.000000
     48         16.461581   0.000000
 
  0.5000000E-01  0.1071429E+00  0.0000000E+00  0.3174603E-02
      1        -12.701852   1.000000
      2        -11.562282   1.000000
      3         -8.637784   1.000000
      4         -8.396575   1.000000
      5         -6.034283   1.000000
      6         -5.093540   1.000000
      7         -4.640624   1.000000
      8         -4.571277   1.000000
      9         -4.174487   1.000000
     10         -3.518029   1.000000
     11         -3.283029   1.000000
     12         -1.789468   1.000000
     13         -1.087260   1.000000
     14         -1.029930   1.000000
     15         -0.300031   1.000000
     16         -0.272027   1.000000
     17          0.174626   1.000000
     18          0.253328   1.000000
     19          0.649070   1.000000
     20          1.755857   0.999920
     21          1.835948   0.934454
     22          2.275249   0.000000
     23          5.582957   0.000000
     24          5.715264   0.000000
     25          5.748542   0.000000
     26          6.015098   0.000000
     27          7.108905   0.000000
     28          7.842232   0.000000
     29          8.086682   0.000000
     30          8.196824   0.000000
     31          8.818435   0.000000
     32          9.111968   0.000000
     33          9.162406   0.000000
     34         10.584808   0.000000
     35         11.277131   0.000000
     36         11.407640   0.000000
     37         11.610475   0.000000
     38         11.895736   0.000000
     39         12.061413   0.000000
     40         12.693073   0.000000
     41         12.880628   0.000000
     42         13.200998   0.000000
     43         13.207617   0.000000
     44         15.345465   0.000000
     45         15.395761   0.000000
     46         15.871949   0.000000
     47         15.884454   0.000000
     48         16.234899   0.000000
 
  0.1500000E+00  0.1071429E+00  0.0000000E+00  0.3174603E-02
      1        -12.658191   1.000000
      2        -11.635910   1.000000
      3         -8.616575   1.000000
      4         -8.385454   1.000000
      5         -5.964228   1.000000
      6         -5.438670   1.000000
      7         -4.765484   1.000000
      8         -4.488132   1.000000
      9         -3.750009   1.000000
     10         -3.363945   1.000000
     11         -3.164859   1.000000
     12         -1.767722   1.000000
     13         -1.393477   1.000000
     14         -1.149505   1.000000
     15         -0.260985   1.000000
     16         -0.190795   1.000000
     17          0.142308   1.000000
     18          0.224490   1.000000
     19          0.546372   1.000000
     20          1.675273   1.000000
     21          1.759436   0.999881
     22          2.144298   0.000000
     23          5.658743   0.000000
     24          5.813758   0.000000
     25          5.943204   0.000000
     26          6.119038   0.000000
     27          7.025337   0.000000
     28          7.516922   0.000000
     29          8.232526   0.000000
     30          8.368087   0.000000
     31          9.143454   0.000000
     32          9.172255   0.000000
     33          9.427294   0.000000
     34         10.510660   0.000000
     35         10.884201   0.000000
     36         11.094361   0.000000
     37         11.462285   0.000000
     38         11.882624   0.000000
     39         12.281207   0.000000
     40         12.748966   0.000000
     41         12.878430   0.000000
     42         13.164227   0.000000
     43         13.741091   0.000000
     44         14.969822   0.000000
     45         15.412496   0.000000
     46         15.763090   0.000000
     47         15.810421   0.000000
     48         16.415042   0.000000
 
  0.2500000E+00  0.1071429E+00  0.0000000E+00  0.3174603E-02
      1        -12.572742   1.000000
      2        -11.768587   1.000000
      3         -8.572813   1.000000
      4         -8.371445   1.000000
      5         -5.939918   1.000000
      6         -5.765160   1.000000
      7         -4.723079   1.000000
      8         -4.379341   1.000000
      9         -3.486123   1.000000
     10         -3.223839   1.000000
     11         -2.698085   1.000000
     12         -1.898766   1.000000
     13         -1.723342   1.000000
     14         -1.313060   1.000000
     15         -0.216274   1.000000
     16         -0.213594   1.000000
     17          0.056746   1.000000
     18          0.211690   1.000000
     19          0.469920   1.000000
     20          1.540176   1.000000
     21          1.629256   1.000000
     22          1.895836   0.426978
     23          5.863564   0.000000
     24          5.941289   0.000000
     25          6.018896   0.000000
     26          6.568231   0.000000
     27          6.904439   0.000000
     28          7.288838   0.000000
     29          8.438622   0.000000
     30          8.501516   0.000000
     31          9.112975   0.000000
     32          9.624854   0.000000
     33          9.884536   0.000000
     34         10.134996   0.000000
     35         10.364196   0.000000
     36         10.835090   0.000000
     37         11.528593   0.000000
     38         12.116941   0.000000
     39         12.320356   0.000000
     40         12.565273   0.000000
     41         12.971020   0.000000
     42         13.033694   0.000000
     43         14.318322   0.000000
     44         15.100800   0.000000
     45         15.175352   0.000000
     46         15.659588   0.000000
     47         15.722159   0.000000
     48         16.435139   0.000000
 
  0.3500000E+00  0.1071429E+00  0.0000000E+00  0.3174603E-02
      1        -12.449477   1.000000
      2        -11.937578   1.000000
      3         -8.510758   1.000000
      4         -8.369160   1.000000
      5         -6.019664   1.000000
      6         -5.997405   1.000000
      7         -4.397599   1.000000
      8         -4.231967   1.000000
      9         -3.658042   1.000000
     10         -2.843769   1.000000
     11         -2.358813   1.000000
     12         -2.214621   1.000000
     13         -1.658953   1.000000
     14         -1.476562   1.000000
     15         -0.474310   1.000000
     16         -0.303368   1.000000
     17          0.088931   1.000000
     18          0.118628   1.000000
     19          0.629279   1.000000
     20          1.400534   1.000000
     21          1.483719   1.000000
     22          1.571539   1.000000
     23          5.881734   0.000000
     24          6.014984   0.000000
     25          6.524285   0.000000
     26          6.814605   0.000000
     27          6.887349   0.000000
     28          7.380044   0.000000
     29          8.426773   0.000000
     30          8.609665   0.000000
     31          8.950541   0.000000
     32          9.380317   0.000000
     33         10.083224   0.000000
     34         10.110251   0.000000
     35         10.452057   0.000000
     36         11.239580   0.000000
     37         11.374602   0.000000
     38         11.853081   0.000000
     39         12.306581   0.000000
     40         12.556113   0.000000
     41         12.732125   0.000000
     42         13.470958   0.000000
     43         14.778714   0.000000
     44         14.786026   0.000000
     45         15.168093   0.000000
     46         15.320753   0.000000
     47         15.666476   0.000000
     48         16.404365   0.000000
 
  0.4500000E+00  0.1071429E+00  0.0000000E+00  0.3174603E-02
      1        -12.295054   1.000000
      2        -12.119572   1.000000
      3         -8.444277   1.000000
      4         -8.392660   1.000000
      5         -6.110146   1.000000
      6         -6.105130   1.000000
      7         -4.052622   1.000000
      8         -3.889275   1.000000
      9         -3.848094   1.000000
     10         -3.284047   1.000000
     11         -2.104926   1.000000
     12         -1.910646   1.000000
     13         -1.590803   1.000000
     14         -1.588516   1.000000
     15         -0.695125   1.000000
     16         -0.594421   1.000000
     17          0.121651   1.000000
     18          0.152903   1.000000
     19          0.888833   1.000000
     20          1.203314   1.000000
     21          1.346899   1.000000
     22          1.371113   1.000000
     23          5.932658   0.000000
     24          5.998119   0.000000
     25          6.803342   0.000000
     26          6.853753   0.000000
     27          7.192437   0.000000
     28          7.905618   0.000000
     29          7.951242   0.000000
     30          8.634437   0.000000
     31          8.702572   0.000000
     32          8.815644   0.000000
     33         10.331396   0.000000
     34         10.579517   0.000000
     35         10.815980   0.000000
     36         10.921456   0.000000
     37         11.563086   0.000000
     38         11.672499   0.000000
     39         12.026494   0.000000
     40         12.664172   0.000000
     41         13.036318   0.000000
     42         13.495727   0.000000
     43         14.561626   0.000000
     44         14.746122   0.000000
     45         14.842679   0.000000
     46         15.060098   0.000000
     47         16.141338   0.000000
     48         16.435718   0.000000
 
  0.5000000E-01  0.1785714E+00  0.0000000E+00  0.3174603E-02
      1        -12.657447   1.000000
      2        -11.522510   1.000000
      3         -8.603330   1.000000
      4         -8.353821   1.000000
      5         -5.984705   1.000000
      6         -5.128293   1.000000
      7         -5.002494   1.000000
      8         -4.598738   1.000000
      9         -4.158414   1.000000
     10         -3.905403   1.000000
     11         -3.464720   1.000000
     12         -1.200591   1.000000
     13         -1.077908   1.000000
     14         -0.644475   1.000000
     15         -0.538064   1.000000
     16         -0.171026   1.000000
     17          0.195849   1.000000
     18          0.306382   1.000000
     19          0.727619   1.000000
     20          1.372645   1.000000
     21          1.436478   1.000000
     22          2.313438   0.000000
     23          5.293115   0.000000
     24          5.459098   0.000000
     25          6.130856   0.000000
     26          6.203866   0.000000
     27          7.545089   0.000000
     28          7.633838   0.000000
     29          8.325299   0.000000
     30          8.736804   0.000000
     31          8.892683   0.000000
     32          9.254246   0.000000
     33          9.382404   0.000000
     34         10.891250   0.000000
     35         11.328450   0.000000
     36         11.582934   0.000000
     37         11.709542   0.000000
     38         12.096625   0.000000
     39         12.277683   0.000000
     40         12.756626   0.000000
     41         12.770270   0.000000
     42         13.018622   0.000000
     43         13.233943   0.000000
     44         14.690445   0.000000
     45         15.174298   0.000000
     46         15.357322   0.000000
     47         15.441996   0.000000
     48         15.975980   0.000000
 
  0.1500000E+00  0.1785714E+00  0.0000000E+00  0.3174603E-02
      1        -12.613972   1.000000
      2        -11.595857   1.000000
      3         -8.581820   1.000000
      4         -8.343403   1.000000
      5         -5.911230   1.000000
      6         -5.390615   1.000000
      7         -5.029204   1.000000
      8         -4.727692   1.000000
      9         -3.971684   1.000000
     10         -3.707784   1.000000
     11         -3.125422   1.000000
     12         -1.385227   1.000000
     13         -1.174103   1.000000
     14         -0.751481   1.000000
     15         -0.500025   1.000000
     16         -0.090105   1.000000
     17          0.176778   1.000000
     18          0.249676   1.000000
     19          0.615190   1.000000
     20          1.293463   1.000000
     21          1.366716   1.000000
     22          2.177476   0.000000
     23          5.373346   0.000000
     24          5.805490   0.000000
     25          6.149888   0.000000
     26          6.245147   0.000000
     27          7.464264   0.000000
     28          7.790394   0.000000
     29          8.057543   0.000000
     30          8.827454   0.000000
     31          9.265660   0.000000
     32          9.296792   0.000000
     33          9.667245   0.000000
     34         10.526683   0.000000
     35         10.789411   0.000000
     36         11.286551   0.000000
     37         11.727569   0.000000
     38         12.208545   0.000000
     39         12.441395   0.000000
     40         12.510470   0.000000
     41         13.173979   0.000000
     42         13.282772   0.000000
     43         13.449225   0.000000
     44         14.700186   0.000000
     45         14.835457   0.000000
     46         15.299361   0.000000
     47         15.505754   0.000000
     48         16.000799   0.000000
 
  0.2500000E+00  0.1785714E+00  0.0000000E+00  0.3174603E-02
      1        -12.528874   1.000000
      2        -11.728013   1.000000
      3         -8.537645   1.000000
      4         -8.330729   1.000000
      5         -5.881509   1.000000
      6         -5.710290   1.000000
      7         -4.937491   1.000000
      8         -4.691928   1.000000
      9         -4.095580   1.000000
     10         -3.173383   1.000000
     11         -2.654058   1.000000
     12         -1.882356   1.000000
     13         -1.133390   1.000000
     14         -0.890188   1.000000
     15         -0.446976   1.000000
     16         -0.080392   1.000000
     17          0.017968   1.000000
     18          0.261717   1.000000
     19          0.499969   1.000000
     20          1.161872   1.000000
     21          1.248331   1.000000
     22          1.920714   0.187340
     23          5.694770   0.000000
     24          6.104895   0.000000
     25          6.282257   0.000000
     26          6.374846   0.000000
     27          7.361674   0.000000
     28          7.868041   0.000000
     29          8.024232   0.000000
     30          8.955980   0.000000
     31          9.258468   0.000000
     32          9.730268   0.000000
     33          9.861334   0.000000
     34         10.149218   0.000000
     35         10.264214   0.000000
     36         11.073964   0.000000
     37         11.596431   0.000000
     38         12.115529   0.000000
     39         12.520112   0.000000
     40         12.811151   0.000000
     41         13.056771   0.000000
     42         13.457288   0.000000
     43         13.971764   0.000000
     44         14.608319   0.000000
     45         14.885251   0.000000
     46         15.318755   0.000000
     47         15.525321   0.000000
     48         16.211392   0.000000
 
  0.3500000E+00  0.1785714E+00  0.0000000E+00  0.3174603E-02
      1        -12.406124   1.000000
      2        -11.896337   1.000000
      3         -8.475149   1.000000
      4         -8.330158   1.000000
      5         -5.958954   1.000000
      6         -5.939636   1.000000
      7         -4.801418   1.000000
      8         -4.370821   1.000000
      9         -4.260492   1.000000
     10         -2.804970   1.000000
     11         -2.317654   1.000000
     12         -2.173457   1.000000
     13         -1.076743   1.000000
     14         -1.026935   1.000000
     15         -0.451898   1.000000
     16         -0.366674   1.000000
     17          0.061948   1.000000
     18          0.066124   1.000000
     19          0.646931   1.000000
     20          1.032195   1.000000
     21          1.115489   1.000000
     22          1.585505   1.000000
     23          6.116002   0.000000
     24          6.230476   0.000000
     25          6.406578   0.000000
     26          6.809910   0.000000
     27          7.305454   0.000000
     28          7.789081   0.000000
     29          8.078835   0.000000
     30          9.055580   0.000000
     31          9.113307   0.000000
     32          9.186507   0.000000
     33          9.898967   0.000000
     34         10.198011   0.000000
     35         10.711536   0.000000
     36         11.088544   0.000000
     37         11.338748   0.000000
     38         11.961693   0.000000
     39         12.369175   0.000000
     40         12.996264   0.000000
     41         13.047220   0.000000
     42         13.801926   0.000000
     43         14.394317   0.000000
     44         14.409511   0.000000
     45         15.043665   0.000000
     46         15.136830   0.000000
     47         15.628315   0.000000
     48         16.388335   0.000000
 
  0.4500000E+00  0.1785714E+00  0.0000000E+00  0.3174603E-02
      1        -12.252343   1.000000
      2        -12.077586   1.000000
      3         -8.408007   1.000000
      4         -8.355273   1.000000
      5         -6.050462   1.000000
      6         -6.044414   1.000000
      7         -4.633308   1.000000
      8         -4.447259   1.000000
      9         -3.857940   1.000000
     10         -3.261424   1.000000
     11         -2.035776   1.000000
     12         -1.869953   1.000000
     13         -1.098271   1.000000
     14         -1.036285   1.000000
     15         -0.624702   1.000000
     16         -0.617718   1.000000
     17          0.012172   1.000000
     18          0.055727   1.000000
     19          0.904506   1.000000
     20          0.969923   1.000000
     21          1.010817   1.000000
     22          1.231835   1.000000
     23          6.207604   0.000000
     24          6.325574   0.000000
     25          6.883891   0.000000
     26          7.224342   0.000000
     27          7.283145   0.000000
     28          7.628919   0.000000
     29          7.936344   0.000000
     30          8.448374   0.000000
     31          9.111740   0.000000
     32          9.144019   0.000000
     33         10.022610   0.000000
     34         10.494481   0.000000
     35         10.718994   0.000000
     36         10.988396   0.000000
     37         11.743426   0.000000
     38         11.762753   0.000000
     39         12.147850   0.000000
     40         12.922351   0.000000
     41         13.426780   0.000000
     42         13.774649   0.000000
     43         14.241093   0.000000
     44         14.395746   0.000000
     45         15.005535   0.000000
     46         15.145651   0.000000
     47         16.004492   0.000000
     48         16.308684   0.000000
 
  0.5000000E-01  0.2500000E+00  0.0000000E+00  0.3174603E-02
      1        -12.599916   1.000000
      2        -11.471136   1.000000
      3         -8.559311   1.000000
      4         -8.298513   1.000000
      5         -5.920339   1.000000
      6         -5.609474   1.000000
      7         -4.932093   1.000000
      8         -4.542379   1.000000
      9         -4.425826   1.000000
     10         -4.119046   1.000000
     11         -3.402628   1.000000
     12         -1.217281   1.000000
     13         -1.063703   1.000000
     14         -0.999573   1.000000
     15         -0.189817   1.000000
     16          0.224156   1.000000
     17          0.349881   1.000000
     18          0.599999   1.000000
     19          0.791417   1.000000
     20          0.987239   1.000000
     21          1.001437   1.000000
     22          2.347735   0.000000
     23          4.948986   0.000000
     24          5.165098   0.000000
     25          6.364483   0.000000
     26          6.593906   0.000000
     27          7.274949   0.000000
     28          7.977108   0.000000
     29          8.711891   0.000000
     30          9.067088   0.000000
     31          9.476755   0.000000
     32          9.588659   0.000000
     33          9.663635   0.000000
     34         10.752729   0.000000
     35         11.279478   0.000000
     36         11.975897   0.000000
     37         12.026433   0.000000
     38         12.305941   0.000000
     39         12.433469   0.000000
     40         12.457377   0.000000
     41         12.575347   0.000000
     42         13.004082   0.000000
     43         13.807644   0.000000
     44         13.890831   0.000000
     45         14.430901   0.000000
     46         15.114175   0.000000
     47         15.414239   0.000000
     48         15.875549   0.000000
 
  0.1500000E+00  0.2500000E+00  0.0000000E+00  0.3174603E-02
      1        -12.556682   1.000000
      2        -11.544115   1.000000
      3         -8.537409   1.000000
      4         -8.289055   1.000000
      5         -5.842240   1.000000
      6         -5.574745   1.000000
      7         -5.269647   1.000000
      8         -4.677681   1.000000