   14   14    1    1
  0.1021318E+02  0.5700971E-09  0.4044058E-09  0.6201871E-09  0.5000000E-15
  1.000000000000000E-004
  CAR 
 BS                                      
     42    168     48
 
  0.0000000E+00  0.0000000E+00  0.0000000E+00  0.5952381E-02
      1        -12.700023   1.000000
      2        -11.518435   1.000000
      3         -8.660171   1.000000
      4         -8.367290   1.000000
      5         -6.054640   1.000000
      6         -5.092582   1.000000
      7         -4.680655   1.000000
      8         -4.377640   1.000000
      9         -3.934829   1.000000
     10         -3.527797   1.000000
     11         -2.404681   1.000000
     12         -2.222219   1.000000
     13         -2.104416   1.000000
     14         -1.066408   1.000000
     15         -0.020331   1.000000
     16          0.013776   1.000000
     17          0.041244   1.000000
     18          0.089691   1.000000
     19          0.673137   1.000000
     20          2.119529   0.661219
     21          2.153457   0.474478
     22          2.242297   0.093350
     23          5.505226   0.000000
     24          5.726909   0.000000
     25          5.735000   0.000000
     26          5.971527   0.000000
     27          6.724553   0.000000
     28          7.698132   0.000000
     29          7.719062   0.000000
     30          8.621888   0.000000
     31          8.850195   0.000000
     32          8.854956   0.000000
     33          9.051244   0.000000
     34         10.026570   0.000000
     35         11.191981   0.000000
     36         11.406440   0.000000
     37         11.517910   0.000000
     38         11.781970   0.000000
     39         11.958555   0.000000
     40         12.294836   0.000000
     41         12.921496   0.000000
     42         13.342185   0.000000
     43         13.527699   0.000000
     44         15.523681   0.000000
     45         15.581687   0.000000
     46         15.920798   0.000000
     47         16.310211   0.000000
     48         16.538287   0.000000
 
  0.0000000E+00  0.0000000E+00  0.2173913E-01  0.5952381E-02
      1        -12.699599   1.000000
      2        -11.519268   1.000000
      3         -8.659929   1.000000
      4         -8.365995   1.000000
      5         -6.059988   1.000000
      6         -5.103704   1.000000
      7         -4.668190   1.000000
      8         -4.371835   1.000000
      9         -3.934017   1.000000
     10         -3.523347   1.000000
     11         -2.404332   1.000000
     12         -2.222494   1.000000
     13         -2.107279   1.000000
     14         -1.068611   1.000000
     15         -0.019249   1.000000
     16          0.014631   1.000000
     17          0.045003   1.000000
     18          0.081115   1.000000
     19          0.661828   1.000000
     20          2.115803   0.680281
     21          2.151491   0.485557
     22          2.256525   0.064053
     23          5.504681   0.000000
     24          5.727456   0.000000
     25          5.733538   0.000000
     26          5.971148   0.000000
     27          6.729882   0.000000
     28          7.693022   0.000000
     29          7.719959   0.000000
     30          8.626383   0.000000
     31          8.818075   0.000000
     32          8.896478   0.000000
     33          9.053384   0.000000
     34         10.030438   0.000000
     35         11.192575   0.000000
     36         11.404656   0.000000
     37         11.520064   0.000000
     38         11.761700   0.000000
     39         11.954981   0.000000
     40         12.297243   0.000000
     41         12.929035   0.000000
     42         13.334049   0.000000
     43         13.545544   0.000000
     44         15.527261   0.000000
     45         15.570428   0.000000
     46         15.900804   0.000000
     47         16.311073   0.000000
     48         16.542385   0.000000
 
  0.0000000E+00  0.0000000E+00  0.4347826E-01  0.5952381E-02
      1        -12.698329   1.000000
      2        -11.521750   1.000000
      3         -8.659208   1.000000
      4         -8.362116   1.000000
      5         -6.075765   1.000000
      6         -5.133642   1.000000
      7         -4.634232   1.000000
      8         -4.354671   1.000000
      9         -3.931587   1.000000
     10         -3.510026   1.000000
     11         -2.403292   1.000000
     12         -2.223324   1.000000
     13         -2.115790   1.000000
     14         -1.075176   1.000000
     15         -0.016011   1.000000
     16          0.017170   1.000000
     17          0.055373   1.000000
     18          0.056210   1.000000
     19          0.629405   1.000000
     20          2.104717   0.734104
     21          2.145600   0.518784
     22          2.297713   0.017684
     23          5.503044   0.000000
     24          5.705526   0.000000
     25          5.753303   0.000000
     26          5.970037   0.000000
     27          6.745230   0.000000
     28          7.678043   0.000000
     29          7.722612   0.000000
     30          8.639800   0.000000
     31          8.793009   0.000000
     32          8.949311   0.000000
     33          9.059788   0.000000
     34         10.042073   0.000000
     35         11.194165   0.000000
     36         11.399266   0.000000
     37         11.526519   0.000000
     38         11.703336   0.000000
     39         11.945008   0.000000
     40         12.304455   0.000000
     41         12.950940   0.000000
     42         13.309904   0.000000
     43         13.596628   0.000000
     44         15.537472   0.000000
     45         15.538135   0.000000
     46         15.843529   0.000000
     47         16.314657   0.000000
     48         16.429301   0.000000
 
  0.0000000E+00  0.0000000E+00  0.6521739E-01  0.5952381E-02
      1        -12.696223   1.000000
      2        -11.525846   1.000000
      3         -8.658021   1.000000
      4         -8.355693   1.000000
      5         -6.101221   1.000000
      6         -5.175672   1.000000
      7         -4.585549   1.000000
      8         -4.326844   1.000000
      9         -3.927549   1.000000
     10         -3.487940   1.000000
     11         -2.401548   1.000000
     12         -2.224698   1.000000
     13         -2.129697   1.000000
     14         -1.085987   1.000000
     15         -0.010644   1.000000
     16          0.012631   1.000000
     17          0.021313   1.000000
     18          0.074616   1.000000
     19          0.579688   1.000000
     20          2.086563   0.811114
     21          2.135833   0.573476
     22          2.361940   0.001296
     23          5.500260   0.000000
     24          5.671020   0.000000
     25          5.785938   0.000000
     26          5.968265   0.000000
     27          6.768848   0.000000
     28          7.654125   0.000000
     29          7.726879   0.000000
     30          8.661991   0.000000
     31          8.776742   0.000000
     32          9.010509   0.000000
     33          9.070408   0.000000
     34         10.061533   0.000000
     35         11.196173   0.000000
     36         11.390393   0.000000
     37         11.537193   0.000000
     38         11.612892   0.000000
     39         11.930763   0.000000
     40         12.316429   0.000000
     41         12.985345   0.000000
     42         13.270600   0.000000
     43         13.674837   0.000000
     44         15.488552   0.000000
     45         15.552911   0.000000
     46         15.755878   0.000000
     47         16.310642   0.000000
     48         16.318721   0.000000
 
  0.0000000E+00  0.0000000E+00  0.8695652E-01  0.5952381E-02
      1        -12.693316   1.000000
      2        -11.531481   1.000000
      3         -8.656380   1.000000
      4         -8.346768   1.000000
      5         -6.135252   1.000000
      6         -5.224210   1.000000
      7         -4.527769   1.000000
      8         -4.289386   1.000000
      9         -3.921965   1.000000
     10         -3.457252   1.000000
     11         -2.399108   1.000000
     12         -2.226614   1.000000
     13         -2.148643   1.000000
     14         -1.100889   1.000000
     15         -0.046627   1.000000
     16         -0.003180   1.000000
     17          0.026909   1.000000
     18          0.099857   1.000000
     19          0.517311   1.000000
     20          2.061809   0.891042
     21          2.122170   0.647452
     22          2.444327   0.000015
     23          5.496323   0.000000
     24          5.626362   0.000000
     25          5.830969   0.000000
     26          5.965957   0.000000
     27          6.798497   0.000000
     28          7.622671   0.000000
     29          7.732560   0.000000
     30          8.692641   0.000000
     31          8.768426   0.000000
     32          9.079154   0.000000
     33          9.085157   0.000000
     34         10.088923   0.000000
     35         11.197682   0.000000
     36         11.378178   0.000000
     37         11.497474   0.000000
     38         11.552036   0.000000
     39         11.915202   0.000000
     40         12.333119   0.000000
     41         13.029726   0.000000
     42         13.217408   0.000000
     43         13.772908   0.000000
     44         15.426263   0.000000
     45         15.571368   0.000000
     46         15.645436   0.000000
     47         16.186298   0.000000
     48         16.368629   0.000000
 
  0.0000000E+00  0.0000000E+00  0.1086957E+00  0.5952381E-02
      1        -12.689639   1.000000
      2        -11.538570   1.000000
      3         -8.654324   1.000000
      4         -8.335421   1.000000
      5         -6.176557   1.000000
      6         -5.275760   1.000000
      7         -4.464470   1.000000
      8         -4.243454   1.000000
      9         -3.914863   1.000000
     10         -3.418235   1.000000
     11         -2.395951   1.000000
     12         -2.229045   1.000000
     13         -2.172124   1.000000
     14         -1.119621   1.000000
     15         -0.121388   1.000000
     16          0.006335   1.000000
     17          0.033793   1.000000
     18          0.131459   1.000000
     19          0.446281   1.000000
     20          2.031058   0.952240
     21          2.104687   0.734244
     22          2.540095   0.000000
     23          5.491194   0.000000
     24          5.574103   0.000000
     25          5.887821   0.000000
     26          5.963262   0.000000
     27          6.831924   0.000000
     28          7.585256   0.000000
     29          7.739362   0.000000
     30          8.731400   0.000000
     31          8.766962   0.000000
     32          9.103905   0.000000
     33          9.154245   0.000000
     34         10.124347   0.000000
     35         11.197514   0.000000
     36         11.362854   0.000000
     37         11.363479   0.000000
     38         11.570838   0.000000
     39         11.901553   0.000000
     40         12.354505   0.000000
     41         13.081347   0.000000
     42         13.151894   0.000000
     43         13.884252   0.000000
     44         15.355514   0.000000
     45         15.518598   0.000000
     46         15.590002   0.000000
     47         16.054428   0.000000
     48         16.332372   0.000000
 
  0.0000000E+00  0.0000000E+00  0.1304348E+00  0.5952381E-02
      1        -12.685235   1.000000
      2        -11.546993   1.000000
      3         -8.651874   1.000000
      4         -8.321743   1.000000
      5         -6.223771   1.000000
      6         -5.328229   1.000000
      7         -4.397824   1.000000
      8         -4.190233   1.000000
      9         -3.906301   1.000000
     10         -3.371239   1.000000
     11         -2.392063   1.000000
     12         -2.231957   1.000000
     13         -2.199565   1.000000
     14         -1.141886   1.000000
     15         -0.210044   1.000000
     16          0.017853   1.000000
     17          0.041772   1.000000
     18          0.168883   1.000000
     19          0.369394   1.000000
     20          1.995023   0.985244
     21          2.083454   0.822772
     22          2.645178   0.000000
     23          5.484829   0.000000
     24          5.516555   0.000000
     25          5.955822   0.000000
     26          5.960363   0.000000
     27          6.867192   0.000000
     28          7.543473   0.000000
     29          7.746993   0.000000
     30          8.771156   0.000000
     31          8.777816   0.000000
     32          9.126460   0.000000
     33          9.234832   0.000000
     34         10.167879   0.000000
     35         11.194420   0.000000
     36         11.215904   0.000000
     37         11.344708   0.000000
     38         11.593336   0.000000
     39         11.892811   0.000000
     40         12.380608   0.000000
     41         13.075642   0.000000
     42         13.137562   0.000000
     43         14.003641   0.000000
     44         15.279831   0.000000
     45         15.380121   0.000000
     46         15.605613   0.000000
     47         15.918868   0.000000
     48         16.341854   0.000000
 
  0.0000000E+00  0.0000000E+00  0.1521739E+00  0.5952381E-02
      1        -12.680163   1.000000
      2        -11.556618   1.000000
      3         -8.649079   1.000000
      4         -8.305860   1.000000
      5         -6.275584   1.000000
      6         -5.380369   1.000000
      7         -4.329218   1.000000
      8         -4.130784   1.000000
      9         -3.896362   1.000000
     10         -3.316735   1.000000
     11         -2.387420   1.000000
     12         -2.235321   1.000000
     13         -2.230350   1.000000
     14         -1.167347   1.000000
     15         -0.310478   1.000000
     16          0.031265   1.000000
     17          0.050626   1.000000
     18          0.211547   1.000000
     19          0.288176   1.000000
     20          1.954470   0.997021
     21          2.058546   0.899415
     22          2.756285   0.000000
     23          5.455694   0.000000
     24          5.477174   0.000000
     25          5.957409   0.000000
     26          6.034239   0.000000
     27          6.902773   0.000000
     28          7.498789   0.000000
     29          7.755049   0.000000
     30          8.779805   0.000000
     31          8.831332   0.000000
     32          9.152536   0.000000
     33          9.319965   0.000000
     34         10.219521   0.000000
     35         11.058452   0.000000
     36         11.187323   0.000000
     37         11.324094   0.000000
     38         11.619087   0.000000
     39         11.891394   0.000000
     40         12.411515   0.000000
     41         12.990261   0.000000
     42         13.195898   0.000000
     43         14.127077   0.000000
     44         15.201965   0.000000
     45         15.233439   0.000000
     46         15.615014   0.000000
     47         15.780022   0.000000
     48         16.353655   0.000000
 
  0.0000000E+00  0.0000000E+00  0.1739130E+00  0.5952381E-02
      1        -12.674490   1.000000
      2        -11.567279   1.000000
      3         -8.645982   1.000000
      4         -8.287908   1.000000
      5         -6.330779   1.000000
      6         -5.431353   1.000000
      7         -4.259625   1.000000
      8         -4.066008   1.000000
      9         -3.885138   1.000000
     10         -3.255324   1.000000
     11         -2.381998   1.000000
     12         -2.263824   1.000000
     13         -2.239066   1.000000
     14         -1.195638   1.000000
     15         -0.420352   1.000000
     16          0.046481   1.000000
     17          0.060123   1.000000
     18          0.203287   1.000000
     19          0.258870   1.000000
     20          1.910210   0.999632
     21          2.030070   0.953612
     22          2.870837   0.000000
     23          5.393170   0.000000
     24          5.468178   0.000000
     25          5.954577   0.000000
     26          6.122322   0.000000
     27          6.937574   0.000000
     28          7.452500   0.000000
     29          7.763127   0.000000
     30          8.791799   0.000000
     31          8.891350   0.000000
     32          9.181778   0.000000
     33          9.408793   0.000000
     34         10.279176   0.000000
     35         10.893797   0.000000
     36         11.175625   0.000000
     37         11.301439   0.000000
     38         11.647502   0.000000
     39         11.898844   0.000000
     40         12.447404   0.000000
     41         12.897250   0.000000
     42         13.254108   0.000000
     43         14.251532   0.000000
     44         15.081142   0.000000
     45         15.123956   0.000000
     46         15.615631   0.000000
     47         15.639216   0.000000
     48         16.367592   0.000000
 
  0.0000000E+00  0.0000000E+00  0.1956522E+00  0.5952381E-02
      1        -12.668295   1.000000
      2        -11.578795   1.000000
      3         -8.642638   1.000000
      4         -8.268043   1.000000
      5         -6.388269   1.000000
      6         -5.480620   1.000000
      7         -4.189800   1.000000
      8         -3.996639   1.000000
      9         -3.872745   1.000000
     10         -3.187732   1.000000
     11         -2.375764   1.000000
     12         -2.299354   1.000000
     13         -2.243088   1.000000
     14         -1.226350   1.000000
     15         -0.537319   1.000000
     16          0.063374   1.000000
     17          0.070067   1.000000
     18          0.114929   1.000000
     19          0.310235   1.000000
     20          1.863053   0.999974
     21          1.998145   0.983514
     22          2.986785   0.000000
     23          5.330343   0.000000
     24          5.457803   0.000000
     25          5.952015   0.000000
     26          6.219311   0.000000
     27          6.970859   0.000000
     28          7.405696   0.000000
     29          7.770867   0.000000
     30          8.806145   0.000000
     31          8.957215   0.000000
     32          9.213749   0.000000
     33          9.500563   0.000000
     34         10.346608   0.000000
     35         10.723945   0.000000
     36         11.159363   0.000000
     37         11.277244   0.000000
     38         11.677815   0.000000
     39         11.915672   0.000000
     40         12.488555   0.000000
     41         12.798001   0.000000
     42         13.310102   0.000000
     43         14.374647   0.000000
     44         14.925360   0.000000
     45         15.047365   0.000000
     46         15.497622   0.000000
     47         15.606100   0.000000
     48         16.383001   0.000000
 
  0.0000000E+00  0.0000000E+00  0.2173913E+00  0.5952381E-02
      1        -12.661671   1.000000
      2        -11.590979   1.000000
      3         -8.639104   1.000000
      4         -8.246478   1.000000
      5         -6.447077   1.000000
      6         -5.527744   1.000000
      7         -4.120380   1.000000
      8         -3.923256   1.000000
      9         -3.859325   1.000000
     10         -3.114874   1.000000
     11         -2.368695   1.000000
     12         -2.336289   1.000000
     13         -2.247215   1.000000
     14         -1.259034   1.000000
     15         -0.659260   1.000000
     16          0.023169   1.000000
     17          0.080256   1.000000
     18          0.081795   1.000000
     19          0.365080   1.000000
     20          1.813826   0.999999
     21          1.962891   0.995743
     22          3.102466   0.000000
     23          5.268331   0.000000
     24          5.446002   0.000000
     25          5.949820   0.000000
     26          6.324479   0.000000
     27          7.002173   0.000000
     28          7.359309   0.000000
     29          7.777971   0.000000
     30          8.821987   0.000000
     31          9.028171   0.000000
     32          9.247913   0.000000
     33          9.594542   0.000000
     34         10.421407   0.000000
     35         10.550351   0.000000
     36         11.139212   0.000000
     37         11.252064   0.000000
     38         11.709093   0.000000
     39         11.941466   0.000000
     40         12.535368   0.000000
     41         12.693774   0.000000
     42         13.361836   0.000000
     43         14.494563   0.000000
     44         14.768037   0.000000
     45         14.973307   0.000000
     46         15.356276   0.000000
     47         15.586665   0.000000
     48         16.398112   0.000000
 
  0.0000000E+00  0.0000000E+00  0.2391304E+00  0.5952381E-02
      1        -12.654722   1.000000
      2        -11.603614   1.000000
      3         -8.635442   1.000000
      4         -8.223423   1.000000
      5         -6.506329   1.000000
      6         -5.572411   1.000000
      7         -4.051978   1.000000
      8         -3.846301   1.000000
      9         -3.845039   1.000000
     10         -3.037836   1.000000
     11         -2.374007   1.000000
     12         -2.360802   1.000000
     13         -2.251140   1.000000
     14         -1.293227   1.000000
     15         -0.784235   1.000000
     16         -0.071937   1.000000
     17          0.090465   1.000000
     18          0.101558   1.000000
     19          0.422867   1.000000
     20          1.763334   1.000000
     21          1.924472   0.999249
     22          3.216480   0.000000
     23          5.208053   0.000000
     24          5.432761   0.000000
     25          5.948106   0.000000
     26          6.437140   0.000000
     27          7.031269   0.000000
     28          7.314105   0.000000
     29          7.784165   0.000000
     30          8.838589   0.000000
     31          9.103425   0.000000
     32          9.283641   0.000000
     33          9.689987   0.000000
     34         10.374153   0.000000
     35         10.502939   0.000000
     36         11.116320   0.000000
     37         11.226533   0.000000
     38         11.740263   0.000000
     39         11.975109   0.000000
     40         12.585744   0.000000
     41         12.588237   0.000000
     42         13.407356   0.000000
     43         14.609733   0.000000
     44         14.611147   0.000000
     45         14.902527   0.000000
     46         15.216169   0.000000
     47         15.558979   0.000000
     48         16.419508   0.000000
 
  0.0000000E+00  0.0000000E+00  0.2608696E+00  0.5952381E-02
      1        -12.647555   1.000000
      2        -11.616476   1.000000
      3         -8.631717   1.000000
      4         -8.199156   1.000000
      5         -6.565229   1.000000
      6         -5.614352   1.000000
      7         -3.985161   1.000000
      8         -3.830074   1.000000
      9         -3.766128   1.000000
     10         -2.957982   1.000000
     11         -2.411883   1.000000
     12         -2.352221   1.000000
     13         -2.254278   1.000000
     14         -1.328413   1.000000
     15         -0.910523   1.000000
     16         -0.170195   1.000000
     17          0.100528   1.000000
     18          0.122437   1.000000
     19          0.483081   1.000000
     20          1.712350   1.000000
     21          1.883076   0.999915
     22          3.327677   0.000000
     23          5.150294   0.000000
     24          5.418122   0.000000
     25          5.946900   0.000000
     26          6.556635   0.000000
     27          7.058042   0.000000
     28          7.270723   0.000000
     29          7.789294   0.000000
     30          8.855356   0.000000
     31          9.182111   0.000000
     32          9.320281   0.000000
     33          9.786164   0.000000
     34         10.196230   0.000000
     35         10.590207   0.000000
     36         11.092210   0.000000
     37         11.201371   0.000000
     38         11.770252   0.000000
     39         12.014950   0.000000
     40         12.474995   0.000000
     41         12.647541   0.000000
     42         13.444665   0.000000
     43         14.456976   0.000000
     44         14.718886   0.000000
     45         14.835476   0.000000
     46         15.078312   0.000000
     47         15.525508   0.000000
     48         16.451737   0.000000
 
  0.0000000E+00  0.0000000E+00  0.2826087E+00  0.5952381E-02
      1        -12.640301   1.000000
      2        -11.629346   1.000000
      3         -8.628005   1.000000
      4         -8.173991   1.000000
      5         -6.623041   1.000000
      6         -5.653343   1.000000
      7         -3.920555   1.000000
      8         -3.814671   1.000000
      9         -3.683072   1.000000
     10         -2.877128   1.000000
     11         -2.449332   1.000000
     12         -2.343415   1.000000
     13         -2.255499   1.000000
     14         -1.364047   1.000000
     15         -1.036523   1.000000
     16         -0.271310   1.000000
     17          0.110258   1.000000
     18          0.144137   1.000000
     19          0.545233   1.000000
     20          1.661642   1.000000
     21          1.838861   0.999994
     22          3.434877   0.000000
     23          5.095701   0.000000
     24          5.402138   0.000000
     25          5.946198   0.000000
     26          6.682296   0.000000
     27          7.082497   0.000000
     28          7.229693   0.000000
     29          7.793243   0.000000
     30          8.871799   0.000000
     31          9.263170   0.000000
     32          9.357114   0.000000
     33          9.882248   0.000000
     34         10.017317   0.000000
     35         10.681467   0.000000
     36         11.068935   0.000000
     37         11.177289   0.000000
     38         11.798039   0.000000
     39         12.058965   0.000000
     40         12.362603   0.000000
     41         12.713444   0.000000
     42         13.471609   0.000000
     43         14.308213   0.000000
     44         14.772291   0.000000
     45         14.820904   0.000000
     46         14.943741   0.000000
     47         15.488820   0.000000
     48         16.475122   0.000000
 
  0.0000000E+00  0.0000000E+00  0.3043478E+00  0.5952381E-02
      1        -12.633095   1.000000
      2        -11.641976   1.000000
      3         -8.624369   1.000000
      4         -8.148309   1.000000
      5         -6.679037   1.000000
      6         -5.689193   1.000000
      7         -3.858784   1.000000
      8         -3.799084   1.000000
      9         -3.597450   1.000000
     10         -2.797599   1.000000
     11         -2.485758   1.000000
     12         -2.335557   1.000000
     13         -2.252602   1.000000
     14         -1.399535   1.000000
     15         -1.160544   1.000000
     16         -0.374821   1.000000
     17          0.119513   1.000000
     18          0.166332   1.000000
     19          0.608820   1.000000
     20          1.611984   1.000000
     21          1.792069   1.000000
     22          3.537090   0.000000
     23          5.044813   0.000000
     24          5.384967   0.000000
     25          5.945975   0.000000
     26          6.813539   0.000000
     27          7.104593   0.000000
     28          7.191475   0.000000
     29          7.796049   0.000000
     30          8.887536   0.000000
     31          9.345506   0.000000
     32          9.393392   0.000000
     33          9.838036   0.000000
     34          9.977350   0.000000
     35         10.772964   0.000000
     36         11.050386   0.000000
     37         11.155161   0.000000
     38         11.822812   0.000000
     39         12.104740   0.000000
     40         12.249665   0.000000
     41         12.785818   0.000000
     42         13.485870   0.000000
     43         14.168327   0.000000
     44         14.712854   0.000000
     45         14.813706   0.000000
     46         14.914889   0.000000
     47         15.451228   0.000000
     48         16.448478   0.000000
 
  0.0000000E+00  0.0000000E+00  0.3260870E+00  0.5952381E-02
      1        -12.626077   1.000000
      2        -11.654133   1.000000
      3         -8.620886   1.000000
      4         -8.122558   1.000000
      5         -6.732499   1.000000
      6         -5.721726   1.000000
      7         -3.800509   1.000000
      8         -3.783606   1.000000
      9         -3.509657   1.000000
     10         -2.722529   1.000000
     11         -2.520576   1.000000
     12         -2.330530   1.000000
     13         -2.242265   1.000000
     14         -1.434223   1.000000
     15         -1.280684   1.000000
     16         -0.480138   1.000000
     17          0.128146   1.000000
     18          0.188635   1.000000
     19          0.673366   1.000000
     20          1.564174   1.000000
     21          1.742987   1.000000
     22          3.633287   0.000000
     23          4.998143   0.000000
     24          5.366844   0.000000
     25          5.946182   0.000000
     26          6.949821   0.000000
     27          7.124396   0.000000
     28          7.156441   0.000000
     29          7.797768   0.000000
     30          8.902256   0.000000
     31          9.427801   0.000000
     32          9.428391   0.000000
     33          9.658978   0.000000
     34         10.070423   0.000000
     35         10.853510   0.000000
     36         11.047508   0.000000
     37         11.135859   0.000000
     38         11.844048   0.000000
     39         12.137326   0.000000
     40         12.149355   0.000000
     41         12.864109   0.000000
     42         13.485114   0.000000
     43         14.041529   0.000000
     44         14.656814   0.000000
     45         14.689725   0.000000
     46         15.000094   0.000000
     47         15.414555   0.000000
     48         16.345737   0.000000
 
  0.0000000E+00  0.0000000E+00  0.3478261E+00  0.5952381E-02
      1        -12.619397   1.000000
      2        -11.665573   1.000000
      3         -8.617619   1.000000
      4         -8.097242   1.000000
      5         -6.782682   1.000000
      6         -5.750785   1.000000
      7         -3.768583   1.000000
      8         -3.746460   1.000000