 running   24 mpi-ranks, with    1 threads/rank, on    1 nodes
 distrk:  each k-point on   24 cores,    1 groups
 distr:  one band on    1 cores,   24 groups
 vasp.6.4.3 19Mar24 (build May 31 2024 16:31:43) complex                        
  
 POSCAR found type information on POSCAR B 
 POSCAR found :  1 types and      14 ions
 Reading from existing POTCAR
 scaLAPACK will be used
 Reading from existing POTCAR
 LDA part: xc-table for (Slater+PW92), standard interpolation
 WARNING: stress and forces are not correct
 POSCAR, INCAR and KPOINTS ok, starting setup
 FFT: planning ... GRIDC
 FFT: planning ... GRID_SOFT
 FFT: planning ... GRID
 WAVECAR not read
 charge-density read from file: BS                                      
 entering main loop
       N       E                     dE             d eps       ncg     rms          rms(c)
DAV:   1     0.731034875757E+02    0.73103E+02   -0.19607E+04 16128   0.860E+02
DAV:   2    -0.854527526840E+02   -0.15856E+03   -0.14742E+03 22416   0.160E+02
DAV:   3    -0.907681207963E+02   -0.53154E+01   -0.52867E+01 23544   0.258E+01
DAV:   4    -0.907941467362E+02   -0.26026E-01   -0.26025E-01 19584   0.206E+00
DAV:   5    -0.907943766971E+02   -0.22996E-03   -0.22996E-03 23544   0.186E-01
DAV:   6    -0.907943794695E+02   -0.27724E-05   -0.27726E-05 18672   0.205E-02
DAV:   7    -0.907943795072E+02   -0.37736E-07   -0.37577E-07 23280   0.234E-03
   1 F= -.92756676E+02 E0= -.92750373E+02  d E =-.126060E-01
 writing wavefunctions
