Convergence                             
           1
    14.991000    0.000000    0.000000
     0.000000   12.492500    0.000000
     0.000000    0.000000   17.989200
   B 
     1
Direct configuration=     1
   0.52123000  0.54500000  0.63796000
