       N       E                     dE             d eps       ncg     rms          rms(c)
DAV:   1     0.474734491061E+02    0.47473E+02   -0.17125E+04  1152   0.691E+02
DAV:   2    -0.932016753597E+02   -0.14068E+03   -0.13249E+03  1584   0.145E+02
DAV:   3    -0.976123176432E+02   -0.44106E+01   -0.43859E+01  1728   0.232E+01
DAV:   4    -0.976379133562E+02   -0.25596E-01   -0.25595E-01  1392   0.200E+00
DAV:   5    -0.976382027097E+02   -0.28935E-03   -0.28935E-03  1728   0.206E-01    0.124E+01
DAV:   6    -0.922008167722E+02    0.54374E+01   -0.38853E+00  1704   0.654E+00    0.678E+00
DAV:   7    -0.905487675541E+02    0.16520E+01   -0.32867E+00  1728   0.589E+00    0.171E+00
DAV:   8    -0.905633609303E+02   -0.14593E-01   -0.23945E-01  1200   0.168E+00    0.689E-01
DAV:   9    -0.905769708920E+02   -0.13610E-01   -0.18070E-02  1656   0.442E-01    0.189E-01
DAV:  10    -0.905804862904E+02   -0.35154E-02   -0.17558E-03  1296   0.147E-01    0.593E-02
DAV:  11    -0.905814941675E+02   -0.10079E-02   -0.61255E-04  1512   0.841E-02    0.308E-02
DAV:  12    -0.905816175809E+02   -0.12341E-03   -0.96211E-05  1464   0.366E-02    0.470E-03
DAV:  13    -0.905816228506E+02   -0.52697E-05   -0.42540E-06  1632   0.859E-03    0.238E-03
DAV:  14    -0.905816237955E+02   -0.94491E-06   -0.48839E-07  1368   0.281E-03
   1 F= -.90581624E+02 E0= -.90579251E+02  d E =-.474653E-02
