<?xml version="1.0" encoding="ISO-8859-1"?>
<modeling>
 <generator>
  <i name="program" type="string">vasp </i>
  <i name="version" type="string">6.4.3  </i>
  <i name="subversion" type="string">19Mar24 (build May 31 2024 16:31:43) complex                          parallel </i>
  <i name="platform" type="string">LinuxIFC </i>
  <i name="date" type="string">2024 10 31 </i>
  <i name="time" type="string">00:21:50 </i>
 </generator>
 <incar>
  <i type="string" name="SYSTEM">Kpoints</i>
  <i type="int" name="ISTART">     0</i>
  <i type="string" name="PREC">Accurate</i>
  <i type="string" name="ALGO">Normal</i>
  <i type="int" name="ISPIN">     1</i>
  <i type="int" name="ICHARG">     2</i>
  <i type="int" name="NELM">   100</i>
  <i type="int" name="IBRION">    -1</i>
  <i name="EDIFF">      0.00000100</i>
  <i name="EDIFFG">     -0.00100000</i>
  <i type="int" name="NSW">     0</i>
  <i type="int" name="ISIF">     2</i>
  <i name="ENCUT">    480.00000000</i>
  <i name="POTIM">      0.50000000</i>
  <i type="int" name="ISMEAR">     0</i>
  <i name="SIGMA">      0.05000000</i>
  <i type="logical" name="LWAVE"> F  </i>
  <i type="logical" name="LCHARG"> F  </i>
  <i type="string" name="GGA">PE</i>
 </incar>
 <primitive_cell>
  <structure name="primitive_cell" >
   <crystal>
    <varray name="basis" >
     <v>       5.69700000       0.00000000       0.00000000 </v>
     <v>       0.00000000       4.04790000       0.00000000 </v>
     <v>       0.00000000       0.00000000       6.20420000 </v>
    </varray>
    <i name="volume">    143.07435078 </i>
    <varray name="rec_basis" >
     <v>       0.17553098       0.00000000       0.00000000 </v>
     <v>       0.00000000       0.24704168       0.00000000 </v>
     <v>       0.00000000       0.00000000       0.16118114 </v>
    </varray>
   </crystal>
   <varray name="positions" >
    <v>       0.52123000       0.50000000       0.63796000 </v>
    <v>       0.47877000       0.50000000       0.36204000 </v>
    <v>       0.97877000       0.50000000       0.63796000 </v>
    <v>       0.02123000       0.50000000       0.36204000 </v>
    <v>       0.60090000       0.50000000       0.89991000 </v>
    <v>       0.39910000       0.50000000       0.10009000 </v>
    <v>       0.89910000       0.50000000       0.89991000 </v>
    <v>       0.10090000       0.50000000       0.10009000 </v>
    <v>       0.75000000       0.79171000       0.72973000 </v>
    <v>       0.25000000       0.20829000       0.27027000 </v>
    <v>       0.75000000       0.20829000       0.72973000 </v>
    <v>       0.25000000       0.79171000       0.27027000 </v>
    <v>       0.25000000       0.50000000       0.52367000 </v>
    <v>       0.75000000       0.50000000       0.47633000 </v>
   </varray>
  </structure>
  <varray name="primitive_index" >
   <v type="int" >        1 </v>
   <v type="int" >        2 </v>
   <v type="int" >        3 </v>
   <v type="int" >        4 </v>
   <v type="int" >        5 </v>
   <v type="int" >        6 </v>
   <v type="int" >        7 </v>
   <v type="int" >        8 </v>
   <v type="int" >        9 </v>
   <v type="int" >       10 </v>
   <v type="int" >       11 </v>
   <v type="int" >       12 </v>
   <v type="int" >       13 </v>
   <v type="int" >       14 </v>
  </varray>
 </primitive_cell>
 <kpoints>
  <generation param="Monkhorst-Pack">
   <v type="int" name="divisions">       4        6        4 </v>
   <v name="usershift">      0.00000000       0.00000000       0.00000000 </v>
   <v name="genvec1">      0.25000000       0.00000000       0.00000000 </v>
   <v name="genvec2">      0.00000000       0.16666667       0.00000000 </v>
   <v name="genvec3">      0.00000000       0.00000000       0.25000000 </v>
   <v name="shift">      0.50000000       0.50000000       0.50000000 </v>
  </generation>
  <varray name="kpointlist" >
   <v>       0.12500000       0.08333333       0.12500000 </v>
   <v>       0.37500000       0.08333333       0.12500000 </v>
   <v>       0.12500000       0.25000000       0.12500000 </v>
   <v>       0.37500000       0.25000000       0.12500000 </v>
   <v>       0.12500000       0.41666667       0.12500000 </v>
   <v>       0.37500000       0.41666667       0.12500000 </v>
   <v>       0.12500000       0.08333333       0.37500000 </v>
   <v>       0.37500000       0.08333333       0.37500000 </v>
   <v>       0.12500000       0.25000000       0.37500000 </v>
   <v>       0.37500000       0.25000000       0.37500000 </v>
   <v>       0.12500000       0.41666667       0.37500000 </v>
   <v>       0.37500000       0.41666667       0.37500000 </v>
  </varray>
  <varray name="weights" >
   <v>       0.08333333 </v>
   <v>       0.08333333 </v>
   <v>       0.08333333 </v>
   <v>       0.08333333 </v>
   <v>       0.08333333 </v>
   <v>       0.08333333 </v>
   <v>       0.08333333 </v>
   <v>       0.08333333 </v>
   <v>       0.08333333 </v>
   <v>       0.08333333 </v>
   <v>       0.08333333 </v>
   <v>       0.08333333 </v>
  </varray>
 </kpoints>
 <parameters>
  <separator name="general" >
   <i type="string" name="SYSTEM">Kpoints</i>
   <i type="logical" name="LCOMPAT"> F  </i>
  </separator>
  <separator name="electronic" >
   <i type="string" name="PREC">accura</i>
   <i name="ENMAX">    480.00000000</i>
   <i name="ENAUG">    535.51400000</i>
   <i name="EDIFF">      0.00000100</i>
   <i type="int" name="IALGO">    38</i>
   <i type="int" name="IWAVPR">    10</i>
   <i type="int" name="NBANDS">    48</i>
   <i type="int" name="NBANDSLOW">    -1</i>
   <i type="int" name="NBANDSHIGH">    -1</i>
   <i name="NELECT">     42.00000000</i>
   <i type="int" name="TURBO">     0</i>
   <i type="int" name="IRESTART">     0</i>
   <i type="int" name="NREBOOT">     0</i>
   <i type="int" name="NMIN">     0</i>
   <i name="EREF">      0.00000000</i>
   <separator name="electronic smearing" >
    <i type="int" name="ISMEAR">     0</i>
    <i name="SIGMA">      0.05000000</i>
    <i name="KSPACING">      0.50000000</i>
    <i type="logical" name="KGAMMA"> T  </i>
    <i type="logical" name="KBLOWUP"> T  </i>
   </separator>
   <separator name="electronic projectors" >
    <i type="logical" name="LREAL"> F  </i>
    <v name="ROPT">      0.00000000</v>
    <i type="int" name="LMAXPAW">  -100</i>
    <i type="int" name="LMAXMIX">     2</i>
    <i type="logical" name="NLSPLINE"> F  </i>
   </separator>
   <separator name="electronic startup" >
    <i type="int" name="ISTART">     0</i>
    <i type="int" name="ICHARG">     2</i>
    <i type="int" name="INIWAV">     1</i>
   </separator>
   <separator name="electronic spin" >
    <i type="int" name="ISPIN">     1</i>
    <i type="logical" name="LNONCOLLINEAR"> F  </i>
    <v name="MAGMOM">      1.00000000      1.00000000      1.00000000      1.00000000      1.00000000      1.00000000      1.00000000      1.00000000      1.00000000      1.00000000      1.00000000      1.00000000      1.00000000      1.00000000</v>
    <i name="NUPDOWN">     -1.00000000</i>
    <i type="logical" name="LSORBIT"> F  </i>
    <v name="SAXIS">      0.00000000      0.00000000      1.00000000</v>
    <i type="logical" name="LSPIRAL"> F  </i>
    <v name="QSPIRAL">      0.00000000      0.00000000      0.00000000</v>
    <i type="logical" name="LZEROZ"> F  </i>
   </separator>
   <separator name="electronic exchange-correlation" >
    <i type="logical" name="LASPH"> F  </i>
   </separator>
   <separator name="electronic convergence" >
    <i type="int" name="NELM">   100</i>
    <i type="int" name="NELMDL">    -5</i>
    <i type="int" name="NELMIN">     2</i>
    <i name="ENINI">    480.00000000</i>
    <separator name="electronic convergence detail" >
     <i type="logical" name="LDIAG"> T  </i>
     <i type="logical" name="LSUBROT"> F  </i>
     <i name="WEIMIN">      0.00000000</i>
     <i name="EBREAK">      0.00000001</i>
     <i name="DEPER">      0.30000000</i>
     <i type="int" name="NRMM">     4</i>
     <i name="TIME">      0.40000000</i>
    </separator>
   </separator>
   <separator name="electronic mixer" >
    <i name="AMIX">      0.40000000</i>
    <i name="BMIX">      1.00000000</i>
    <i name="AMIN">      0.10000000</i>
    <i name="AMIX_MAG">      1.60000000</i>
    <i name="BMIX_MAG">      1.00000000</i>
    <separator name="electronic mixer details" >
     <i type="int" name="IMIX">     4</i>
     <i type="logical" name="MIXFIRST"> F  </i>
     <i type="int" name="MAXMIX">   -45</i>
     <i name="WC">    100.00000000</i>
     <i type="int" name="INIMIX">     1</i>
     <i type="int" name="MIXPRE">     1</i>
     <i type="int" name="MREMOVE">     5</i>
    </separator>
   </separator>
   <separator name="electronic dipolcorrection" >
    <i type="logical" name="LDIPOL"> F  </i>
    <i type="logical" name="LMONO"> F  </i>
    <i type="int" name="IDIPOL">     0</i>
    <i name="EPSILON">      1.00000000</i>
    <v name="DIPOL">   -100.00000000   -100.00000000   -100.00000000</v>
    <i name="EFIELD">      0.00000000</i>
    <i type="logical" name="LVACPOTAV"> F  </i>
   </separator>
  </separator>
  <separator name="grids" >
   <i type="int" name="NGX">    42</i>
   <i type="int" name="NGY">    30</i>
   <i type="int" name="NGZ">    48</i>
   <i type="int" name="NGXF">    84</i>
   <i type="int" name="NGYF">    60</i>
   <i type="int" name="NGZF">    96</i>
   <i type="logical" name="ADDGRID"> F  </i>
  </separator>
  <separator name="ionic" >
   <i type="int" name="NSW">     0</i>
   <i type="int" name="IBRION">    -1</i>
   <i type="int" name="MDALGO">     0</i>
   <i type="int" name="ISIF">     2</i>
   <i name="PSTRESS">      0.00000000</i>
   <i name="EDIFFG">     -0.00100000</i>
   <i type="int" name="NFREE">     0</i>
   <i name="POTIM">      0.50000000</i>
   <i name="SMASS">     -3.00000000</i>
   <i name="SCALEE">      1.00000000</i>
  </separator>
  <separator name="ionic md" >
   <i name="TEBEG">      0.00010000</i>
   <i name="TEEND">      0.00010000</i>
   <i type="int" name="NBLOCK">     1</i>
   <i type="int" name="KBLOCK">     1</i>
   <i type="int" name="NPACO">   256</i>
   <i name="APACO">     10.00000000</i>
  </separator>
  <separator name="symmetry" >
   <i type="int" name="ISYM">     2</i>
   <i name="SYMPREC">      0.00001000</i>
  </separator>
  <separator name="dos" >
   <i type="int" name="LORBIT">     0</i>
   <v name="RWIGS">     -1.00000000</v>
   <i type="int" name="NEDOS">   301</i>
   <i name="EMIN">     10.00000000</i>
   <i name="EMAX">    -10.00000000</i>
   <i name="EFERMI">      0.00000000</i>
  </separator>
  <separator name="writing" >
   <i type="int" name="NWRITE">     2</i>
   <i type="logical" name="LWAVE"> F  </i>
   <i type="logical" name="LDOWNSAMPLE"> F  </i>
   <i type="logical" name="LCHARG"> F  </i>
   <i type="logical" name="LPARD"> F  </i>
   <i type="logical" name="LVTOT"> F  </i>
   <i type="logical" name="LVHAR"> F  </i>
   <i type="logical" name="LELF"> F  </i>
   <i type="logical" name="LOPTICS"> F  </i>
   <v name="STM">      0.00000000      0.00000000      0.00000000      0.00000000      0.00000000      0.00000000      0.00000000</v>
  </separator>
  <separator name="performance" >
   <i type="int" name="NPAR">    24</i>
   <i type="int" name="NSIM">     4</i>
   <i type="int" name="NBLK">    -1</i>
   <i type="logical" name="LPLANE"> T  </i>
   <i type="logical" name="LSCALAPACK"> T  </i>
   <i type="logical" name="LSCAAWARE"> F  </i>
   <i type="logical" name="LSCALU"> F  </i>
   <i type="logical" name="LASYNC"> F  </i>
   <i type="logical" name="LORBITALREAL"> F  </i>
  </separator>
  <separator name="miscellaneous" >
   <i type="int" name="IDIOT">     3</i>
   <i type="int" name="PHON_NSTRUCT">    -1</i>
   <i type="logical" name="LMUSIC"> F  </i>
   <v name="POMASS">     10.81100000</v>
   <v name="DARWINR">      0.00000000</v>
   <v name="DARWINV">      1.00000000</v>
   <i type="logical" name="LCORR"> T  </i>
  </separator>
  <i type="logical" name="GGA_COMPAT"> T  </i>
  <i type="logical" name="LBERRY"> F  </i>
  <i type="int" name="ICORELEVEL">     0</i>
  <i type="logical" name="LDAU"> F  </i>
  <i type="int" name="I_CONSTRAINED_M">     0</i>
  <separator name="electronic exchange-correlation" >
   <i type="string" name="GGA    ">PE</i>
   <i type="string" name="XC_C">1</i>
   <i type="int" name="VOSKOWN">     0</i>
   <i type="logical" name="LHFCALC"> F  </i>
   <i type="string" name="PRECFOCK"></i>
   <i type="logical" name="LSYMGRAD"> F  </i>
   <i type="logical" name="LHFONE"> F  </i>
   <i type="logical" name="LRHFCALC"> F  </i>
   <i type="logical" name="LTHOMAS"> F  </i>
   <i type="logical" name="LMODELHF"> F  </i>
   <i type="logical" name="LFOCKACE"> F  </i>
   <i name="ENCUT4O">     -1.00000000</i>
   <i type="int" name="EXXOEP">     0</i>
   <i type="int" name="FOURORBIT">     0</i>
   <i name="AEXX">      0.00000000</i>
   <i name="HFALPHA">      0.00000000</i>
   <i name="MCALPHA">      0.00000000</i>
   <i name="ALDAX">      1.00000000</i>
   <i name="AGGAX">      1.00000000</i>
   <i name="AMGGAX">      1.00000000</i>
   <i name="ALDAC">      1.00000000</i>
   <i name="AGGAC">      1.00000000</i>
   <i name="AMGGAC">      1.00000000</i>
   <i type="int" name="NKREDX">     1</i>
   <i type="int" name="NKREDY">     1</i>
   <i type="int" name="NKREDZ">     1</i>
   <i type="logical" name="SHIFTRED"> F  </i>
   <i type="logical" name="ODDONLY"> F  </i>
   <i type="logical" name="EVENONLY"> F  </i>
   <i type="int" name="LMAXFOCK">     0</i>
   <i type="int" name="NMAXFOCKAE">     0</i>
   <i type="logical" name="LFOCKAEDFT"> F  </i>
   <i name="HFSCREEN">      0.00000000</i>
   <i name="HFSCREENC">      0.00000000</i>
   <i type="int" name="NBANDSGWLOW">     0</i>
  </separator>
  <separator name="vdW DFT" >
   <i type="logical" name="LUSE_VDW"> F  </i>
   <i type="int" name="IVDW_NL">    -1</i>
   <i type="logical" name="LSPIN_VDW"> F  </i>
   <i name="ZAB_VDW">     -0.84910000</i>
   <i name="GAMMA_VDW">      1.39626340</i>
   <i name="ALPHA_VDW">      0.00000000</i>
   <i name="PARAM1">      0.12340000</i>
   <i name="PARAM2">      1.00000000</i>
   <i name="BPARAM">      6.30000000</i>
   <i name="CPARAM">      0.00930000</i>
  </separator>
  <separator name="model GW" >
   <i type="int" name="MODEL_GW">     0</i>
   <i name="MODEL_EPS0">      6.13175789</i>
   <i name="MODEL_ALPHA">      1.00000000</i>
  </separator>
  <separator name="linear response parameters" >
   <i type="logical" name="LEPSILON"> F  </i>
   <i type="logical" name="LRPA"> F  </i>
   <i type="logical" name="LNABLA"> F  </i>
   <i type="logical" name="LVEL"> F  </i>
   <i name="CSHIFT">      0.10000000</i>
   <i name="OMEGAMAX">     -1.00000000</i>
   <i name="DEG_THRESHOLD">      0.00200000</i>
   <i name="RTIME">     -0.10000000</i>
   <i name="WPLASMAI">      0.00000000</i>
   <v name="DFIELD">      0.00000000      0.00000000      0.00000000</v>
   <v name="WPLASMA">      0.00000000      0.00000000      0.00000000      0.00000000      0.00000000      0.00000000      0.00000000      0.00000000      0.00000000</v>
  </separator>
  <separator name="orbital magnetization" >
   <i type="logical" name="NUCIND"> F  </i>
   <v name="MAGPOS">      0.00000000      0.00000000      0.00000000</v>
   <i type="logical" name="LNICSALL"> T  </i>
   <i type="logical" name="ORBITALMAG"> F  </i>
   <i type="logical" name="LMAGBLOCH"> F  </i>
   <i type="logical" name="LCHIMAG"> F  </i>
   <i type="logical" name="LGAUGE"> T  </i>
   <i type="int" name="MAGATOM">     0</i>
   <v name="MAGDIPOL">      0.00000000      0.00000000      0.00000000</v>
   <v name="AVECCONST">      0.00000000      0.00000000      0.00000000</v>
  </separator>
  <separator name="response functions" >
   <i type="logical" name="LALL_IN_ONE"> F  </i>
   <i type="int" name="IALL_IN_ONE">    -1</i>
   <i type="int" name="NBANDS_WAVE">    -1</i>
   <i type="logical" name="LFINITE_TEMPERATURE"> F  </i>
   <i type="logical" name="LADDER"> F  </i>
   <i type="logical" name="LRPAFORCE"> F  </i>
   <i type="logical" name="LFXC"> F  </i>
   <i type="logical" name="LHARTREE"> T  </i>
   <i type="int" name="IBSE">     0</i>
   <v type="int" name="KPOINT">    -1     0     0     0</v>
   <i type="logical" name="LTCTC"> F  </i>
   <i type="logical" name="LTCTE"> F  </i>
   <i type="logical" name="LTETE"> F  </i>
   <i type="logical" name="LTRIPLET"> F  </i>
   <i type="logical" name="LFXCEPS"> F  </i>
   <i type="logical" name="LFXHEG"> F  </i>
   <i type="int" name="NATURALO">     2</i>
   <i type="logical" name="LHOLEGF"> F  </i>
   <i type="logical" name="L2ORDER"> F  </i>
   <i type="logical" name="LDMP1"> F  </i>
   <i type="logical" name="LMP2LT"> F  </i>
   <i type="logical" name="LSMP2LT"> F  </i>
   <i type="logical" name="LGWLF"> F  </i>
   <i name="ENCUTGW">     -1.60000002</i>
   <i name="ENCUTGWSOFT">     -1.60000002</i>
   <i name="ENCUTLF">     -1.00000000</i>
   <i type="logical" name="ESF_SPLINES"> F  </i>
   <i name="ESF_CONV">      0.01000000</i>
   <i type="int" name="ESF_NINTER">    15</i>
   <i type="int" name="LMAXMP2">    -1</i>
   <i name="SCISSOR">      0.00000000</i>
   <i type="int" name="NOMEGA">     0</i>
   <i type="int" name="NOMEGAR">     0</i>
   <i type="int" name="NBANDSGW">    -1</i>
   <i type="int" name="NBANDSO">    -1</i>
   <i type="int" name="NBANDSV">    -1</i>
   <i type="int" name="NELMGW">     1</i>
   <i type="int" name="NELMHF">     1</i>
   <i type="int" name="DIM">     3</i>
   <i type="int" name="IESPILON">     4</i>
   <i type="int" name="ANTIRES">     0</i>
   <i name="OMEGAMAX">    -30.00000000</i>
   <i name="OMEGAMIN">    -30.00000000</i>
   <i name="OMEGATL">   -200.00000000</i>
   <i type="int" name="OMEGAGRID">     0</i>
   <i name="CSHIFT">     -0.10000000</i>
   <i type="logical" name="LSELFENERGY"> F  </i>
   <i type="logical" name="LSPECTRAL"> F  </i>
   <i type="logical" name="LSPECTRALGW"> F  </i>
   <i type="logical" name="LSINGLES"> F  </i>
   <i type="logical" name="LFERMIGW"> F  </i>
   <i type="logical" name="ODDONLYGW"> F  </i>
   <i type="logical" name="EVENONLYGW"> F  </i>
   <i type="int" name="NKREDLFX">     1</i>
   <i type="int" name="NKREDLFY">     1</i>
   <i type="int" name="NKREDLFZ">     1</i>
   <i type="int" name="MAXMEM">  2800</i>
   <i type="int" name="TELESCOPE">     0</i>
   <i type="int" name="NTAUPAR">    -1</i>
   <i type="int" name="NOMEGAPAR">    -1</i>
   <i name="DAMP_NEWTON">      0.80000001</i>
   <i name="LAMBDA">      1.00000000</i>
  </separator>
  <separator name="External order field" >
   <i name="OFIELD_KAPPA">      0.00000000</i>
   <v name="OFIELD_K">      0.00000000      0.00000000      0.00000000</v>
   <i name="OFIELD_Q6_NEAR">      0.00000000</i>
   <i name="OFIELD_Q6_FAR">      0.00000000</i>
   <i name="OFIELD_A">      0.00000000</i>
  </separator>
  <separator name="optional k-points parameters" >
   <i type="int" name="KPOINTS_OPT_MODE">     1</i>
   <i type="logical" name="LKPOINTS_OPT"> F  </i>
  </separator>
 </parameters>
 <atominfo>
  <atoms>      14 </atoms>
  <types>       1 </types>
  <array name="atoms" >
   <dimension dim="1">ion</dimension>
   <field type="string">element</field>
   <field type="int">atomtype</field>
   <set>
    <rc><c>B </c><c>   1</c></rc>
    <rc><c>B </c><c>   1</c></rc>
    <rc><c>B </c><c>   1</c></rc>
    <rc><c>B </c><c>   1</c></rc>
    <rc><c>B </c><c>   1</c></rc>
    <rc><c>B </c><c>   1</c></rc>
    <rc><c>B </c><c>   1</c></rc>
    <rc><c>B </c><c>   1</c></rc>
    <rc><c>B </c><c>   1</c></rc>
    <rc><c>B </c><c>   1</c></rc>
    <rc><c>B </c><c>   1</c></rc>
    <rc><c>B </c><c>   1</c></rc>
    <rc><c>B </c><c>   1</c></rc>
    <rc><c>B </c><c>   1</c></rc>
   </set>
  </array>
  <array name="atomtypes" >
   <dimension dim="1">type</dimension>
   <field type="int">atomspertype</field>
   <field type="string">element</field>
   <field>mass</field>
   <field>valence</field>
   <field type="string">pseudopotential</field>
   <set>
    <rc><c>  14</c><c>B </c><c>     10.81100000</c><c>      3.00000000</c><c>  PAW_PBE B 06Sep2000                   </c></rc>
   </set>
  </array>
 </atominfo>
 <structure name="initialpos" >
  <crystal>
   <varray name="basis" >
    <v>       5.69700000       0.00000000       0.00000000 </v>
    <v>       0.00000000       4.04790000       0.00000000 </v>
    <v>       0.00000000       0.00000000       6.20420000 </v>
   </varray>
   <i name="volume">    143.07435078 </i>
   <varray name="rec_basis" >
    <v>       0.17553098       0.00000000       0.00000000 </v>
    <v>       0.00000000       0.24704168       0.00000000 </v>
    <v>       0.00000000       0.00000000       0.16118114 </v>
   </varray>
  </crystal>
  <varray name="positions" >
   <v>       0.52123000       0.50000000       0.63796000 </v>
   <v>       0.47877000       0.50000000       0.36204000 </v>
   <v>       0.97877000       0.50000000       0.63796000 </v>
   <v>       0.02123000       0.50000000       0.36204000 </v>
   <v>       0.60090000       0.50000000       0.89991000 </v>
   <v>       0.39910000       0.50000000       0.10009000 </v>
   <v>       0.89910000       0.50000000       0.89991000 </v>
   <v>       0.10090000       0.50000000       0.10009000 </v>
   <v>       0.75000000       0.79171000       0.72973000 </v>
   <v>       0.25000000       0.20829000       0.27027000 </v>
   <v>       0.75000000       0.20829000       0.72973000 </v>
   <v>       0.25000000       0.79171000       0.27027000 </v>
   <v>       0.25000000       0.50000000       0.52367000 </v>
   <v>       0.75000000       0.50000000       0.47633000 </v>
  </varray>
 </structure>
 <calculation>
  <scstep>
   <time name="dav">    0.37    0.43</time>
   <time name="total">    0.39    0.45</time>
   <energy>
    <i name="alphaZ">     94.24357992 </i>
    <i name="ewald">   -795.76658092 </i>
    <i name="hartreedc">   -271.33601302 </i>
    <i name="XCdc">     97.50108136 </i>
    <i name="pawpsdc">    608.99811708 </i>
    <i name="pawaedc">   -597.02363782 </i>
    <i name="eentropy">     -0.00334060 </i>
    <i name="bandstr">    -78.89313118 </i>
    <i name="atom">    996.36613177 </i>
    <i name="e_fr_energy">     54.08620658 </i>
    <i name="e_wo_entrp">     54.08954719 </i>
    <i name="e_0_energy">     54.08787688 </i>
   </energy>
  </scstep>
  <scstep>
   <time name="dav">    0.44    0.44</time>
   <time name="total">    0.44    0.44</time>
   <energy>
    <i name="e_fr_energy">    -92.77148948 </i>
    <i name="e_wo_entrp">    -92.76735921 </i>
    <i name="e_0_energy">    -92.76942435 </i>
   </energy>
  </scstep>
  <scstep>
   <time name="dav">    0.46    0.46</time>
   <time name="total">    0.46    0.46</time>
   <energy>
    <i name="e_fr_energy">    -97.61211990 </i>
    <i name="e_wo_entrp">    -97.60854256 </i>
    <i name="e_0_energy">    -97.61033123 </i>
   </energy>
  </scstep>
  <scstep>
   <time name="dav">    0.40    0.40</time>
   <time name="total">    0.40    0.40</time>
   <energy>
    <i name="e_fr_energy">    -97.64005432 </i>
    <i name="e_wo_entrp">    -97.63648692 </i>
    <i name="e_0_energy">    -97.63827062 </i>
   </energy>
  </scstep>
  <scstep>
   <time name="dav">    0.45    0.45</time>
   <time name="total">    0.47    0.47</time>
   <energy>
    <i name="e_fr_energy">    -97.64037238 </i>
    <i name="e_wo_entrp">    -97.63680505 </i>
    <i name="e_0_energy">    -97.63858871 </i>
   </energy>
  </scstep>
  <scstep>
   <time name="dav">    0.45    0.45</time>
   <time name="total">    0.48    0.48</time>
   <energy>
    <i name="e_fr_energy">    -92.20261562 </i>
    <i name="e_wo_entrp">    -92.19718668 </i>
    <i name="e_0_energy">    -92.19990115 </i>
   </energy>
  </scstep>
  <scstep>
   <time name="dav">    0.46    0.46</time>
   <time name="total">    0.48    0.48</time>
   <energy>
    <i name="e_fr_energy">    -90.55068094 </i>
    <i name="e_wo_entrp">    -90.54574249 </i>
    <i name="e_0_energy">    -90.54821171 </i>
   </energy>
  </scstep>
  <scstep>
   <time name="dav">    0.33    0.33</time>
   <time name="total">    0.35    0.36</time>
   <energy>
    <i name="e_fr_energy">    -90.56537823 </i>
    <i name="e_wo_entrp">    -90.56048855 </i>
    <i name="e_0_energy">    -90.56293339 </i>
   </energy>
  </scstep>
  <scstep>
   <time name="dav">    0.44    0.44</time>
   <time name="total">    0.47    0.47</time>
   <energy>
    <i name="e_fr_energy">    -90.57896175 </i>
    <i name="e_wo_entrp">    -90.57440754 </i>
    <i name="e_0_energy">    -90.57668465 </i>
   </energy>
  </scstep>
  <scstep>
   <time name="dav">    0.34    0.34</time>
   <time name="total">    0.36    0.37</time>
   <energy>
    <i name="e_fr_energy">    -90.58248314 </i>
    <i name="e_wo_entrp">    -90.57770902 </i>
    <i name="e_0_energy">    -90.58009608 </i>
   </energy>
  </scstep>
  <scstep>
   <time name="dav">    0.41    0.41</time>
   <time name="total">    0.43    0.43</time>
   <energy>
    <i name="e_fr_energy">    -90.58348745 </i>
    <i name="e_wo_entrp">    -90.57869840 </i>
    <i name="e_0_energy">    -90.58109292 </i>
   </energy>
  </scstep>
  <scstep>
   <time name="dav">    0.38    0.38</time>
   <time name="total">    0.41    0.41</time>
   <energy>
    <i name="e_fr_energy">    -90.58361110 </i>
    <i name="e_wo_entrp">    -90.57886705 </i>
    <i name="e_0_energy">    -90.58123907 </i>
   </energy>
  </scstep>
  <scstep>
   <time name="dav">    0.43    0.43</time>
   <time name="total">    0.45    0.45</time>
   <energy>
    <i name="e_fr_energy">    -90.58361643 </i>
    <i name="e_wo_entrp">    -90.57886833 </i>
    <i name="e_0_energy">    -90.58124238 </i>
   </energy>
  </scstep>
  <scstep>
   <time name="dav">    0.37    0.37</time>
   <time name="total">    0.38    0.38</time>
   <energy>
    <i name="alphaZ">     94.24357992 </i>
    <i name="ewald">   -795.76658092 </i>
    <i name="hartreedc">   -349.05753586 </i>
    <i name="XCdc">    101.58895349 </i>
    <i name="pawpsdc">   3723.89408332 </i>
    <i name="pawaedc">  -3713.08626120 </i>
    <i name="eentropy">     -0.00474667 </i>
    <i name="bandstr">   -148.76124124 </i>
    <i name="atom">    996.36613177 </i>
    <i name="e_fr_energy">    -90.58361739 </i>
    <i name="e_wo_entrp">    -90.57887071 </i>
    <i name="e_0_energy">    -90.58124405 </i>
   </energy>
  </scstep>
  <structure>
   <crystal>
    <varray name="basis" >
     <v>       5.69700000       0.00000000       0.00000000 </v>
     <v>       0.00000000       4.04790000       0.00000000 </v>
     <v>       0.00000000       0.00000000       6.20420000 </v>
    </varray>
    <i name="volume">    143.07435078 </i>
    <varray name="rec_basis" >
     <v>       0.17553098       0.00000000       0.00000000 </v>
     <v>       0.00000000       0.24704168       0.00000000 </v>
     <v>       0.00000000       0.00000000       0.16118114 </v>
    </varray>
   </crystal>
   <varray name="positions" >
    <v>       0.52123000       0.50000000       0.63796000 </v>
    <v>       0.47877000       0.50000000       0.36204000 </v>
    <v>       0.97877000       0.50000000       0.63796000 </v>
    <v>       0.02123000       0.50000000       0.36204000 </v>
    <v>       0.60090000       0.50000000       0.89991000 </v>
    <v>       0.39910000       0.50000000       0.10009000 </v>
    <v>       0.89910000       0.50000000       0.89991000 </v>
    <v>       0.10090000       0.50000000       0.10009000 </v>
    <v>       0.75000000       0.79171000       0.72973000 </v>
    <v>       0.25000000       0.20829000       0.27027000 </v>
    <v>       0.75000000       0.20829000       0.72973000 </v>
    <v>       0.25000000       0.79171000       0.27027000 </v>
    <v>       0.25000000       0.50000000       0.52367000 </v>
    <v>       0.75000000       0.50000000       0.47633000 </v>
   </varray>
  </structure>
  <varray name="forces" >
   <v>      -0.19152455      -0.00000000       0.16718938 </v>
   <v>       0.19152455      -0.00000000      -0.16718938 </v>
   <v>       0.19152455      -0.00000000       0.16718938 </v>
   <v>      -0.19152455      -0.00000000      -0.16718938 </v>
   <v>      -0.90328847      -0.00000000       0.38520215 </v>
   <v>       0.90328847      -0.00000000      -0.38520215 </v>
   <v>       0.90328847      -0.00000000       0.38520215 </v>
   <v>      -0.90328847      -0.00000000      -0.38520215 </v>
   <v>       0.00000000      -0.24536339      -0.11435484 </v>
   <v>       0.00000000       0.24536339       0.11435484 </v>
   <v>      -0.00000000       0.24536339      -0.11435484 </v>
   <v>      -0.00000000      -0.24536339       0.11435484 </v>
   <v>      -0.00000000      -0.00000000       0.27346947 </v>
   <v>       0.00000000      -0.00000000      -0.27346947 </v>
  </varray>
  <varray name="stress" >
   <v>      19.24249375       0.00000000      -0.00000000 </v>
   <v>       0.00000000     -14.68281583       0.00000000 </v>
   <v>       0.00000000       0.00000000       5.51073796 </v>
  </varray>
  <energy>
   <i name="e_fr_energy">    -90.58361739 </i>
   <i name="e_wo_entrp">    -90.57887071 </i>
   <i name="e_0_energy">    -90.58124405 </i>
  </energy>
  <time name="totalsc">    6.25    6.33</time>
  <eigenvalues>
   <array>
    <dimension dim="1">band</dimension>
    <dimension dim="2">kpoint</dimension>
    <dimension dim="3">spin</dimension>
    <field>eigene</field>
    <field>occ</field>
    <set>
     <set comment="spin 1">
      <set comment="kpoint 1">
       <r>  -12.6735    1.0000 </r>
       <r>  -11.6571    1.0000 </r>
       <r>   -8.6319    1.0000 </r>
       <r>   -8.3346    1.0000 </r>
       <r>   -6.1591    1.0000 </r>
       <r>   -5.3196    1.0000 </r>
       <r>   -4.6161    1.0000 </r>
       <r>   -4.3353    1.0000 </r>
       <r>   -3.7692    1.0000 </r>
       <r>   -3.2360    1.0000 </r>
       <r>   -3.0866    1.0000 </r>
       <r>   -2.0644    1.0000 </r>
       <r>   -1.4907    1.0000 </r>
       <r>   -1.3055    1.0000 </r>
       <r>   -0.2787    1.0000 </r>
       <r>   -0.0590    1.0000 </r>
       <r>    0.0117    1.0000 </r>
       <r>    0.2149    1.0000 </r>
       <r>    0.3970    1.0000 </r>
       <r>    1.5802    1.0000 </r>
       <r>    1.9644    0.0000 </r>
       <r>    2.4987    0.0000 </r>
       <r>    5.5231    0.0000 </r>
       <r>    5.7964    0.0000 </r>
       <r>    5.8843    0.0000 </r>
       <r>    6.1644    0.0000 </r>
       <r>    7.0154    0.0000 </r>
       <r>    7.3801    0.0000 </r>
       <r>    8.1303    0.0000 </r>
       <r>    8.5059    0.0000 </r>
       <r>    8.8975    0.0000 </r>
       <r>    9.3160    0.0000 </r>
       <r>    9.5285    0.0000 </r>
       <r>   10.4942    0.0000 </r>
       <r>   10.7622    0.0000 </r>
       <r>   11.0387    0.0000 </r>
       <r>   11.2934    0.0000 </r>
       <r>   11.8354    0.0000 </r>
       <r>   12.1033    0.0000 </r>
       <r>   12.6784    0.0000 </r>
       <r>   13.1320    0.0000 </r>
       <r>   13.3966    0.0000 </r>
       <r>   13.6796    0.0000 </r>
       <r>   14.8112    0.0000 </r>
       <r>   15.3099    0.0000 </r>
       <r>   15.7248    0.0000 </r>
       <r>   15.8985    0.0000 </r>
       <r>   16.3945    0.0000 </r>
      </set>
      <set comment="kpoint 2">
       <r>  -12.4199    1.0000 </r>
       <r>  -12.0050    1.0000 </r>
       <r>   -8.5646    1.0000 </r>
       <r>   -8.3651    1.0000 </r>
       <r>   -6.1294    1.0000 </r>
       <r>   -5.7453    1.0000 </r>
       <r>   -4.3105    1.0000 </r>
       <r>   -4.0241    1.0000 </r>
       <r>   -3.5583    1.0000 </r>
       <r>   -2.9330    1.0000 </r>
       <r>   -2.4682    1.0000 </r>
       <r>   -2.0216    1.0000 </r>
       <r>   -1.8463    1.0000 </r>
       <r>   -1.8035    1.0000 </r>
       <r>   -0.6055    1.0000 </r>
       <r>   -0.2779    1.0000 </r>
       <r>   -0.0269    1.0000 </r>
       <r>    0.2259    1.0000 </r>
       <r>    0.5230    1.0000 </r>
       <r>    1.4043    1.0000 </r>
       <r>    1.5204    1.0000 </r>
       <r>    1.8026    0.6576 </r>
       <r>    5.7474    0.0000 </r>
       <r>    6.1356    0.0000 </r>
       <r>    6.5783    0.0000 </r>
       <r>    6.7978    0.0000 </r>
       <r>    6.8012    0.0000 </r>
       <r>    7.3316    0.0000 </r>
       <r>    8.4987    0.0000 </r>
       <r>    8.5978    0.0000 </r>
       <r>    8.8420    0.0000 </r>
       <r>    9.0568    0.0000 </r>
       <r>    9.8094    0.0000 </r>
       <r>   10.3617    0.0000 </r>
       <r>   10.7170    0.0000 </r>
       <r>   11.2429    0.0000 </r>
       <r>   11.5067    0.0000 </r>
       <r>   11.8260    0.0000 </r>
       <r>   12.3516    0.0000 </r>
       <r>   12.5148    0.0000 </r>
       <r>   13.1455    0.0000 </r>
       <r>   13.4810    0.0000 </r>
       <r>   14.2525    0.0000 </r>
       <r>   14.7119    0.0000 </r>
       <r>   15.0715    0.0000 </r>
       <r>   15.3596    0.0000 </r>
       <r>   15.4714    0.0000 </r>
       <r>   16.0889    0.0000 </r>
      </set>
      <set comment="kpoint 3">
       <r>  -12.5602    1.0000 </r>
       <r>  -11.5535    1.0000 </r>
       <r>   -8.5408    1.0000 </r>
       <r>   -8.2305    1.0000 </r>
       <r>   -6.0267    1.0000 </r>
       <r>   -5.6036    1.0000 </r>
       <r>   -5.1550    1.0000 </r>
       <r>   -4.5860    1.0000 </r>
       <r>   -4.4960    1.0000 </r>
       <r>   -3.6669    1.0000 </r>
       <r>   -2.9762    1.0000 </r>
       <r>   -1.2995    1.0000 </r>
       <r>   -1.2205    1.0000 </r>
       <r>   -0.9509    1.0000 </r>
       <r>   -0.2781    1.0000 </r>
       <r>    0.0056    1.0000 </r>
       <r>    0.2700    1.0000 </r>
       <r>    0.5003    1.0000 </r>
       <r>    0.5569    1.0000 </r>
       <r>    0.7532    1.0000 </r>
       <r>    1.0289    1.0000 </r>
       <r>    2.5916    0.0000 </r>
       <r>    5.0791    0.0000 </r>
       <r>    5.4840    0.0000 </r>
       <r>    6.1701    0.0000 </r>
       <r>    6.7376    0.0000 </r>
       <r>    7.4924    0.0000 </r>
       <r>    8.1456    0.0000 </r>
       <r>    8.6637    0.0000 </r>
       <r>    9.0708    0.0000 </r>
       <r>    9.5192    0.0000 </r>
       <r>    9.6165    0.0000 </r>
       <r>    9.9250    0.0000 </r>
       <r>   10.3327    0.0000 </r>
       <r>   10.5376    0.0000 </r>
       <r>   11.7676    0.0000 </r>
       <r>   11.8155    0.0000 </r>
       <r>   12.0542    0.0000 </r>
       <r>   12.6181    0.0000 </r>
       <r>   12.6979    0.0000 </r>
       <r>   12.8691    0.0000 </r>
       <r>   13.5538    0.0000 </r>
       <r>   13.7089    0.0000 </r>
       <r>   13.8165    0.0000 </r>
       <r>   14.4768    0.0000 </r>
       <r>   14.9426    0.0000 </r>
       <r>   15.4455    0.0000 </r>
       <r>   15.8062    0.0000 </r>
      </set>
      <set comment="kpoint 4">
       <r>  -12.3093    1.0000 </r>
       <r>  -11.8984    1.0000 </r>
       <r>   -8.4671    1.0000 </r>
       <r>   -8.2685    1.0000 </r>
       <r>   -5.9765    1.0000 </r>
       <r>   -5.6038    1.0000 </r>
       <r>   -5.3048    1.0000 </r>
       <r>   -4.8975    1.0000 </r>
       <r>   -4.2357    1.0000 </r>
       <r>   -2.8557    1.0000 </r>
       <r>   -2.3438    1.0000 </r>
       <r>   -1.8477    1.0000 </r>
       <r>   -1.2014    1.0000 </r>
       <r>   -0.9397    1.0000 </r>
       <r>   -0.6363    1.0000 </r>
       <r>   -0.1894    1.0000 </r>
       <r>    0.1164    1.0000 </r>
       <r>    0.2681    1.0000 </r>
       <r>    0.5661    1.0000 </r>
       <r>    0.7453    1.0000 </r>
       <r>    0.9357    1.0000 </r>
       <r>    1.5780    1.0000 </r>
       <r>    6.0978    0.0000 </r>
       <r>    6.3919    0.0000 </r>
       <r>    6.5462    0.0000 </r>
       <r>    6.9711    0.0000 </r>
       <r>    7.5841    0.0000 </r>
       <r>    8.0369    0.0000 </r>
       <r>    8.3954    0.0000 </r>
       <r>    8.5755    0.0000 </r>
       <r>    9.2615    0.0000 </r>
       <r>    9.5340    0.0000 </r>
       <r>    9.7198    0.0000 </r>
       <r>   10.5951    0.0000 </r>
       <r>   10.7735    0.0000 </r>
       <r>   11.2733    0.0000 </r>
       <r>   11.5493    0.0000 </r>
       <r>   11.9000    0.0000 </r>
       <r>   12.9731    0.0000 </r>
       <r>   13.1133    0.0000 </r>
       <r>   13.4632    0.0000 </r>
       <r>   13.5338    0.0000 </r>
       <r>   13.7938    0.0000 </r>
       <r>   14.0977    0.0000 </r>
       <r>   14.6698    0.0000 </r>
       <r>   14.9803    0.0000 </r>
       <r>   15.2666    0.0000 </r>
       <r>   16.1891    0.0000 </r>
      </set>
      <set comment="kpoint 5">
       <r>  -12.4361    1.0000 </r>
       <r>  -11.4406    1.0000 </r>
       <r>   -8.4443    1.0000 </r>
       <r>   -8.1167    1.0000 </r>
       <r>   -6.3727    1.0000 </r>
       <r>   -5.8704    1.0000 </r>
       <r>   -5.3528    1.0000 </r>
       <r>   -4.9777    1.0000 </r>
       <r>   -4.3658    1.0000 </r>
       <r>   -3.5482    1.0000 </r>
       <r>   -2.8253    1.0000 </r>
       <r>   -1.8431    1.0000 </r>
       <r>   -1.5722    1.0000 </r>
       <r>   -1.2387    1.0000 </r>
       <r>   -0.1977    1.0000 </r>
       <r>    0.0546    1.0000 </r>
       <r>    0.2437    1.0000 </r>
       <r>    0.3209    1.0000 </r>
       <r>    0.5927    1.0000 </r>
       <r>    1.1339    1.0000 </r>
       <r>    2.0291    0.0000 </r>
       <r>    2.6548    0.0000 </r>
       <r>    4.4902    0.0000 </r>
       <r>    5.0018    0.0000 </r>
       <r>    6.4037    0.0000 </r>
       <r>    7.1470    0.0000 </r>
       <r>    7.5428    0.0000 </r>
       <r>    8.6840    0.0000 </r>
       <r>    8.9635    0.0000 </r>
       <r>    9.2615    0.0000 </r>
       <r>    9.9085    0.0000 </r>
       <r>   10.1950    0.0000 </r>
       <r>   10.3981    0.0000 </r>
       <r>   11.0106    0.0000 </r>
       <r>   11.2524    0.0000 </r>
       <r>   11.5856    0.0000 </r>
       <r>   11.8793    0.0000 </r>
       <r>   12.0972    0.0000 </r>
       <r>   12.4001    0.0000 </r>
       <r>   12.8776    0.0000 </r>
       <r>   12.9646    0.0000 </r>
       <r>   13.3579    0.0000 </r>
       <r>   13.5965    0.0000 </r>
       <r>   14.4482    0.0000 </r>
       <r>   14.5541    0.0000 </r>
       <r>   15.1278    0.0000 </r>
       <r>   15.3458    0.0000 </r>
       <r>   15.4364    0.0000 </r>
      </set>
      <set comment="kpoint 6">
       <r>  -12.1883    1.0000 </r>
       <r>  -11.7822    1.0000 </r>
       <r>   -8.3628    1.0000 </r>
       <r>   -8.1642    1.0000 </r>
       <r>   -6.1020    1.0000 </r>
       <r>   -5.7921    1.0000 </r>
       <r>   -5.6695    1.0000 </r>
       <r>   -5.4029    1.0000 </r>
       <r>   -4.1510    1.0000 </r>
       <r>   -2.7586    1.0000 </r>
       <r>   -2.2096    1.0000 </r>
       <r>   -1.8182    1.0000 </r>
       <r>   -1.7070    1.0000 </r>
       <r>   -1.4559    1.0000 </r>
       <r>   -0.5537    1.0000 </r>
       <r>   -0.3752    1.0000 </r>
       <r>   -0.0297    1.0000 </r>
       <r>    0.0368    1.0000 </r>
       <r>    0.6410    1.0000 </r>
       <r>    1.4810    1.0000 </r>
       <r>    1.6350    1.0000 </r>
       <r>    1.8303    0.3533 </r>
       <r>    5.5406    0.0000 </r>
       <r>    6.0547    0.0000 </r>
       <r>    6.7410    0.0000 </r>
       <r>    7.2081    0.0000 </r>
       <r>    7.4922    0.0000 </r>
       <r>    7.8037    0.0000 </r>
       <r>    9.0443    0.0000 </r>
       <r>    9.2164    0.0000 </r>
       <r>    9.8006    0.0000 </r>
       <r>    9.9220    0.0000 </r>
       <r>   10.4773    0.0000 </r>
       <r>   10.9995    0.0000 </r>
       <r>   11.7025    0.0000 </r>
       <r>   11.8411    0.0000 </r>
       <r>   11.9470    0.0000 </r>
       <r>   12.0890    0.0000 </r>
       <r>   12.2183    0.0000 </r>
       <r>   12.6034    0.0000 </r>
       <r>   13.0494    0.0000 </r>
       <r>   13.4638    0.0000 </r>
       <r>   13.6635    0.0000 </r>
       <r>   14.0417    0.0000 </r>
       <r>   14.3950    0.0000 </r>
       <r>   14.6324    0.0000 </r>
       <r>   15.2136    0.0000 </r>
       <r>   15.7211    0.0000 </r>
      </set>
      <set comment="kpoint 7">
       <r>  -12.6021    1.0000 </r>
       <r>  -11.7682    1.0000 </r>
       <r>   -8.6564    1.0000 </r>
       <r>   -8.1567    1.0000 </r>
       <r>   -6.6363    1.0000 </r>
       <r>   -5.6199    1.0000 </r>
       <r>   -4.1970    1.0000 </r>
       <r>   -3.8313    1.0000 </r>
       <r>   -3.4276    1.0000 </r>
       <r>   -3.1059    1.0000 </r>
       <r>   -2.4931    1.0000 </r>
       <r>   -2.0019    1.0000 </r>
       <r>   -1.7390    1.0000 </r>
       <r>   -1.4930    1.0000 </r>
       <r>   -1.3217    1.0000 </r>
       <r>   -0.6249    1.0000 </r>
       <r>   -0.1347    1.0000 </r>
       <r>    0.2918    1.0000 </r>
       <r>    0.5327    1.0000 </r>
       <r>    1.2599    1.0000 </r>
       <r>    1.7432    0.9815 </r>
       <r>    3.2360    0.0000 </r>
       <r>    5.3579    0.0000 </r>
       <r>    5.6971    0.0000 </r>
       <r>    5.9390    0.0000 </r>
       <r>    7.0119    0.0000 </r>
       <r>    7.1963    0.0000 </r>
       <r>    7.3649    0.0000 </r>
       <r>    8.1359    0.0000 </r>
       <r>    8.8493    0.0000 </r>
       <r>    8.9327    0.0000 </r>
       <r>    9.4773    0.0000 </r>
       <r>    9.6124    0.0000 </r>
       <r>   10.4869    0.0000 </r>
       <r>   10.6538    0.0000 </r>
       <r>   11.0084    0.0000 </r>
       <r>   11.3881    0.0000 </r>
       <r>   11.8748    0.0000 </r>
       <r>   12.2328    0.0000 </r>
       <r>   12.5743    0.0000 </r>
       <r>   13.1463    0.0000 </r>
       <r>   13.6451    0.0000 </r>
       <r>   13.9947    0.0000 </r>
       <r>   14.3239    0.0000 </r>
       <r>   14.7901    0.0000 </r>
       <r>   14.9598    0.0000 </r>
       <r>   15.4284    0.0000 </r>
       <r>   16.0255    0.0000 </r>
      </set>
      <set comment="kpoint 8">
       <r>  -12.3726    1.0000 </r>
       <r>  -12.0226    1.0000 </r>
       <r>   -8.7776    1.0000 </r>
       <r>   -8.5069    1.0000 </r>
       <r>   -5.7139    1.0000 </r>
       <r>   -5.0374    1.0000 </r>
       <r>   -4.6091    1.0000 </r>
       <r>   -3.9365    1.0000 </r>
       <r>   -3.6068    1.0000 </r>
       <r>   -3.5079    1.0000 </r>
       <r>   -2.4547    1.0000 </r>
       <r>   -1.9748    1.0000 </r>
       <r>   -1.7920    1.0000 </r>
       <r>   -1.6553    1.0000 </r>
       <r>   -0.5735    1.0000 </r>
       <r>   -0.5057    1.0000 </r>
       <r>   -0.3217    1.0000 </r>
       <r>   -0.1428    1.0000 </r>
       <r>    0.3165    1.0000 </r>
       <r>    1.2858    1.0000 </r>
       <r>    1.9536    0.0001 </r>
       <r>    2.2578    0.0000 </r>
       <r>    5.8852    0.0000 </r>
       <r>    6.2909    0.0000 </r>
       <r>    6.6998    0.0000 </r>
       <r>    6.7798    0.0000 </r>
       <r>    7.0189    0.0000 </r>
       <r>    7.1817    0.0000 </r>
       <r>    7.9727    0.0000 </r>
       <r>    8.2032    0.0000 </r>
       <r>    8.4663    0.0000 </r>
       <r>    9.1060    0.0000 </r>
       <r>   10.2299    0.0000 </r>
       <r>   10.6148    0.0000 </r>
       <r>   11.1768    0.0000 </r>
       <r>   11.3096    0.0000 </r>
       <r>   11.9375    0.0000 </r>
       <r>   12.4522    0.0000 </r>
       <r>   12.5090    0.0000 </r>
       <r>   13.0254    0.0000 </r>
       <r>   13.4336    0.0000 </r>
       <r>   13.6589    0.0000 </r>
       <r>   14.0214    0.0000 </r>
       <r>   14.2490    0.0000 </r>
       <r>   14.5334    0.0000 </r>
       <r>   15.0439    0.0000 </r>
       <r>   15.6014    0.0000 </r>
       <r>   15.8249    0.0000 </r>
      </set>
      <set comment="kpoint 9">
       <r>  -12.4916    1.0000 </r>
       <r>  -11.6598    1.0000 </r>
       <r>   -8.5656    1.0000 </r>
       <r>   -8.0605    1.0000 </r>
       <r>   -6.5055    1.0000 </r>
       <r>   -5.4650    1.0000 </r>
       <r>   -5.4529    1.0000 </r>
       <r>   -4.7855    1.0000 </r>
       <r>   -3.7107    1.0000 </r>
       <r>   -3.0089    1.0000 </r>
       <r>   -2.3488    1.0000 </r>
       <r>   -1.4947    1.0000 </r>
       <r>   -1.2975    1.0000 </r>
       <r>   -1.1416    1.0000 </r>
       <r>   -0.8130    1.0000 </r>
       <r>   -0.6229    1.0000 </r>
       <r>   -0.0299    1.0000 </r>
       <r>    0.2011    1.0000 </r>
       <r>    0.4587    1.0000 </r>
       <r>    0.6857    1.0000 </r>
       <r>    0.9280    1.0000 </r>
       <r>    3.3272    0.0000 </r>
       <r>    5.2913    0.0000 </r>
       <r>    5.8649    0.0000 </r>
       <r>    6.5088    0.0000 </r>
       <r>    6.6716    0.0000 </r>
       <r>    8.0160    0.0000 </r>
       <r>    8.4474    0.0000 </r>
       <r>    8.7612    0.0000 </r>
       <r>    8.9858    0.0000 </r>
       <r>    8.9914    0.0000 </r>
       <r>    9.5601    0.0000 </r>
       <r>    9.8824    0.0000 </r>
       <r>   10.0840    0.0000 </r>
       <r>   10.5649    0.0000 </r>
       <r>   10.9891    0.0000 </r>
       <r>   11.2626    0.0000 </r>
       <r>   12.2473    0.0000 </r>
       <r>   12.7025    0.0000 </r>
       <r>   13.0570    0.0000 </r>
       <r>   13.2827    0.0000 </r>
       <r>   13.5643    0.0000 </r>
       <r>   13.9532    0.0000 </r>
       <r>   14.1070    0.0000 </r>
       <r>   14.4909    0.0000 </r>
       <r>   15.0843    0.0000 </r>
       <r>   15.2788    0.0000 </r>
       <r>   15.4277    0.0000 </r>
      </set>
      <set comment="kpoint 10">
       <r>  -12.2638    1.0000 </r>
       <r>  -11.9153    1.0000 </r>
       <r>   -8.6717    1.0000 </r>
       <r>   -8.4022    1.0000 </r>
       <r>   -5.5819    1.0000 </r>
       <r>   -5.2438    1.0000 </r>
       <r>   -4.9531    1.0000 </r>
       <r>   -4.8595    1.0000 </r>
       <r>   -4.5110    1.0000 </r>
       <r>   -3.4276    1.0000 </r>
       <r>   -2.3615    1.0000 </r>
       <r>   -1.6524    1.0000 </r>
       <r>   -1.4283    1.0000 </r>
       <r>   -1.2353    1.0000 </r>
       <r>   -0.4966    1.0000 </r>
       <r>   -0.3825    1.0000 </r>
       <r>    0.0662    1.0000 </r>
       <r>    0.1767    1.0000 </r>
       <r>    0.4905    1.0000 </r>
       <r>    1.0918    1.0000 </r>
       <r>    1.2640    1.0000 </r>
       <r>    1.4071    1.0000 </r>
       <r>    6.1186    0.0000 </r>
       <r>    6.3960    0.0000 </r>
       <r>    6.9144    0.0000 </r>
       <r>    7.1523    0.0000 </r>
       <r>    7.5493    0.0000 </r>
       <r>    7.8976    0.0000 </r>
       <r>    8.0106    0.0000 </r>
       <r>    8.5112    0.0000 </r>
       <r>    9.0937    0.0000 </r>
       <r>    9.4352    0.0000 </r>
       <r>    9.8827    0.0000 </r>
       <r>   10.7726    0.0000 </r>
       <r>   11.1187    0.0000 </r>
       <r>   11.2098    0.0000 </r>
       <r>   11.8244    0.0000 </r>
       <r>   12.5901    0.0000 </r>
       <r>   12.7848    0.0000 </r>
       <r>   13.2555    0.0000 </r>
       <r>   13.4062    0.0000 </r>
       <r>   13.8535    0.0000 </r>
       <r>   13.9671    0.0000 </r>
       <r>   14.2352    0.0000 </r>
       <r>   14.3944    0.0000 </r>
       <r>   14.5647    0.0000 </r>
       <r>   15.1071    0.0000 </r>
       <r>   15.3750    0.0000 </r>
      </set>
      <set comment="kpoint 11">
       <r>  -12.3708    1.0000 </r>
       <r>  -11.5413    1.0000 </r>
       <r>   -8.4690    1.0000 </r>
       <r>   -7.9569    1.0000 </r>
       <r>   -6.3553    1.0000 </r>
       <r>   -6.2269    1.0000 </r>
       <r>   -5.5649    1.0000 </r>
       <r>   -5.2642    1.0000 </r>
       <r>   -3.5534    1.0000 </r>
       <r>   -2.9050    1.0000 </r>
       <r>   -2.1883    1.0000 </r>
       <r>   -1.7127    1.0000 </r>
       <r>   -1.4239    1.0000 </r>
       <r>   -1.3304    1.0000 </r>
       <r>   -1.2302    1.0000 </r>
       <r>   -0.5903    1.0000 </r>
       <r>   -0.4382    1.0000 </r>
       <r>   -0.0558    1.0000 </r>
       <r>    0.4742    1.0000 </r>
       <r>    1.4283    1.0000 </r>
       <r>    1.9029    0.0076 </r>
       <r>    3.3969    0.0000 </r>
       <r>    4.7608    0.0000 </r>
       <r>    5.9879    0.0000 </r>
       <r>    6.1744    0.0000 </r>
       <r>    7.4557    0.0000 </r>
       <r>    7.6074    0.0000 </r>
       <r>    7.9972    0.0000 </r>
       <r>    9.0076    0.0000 </r>
       <r>    9.2740    0.0000 </r>
       <r>    9.6969    0.0000 </r>
       <r>   10.1188    0.0000 </r>
       <r>   10.8837    0.0000 </r>
       <r>   11.0648    0.0000 </r>
       <r>   11.3340    0.0000 </r>
       <r>   11.4707    0.0000 </r>
       <r>   11.5879    0.0000 </r>
       <r>   11.9021    0.0000 </r>
       <r>   12.1000    0.0000 </r>
       <r>   12.6229    0.0000 </r>
       <r>   12.7174    0.0000 </r>
       <r>   13.4026    0.0000 </r>
       <r>   13.7161    0.0000 </r>
       <r>   13.7891    0.0000 </r>
       <r>   14.5530    0.0000 </r>
       <r>   14.9688    0.0000 </r>
       <r>   15.3390    0.0000 </r>
       <r>   15.6734    0.0000 </r>
      </set>
      <set comment="kpoint 12">
       <r>  -12.1451    1.0000 </r>
       <r>  -11.7982    1.0000 </r>
       <r>   -8.5572    1.0000 </r>
       <r>   -8.2889    1.0000 </r>
       <r>   -6.0102    1.0000 </r>
       <r>   -5.7286    1.0000 </r>
       <r>   -5.4079    1.0000 </r>
       <r>   -4.6875    1.0000 </r>
       <r>   -4.4001    1.0000 </r>
       <r>   -3.3105    1.0000 </r>
       <r>   -2.2644    1.0000 </r>
       <r>   -2.0883    1.0000 </r>
       <r>   -1.9092    1.0000 </r>
       <r>   -1.4984    1.0000 </r>
       <r>   -0.4249    1.0000 </r>
       <r>   -0.2228    1.0000 </r>
       <r>    0.1102    1.0000 </r>
       <r>    0.4840    1.0000 </r>
       <r>    0.5298    1.0000 </r>
       <r>    1.3641    1.0000 </r>
       <r>    1.4723    1.0000 </r>
       <r>    1.6640    1.0000 </r>
       <r>    5.6675    0.0000 </r>
       <r>    6.0443    0.0000 </r>
       <r>    6.8646    0.0000 </r>
       <r>    7.1686    0.0000 </r>
       <r>    7.8855    0.0000 </r>
       <r>    8.0099    0.0000 </r>
       <r>    8.9138    0.0000 </r>
       <r>    9.1346    0.0000 </r>
       <r>    9.6776    0.0000 </r>
       <r>    9.9344    0.0000 </r>
       <r>   10.4012    0.0000 </r>
       <r>   10.8976    0.0000 </r>
       <r>   11.2653    0.0000 </r>
       <r>   11.5809    0.0000 </r>
       <r>   11.6681    0.0000 </r>
       <r>   12.0146    0.0000 </r>
       <r>   12.8339    0.0000 </r>
       <r>   13.0190    0.0000 </r>
       <r>   13.2022    0.0000 </r>
       <r>   13.4994    0.0000 </r>
       <r>   13.8500    0.0000 </r>
       <r>   14.2602    0.0000 </r>
       <r>   14.5318    0.0000 </r>
       <r>   14.9593    0.0000 </r>
       <r>   15.0759    0.0000 </r>
       <r>   15.2771    0.0000 </r>
      </set>
     </set>
    </set>
   </array>
  </eigenvalues>
  <separator name="orbital magnetization" >
   <v name="MAGDIPOLOUT">      0.00000000      0.00000000      0.00000000</v>
  </separator>
  <dos>
   <i name="efermi">      1.81697257 </i>
   <total>
    <array>
     <dimension dim="1">gridpoints</dimension>
     <dimension dim="2">spin</dimension>
     <field>energy</field>
     <field>total</field>
     <field>integrated</field>
     <set>
      <set comment="spin 1">
       <r>   -14.1269     0.0000     0.0000 </r>
       <r>   -14.0203     0.0000     0.0000 </r>
       <r>   -13.9137     0.0000     0.0000 </r>
       <r>   -13.8071     0.0000     0.0000 </r>
       <r>   -13.7006     0.0000     0.0000 </r>
       <r>   -13.5940     0.0000     0.0000 </r>
       <r>   -13.4874     0.0000     0.0000 </r>
       <r>   -13.3808     0.0000     0.0000 </r>
       <r>   -13.2742     0.0000     0.0000 </r>
       <r>   -13.1676     0.0000     0.0000 </r>
       <r>   -13.0611     0.0000     0.0000 </r>
       <r>   -12.9545     0.0000     0.0000 </r>
       <r>   -12.8479     0.0000     0.0000 </r>
       <r>   -12.7413     0.0431     0.0046 </r>
       <r>   -12.6347     1.6127     0.1765 </r>
       <r>   -12.5281     2.9660     0.4926 </r>
       <r>   -12.4216     3.6292     0.8794 </r>
       <r>   -12.3150     4.8834     1.3999 </r>
       <r>   -12.2084     2.9108     1.7102 </r>
       <r>   -12.1018     2.5598     1.9830 </r>
       <r>   -11.9952     2.3561     2.2341 </r>
       <r>   -11.8886     3.1048     2.5650 </r>
       <r>   -11.7821     3.3374     2.9207 </r>
       <r>   -11.6755     3.2852     3.2709 </r>
       <r>   -11.5689     2.9912     3.5897 </r>
       <r>   -11.4623     2.6801     3.8753 </r>
       <r>   -11.3557     1.1568     3.9986 </r>
       <r>   -11.2492     0.0128     4.0000 </r>
       <r>   -11.1426     0.0000     4.0000 </r>
       <r>   -11.0360     0.0000     4.0000 </r>
       <r>   -10.9294     0.0000     4.0000 </r>
       <r>   -10.8228     0.0000     4.0000 </r>
       <r>   -10.7162     0.0000     4.0000 </r>
       <r>   -10.6097     0.0000     4.0000 </r>
       <r>   -10.5031     0.0000     4.0000 </r>
       <r>   -10.3965     0.0000     4.0000 </r>
       <r>   -10.2899     0.0000     4.0000 </r>
       <r>   -10.1833     0.0000     4.0000 </r>
       <r>   -10.0767     0.0000     4.0000 </r>
       <r>    -9.9702     0.0000     4.0000 </r>
       <r>    -9.8636     0.0000     4.0000 </r>
       <r>    -9.7570     0.0000     4.0000 </r>
       <r>    -9.6504     0.0000     4.0000 </r>
       <r>    -9.5438     0.0000     4.0000 </r>
       <r>    -9.4372     0.0000     4.0000 </r>
       <r>    -9.3307     0.0000     4.0000 </r>
       <r>    -9.2241     0.0000     4.0000 </r>
       <r>    -9.1175     0.0000     4.0000 </r>
       <r>    -9.0109     0.0000     4.0000 </r>
       <r>    -8.9043     0.0003     4.0000 </r>
       <r>    -8.7978     0.4448     4.0474 </r>
       <r>    -8.6912     1.8911     4.2490 </r>
       <r>    -8.5846     5.1767     4.8007 </r>
       <r>    -8.4780     7.6481     5.6159 </r>
       <r>    -8.3714     6.3797     6.2959 </r>
       <r>    -8.2648     5.7200     6.9055 </r>
       <r>    -8.1583     4.2490     7.3584 </r>
       <r>    -8.0517     3.7792     7.7612 </r>
       <r>    -7.9451     1.6618     7.9383 </r>
       <r>    -7.8385     0.5783     7.9999 </r>
       <r>    -7.7319     0.0006     8.0000 </r>
       <r>    -7.6253     0.0000     8.0000 </r>
       <r>    -7.5188     0.0000     8.0000 </r>
       <r>    -7.4122     0.0000     8.0000 </r>
       <r>    -7.3056     0.0000     8.0000 </r>
       <r>    -7.1990     0.0000     8.0000 </r>
       <r>    -7.0924     0.0000     8.0000 </r>
       <r>    -6.9858     0.0000     8.0000 </r>
       <r>    -6.8793     0.0000     8.0000 </r>
       <r>    -6.7727     0.0001     8.0000 </r>
       <r>    -6.6661     0.3118     8.0332 </r>
       <r>    -6.5595     1.3274     8.1747 </r>
       <r>    -6.4529     1.4036     8.3243 </r>
       <r>    -6.3464     2.2293     8.5619 </r>
       <r>    -6.2398     1.5611     8.7283 </r>
       <r>    -6.1332     3.1946     9.0688 </r>
       <r>    -6.0266     3.8612     9.4803 </r>
       <r>    -5.9200     3.3411     9.8364 </r>
       <r>    -5.8134     1.9370    10.0429 </r>
       <r>    -5.7069     4.7872    10.5531 </r>
       <r>    -5.6003     6.1051    11.2038 </r>
       <r>    -5.4937     4.8347    11.7191 </r>
       <r>    -5.3871     5.0631    12.2588 </r>
       <r>    -5.2805     5.5005    12.8450 </r>
       <r>    -5.1739     3.4341    13.2110 </r>
       <r>    -5.0674     1.4575    13.3664 </r>
       <r>    -4.9608     3.0081    13.6870 </r>
       <r>    -4.8542     3.6756    14.0787 </r>
       <r>    -4.7476     2.2359    14.3171 </r>
       <r>    -4.6410     2.3248    14.5648 </r>
       <r>    -4.5344     4.5395    15.0487 </r>
       <r>    -4.4279     3.0216    15.3707 </r>
       <r>    -4.3213     4.2234    15.8209 </r>
       <r>    -4.2147     3.3457    16.1775 </r>
       <r>    -4.1081     2.8544    16.4817 </r>
       <r>    -4.0015     1.3776    16.6285 </r>
       <r>    -3.8950     1.7902    16.8193 </r>
       <r>    -3.7884     2.0021    17.0327 </r>
       <r>    -3.6818     3.0400    17.3567 </r>
       <r>    -3.5752     3.9174    17.7742 </r>
       <r>    -3.4686     5.3809    18.3477 </r>
       <r>    -3.3620     3.0061    18.6681 </r>
       <r>    -3.2555     1.9124    18.8720 </r>
       <r>    -3.1489     1.4273    19.0241 </r>
       <r>    -3.0423     2.9999    19.3438 </r>
       <r>    -2.9357     3.8571    19.7549 </r>
       <r>    -2.8291     4.2312    20.2059 </r>
       <r>    -2.7225     2.5159    20.4740 </r>
       <r>    -2.6160     0.2440    20.5000 </r>
       <r>    -2.5094     0.7908    20.5843 </r>
       <r>    -2.4028     4.0937    21.0206 </r>
       <r>    -2.2962     4.5006    21.5003 </r>
       <r>    -2.1896     3.4127    21.8641 </r>
       <r>    -2.0830     2.6985    22.1517 </r>
       <r>    -1.9765     5.0921    22.6944 </r>
       <r>    -1.8699     3.9989    23.1206 </r>
       <r>    -1.7633     8.1783    23.9923 </r>
       <r>    -1.6567     6.0140    24.6333 </r>
       <r>    -1.5501     3.3855    24.9941 </r>
       <r>    -1.4436     7.8006    25.8255 </r>
       <r>    -1.3370     5.1025    26.3694 </r>
       <r>    -1.2304     9.3109    27.3617 </r>
       <r>    -1.1238     5.4767    27.9454 </r>
       <r>    -1.0172     0.5813    28.0074 </r>
       <r>    -0.9106     2.5426    28.2784 </r>
       <r>    -0.8041     1.4533    28.4333 </r>
       <r>    -0.6975     0.7587    28.5142 </r>
       <r>    -0.5909     6.3925    29.1955 </r>
       <r>    -0.4843     6.7296    29.9127 </r>
       <r>    -0.3777     5.4380    30.4923 </r>
       <r>    -0.2711     5.9741    31.1291 </r>
       <r>    -0.1646     6.6138    31.8340 </r>
       <r>    -0.0580     5.6929    32.4408 </r>
       <r>     0.0486    10.1521    33.5228 </r>
       <r>     0.1552     6.3511    34.1997 </r>
       <r>     0.2618     8.3522    35.0899 </r>
       <r>     0.3684     7.0300    35.8392 </r>
       <r>     0.4749     5.1856    36.3919 </r>
       <r>     0.5815    11.3743    37.6042 </r>
       <r>     0.6881     4.5223    38.0862 </r>
       <r>     0.7947     3.5657    38.4662 </r>
       <r>     0.9013     0.9268    38.5650 </r>
       <r>     1.0079     2.9121    38.8754 </r>
       <r>     1.1144     2.7685    39.1705 </r>
       <r>     1.2210     1.9570    39.3791 </r>
       <r>     1.3276     4.2593    39.8330 </r>
       <r>     1.4342     5.2603    40.3937 </r>
       <r>     1.5408     5.5753    40.9879 </r>
       <r>     1.6473     4.6552    41.4841 </r>
       <r>     1.7539     2.8276    41.7854 </r>
       <r>     1.8605     3.3795    42.1456 </r>
       <r>     1.9671     3.6129    42.5307 </r>
       <r>     2.0737     2.6750    42.8158 </r>
       <r>     2.1803     0.1864    42.8357 </r>
       <r>     2.2868     1.2194    42.9657 </r>
       <r>     2.3934     0.3244    43.0002 </r>
       <r>     2.5000     0.8107    43.0866 </r>
       <r>     2.6066     1.9222    43.2915 </r>
       <r>     2.7132     1.8785    43.4917 </r>
       <r>     2.8198     0.0777    43.5000 </r>
       <r>     2.9263     0.0000    43.5000 </r>
       <r>     3.0329     0.0000    43.5000 </r>
       <r>     3.1395     0.0049    43.5005 </r>
       <r>     3.2461     0.9689    43.6038 </r>
       <r>     3.3527     1.9488    43.8115 </r>
       <r>     3.4593     1.7075    43.9935 </r>
       <r>     3.5658     0.0611    44.0000 </r>
       <r>     3.6724     0.0000    44.0000 </r>
       <r>     3.7790     0.0000    44.0000 </r>
       <r>     3.8856     0.0000    44.0000 </r>
       <r>     3.9922     0.0000    44.0000 </r>
       <r>     4.0987     0.0000    44.0000 </r>
       <r>     4.2053     0.0000    44.0000 </r>
       <r>     4.3119     0.0000    44.0000 </r>
       <r>     4.4185     0.0332    44.0035 </r>
       <r>     4.5251     1.2771    44.1397 </r>
       <r>     4.6317     0.2536    44.1667 </r>
       <r>     4.7382     0.4089    44.2103 </r>
       <r>     4.8448     1.1410    44.3319 </r>
       <r>     4.9514     0.1347    44.3462 </r>
       <r>     5.0580     1.7863    44.5366 </r>
       <r>     5.1646     1.2083    44.6654 </r>
       <r>     5.2712     0.4676    44.7152 </r>
       <r>     5.3777     2.2131    44.9511 </r>
       <r>     5.4843     1.5468    45.1160 </r>
       <r>     5.5909     3.4630    45.4851 </r>
       <r>     5.6975     2.3108    45.7314 </r>
       <r>     5.8041     3.4509    46.0992 </r>
       <r>     5.9107     4.7982    46.6106 </r>
       <r>     6.0172     3.9091    47.0272 </r>
       <r>     6.1238     5.9325    47.6595 </r>
       <r>     6.2304     6.1773    48.3179 </r>
       <r>     6.3370     1.7729    48.5069 </r>
       <r>     6.4436     4.2254    48.9572 </r>
       <r>     6.5501     2.9600    49.2727 </r>
       <r>     6.6567     2.8426    49.5757 </r>
       <r>     6.7633     5.6864    50.1817 </r>
       <r>     6.8699     5.5085    50.7689 </r>
       <r>     6.9765     3.6207    51.1548 </r>
       <r>     7.0831     4.7815    51.6644 </r>
       <r>     7.1896     5.9351    52.2970 </r>
       <r>     7.2962     3.7568    52.6974 </r>
       <r>     7.4028     3.8632    53.1091 </r>
       <r>     7.5094     4.6484    53.6046 </r>
       <r>     7.6160     5.8404    54.2270 </r>
       <r>     7.7226     1.0132    54.3350 </r>
       <r>     7.8291     1.3065    54.4743 </r>
       <r>     7.9357     3.3986    54.8365 </r>
       <r>     8.0423     7.5625    55.6425 </r>
       <r>     8.1489     4.8262    56.1569 </r>
       <r>     8.2555     3.1073    56.4881 </r>
       <r>     8.3621     0.3968    56.5304 </r>
       <r>     8.4686     3.9262    56.9489 </r>
       <r>     8.5752     6.2473    57.6147 </r>
       <r>     8.6818     3.8861    58.0289 </r>
       <r>     8.7884     2.6774    58.3143 </r>
       <r>     8.8950     4.5277    58.7969 </r>
       <r>     9.0015     7.7644    59.6244 </r>
       <r>     9.1081     8.4533    60.5254 </r>
       <r>     9.2147     3.9887    60.9505 </r>
       <r>     9.3213     5.7467    61.5630 </r>
       <r>     9.4279     1.7654    61.7512 </r>
       <r>     9.5345     5.3719    62.3237 </r>
       <r>     9.6410     5.9622    62.9592 </r>
       <r>     9.7476     4.7497    63.4654 </r>
       <r>     9.8542     4.0457    63.8966 </r>
       <r>     9.9608     7.8264    64.7308 </r>
       <r>    10.0674     1.5745    64.8986 </r>
       <r>    10.1740     2.9336    65.2113 </r>
       <r>    10.2805     2.7059    65.4997 </r>
       <r>    10.3871     3.8095    65.9057 </r>
       <r>    10.4937     5.3764    66.4787 </r>
       <r>    10.6003     6.0889    67.1277 </r>
       <r>    10.7069     4.1733    67.5725 </r>
       <r>    10.8135     5.1089    68.1170 </r>
       <r>    10.9200     3.0220    68.4391 </r>
       <r>    11.0266     6.0697    69.0860 </r>
       <r>    11.1332     5.0617    69.6255 </r>
       <r>    11.2398     5.6229    70.2248 </r>
       <r>    11.3464     9.6098    71.2491 </r>
       <r>    11.4529     2.8884    71.5569 </r>
       <r>    11.5595     4.5574    72.0427 </r>
       <r>    11.6661     5.2265    72.5997 </r>
       <r>    11.7727     3.5223    72.9752 </r>
       <r>    11.8793    10.0148    74.0426 </r>
       <r>    11.9859     7.4171    74.8331 </r>
       <r>    12.0924     5.6726    75.4377 </r>
       <r>    12.1990     4.5546    75.9231 </r>
       <r>    12.3056     3.8867    76.3374 </r>
       <r>    12.4122     2.6581    76.6207 </r>
       <r>    12.5188     3.8965    77.0360 </r>
       <r>    12.6254     7.0328    77.7856 </r>
       <r>    12.7319     7.1597    78.5487 </r>
       <r>    12.8385     3.9461    78.9693 </r>
       <r>    12.9451     4.1864    79.4155 </r>
       <r>    13.0517     6.4221    80.0999 </r>
       <r>    13.1583     6.9599    80.8418 </r>
       <r>    13.2649     4.4184    81.3127 </r>
       <r>    13.3714     3.7628    81.7137 </r>
       <r>    13.4780     8.9182    82.6643 </r>
       <r>    13.5846     7.6638    83.4811 </r>
       <r>    13.6912     7.5027    84.2807 </r>
       <r>    13.7978     6.0443    84.9250 </r>
       <r>    13.9043     5.3676    85.4970 </r>
       <r>    14.0109     4.8836    86.0176 </r>
       <r>    14.1175     5.0117    86.5517 </r>
       <r>    14.2241     2.6171    86.8306 </r>
       <r>    14.3307     5.6480    87.4326 </r>
       <r>    14.4373     4.3135    87.8924 </r>
       <r>    14.5438     7.6052    88.7030 </r>
       <r>    14.6504     5.9361    89.3356 </r>
       <r>    14.7570     3.3074    89.6882 </r>
       <r>    14.8636     2.8211    89.9888 </r>
       <r>    14.9702     4.7089    90.4907 </r>
       <r>    15.0768     7.2371    91.2621 </r>
       <r>    15.1833     5.5708    91.8558 </r>
       <r>    15.2899     5.1884    92.4088 </r>
       <r>    15.3965     8.7472    93.3411 </r>
       <r>    15.5031     7.2798    94.1170 </r>
       <r>    15.6097     1.4506    94.2716 </r>
       <r>    15.7163     3.3031    94.6237 </r>
       <r>    15.8228     3.7959    95.0283 </r>
       <r>    15.9294     2.5659    95.3017 </r>
       <r>    16.0360     1.3657    95.4473 </r>
       <r>    16.1426     2.1041    95.6716 </r>
       <r>    16.2492     1.4480    95.8259 </r>
       <r>    16.3557     0.2833    95.8561 </r>
       <r>    16.4623     1.3072    95.9954 </r>
       <r>    16.5689     0.0431    96.0000 </r>
       <r>    16.6755     0.0000    96.0000 </r>
       <r>    16.7821     0.0000    96.0000 </r>
       <r>    16.8887     0.0000    96.0000 </r>
       <r>    16.9952     0.0000    96.0000 </r>
       <r>    17.1018     0.0000    96.0000 </r>
       <r>    17.2084     0.0000    96.0000 </r>
       <r>    17.3150     0.0000    96.0000 </r>
       <r>    17.4216     0.0000    96.0000 </r>
       <r>    17.5282     0.0000    96.0000 </r>
       <r>    17.6347     0.0000    96.0000 </r>
       <r>    17.7413     0.0000    96.0000 </r>
       <r>    17.8479     0.0000    96.0000 </r>
      </set>
     </set>
    </array>
   </total>
  </dos>
 </calculation>
 <structure name="finalpos" >
  <crystal>
   <varray name="basis" >
    <v>       5.69700000       0.00000000       0.00000000 </v>
    <v>       0.00000000       4.04790000       0.00000000 </v>
    <v>       0.00000000       0.00000000       6.20420000 </v>
   </varray>
   <i name="volume">    143.07435078 </i>
   <varray name="rec_basis" >
    <v>       0.17553098       0.00000000       0.00000000 </v>
    <v>       0.00000000       0.24704168       0.00000000 </v>
    <v>       0.00000000       0.00000000       0.16118114 </v>
   </varray>
  </crystal>
  <varray name="positions" >
   <v>       0.52123000       0.50000000       0.63796000 </v>
   <v>       0.47877000       0.50000000       0.36204000 </v>
   <v>       0.97877000       0.50000000       0.63796000 </v>
   <v>       0.02123000       0.50000000       0.36204000 </v>
   <v>       0.60090000       0.50000000       0.89991000 </v>
   <v>       0.39910000       0.50000000       0.10009000 </v>
   <v>       0.89910000       0.50000000       0.89991000 </v>
   <v>       0.10090000       0.50000000       0.10009000 </v>
   <v>       0.75000000       0.79171000       0.72973000 </v>
   <v>       0.25000000       0.20829000       0.27027000 </v>
   <v>       0.75000000       0.20829000       0.72973000 </v>
   <v>       0.25000000       0.79171000       0.27027000 </v>
   <v>       0.25000000       0.50000000       0.52367000 </v>
   <v>       0.75000000       0.50000000       0.47633000 </v>
  </varray>
 </structure>
</modeling>
