  14  14   0   0
  0.1021960E+02  0.5697000E-09  0.4047900E-09  0.6204200E-09  0.5000000E-15
  1.000000000000000E-004
  CAR 
 Kpoints                                 
     18.00408566    -14.19524158  301      1.89389570      1.00000000
    -14.195  0.0000E+00  0.0000E+00
    -14.088  0.0000E+00  0.0000E+00
    -13.981  0.0000E+00  0.0000E+00
    -13.873  0.0000E+00  0.0000E+00
    -13.766  0.0000E+00  0.0000E+00
    -13.659  0.0000E+00  0.0000E+00
    -13.551  0.0000E+00  0.0000E+00
    -13.444  0.0000E+00  0.0000E+00
    -13.337  0.0000E+00  0.0000E+00
    -13.229  0.0000E+00  0.0000E+00
    -13.122  0.0000E+00  0.0000E+00
    -13.015  0.1204E-16  0.1293E-17
    -12.907  0.1169E-07  0.1254E-08
    -12.800  0.2289E-02  0.2457E-03
    -12.693  0.4281E+00  0.4619E-01
    -12.585  0.2280E+01  0.2909E+00
    -12.478  0.3525E+01  0.6692E+00
    -12.371  0.4344E+01  0.1135E+01
    -12.263  0.3561E+01  0.1518E+01
    -12.156  0.2868E+01  0.1826E+01
    -12.049  0.2634E+01  0.2108E+01
    -11.941  0.2587E+01  0.2386E+01
    -11.834  0.2741E+01  0.2680E+01
    -11.727  0.3320E+01  0.3036E+01
    -11.619  0.3622E+01  0.3425E+01
    -11.512  0.3134E+01  0.3762E+01
    -11.405  0.1741E+01  0.3948E+01
    -11.297  0.4715E+00  0.3999E+01
    -11.190  0.9920E-02  0.4000E+01
    -11.083  0.4471E-06  0.4000E+01
    -10.975  0.5735E-14  0.4000E+01
    -10.868  0.0000E+00  0.4000E+01
    -10.761  0.0000E+00  0.4000E+01
    -10.653  0.0000E+00  0.4000E+01
    -10.546  0.0000E+00  0.4000E+01
    -10.439  0.0000E+00  0.4000E+01
    -10.331  0.0000E+00  0.4000E+01
    -10.224  0.0000E+00  0.4000E+01
    -10.117  0.0000E+00  0.4000E+01
    -10.009  0.0000E+00  0.4000E+01
     -9.902  0.0000E+00  0.4000E+01
     -9.795  0.0000E+00  0.4000E+01
     -9.687  0.0000E+00  0.4000E+01
     -9.580  0.0000E+00  0.4000E+01
     -9.473  0.0000E+00  0.4000E+01
     -9.365  0.0000E+00  0.4000E+01
     -9.258  0.0000E+00  0.4000E+01
     -9.151  0.0000E+00  0.4000E+01
     -9.043  0.5751E-09  0.4000E+01
     -8.936  0.4938E-03  0.4000E+01
     -8.829  0.2638E+00  0.4028E+01
     -8.721  0.2067E+01  0.4250E+01
     -8.614  0.5265E+01  0.4815E+01
     -8.507  0.7012E+01  0.5568E+01
     -8.399  0.6278E+01  0.6242E+01
     -8.292  0.5314E+01  0.6812E+01
     -8.185  0.4885E+01  0.7336E+01
     -8.077  0.3844E+01  0.7749E+01
     -7.970  0.1702E+01  0.7932E+01
     -7.863  0.5855E+00  0.7994E+01
     -7.755  0.5128E-01  0.8000E+01
     -7.648  0.4547E-04  0.8000E+01
     -7.541  0.2044E-10  0.8000E+01
     -7.433  0.0000E+00  0.8000E+01
     -7.326  0.0000E+00  0.8000E+01
     -7.219  0.3990E-14  0.8000E+01
     -7.111  0.2378E-06  0.8000E+01
     -7.004  0.2943E-02  0.8000E+01
     -6.897  0.9875E-01  0.8011E+01
     -6.789  0.2669E+00  0.8040E+01
     -6.682  0.4834E+00  0.8091E+01
     -6.575  0.6598E+00  0.8162E+01
     -6.467  0.9223E+00  0.8261E+01
     -6.360  0.1365E+01  0.8408E+01
     -6.253  0.2112E+01  0.8635E+01
     -6.145  0.2913E+01  0.8947E+01
     -6.038  0.3839E+01  0.9359E+01
     -5.931  0.4125E+01  0.9802E+01
     -5.823  0.3920E+01  0.1022E+02
     -5.716  0.4117E+01  0.1066E+02
     -5.609  0.4047E+01  0.1110E+02
     -5.501  0.4075E+01  0.1154E+02
     -5.394  0.4382E+01  0.1201E+02
     -5.287  0.4868E+01  0.1253E+02
     -5.179  0.4399E+01  0.1300E+02
     -5.072  0.3903E+01  0.1342E+02
     -4.965  0.3479E+01  0.1379E+02
     -4.857  0.2447E+01  0.1406E+02
     -4.750  0.2419E+01  0.1432E+02
     -4.643  0.2980E+01  0.1464E+02
     -4.535  0.3651E+01  0.1503E+02
     -4.428  0.3367E+01  0.1539E+02
     -4.321  0.3181E+01  0.1573E+02
     -4.213  0.2989E+01  0.1605E+02
     -4.106  0.2780E+01  0.1635E+02
     -3.999  0.3056E+01  0.1668E+02
     -3.891  0.2986E+01  0.1700E+02
     -3.784  0.2992E+01  0.1732E+02
     -3.677  0.2868E+01  0.1763E+02
     -3.569  0.2931E+01  0.1794E+02
     -3.462  0.2725E+01  0.1823E+02
     -3.355  0.2794E+01  0.1853E+02
     -3.247  0.2862E+01  0.1884E+02
     -3.140  0.2563E+01  0.1912E+02
     -3.033  0.3092E+01  0.1945E+02
     -2.925  0.3035E+01  0.1977E+02
     -2.818  0.2753E+01  0.2007E+02
     -2.711  0.2527E+01  0.2034E+02
     -2.603  0.2483E+01  0.2061E+02
     -2.496  0.3022E+01  0.2093E+02
     -2.389  0.3129E+01  0.2127E+02
     -2.281  0.3708E+01  0.2167E+02
     -2.174  0.3260E+01  0.2202E+02
     -2.067  0.3773E+01  0.2242E+02
     -1.959  0.3660E+01  0.2281E+02
     -1.852  0.4647E+01  0.2331E+02
     -1.745  0.6047E+01  0.2396E+02
     -1.638  0.5461E+01  0.2455E+02
     -1.530  0.6099E+01  0.2520E+02
     -1.423  0.6071E+01  0.2585E+02
     -1.316  0.5825E+01  0.2648E+02
     -1.208  0.5163E+01  0.2703E+02
     -1.101  0.5231E+01  0.2759E+02
     -0.994  0.4104E+01  0.2803E+02
     -0.886  0.2806E+01  0.2834E+02
     -0.779  0.2415E+01  0.2859E+02
     -0.672  0.3214E+01  0.2894E+02
     -0.564  0.4915E+01  0.2947E+02
     -0.457  0.6105E+01  0.3012E+02
     -0.350  0.6201E+01  0.3079E+02
     -0.242  0.6223E+01  0.3146E+02
     -0.135  0.6670E+01  0.3217E+02
     -0.028  0.6972E+01  0.3292E+02
      0.080  0.6400E+01  0.3361E+02
      0.187  0.6556E+01  0.3431E+02
      0.294  0.8423E+01  0.3521E+02
      0.402  0.8498E+01  0.3613E+02
      0.509  0.8796E+01  0.3707E+02
      0.616  0.4680E+01  0.3757E+02
      0.724  0.2969E+01  0.3789E+02
      0.831  0.3047E+01  0.3822E+02
      0.938  0.3326E+01  0.3858E+02
      1.046  0.3525E+01  0.3895E+02
      1.153  0.3537E+01  0.3933E+02
      1.260  0.3777E+01  0.3974E+02
      1.368  0.3775E+01  0.4014E+02
      1.475  0.3664E+01  0.4054E+02
      1.582  0.4074E+01  0.4098E+02
      1.690  0.4143E+01  0.4142E+02
      1.797  0.2798E+01  0.4172E+02
      1.904  0.2915E+01  0.4203E+02
      2.012  0.3099E+01  0.4237E+02
      2.119  0.2590E+01  0.4264E+02
      2.226  0.2132E+01  0.4287E+02
      2.334  0.1927E+01  0.4308E+02
      2.441  0.1721E+01  0.4326E+02
      2.548  0.1110E+01  0.4338E+02
      2.656  0.5235E+00  0.4344E+02
      2.763  0.5216E+00  0.4350E+02
      2.870  0.6974E+00  0.4357E+02
      2.978  0.6453E+00  0.4364E+02
      3.085  0.4492E+00  0.4369E+02
      3.192  0.3794E+00  0.4373E+02
      3.300  0.3935E+00  0.4377E+02
      3.407  0.5012E+00  0.4382E+02
      3.514  0.4170E+00  0.4387E+02
      3.622  0.2180E+00  0.4389E+02
      3.729  0.3144E+00  0.4393E+02
      3.836  0.3537E+00  0.4396E+02
      3.944  0.2158E+00  0.4399E+02
      4.051  0.1081E+00  0.4400E+02
      4.158  0.1189E-01  0.4400E+02
      4.266  0.4240E-01  0.4400E+02
      4.373  0.2272E+00  0.4403E+02
      4.480  0.3542E+00  0.4407E+02
      4.588  0.5131E+00  0.4412E+02
      4.695  0.7133E+00  0.4420E+02
      4.802  0.8069E+00  0.4429E+02
      4.910  0.8877E+00  0.4438E+02
      5.017  0.9371E+00  0.4448E+02
      5.124  0.1188E+01  0.4461E+02
      5.232  0.1278E+01  0.4475E+02
      5.339  0.1710E+01  0.4493E+02
      5.446  0.2087E+01  0.4515E+02
      5.554  0.2598E+01  0.4543E+02
      5.661  0.2841E+01  0.4574E+02
      5.768  0.3311E+01  0.4609E+02
      5.876  0.3695E+01  0.4649E+02
      5.983  0.4022E+01  0.4692E+02
      6.090  0.4563E+01  0.4741E+02
      6.198  0.4610E+01  0.4791E+02
      6.305  0.4173E+01  0.4835E+02
      6.412  0.4139E+01  0.4880E+02
      6.520  0.4450E+01  0.4928E+02
      6.627  0.3876E+01  0.4969E+02
      6.734  0.3645E+01  0.5008E+02
      6.842  0.3910E+01  0.5050E+02
      6.949  0.4265E+01  0.5096E+02
      7.056  0.4860E+01  0.5148E+02
      7.164  0.5103E+01  0.5203E+02
      7.271  0.4955E+01  0.5256E+02
      7.378  0.4669E+01  0.5306E+02
      7.486  0.4495E+01  0.5354E+02
      7.593  0.4252E+01  0.5400E+02
      7.700  0.3337E+01  0.5436E+02
      7.808  0.3186E+01  0.5470E+02
      7.915  0.3224E+01  0.5505E+02
      8.022  0.3210E+01  0.5539E+02
      8.130  0.3615E+01  0.5578E+02
      8.237  0.3912E+01  0.5620E+02
      8.344  0.3986E+01  0.5663E+02
      8.452  0.4232E+01  0.5708E+02
      8.559  0.3892E+01  0.5750E+02
      8.666  0.4162E+01  0.5795E+02
      8.774  0.5098E+01  0.5849E+02
      8.881  0.4920E+01  0.5902E+02
      8.988  0.5170E+01  0.5958E+02
      9.096  0.4943E+01  0.6011E+02
      9.203  0.5157E+01  0.6066E+02
      9.310  0.5045E+01  0.6120E+02
      9.418  0.4785E+01  0.6172E+02
      9.525  0.4581E+01  0.6221E+02
      9.632  0.4702E+01  0.6271E+02
      9.740  0.4954E+01  0.6324E+02
      9.847  0.5289E+01  0.6381E+02
      9.954  0.4944E+01  0.6434E+02
     10.062  0.4172E+01  0.6479E+02
     10.169  0.4038E+01  0.6522E+02
     10.276  0.4327E+01  0.6569E+02
     10.384  0.4987E+01  0.6622E+02
     10.491  0.5659E+01  0.6683E+02
     10.598  0.5128E+01  0.6738E+02
     10.706  0.4480E+01  0.6786E+02
     10.813  0.3721E+01  0.6826E+02
     10.920  0.3522E+01  0.6864E+02
     11.028  0.4526E+01  0.6912E+02
     11.135  0.5520E+01  0.6972E+02
     11.242  0.6184E+01  0.7038E+02
     11.350  0.5980E+01  0.7102E+02
     11.457  0.4650E+01  0.7152E+02
     11.564  0.4807E+01  0.7204E+02
     11.672  0.4792E+01  0.7255E+02
     11.779  0.4806E+01  0.7307E+02
     11.886  0.4963E+01  0.7360E+02
     11.994  0.5937E+01  0.7424E+02
     12.101  0.6250E+01  0.7491E+02
     12.208  0.5541E+01  0.7550E+02
     12.316  0.5017E+01  0.7604E+02
     12.423  0.5722E+01  0.7666E+02
     12.530  0.5916E+01  0.7729E+02
     12.638  0.5770E+01  0.7791E+02
     12.745  0.5997E+01  0.7855E+02
     12.852  0.5823E+01  0.7918E+02
     12.960  0.5873E+01  0.7981E+02
     13.067  0.6208E+01  0.8048E+02
     13.174  0.5995E+01  0.8112E+02
     13.282  0.6236E+01  0.8179E+02
     13.389  0.5477E+01  0.8238E+02
     13.496  0.5436E+01  0.8296E+02
     13.604  0.5374E+01  0.8354E+02
     13.711  0.5593E+01  0.8414E+02
     13.818  0.5461E+01  0.8472E+02
     13.926  0.5774E+01  0.8534E+02
     14.033  0.5437E+01  0.8593E+02
     14.140  0.5177E+01  0.8648E+02
     14.247  0.4917E+01  0.8701E+02
     14.355  0.4927E+01  0.8754E+02
     14.462  0.4760E+01  0.8805E+02
     14.569  0.5317E+01  0.8862E+02
     14.677  0.5359E+01  0.8919E+02
     14.784  0.4485E+01  0.8968E+02
     14.891  0.4139E+01  0.9012E+02
     14.999  0.5527E+01  0.9071E+02
     15.106  0.6015E+01  0.9136E+02
     15.213  0.5824E+01  0.9198E+02
     15.321  0.6030E+01  0.9263E+02
     15.428  0.5648E+01  0.9324E+02
     15.535  0.5948E+01  0.9388E+02
     15.643  0.5641E+01  0.9448E+02
     15.750  0.3789E+01  0.9489E+02
     15.857  0.3053E+01  0.9522E+02
     15.965  0.2029E+01  0.9543E+02
     16.072  0.1594E+01  0.9560E+02
     16.179  0.1224E+01  0.9574E+02
     16.287  0.9738E+00  0.9584E+02
     16.394  0.8382E+00  0.9593E+02
     16.501  0.5246E+00  0.9599E+02
     16.609  0.1190E+00  0.9600E+02
     16.716  0.9767E-03  0.9600E+02
     16.823  0.8444E-08  0.9600E+02
     16.931  0.1521E-16  0.9600E+02
     17.038  0.0000E+00  0.9600E+02
     17.145  0.0000E+00  0.9600E+02
     17.253  0.0000E+00  0.9600E+02
     17.360  0.0000E+00  0.9600E+02
     17.467  0.0000E+00  0.9600E+02
     17.575  0.0000E+00  0.9600E+02
     17.682  0.0000E+00  0.9600E+02
     17.789  0.0000E+00  0.9600E+02
     17.897  0.0000E+00  0.9600E+02
     18.004  0.0000E+00  0.9600E+02
