   14   14    1    1
  0.1021960E+02  0.5697000E-09  0.4047900E-09  0.6204200E-09  0.5000000E-15
  1.000000000000000E-004
  CAR 
 Kpoints                                 
     42    864     48
 
  0.0000000E+00  0.2083333E-01  0.3125000E-01  0.6127451E-03
      1        -12.731636   1.000000
      2        -11.576584   1.000000
      3         -8.662240   1.000000
      4         -8.422247   1.000000
      5         -6.088797   1.000000
      6         -5.080478   1.000000
      7         -4.614943   1.000000
      8         -4.343130   1.000000
      9         -3.995381   1.000000
     10         -3.591722   1.000000
     11         -2.431271   1.000000
     12         -2.381389   1.000000
     13         -1.984779   1.000000
     14         -1.059761   1.000000
     15         -0.041053   1.000000
     16         -0.015777   1.000000
     17          0.128666   1.000000
     18          0.181165   1.000000
     19          0.547316   1.000000
     20          2.061303   0.000001
     21          2.109321   0.000000
     22          2.246112   0.000000
     23          5.424365   0.000000
     24          5.777129   0.000000
     25          5.840555   0.000000
     26          5.899371   0.000000
     27          6.811849   0.000000
     28          7.684611   0.000000
     29          7.713216   0.000000
     30          8.597164   0.000000
     31          8.745628   0.000000
     32          8.906934   0.000000
     33          9.048494   0.000000
     34         10.067553   0.000000
     35         11.154805   0.000000
     36         11.393117   0.000000
     37         11.727115   0.000000
     38         11.809761   0.000000
     39         11.895787   0.000000
     40         12.375245   0.000000
     41         12.820266   0.000000
     42         13.366779   0.000000
     43         13.597707   0.000000
     44         15.532796   0.000000
     45         15.565841   0.000000
     46         15.903139   0.000000
     47         16.354284   0.000000
     48         16.496675   0.000000
 
  0.5882353E-01  0.2083333E-01  0.3125000E-01  0.1225490E-02
      1        -12.724014   1.000000
      2        -11.589797   1.000000
      3         -8.659280   1.000000
      4         -8.419634   1.000000
      5         -6.073565   1.000000
      6         -5.169783   1.000000
      7         -4.663860   1.000000
      8         -4.226895   1.000000
      9         -3.983253   1.000000
     10         -3.517813   1.000000
     11         -2.443120   1.000000
     12         -2.378053   1.000000
     13         -1.999804   1.000000
     14         -1.117143   1.000000
     15         -0.045571   1.000000
     16          0.007104   1.000000
     17          0.132562   1.000000
     18          0.164731   1.000000
     19          0.530255   1.000000
     20          2.033972   0.000037
     21          2.106942   0.000000
     22          2.224615   0.000000
     23          5.440467   0.000000
     24          5.767492   0.000000
     25          5.815448   0.000000
     26          6.002100   0.000000
     27          6.794895   0.000000
     28          7.486672   0.000000
     29          7.874726   0.000000
     30          8.623958   0.000000
     31          8.807212   0.000000
     32          8.954736   0.000000
     33          9.057424   0.000000
     34         10.088006   0.000000
     35         11.166884   0.000000
     36         11.318939   0.000000
     37         11.601423   0.000000
     38         11.766325   0.000000
     39         11.936256   0.000000
     40         12.390388   0.000000
     41         12.906697   0.000000
     42         13.466684   0.000000
     43         13.557766   0.000000
     44         15.308403   0.000000
     45         15.605259   0.000000
     46         16.056740   0.000000
     47         16.300360   0.000000
     48         16.377238   0.000000
 
  0.1176471E+00  0.2083333E-01  0.3125000E-01  0.1225490E-02
      1        -12.701252   1.000000
      2        -11.628453   1.000000
      3         -8.649959   1.000000
      4         -8.412548   1.000000
      5         -6.036367   1.000000
      6         -5.353709   1.000000
      7         -4.751212   1.000000
      8         -4.001913   1.000000
      9         -3.927095   1.000000
     10         -3.329942   1.000000
     11         -2.480510   1.000000
     12         -2.367925   1.000000
     13         -2.039863   1.000000
     14         -1.280532   1.000000
     15         -0.038418   1.000000
     16          0.038687   1.000000
     17          0.099177   1.000000
     18          0.172712   1.000000
     19          0.479414   1.000000
     20          1.970563   0.015061
     21          2.084168   0.000000
     22          2.160332   0.000000
     23          5.483727   0.000000
     24          5.761367   0.000000
     25          5.833008   0.000000
     26          6.195312   0.000000
     27          6.747214   0.000000
     28          7.268753   0.000000
     29          8.005648   0.000000
     30          8.697970   0.000000
     31          8.956090   0.000000
     32          9.055312   0.000000
     33          9.126607   0.000000
     34         10.151845   0.000000
     35         11.108146   0.000000
     36         11.204689   0.000000
     37         11.304408   0.000000
     38         11.700451   0.000000
     39         12.050640   0.000000
     40         12.435962   0.000000
     41         13.080508   0.000000
     42         13.318099   0.000000
     43         13.824281   0.000000
     44         14.979276   0.000000
     45         15.707884   0.000000
     46         15.983191   0.000000
     47         16.229176   0.000000
     48         16.446936   0.000000
 
  0.1764706E+00  0.2083333E-01  0.3125000E-01  0.1225490E-02
      1        -12.663682   1.000000
      2        -11.689800   1.000000
      3         -8.633288   1.000000
      4         -8.403010   1.000000
      5         -6.002191   1.000000
      6         -5.548118   1.000000
      7         -4.805053   1.000000
      8         -3.911620   1.000000
      9         -3.671167   1.000000
     10         -3.080464   1.000000
     11         -2.547284   1.000000
     12         -2.350585   1.000000
     13         -2.092610   1.000000
     14         -1.527960   1.000000
     15         -0.046219   1.000000
     16         -0.008409   1.000000
     17          0.128923   1.000000
     18          0.196933   1.000000
     19          0.409354   1.000000
     20          1.887529   0.571453
     21          2.029890   0.000060
     22          2.058421   0.000002
     23          5.540334   0.000000
     24          5.747674   0.000000
     25          5.940735   0.000000
     26          6.444088   0.000000
     27          6.677540   0.000000
     28          7.070279   0.000000
     29          8.108847   0.000000
     30          8.799763   0.000000
     31          9.023703   0.000000
     32          9.201275   0.000000
     33          9.351548   0.000000
     34         10.269849   0.000000
     35         10.793114   0.000000
     36         10.950012   0.000000
     37         11.265040   0.000000
     38         11.694358   0.000000
     39         12.207458   0.000000
     40         12.526395   0.000000
     41         13.039812   0.000000
     42         13.170752   0.000000
     43         14.208781   0.000000
     44         14.766358   0.000000
     45         15.648994   0.000000
     46         15.851070   0.000000
     47         16.257407   0.000000
     48         16.521874   0.000000
 
  0.2352941E+00  0.2083333E-01  0.3125000E-01  0.1225490E-02
      1        -12.611884   1.000000
      2        -11.769780   1.000000
      3         -8.608642   1.000000
      4         -8.394006   1.000000
      5         -6.002239   1.000000
      6         -5.722602   1.000000
      7         -4.772914   1.000000
      8         -3.836964   1.000000
      9         -3.369154   1.000000
     10         -2.806823   1.000000
     11         -2.641649   1.000000
     12         -2.325774   1.000000
     13         -2.145741   1.000000
     14         -1.830432   1.000000
     15         -0.187375   1.000000
     16          0.024338   1.000000
     17          0.143090   1.000000
     18          0.193177   1.000000
     19          0.398898   1.000000
     20          1.796137   0.997154
     21          1.901918   0.410247
     22          1.969002   0.016821
     23          5.591078   0.000000
     24          5.744077   0.000000
     25          6.134308   0.000000
     26          6.597823   0.000000
     27          6.730838   0.000000
     28          6.909405   0.000000
     29          8.197754   0.000000
     30          8.882985   0.000000
     31          8.992891   0.000000
     32          9.436231   0.000000
     33          9.637977   0.000000
     34         10.388374   0.000000
     35         10.470703   0.000000
     36         10.631921   0.000000
     37         11.335625   0.000000
     38         11.779195   0.000000
     39         12.331894   0.000000
     40         12.694145   0.000000
     41         12.722602   0.000000
     42         13.041964   0.000000
     43         14.596608   0.000000
     44         14.792791   0.000000
     45         15.314760   0.000000
     46         15.987629   0.000000
     47         16.096871   0.000000
     48         16.305269   0.000000
 
  0.2941176E+00  0.2083333E-01  0.3125000E-01  0.1225490E-02
      1        -12.546686   1.000000
      2        -11.863606   1.000000
      3         -8.576475   1.000000
      4         -8.389043   1.000000
      5         -6.044674   1.000000
      6         -5.867564   1.000000
      7         -4.635480   1.000000
      8         -3.745309   1.000000
      9         -3.084882   1.000000
     10         -2.779608   1.000000
     11         -2.514176   1.000000
     12         -2.310592   1.000000
     13         -2.195784   1.000000
     14         -2.128039   1.000000
     15         -0.359022   1.000000
     16         -0.039149   1.000000
     17          0.099651   1.000000
     18          0.249183   1.000000
     19          0.478722   1.000000
     20          1.702654   1.000000
     21          1.732275   0.999998
     22          1.881696   0.634979
     23          5.623760   0.000000
     24          5.759791   0.000000
     25          6.403048   0.000000
     26          6.523781   0.000000
     27          6.755338   0.000000
     28          7.077771   0.000000
     29          8.276886   0.000000
     30          8.860809   0.000000
     31          8.933485   0.000000
     32          9.688784   0.000000
     33          9.940441   0.000000
     34          9.972316   0.000000
     35         10.409637   0.000000
     36         10.772040   0.000000
     37         11.382852   0.000000
     38         11.949032   0.000000
     39         12.340589   0.000000
     40         12.394053   0.000000
     41         12.729342   0.000000
     42         13.002463   0.000000
     43         14.796330   0.000000
     44         15.022585   0.000000
     45         15.108793   0.000000
     46         15.743816   0.000000
     47         15.812058   0.000000
     48         16.205679   0.000000
 
  0.3529412E+00  0.2083333E-01  0.3125000E-01  0.1225490E-02
      1        -12.469230   1.000000
      2        -11.966350   1.000000
      3         -8.538672   1.000000
      4         -8.391557   1.000000
      5         -6.103467   1.000000
      6         -5.984030   1.000000
      7         -4.408550   1.000000
      8         -3.636549   1.000000
      9         -2.921893   1.000000
     10         -2.909995   1.000000
     11         -2.482736   1.000000
     12         -2.284856   1.000000
     13         -2.218708   1.000000
     14         -2.144084   1.000000
     15         -0.539091   1.000000
     16         -0.240953   1.000000
     17          0.154501   1.000000
     18          0.292050   1.000000
     19          0.600696   1.000000
     20          1.523558   1.000000
     21          1.644476   1.000000
     22          1.790767   0.998233
     23          5.648809   0.000000
     24          5.776754   0.000000
     25          6.470285   0.000000
     26          6.649932   0.000000
     27          6.735339   0.000000
     28          7.432095   0.000000
     29          8.348739   0.000000
     30          8.721172   0.000000
     31          8.789679   0.000000
     32          9.516193   0.000000
     33          9.952399   0.000000
     34         10.246653   0.000000
     35         10.419678   0.000000
     36         11.158449   0.000000
     37         11.372389   0.000000
     38         11.965901   0.000000
     39         12.176155   0.000000
     40         12.256883   0.000000
     41         12.566161   0.000000
     42         13.256340   0.000000
     43         14.642082   0.000000
     44         15.027027   0.000000
     45         15.243519   0.000000
     46         15.400271   0.000000
     47         15.522419   0.000000
     48         16.342682   0.000000
 
  0.4117647E+00  0.2083333E-01  0.3125000E-01  0.1225490E-02
      1        -12.381000   1.000000
      2        -12.073320   1.000000
      3         -8.498436   1.000000
      4         -8.404067   1.000000
      5         -6.147174   1.000000
      6         -6.073810   1.000000
      7         -4.118276   1.000000
      8         -3.512290   1.000000
      9         -3.089102   1.000000
     10         -3.073606   1.000000
     11         -2.480286   1.000000
     12         -2.291762   1.000000
     13         -2.088630   1.000000
     14         -1.980994   1.000000
     15         -0.690446   1.000000
     16         -0.460224   1.000000
     17          0.214999   1.000000
     18          0.311545   1.000000
     19          0.750513   1.000000
     20          1.317793   1.000000
     21          1.605088   1.000000
     22          1.706501   1.000000
     23          5.679088   0.000000
     24          5.774840   0.000000
     25          6.448800   0.000000
     26          6.565621   0.000000
     27          7.117358   0.000000
     28          7.807649   0.000000
     29          8.395243   0.000000
     30          8.418359   0.000000
     31          8.675273   0.000000
     32          9.074468   0.000000
     33         10.219448   0.000000
     34         10.492448   0.000000
     35         10.610366   0.000000
     36         11.304153   0.000000
     37         11.588527   0.000000
     38         11.624284   0.000000
     39         11.898273   0.000000
     40         12.436355   0.000000
     41         12.589417   0.000000
     42         13.341266   0.000000
     43         14.519613   0.000000
     44         14.807119   0.000000
     45         15.032826   0.000000
     46         15.098898   0.000000
     47         15.854294   0.000000
     48         16.423548   0.000000
 
  0.4705882E+00  0.2083333E-01  0.3125000E-01  0.1225490E-02
      1        -12.283915   1.000000
      2        -12.180368   1.000000
      3         -8.459902   1.000000
      4         -8.427339   1.000000
      5         -6.158816   1.000000
      6         -6.133680   1.000000
      7         -3.786706   1.000000
      8         -3.434571   1.000000
      9         -3.372830   1.000000
     10         -3.226759   1.000000
     11         -2.397577   1.000000
     12         -2.337388   1.000000
     13         -1.945852   1.000000
     14         -1.887383   1.000000
     15         -0.744184   1.000000
     16         -0.651163   1.000000
     17          0.267908   1.000000
     18          0.302791   1.000000
     19          0.923296   1.000000
     20          1.114535   1.000000
     21          1.604085   1.000000
     22          1.640512   1.000000
     23          5.715604   0.000000
     24          5.751306   0.000000
     25          6.461262   0.000000
     26          6.502090   0.000000
     27          7.532457   0.000000
     28          7.946282   0.000000
     29          8.244317   0.000000
     30          8.492722   0.000000
     31          8.575640   0.000000
     32          8.646465   0.000000
     33         10.463924   0.000000
     34         10.598610   0.000000
     35         10.881659   0.000000
     36         11.203722   0.000000
     37         11.354056   0.000000
     38         11.564038   0.000000
     39         12.075201   0.000000
     40         12.396005   0.000000
     41         12.814800   0.000000
     42         13.137008   0.000000
     43         14.566271   0.000000
     44         14.651051   0.000000
     45         14.869537   0.000000
     46         14.921200   0.000000
     47         16.164279   0.000000
     48         16.371972   0.000000
 
  0.0000000E+00  0.6250000E-01  0.3125000E-01  0.6127451E-03
      1        -12.723299   1.000000
      2        -11.569100   1.000000
      3         -8.655713   1.000000
      4         -8.414199   1.000000
      5         -6.079597   1.000000
      6         -5.067775   1.000000
      7         -4.607068   1.000000
      8         -4.382646   1.000000
      9         -4.147688   1.000000
     10         -3.582996   1.000000
     11         -2.853472   1.000000
     12         -2.158609   1.000000
     13         -1.525127   1.000000
     14         -1.058168   1.000000
     15         -0.135451   1.000000
     16         -0.118100   1.000000
     17          0.133674   1.000000
     18          0.221664   1.000000
     19          0.583808   1.000000
     20          1.950951   0.053290
     21          2.017717   0.000231
     22          2.278392   0.000000
     23          5.513452   0.000000
     24          5.721015   0.000000
     25          5.818798   0.000000
     26          5.898750   0.000000
     27          6.917370   0.000000
     28          7.785455   0.000000
     29          7.821439   0.000000
     30          8.368140   0.000000
     31          8.752287   0.000000
     32          9.001497   0.000000
     33          9.069249   0.000000
     34         10.266187   0.000000
     35         11.232219   0.000000
     36         11.368111   0.000000
     37         11.702190   0.000000
     38         11.843885   0.000000
     39         11.933168   0.000000
     40         12.474946   0.000000
     41         12.822507   0.000000
     42         13.259908   0.000000
     43         13.484952   0.000000
     44         15.489822   0.000000
     45         15.521446   0.000000
     46         15.915439   0.000000
     47         16.289083   0.000000
     48         16.293166   0.000000
 
  0.5882353E-01  0.6250000E-01  0.3125000E-01  0.1225490E-02
      1        -12.715683   1.000000
      2        -11.582303   1.000000
      3         -8.652741   1.000000
      4         -8.411620   1.000000
      5         -6.064260   1.000000
      6         -5.158110   1.000000
      7         -4.656487   1.000000
      8         -4.296381   1.000000
      9         -4.104532   1.000000
     10         -3.509299   1.000000
     11         -2.865082   1.000000
     12         -2.155000   1.000000
     13         -1.542003   1.000000
     14         -1.115508   1.000000
     15         -0.141771   1.000000
     16         -0.094109   1.000000
     17          0.141500   1.000000
     18          0.203668   1.000000
     19          0.566583   1.000000
     20          1.927190   0.173169
     21          2.012405   0.000401
     22          2.255955   0.000000
     23          5.529960   0.000000
     24          5.703983   0.000000
     25          5.854967   0.000000
     26          5.947238   0.000000
     27          6.900509   0.000000
     28          7.594317   0.000000
     29          7.975456   0.000000
     30          8.395452   0.000000
     31          8.817529   0.000000
     32          9.048005   0.000000
     33          9.081742   0.000000
     34         10.275912   0.000000
     35         11.238578   0.000000
     36         11.298433   0.000000
     37         11.575507   0.000000
     38         11.801921   0.000000
     39         11.973914   0.000000
     40         12.489327   0.000000
     41         12.909898   0.000000
     42         13.356871   0.000000
     43         13.450338   0.000000
     44         15.322792   0.000000
     45         15.524717   0.000000
     46         16.006115   0.000000
     47         16.194444   0.000000
     48         16.335744   0.000000
 
  0.1176471E+00  0.6250000E-01  0.3125000E-01  0.1225490E-02
      1        -12.692942   1.000000
      2        -11.620937   1.000000
      3         -8.643373   1.000000
      4         -8.404614   1.000000
      5         -6.026741   1.000000
      6         -5.342917   1.000000
      7         -4.744092   1.000000
      8         -4.198858   1.000000
      9         -3.921174   1.000000
     10         -3.322507   1.000000
     11         -2.899237   1.000000
     12         -2.144125   1.000000
     13         -1.588786   1.000000
     14         -1.278670   1.000000
     15         -0.135484   1.000000
     16         -0.058918   1.000000
     17          0.136240   1.000000
     18          0.185054   1.000000
     19          0.515231   1.000000
     20          1.867711   0.770537
     21          1.987662   0.003999
     22          2.188928   0.000000
     23          5.573814   0.000000
     24          5.729330   0.000000
     25          5.856487   0.000000
     26          6.124113   0.000000
     27          6.853153   0.000000
     28          7.382343   0.000000
     29          8.100944   0.000000
     30          8.471726   0.000000
     31          8.969704   0.000000
     32          9.119086   0.000000
     33          9.192624   0.000000
     34         10.305807   0.000000
     35         11.078573   0.000000
     36         11.276455   0.000000
     37         11.281734   0.000000
     38         11.747954   0.000000
     39         12.088958   0.000000
     40         12.532938   0.000000
     41         13.087004   0.000000
     42         13.207431   0.000000
     43         13.714442   0.000000
     44         15.015965   0.000000
     45         15.607319   0.000000
     46         15.950832   0.000000
     47         16.095631   0.000000
     48         16.443128   0.000000
 
  0.1764706E+00  0.6250000E-01  0.3125000E-01  0.1225490E-02
      1        -12.655399   1.000000
      2        -11.682242   1.000000
      3         -8.626643   1.000000
      4         -8.395197   1.000000
      5         -5.992025   1.000000
      6         -5.537573   1.000000
      7         -4.798467   1.000000
      8         -4.133624   1.000000
      9         -3.641420   1.000000
     10         -3.083882   1.000000
     11         -2.946158   1.000000
     12         -2.125904   1.000000
     13         -1.656438   1.000000
     14         -1.525342   1.000000
     15         -0.118991   1.000000
     16         -0.066999   1.000000
     17          0.107502   1.000000
     18          0.212922   1.000000
     19          0.441149   1.000000
     20          1.787360   0.998708
     21          1.937363   0.109456
     22          2.079276   0.000000
     23          5.629383   0.000000
     24          5.787894   0.000000
     25          5.898706   0.000000
     26          6.364243   0.000000
     27          6.784158   0.000000
     28          7.194204   0.000000
     29          8.199875   0.000000
     30          8.579892   0.000000
     31          9.055475   0.000000
     32          9.264905   0.000000
     33          9.419871   0.000000
     34         10.359903   0.000000
     35         10.765391   0.000000
     36         10.930423   0.000000
     37         11.335098   0.000000
     38         11.762334   0.000000
     39         12.249044   0.000000
     40         12.616986   0.000000
     41         12.934529   0.000000
     42         13.181823   0.000000
     43         14.072381   0.000000
     44         14.836965   0.000000
     45         15.602227   0.000000
     46         15.788247   0.000000
     47         16.085174   0.000000
     48         16.540480   0.000000
 
  0.2352941E+00  0.6250000E-01  0.3125000E-01  0.1225490E-02
      1        -12.603644   1.000000
      2        -11.762164   1.000000
      3         -8.601942   1.000000
      4         -8.386349   1.000000
      5         -5.991516   1.000000
      6         -5.712012   1.000000
      7         -4.767004   1.000000
      8         -4.061991   1.000000
      9         -3.337524   1.000000
     10         -3.052919   1.000000
     11         -2.778260   1.000000
     12         -2.101306   1.000000
     13         -1.829099   1.000000
     14         -1.731987   1.000000
     15         -0.192565   1.000000
     16         -0.080545   1.000000
     17          0.133482   1.000000
     18          0.197777   1.000000
     19          0.413024   1.000000
     20          1.697771   1.000000
     21          1.861580   0.819651
     22          1.934701   0.124219
     23          5.674472   0.000000
     24          5.813020   0.000000
     25          6.073211   0.000000
     26          6.631043   0.000000
     27          6.708684   0.000000
     28          7.053819   0.000000
     29          8.285668   0.000000
     30          8.684435   0.000000
     31          9.041458   0.000000
     32          9.492532   0.000000
     33          9.707486   0.000000
     34         10.313268   0.000000
     35         10.467747   0.000000
     36         10.691485   0.000000
     37         11.395216   0.000000
     38         11.868651   0.000000
     39         12.383918   0.000000
     40         12.596982   0.000000
     41         12.800713   0.000000
     42         13.055375   0.000000
     43         14.414311   0.000000
     44         14.919381   0.000000
     45         15.331765   0.000000
     46         15.813184   0.000000
     47         16.003779   0.000000
     48         16.380162   0.000000
 
  0.2941176E+00  0.6250000E-01  0.3125000E-01  0.1225490E-02
      1        -12.538497   1.000000
      2        -11.855927   1.000000
      3         -8.569727   1.000000
      4         -8.381564   1.000000
      5         -6.033639   1.000000
      6         -5.856791   1.000000
      7         -4.630099   1.000000
      8         -3.976631   1.000000
      9         -3.149051   1.000000
     10         -3.047196   1.000000
     11         -2.497925   1.000000
     12         -2.171031   1.000000
     13         -2.045034   1.000000
     14         -1.812854   1.000000
     15         -0.352601   1.000000
     16         -0.106453   1.000000
     17          0.104705   1.000000
     18          0.201673   1.000000
     19          0.484516   1.000000
     20          1.609689   1.000000
     21          1.734586   0.999997
     22          1.798320   0.996567
     23          5.700229   0.000000
     24          5.841939   0.000000
     25          6.338357   0.000000
     26          6.631185   0.000000
     27          6.798172   0.000000
     28          7.088314   0.000000
     29          8.361721   0.000000
     30          8.721268   0.000000
     31          8.968098   0.000000
     32          9.731812   0.000000
     33          9.891925   0.000000
     34         10.025478   0.000000
     35         10.332110   0.000000
     36         10.840734   0.000000
     37         11.424776   0.000000
     38         12.052816   0.000000
     39         12.244077   0.000000
     40         12.458006   0.000000
     41         12.757502   0.000000
     42         13.071481   0.000000
     43         14.686497   0.000000
     44         15.029361   0.000000
     45         15.207912   0.000000
     46         15.613314   0.000000
     47         15.776124   0.000000
     48         16.268854   0.000000
 
  0.3529412E+00  0.6250000E-01  0.3125000E-01  0.1225490E-02
      1        -12.461092   1.000000
      2        -11.958587   1.000000
      3         -8.531871   1.000000
      4         -8.384253   1.000000
      5         -6.092322   1.000000
      6         -5.973053   1.000000
      7         -4.403530   1.000000
      8         -3.877323   1.000000
      9         -3.263382   1.000000
     10         -2.878303   1.000000
     11         -2.422333   1.000000
     12         -2.209690   1.000000
     13         -2.001176   1.000000
     14         -1.891991   1.000000
     15         -0.528131   1.000000
     16         -0.258376   1.000000
     17          0.115274   1.000000
     18          0.239266   1.000000
     19          0.604582   1.000000
     20          1.509091   1.000000
     21          1.573550   1.000000
     22          1.701349   1.000000
     23          5.723187   0.000000
     24          5.863073   0.000000
     25          6.580471   0.000000
     26          6.669455   0.000000
     27          6.744114   0.000000
     28          7.393557   0.000000
     29          8.429741   0.000000
     30          8.610131   0.000000
     31          8.842429   0.000000
     32          9.454354   0.000000
     33          9.979744   0.000000
     34         10.227355   0.000000
     35         10.419791   0.000000
     36         11.189940   0.000000
     37         11.384557   0.000000
     38         11.885052   0.000000
     39         12.255329   0.000000
     40         12.331991   0.000000
     41         12.630045   0.000000
     42         13.328771   0.000000
     43         14.684879   0.000000
     44         14.976893   0.000000
     45         15.169640   0.000000
     46         15.343884   0.000000
     47         15.629360   0.000000
     48         16.352129   0.000000
 
  0.4117647E+00  0.6250000E-01  0.3125000E-01  0.1225490E-02
      1        -12.372930   1.000000
      2        -12.065479   1.000000
      3         -8.491585   1.000000
      4         -8.396928   1.000000
      5         -6.135983   1.000000
      6         -6.062691   1.000000
      7         -4.113584   1.000000
      8         -3.765779   1.000000