Automatically generated mesh
     864
Reciprocal lattice
    0.00000000000000    0.02083333333334    0.03125000000000             4
    0.05882352941177    0.02083333333334    0.03125000000000             8
    0.11764705882353    0.02083333333334    0.03125000000000             8
    0.17647058823530    0.02083333333334    0.03125000000000             8
    0.23529411764706    0.02083333333334    0.03125000000000             8
    0.29411764705883    0.02083333333334    0.03125000000000             8
    0.35294117647059    0.02083333333334    0.03125000000000             8
    0.41176470588235    0.02083333333334    0.03125000000000             8
    0.47058823529412    0.02083333333334    0.03125000000000             8
    0.00000000000000    0.06250000000000    0.03125000000000             4
    0.05882352941177    0.06250000000000    0.03125000000000             8
    0.11764705882353    0.06250000000000    0.03125000000000             8
    0.17647058823530    0.06250000000000    0.03125000000000             8
    0.23529411764706    0.06250000000000    0.03125000000000             8
    0.29411764705883    0.06250000000000    0.03125000000000             8
    0.35294117647059    0.06250000000000    0.03125000000000             8
    0.41176470588235    0.06250000000000    0.03125000000000             8
    0.47058823529412    0.06250000000000    0.03125000000000             8
    0.00000000000000    0.10416666666666    0.03125000000000             4
    0.05882352941177    0.10416666666666    0.03125000000000             8
    0.11764705882353    0.10416666666666    0.03125000000000             8
    0.17647058823530    0.10416666666666    0.03125000000000             8
    0.23529411764706    0.10416666666666    0.03125000000000             8
    0.29411764705883    0.10416666666666    0.03125000000000             8
    0.35294117647059    0.10416666666666    0.03125000000000             8
    0.41176470588235    0.10416666666666    0.03125000000000             8
    0.47058823529412    0.10416666666666    0.03125000000000             8
    0.00000000000000    0.14583333333334    0.03125000000000             4
    0.05882352941177    0.14583333333334    0.03125000000000             8
    0.11764705882353    0.14583333333334    0.03125000000000             8
    0.17647058823530    0.14583333333334    0.03125000000000             8
    0.23529411764706    0.14583333333334    0.03125000000000             8
    0.29411764705883    0.14583333333334    0.03125000000000             8
    0.35294117647059    0.14583333333334    0.03125000000000             8
    0.41176470588235    0.14583333333334    0.03125000000000             8
    0.47058823529412    0.14583333333334    0.03125000000000             8
    0.00000000000000    0.18750000000000    0.03125000000000             4
    0.05882352941177    0.18750000000000    0.03125000000000             8
    0.11764705882353    0.18750000000000    0.03125000000000             8
    0.17647058823530    0.18750000000000    0.03125000000000             8
    0.23529411764706    0.18750000000000    0.03125000000000             8
    0.29411764705883    0.18750000000000    0.03125000000000             8
    0.35294117647059    0.18750000000000    0.03125000000000             8
    0.41176470588235    0.18750000000000    0.03125000000000             8
    0.47058823529412    0.18750000000000    0.03125000000000             8
    0.00000000000000    0.22916666666666    0.03125000000000             4
    0.05882352941177    0.22916666666666    0.03125000000000             8
    0.11764705882353    0.22916666666666    0.03125000000000             8
    0.17647058823530    0.22916666666666    0.03125000000000             8
    0.23529411764706    0.22916666666666    0.03125000000000             8
    0.29411764705883    0.22916666666666    0.03125000000000             8
    0.35294117647059    0.22916666666666    0.03125000000000             8
    0.41176470588235    0.22916666666666    0.03125000000000             8
    0.47058823529412    0.22916666666666    0.03125000000000             8
    0.00000000000000    0.27083333333334    0.03125000000000             4
    0.05882352941177    0.27083333333334    0.03125000000000             8
    0.11764705882353    0.27083333333334    0.03125000000000             8
    0.17647058823530    0.27083333333334    0.03125000000000             8
    0.23529411764706    0.27083333333334    0.03125000000000             8
    0.29411764705883    0.27083333333334    0.03125000000000             8
    0.35294117647059    0.27083333333334    0.03125000000000             8
    0.41176470588235    0.27083333333334    0.03125000000000             8
    0.47058823529412    0.27083333333334    0.03125000000000             8
    0.00000000000000    0.31250000000000    0.03125000000000             4
    0.05882352941177    0.31250000000000    0.03125000000000             8
    0.11764705882353    0.31250000000000    0.03125000000000             8
    0.17647058823530    0.31250000000000    0.03125000000000             8
    0.23529411764706    0.31250000000000    0.03125000000000             8
    0.29411764705883    0.31250000000000    0.03125000000000             8
    0.35294117647059    0.31250000000000    0.03125000000000             8
    0.41176470588235    0.31250000000000    0.03125000000000             8
    0.47058823529412    0.31250000000000    0.03125000000000             8
    0.00000000000000    0.35416666666666    0.03125000000000             4
    0.05882352941177    0.35416666666666    0.03125000000000             8
    0.11764705882353    0.35416666666666    0.03125000000000             8
    0.17647058823530    0.35416666666666    0.03125000000000             8
    0.23529411764706    0.35416666666666    0.03125000000000             8
    0.29411764705883    0.35416666666666    0.03125000000000             8
    0.35294117647059    0.35416666666666    0.03125000000000             8
    0.41176470588235    0.35416666666666    0.03125000000000             8
    0.47058823529412    0.35416666666666    0.03125000000000             8
    0.00000000000000    0.39583333333334    0.03125000000000             4
    0.05882352941177    0.39583333333334    0.03125000000000             8
    0.11764705882353    0.39583333333334    0.03125000000000             8
    0.17647058823530    0.39583333333334    0.03125000000000             8
    0.23529411764706    0.39583333333334    0.03125000000000             8
    0.29411764705883    0.39583333333334    0.03125000000000             8
    0.35294117647059    0.39583333333334    0.03125000000000             8
    0.41176470588235    0.39583333333334    0.03125000000000             8
    0.47058823529412    0.39583333333334    0.03125000000000             8
    0.00000000000000    0.43750000000000    0.03125000000000             4
    0.05882352941177    0.43750000000000    0.03125000000000             8
    0.11764705882353    0.43750000000000    0.03125000000000             8
    0.17647058823530    0.43750000000000    0.03125000000000             8
    0.23529411764706    0.43750000000000    0.03125000000000             8
    0.29411764705883    0.43750000000000    0.03125000000000             8
    0.35294117647059    0.43750000000000    0.03125000000000             8
    0.41176470588235    0.43750000000000    0.03125000000000             8
    0.47058823529412    0.43750000000000    0.03125000000000             8
    0.00000000000000    0.47916666666666    0.03125000000000             4
    0.05882352941177    0.47916666666666    0.03125000000000             8
    0.11764705882353    0.47916666666666    0.03125000000000             8
    0.17647058823530    0.47916666666666    0.03125000000000             8
    0.23529411764706    0.47916666666666    0.03125000000000             8
    0.29411764705883    0.47916666666666    0.03125000000000             8
    0.35294117647059    0.47916666666666    0.03125000000000             8
    0.41176470588235    0.47916666666666    0.03125000000000             8
    0.47058823529412    0.47916666666666    0.03125000000000             8
    0.00000000000000    0.02083333333334    0.09375000000000             4
    0.05882352941177    0.02083333333334    0.09375000000000             8
    0.11764705882353    0.02083333333334    0.09375000000000             8
    0.17647058823530    0.02083333333334    0.09375000000000             8
    0.23529411764706    0.02083333333334    0.09375000000000             8
    0.29411764705883    0.02083333333334    0.09375000000000             8
    0.35294117647059    0.02083333333334    0.09375000000000             8
    0.41176470588235    0.02083333333334    0.09375000000000             8
    0.47058823529412    0.02083333333334    0.09375000000000             8
    0.00000000000000    0.06250000000000    0.09375000000000             4
    0.05882352941177    0.06250000000000    0.09375000000000             8
    0.11764705882353    0.06250000000000    0.09375000000000             8
    0.17647058823530    0.06250000000000    0.09375000000000             8
    0.23529411764706    0.06250000000000    0.09375000000000             8
    0.29411764705883    0.06250000000000    0.09375000000000             8
    0.35294117647059    0.06250000000000    0.09375000000000             8
    0.41176470588235    0.06250000000000    0.09375000000000             8
    0.47058823529412    0.06250000000000    0.09375000000000             8
    0.00000000000000    0.10416666666666    0.09375000000000             4
    0.05882352941177    0.10416666666666    0.09375000000000             8
    0.11764705882353    0.10416666666666    0.09375000000000             8
    0.17647058823530    0.10416666666666    0.09375000000000             8
    0.23529411764706    0.10416666666666    0.09375000000000             8
    0.29411764705883    0.10416666666666    0.09375000000000             8
    0.35294117647059    0.10416666666666    0.09375000000000             8
    0.41176470588235    0.10416666666666    0.09375000000000             8
    0.47058823529412    0.10416666666666    0.09375000000000             8
    0.00000000000000    0.14583333333334    0.09375000000000             4
    0.05882352941177    0.14583333333334    0.09375000000000             8
    0.11764705882353    0.14583333333334    0.09375000000000             8
    0.17647058823530    0.14583333333334    0.09375000000000             8
    0.23529411764706    0.14583333333334    0.09375000000000             8
    0.29411764705883    0.14583333333334    0.09375000000000             8
    0.35294117647059    0.14583333333334    0.09375000000000             8
    0.41176470588235    0.14583333333334    0.09375000000000             8
    0.47058823529412    0.14583333333334    0.09375000000000             8
    0.00000000000000    0.18750000000000    0.09375000000000             4
    0.05882352941177    0.18750000000000    0.09375000000000             8
    0.11764705882353    0.18750000000000    0.09375000000000             8
    0.17647058823530    0.18750000000000    0.09375000000000             8
    0.23529411764706    0.18750000000000    0.09375000000000             8
    0.29411764705883    0.18750000000000    0.09375000000000             8
    0.35294117647059    0.18750000000000    0.09375000000000             8
    0.41176470588235    0.18750000000000    0.09375000000000             8
    0.47058823529412    0.18750000000000    0.09375000000000             8
    0.00000000000000    0.22916666666666    0.09375000000000             4
    0.05882352941177    0.22916666666666    0.09375000000000             8
    0.11764705882353    0.22916666666666    0.09375000000000             8
    0.17647058823530    0.22916666666666    0.09375000000000             8
    0.23529411764706    0.22916666666666    0.09375000000000             8
    0.29411764705883    0.22916666666666    0.09375000000000             8
    0.35294117647059    0.22916666666666    0.09375000000000             8
    0.41176470588235    0.22916666666666    0.09375000000000             8
    0.47058823529412    0.22916666666666    0.09375000000000             8
    0.00000000000000    0.27083333333334    0.09375000000000             4
    0.05882352941177    0.27083333333334    0.09375000000000             8
    0.11764705882353    0.27083333333334    0.09375000000000             8
    0.17647058823530    0.27083333333334    0.09375000000000             8
    0.23529411764706    0.27083333333334    0.09375000000000             8
    0.29411764705883    0.27083333333334    0.09375000000000             8
    0.35294117647059    0.27083333333334    0.09375000000000             8
    0.41176470588235    0.27083333333334    0.09375000000000             8
    0.47058823529412    0.27083333333334    0.09375000000000             8
    0.00000000000000    0.31250000000000    0.09375000000000             4
    0.05882352941177    0.31250000000000    0.09375000000000             8
    0.11764705882353    0.31250000000000    0.09375000000000             8
    0.17647058823530    0.31250000000000    0.09375000000000             8
    0.23529411764706    0.31250000000000    0.09375000000000             8
    0.29411764705883    0.31250000000000    0.09375000000000             8
    0.35294117647059    0.31250000000000    0.09375000000000             8
    0.41176470588235    0.31250000000000    0.09375000000000             8
    0.47058823529412    0.31250000000000    0.09375000000000             8
    0.00000000000000    0.35416666666666    0.09375000000000             4
    0.05882352941177    0.35416666666666    0.09375000000000             8
    0.11764705882353    0.35416666666666    0.09375000000000             8
    0.17647058823530    0.35416666666666    0.09375000000000             8
    0.23529411764706    0.35416666666666    0.09375000000000             8
    0.29411764705883    0.35416666666666    0.09375000000000             8
    0.35294117647059    0.35416666666666    0.09375000000000             8
    0.41176470588235    0.35416666666666    0.09375000000000             8
    0.47058823529412    0.35416666666666    0.09375000000000             8
    0.00000000000000    0.39583333333334    0.09375000000000             4
    0.05882352941177    0.39583333333334    0.09375000000000             8
    0.11764705882353    0.39583333333334    0.09375000000000             8
    0.17647058823530    0.39583333333334    0.09375000000000             8
    0.23529411764706    0.39583333333334    0.09375000000000             8
    0.29411764705883    0.39583333333334    0.09375000000000             8
    0.35294117647059    0.39583333333334    0.09375000000000             8
    0.41176470588235    0.39583333333334    0.09375000000000             8
    0.47058823529412    0.39583333333334    0.09375000000000             8
    0.00000000000000    0.43750000000000    0.09375000000000             4
    0.05882352941177    0.43750000000000    0.09375000000000             8
    0.11764705882353    0.43750000000000    0.09375000000000             8
    0.17647058823530    0.43750000000000    0.09375000000000             8
    0.23529411764706    0.43750000000000    0.09375000000000             8
    0.29411764705883    0.43750000000000    0.09375000000000             8
    0.35294117647059    0.43750000000000    0.09375000000000             8
    0.41176470588235    0.43750000000000    0.09375000000000             8
    0.47058823529412    0.43750000000000    0.09375000000000             8
    0.00000000000000    0.47916666666666    0.09375000000000             4
    0.05882352941177    0.47916666666666    0.09375000000000             8
    0.11764705882353    0.47916666666666    0.09375000000000             8
    0.17647058823530    0.47916666666666    0.09375000000000             8
    0.23529411764706    0.47916666666666    0.09375000000000             8
    0.29411764705883    0.47916666666666    0.09375000000000             8
    0.35294117647059    0.47916666666666    0.09375000000000             8
    0.41176470588235    0.47916666666666    0.09375000000000             8
    0.47058823529412    0.47916666666666    0.09375000000000             8
    0.00000000000000    0.02083333333334    0.15625000000000             4
    0.05882352941177    0.02083333333334    0.15625000000000             8
    0.11764705882353    0.02083333333334    0.15625000000000             8
    0.17647058823530    0.02083333333334    0.15625000000000             8
    0.23529411764706    0.02083333333334    0.15625000000000             8
    0.29411764705883    0.02083333333334    0.15625000000000             8
    0.35294117647059    0.02083333333334    0.15625000000000             8
    0.41176470588235    0.02083333333334    0.15625000000000             8
    0.47058823529412    0.02083333333334    0.15625000000000             8
    0.00000000000000    0.06250000000000    0.15625000000000             4
    0.05882352941177    0.06250000000000    0.15625000000000             8
    0.11764705882353    0.06250000000000    0.15625000000000             8
    0.17647058823530    0.06250000000000    0.15625000000000             8
    0.23529411764706    0.06250000000000    0.15625000000000             8
    0.29411764705883    0.06250000000000    0.15625000000000             8
    0.35294117647059    0.06250000000000    0.15625000000000             8
    0.41176470588235    0.06250000000000    0.15625000000000             8
    0.47058823529412    0.06250000000000    0.15625000000000             8
    0.00000000000000    0.10416666666666    0.15625000000000             4
    0.05882352941177    0.10416666666666    0.15625000000000             8
    0.11764705882353    0.10416666666666    0.15625000000000             8
    0.17647058823530    0.10416666666666    0.15625000000000             8
    0.23529411764706    0.10416666666666    0.15625000000000             8
    0.29411764705883    0.10416666666666    0.15625000000000             8
    0.35294117647059    0.10416666666666    0.15625000000000             8
    0.41176470588235    0.10416666666666    0.15625000000000             8
    0.47058823529412    0.10416666666666    0.15625000000000             8
    0.00000000000000    0.14583333333334    0.15625000000000             4
    0.05882352941177    0.14583333333334    0.15625000000000             8
    0.11764705882353    0.14583333333334    0.15625000000000             8
    0.17647058823530    0.14583333333334    0.15625000000000             8
    0.23529411764706    0.14583333333334    0.15625000000000             8
    0.29411764705883    0.14583333333334    0.15625000000000             8
    0.35294117647059    0.14583333333334    0.15625000000000             8
    0.41176470588235    0.14583333333334    0.15625000000000             8
    0.47058823529412    0.14583333333334    0.15625000000000             8
    0.00000000000000    0.18750000000000    0.15625000000000             4
    0.05882352941177    0.18750000000000    0.15625000000000             8
    0.11764705882353    0.18750000000000    0.15625000000000             8
    0.17647058823530    0.18750000000000    0.15625000000000             8
    0.23529411764706    0.18750000000000    0.15625000000000             8
    0.29411764705883    0.18750000000000    0.15625000000000             8
    0.35294117647059    0.18750000000000    0.15625000000000             8
    0.41176470588235    0.18750000000000    0.15625000000000             8
    0.47058823529412    0.18750000000000    0.15625000000000             8
    0.00000000000000    0.22916666666666    0.15625000000000             4
    0.05882352941177    0.22916666666666    0.15625000000000             8
    0.11764705882353    0.22916666666666    0.15625000000000             8
    0.17647058823530    0.22916666666666    0.15625000000000             8
    0.23529411764706    0.22916666666666    0.15625000000000             8
    0.29411764705883    0.22916666666666    0.15625000000000             8
    0.35294117647059    0.22916666666666    0.15625000000000             8
    0.41176470588235    0.22916666666666    0.15625000000000             8
    0.47058823529412    0.22916666666666    0.15625000000000             8
    0.00000000000000    0.27083333333334    0.15625000000000             4
    0.05882352941177    0.27083333333334    0.15625000000000             8
    0.11764705882353    0.27083333333334    0.15625000000000             8
    0.17647058823530    0.27083333333334    0.15625000000000             8
    0.23529411764706    0.27083333333334    0.15625000000000             8
    0.29411764705883    0.27083333333334    0.15625000000000             8
    0.35294117647059    0.27083333333334    0.15625000000000             8
    0.41176470588235    0.27083333333334    0.15625000000000             8
    0.47058823529412    0.27083333333334    0.15625000000000             8
    0.00000000000000    0.31250000000000    0.15625000000000             4
    0.05882352941177    0.31250000000000    0.15625000000000             8
    0.11764705882353    0.31250000000000    0.15625000000000             8
    0.17647058823530    0.31250000000000    0.15625000000000             8
    0.23529411764706    0.31250000000000    0.15625000000000             8
    0.29411764705883    0.31250000000000    0.15625000000000             8
    0.35294117647059    0.31250000000000    0.15625000000000             8
    0.41176470588235    0.31250000000000    0.15625000000000             8
    0.47058823529412    0.31250000000000    0.15625000000000             8
    0.00000000000000    0.35416666666666    0.15625000000000             4
    0.05882352941177    0.35416666666666    0.15625000000000             8
    0.11764705882353    0.35416666666666    0.15625000000000             8
    0.17647058823530    0.35416666666666    0.15625000000000             8
    0.23529411764706    0.35416666666666    0.15625000000000             8
    0.29411764705883    0.35416666666666    0.15625000000000             8
    0.35294117647059    0.35416666666666    0.15625000000000             8
    0.41176470588235    0.35416666666666    0.15625000000000             8
    0.47058823529412    0.35416666666666    0.15625000000000             8
    0.00000000000000    0.39583333333334    0.15625000000000             4
    0.05882352941177    0.39583333333334    0.15625000000000             8
    0.11764705882353    0.39583333333334    0.15625000000000             8
    0.17647058823530    0.39583333333334    0.15625000000000             8
    0.23529411764706    0.39583333333334    0.15625000000000             8
    0.29411764705883    0.39583333333334    0.15625000000000             8
    0.35294117647059    0.39583333333334    0.15625000000000             8
    0.41176470588235    0.39583333333334    0.15625000000000             8
    0.47058823529412    0.39583333333334    0.15625000000000             8
    0.00000000000000    0.43750000000000    0.15625000000000             4
    0.05882352941177    0.43750000000000    0.15625000000000             8
    0.11764705882353    0.43750000000000    0.15625000000000             8
    0.17647058823530    0.43750000000000    0.15625000000000             8
    0.23529411764706    0.43750000000000    0.15625000000000             8
    0.29411764705883    0.43750000000000    0.15625000000000             8
    0.35294117647059    0.43750000000000    0.15625000000000             8
    0.41176470588235    0.43750000000000    0.15625000000000             8
    0.47058823529412    0.43750000000000    0.15625000000000             8
    0.00000000000000    0.47916666666666    0.15625000000000             4
    0.05882352941177    0.47916666666666    0.15625000000000             8
    0.11764705882353    0.47916666666666    0.15625000000000             8
    0.17647058823530    0.47916666666666    0.15625000000000             8
    0.23529411764706    0.47916666666666    0.15625000000000             8
    0.29411764705883    0.47916666666666    0.15625000000000             8
    0.35294117647059    0.47916666666666    0.15625000000000             8
    0.41176470588235    0.47916666666666    0.15625000000000             8
    0.47058823529412    0.47916666666666    0.15625000000000             8
    0.00000000000000    0.02083333333334    0.21875000000000             4
    0.05882352941177    0.02083333333334    0.21875000000000             8
    0.11764705882353    0.02083333333334    0.21875000000000             8
    0.17647058823530    0.02083333333334    0.21875000000000             8
    0.23529411764706    0.02083333333334    0.21875000000000             8
    0.29411764705883    0.02083333333334    0.21875000000000             8
    0.35294117647059    0.02083333333334    0.21875000000000             8
    0.41176470588235    0.02083333333334    0.21875000000000             8
    0.47058823529412    0.02083333333334    0.21875000000000             8
    0.00000000000000    0.06250000000000    0.21875000000000             4
    0.05882352941177    0.06250000000000    0.21875000000000             8
    0.11764705882353    0.06250000000000    0.21875000000000             8
    0.17647058823530    0.06250000000000    0.21875000000000             8
    0.23529411764706    0.06250000000000    0.21875000000000             8
    0.29411764705883    0.06250000000000    0.21875000000000             8
    0.35294117647059    0.06250000000000    0.21875000000000             8
    0.41176470588235    0.06250000000000    0.21875000000000             8
    0.47058823529412    0.06250000000000    0.21875000000000             8
    0.00000000000000    0.10416666666666    0.21875000000000             4
    0.05882352941177    0.10416666666666    0.21875000000000             8
    0.11764705882353    0.10416666666666    0.21875000000000             8
    0.17647058823530    0.10416666666666    0.21875000000000             8
    0.23529411764706    0.10416666666666    0.21875000000000             8
    0.29411764705883    0.10416666666666    0.21875000000000             8
    0.35294117647059    0.10416666666666    0.21875000000000             8
    0.41176470588235    0.10416666666666    0.21875000000000             8
    0.47058823529412    0.10416666666666    0.21875000000000             8
    0.00000000000000    0.14583333333334    0.21875000000000             4
    0.05882352941177    0.14583333333334    0.21875000000000             8
    0.11764705882353    0.14583333333334    0.21875000000000             8
    0.17647058823530    0.14583333333334    0.21875000000000             8
    0.23529411764706    0.14583333333334    0.21875000000000             8
    0.29411764705883    0.14583333333334    0.21875000000000             8
    0.35294117647059    0.14583333333334    0.21875000000000             8
    0.41176470588235    0.14583333333334    0.21875000000000             8
    0.47058823529412    0.14583333333334    0.21875000000000             8
    0.00000000000000    0.18750000000000    0.21875000000000             4
    0.05882352941177    0.18750000000000    0.21875000000000             8
    0.11764705882353    0.18750000000000    0.21875000000000             8
    0.17647058823530    0.18750000000000    0.21875000000000             8
    0.23529411764706    0.18750000000000    0.21875000000000             8
    0.29411764705883    0.18750000000000    0.21875000000000             8
    0.35294117647059    0.18750000000000    0.21875000000000             8
    0.41176470588235    0.18750000000000    0.21875000000000             8
    0.47058823529412    0.18750000000000    0.21875000000000             8
    0.00000000000000    0.22916666666666    0.21875000000000             4
    0.05882352941177    0.22916666666666    0.21875000000000             8
    0.11764705882353    0.22916666666666    0.21875000000000             8
    0.17647058823530    0.22916666666666    0.21875000000000             8
    0.23529411764706    0.22916666666666    0.21875000000000             8
    0.29411764705883    0.22916666666666    0.21875000000000             8
    0.35294117647059    0.22916666666666    0.21875000000000             8
    0.41176470588235    0.22916666666666    0.21875000000000             8
    0.47058823529412    0.22916666666666    0.21875000000000             8
    0.00000000000000    0.27083333333334    0.21875000000000             4
    0.05882352941177    0.27083333333334    0.21875000000000             8
    0.11764705882353    0.27083333333334    0.21875000000000             8
    0.17647058823530    0.27083333333334    0.21875000000000             8
    0.23529411764706    0.27083333333334    0.21875000000000             8
    0.29411764705883    0.27083333333334    0.21875000000000             8
    0.35294117647059    0.27083333333334    0.21875000000000             8
    0.41176470588235    0.27083333333334    0.21875000000000             8
    0.47058823529412    0.27083333333334    0.21875000000000             8
    0.00000000000000    0.31250000000000    0.21875000000000             4
    0.05882352941177    0.31250000000000    0.21875000000000             8
    0.11764705882353    0.31250000000000    0.21875000000000             8
    0.17647058823530    0.31250000000000    0.21875000000000             8
    0.23529411764706    0.31250000000000    0.21875000000000             8
    0.29411764705883    0.31250000000000    0.21875000000000             8
    0.35294117647059    0.31250000000000    0.21875000000000             8
    0.41176470588235    0.31250000000000    0.21875000000000             8
    0.47058823529412    0.31250000000000    0.21875000000000             8
    0.00000000000000    0.35416666666666    0.21875000000000             4
    0.05882352941177    0.35416666666666    0.21875000000000             8
    0.11764705882353    0.35416666666666    0.21875000000000             8