  14  14   0   0
  0.1021960E+02  0.5697000E-09  0.4047900E-09  0.6204200E-09  0.5000000E-15
  1.000000000000000E-004
  CAR 
 Convergence                             
     18.02266476    -14.19625617  301      1.88894245      1.00000000
    -14.196  0.0000E+00  0.0000E+00
    -14.089  0.0000E+00  0.0000E+00
    -13.981  0.0000E+00  0.0000E+00
    -13.874  0.0000E+00  0.0000E+00
    -13.767  0.0000E+00  0.0000E+00
    -13.659  0.0000E+00  0.0000E+00
    -13.552  0.0000E+00  0.0000E+00
    -13.444  0.0000E+00  0.0000E+00
    -13.337  0.0000E+00  0.0000E+00
    -13.230  0.0000E+00  0.0000E+00
    -13.122  0.0000E+00  0.0000E+00
    -13.015  0.1061E-16  0.1140E-17
    -12.907  0.1110E-07  0.1192E-08
    -12.800  0.2241E-02  0.2407E-03
    -12.693  0.4255E+00  0.4594E-01
    -12.585  0.2277E+01  0.2905E+00
    -12.478  0.3523E+01  0.6689E+00
    -12.371  0.4343E+01  0.1135E+01
    -12.263  0.3561E+01  0.1518E+01
    -12.156  0.2867E+01  0.1826E+01
    -12.048  0.2632E+01  0.2108E+01
    -11.941  0.2590E+01  0.2386E+01
    -11.834  0.2741E+01  0.2681E+01
    -11.726  0.3321E+01  0.3038E+01
    -11.619  0.3623E+01  0.3427E+01
    -11.511  0.3129E+01  0.3763E+01
    -11.404  0.1734E+01  0.3949E+01
    -11.297  0.4660E+00  0.3999E+01
    -11.189  0.9544E-02  0.4000E+01
    -11.082  0.4067E-06  0.4000E+01
    -10.974  0.4627E-14  0.4000E+01
    -10.867  0.0000E+00  0.4000E+01
    -10.760  0.0000E+00  0.4000E+01
    -10.652  0.0000E+00  0.4000E+01
    -10.545  0.0000E+00  0.4000E+01
    -10.437  0.0000E+00  0.4000E+01
    -10.330  0.0000E+00  0.4000E+01
    -10.223  0.0000E+00  0.4000E+01
    -10.115  0.0000E+00  0.4000E+01
    -10.008  0.0000E+00  0.4000E+01
     -9.900  0.0000E+00  0.4000E+01
     -9.793  0.0000E+00  0.4000E+01
     -9.686  0.0000E+00  0.4000E+01
     -9.578  0.0000E+00  0.4000E+01
     -9.471  0.0000E+00  0.4000E+01
     -9.363  0.0000E+00  0.4000E+01
     -9.256  0.0000E+00  0.4000E+01
     -9.149  0.0000E+00  0.4000E+01
     -9.041  0.7553E-09  0.4000E+01
     -8.934  0.5792E-03  0.4000E+01
     -8.826  0.2799E+00  0.4030E+01
     -8.719  0.2110E+01  0.4257E+01
     -8.612  0.5331E+01  0.4829E+01
     -8.504  0.7011E+01  0.5582E+01
     -8.397  0.6252E+01  0.6254E+01
     -8.289  0.5305E+01  0.6823E+01
     -8.182  0.4878E+01  0.7347E+01
     -8.075  0.3797E+01  0.7755E+01
     -7.967  0.1667E+01  0.7934E+01
     -7.860  0.5673E+00  0.7995E+01
     -7.752  0.4648E-01  0.8000E+01
     -7.645  0.3510E-04  0.8000E+01
     -7.538  0.1250E-10  0.8000E+01
     -7.430  0.0000E+00  0.8000E+01
     -7.323  0.0000E+00  0.8000E+01
     -7.215  0.3194E-14  0.8000E+01
     -7.108  0.2281E-06  0.8000E+01
     -7.001  0.3311E-02  0.8000E+01
     -6.893  0.1026E+00  0.8011E+01
     -6.786  0.2810E+00  0.8042E+01
     -6.679  0.4696E+00  0.8092E+01
     -6.571  0.7012E+00  0.8167E+01
     -6.464  0.8782E+00  0.8262E+01
     -6.356  0.1459E+01  0.8418E+01
     -6.249  0.2068E+01  0.8640E+01
     -6.142  0.3008E+01  0.8963E+01
     -6.034  0.3871E+01  0.9379E+01
     -5.927  0.4077E+01  0.9817E+01
     -5.819  0.3924E+01  0.1024E+02
     -5.712  0.4145E+01  0.1068E+02
     -5.605  0.4029E+01  0.1112E+02
     -5.497  0.4070E+01  0.1155E+02
     -5.390  0.4476E+01  0.1203E+02
     -5.282  0.4766E+01  0.1255E+02
     -5.175  0.4415E+01  0.1302E+02
     -5.068  0.3921E+01  0.1344E+02
     -4.960  0.3381E+01  0.1380E+02
     -4.853  0.2470E+01  0.1407E+02
     -4.745  0.2425E+01  0.1433E+02
     -4.638  0.2996E+01  0.1465E+02
     -4.531  0.3596E+01  0.1504E+02
     -4.423  0.3477E+01  0.1541E+02
     -4.316  0.3116E+01  0.1575E+02
     -4.208  0.2928E+01  0.1606E+02
     -4.101  0.2872E+01  0.1637E+02
     -3.994  0.3011E+01  0.1669E+02
     -3.886  0.2980E+01  0.1701E+02
     -3.779  0.3021E+01  0.1734E+02
     -3.671  0.2903E+01  0.1765E+02
     -3.564  0.2774E+01  0.1795E+02
     -3.457  0.2880E+01  0.1826E+02
     -3.349  0.2734E+01  0.1855E+02
     -3.242  0.2743E+01  0.1884E+02
     -3.134  0.2815E+01  0.1915E+02
     -3.027  0.2894E+01  0.1946E+02
     -2.920  0.3046E+01  0.1978E+02
     -2.812  0.2882E+01  0.2009E+02
     -2.705  0.2362E+01  0.2035E+02
     -2.597  0.2601E+01  0.2063E+02
     -2.490  0.2973E+01  0.2095E+02
     -2.383  0.3190E+01  0.2129E+02
     -2.275  0.3740E+01  0.2169E+02
     -2.168  0.3268E+01  0.2204E+02
     -2.060  0.3682E+01  0.2244E+02
     -1.953  0.3631E+01  0.2283E+02
     -1.846  0.5214E+01  0.2339E+02
     -1.738  0.5384E+01  0.2396E+02
     -1.631  0.5828E+01  0.2459E+02
     -1.523  0.6100E+01  0.2525E+02
     -1.416  0.6163E+01  0.2591E+02
     -1.309  0.5547E+01  0.2650E+02
     -1.201  0.5248E+01  0.2707E+02
     -1.094  0.5312E+01  0.2764E+02
     -0.986  0.3894E+01  0.2806E+02
     -0.879  0.2757E+01  0.2835E+02
     -0.772  0.2467E+01  0.2862E+02
     -0.664  0.3200E+01  0.2896E+02
     -0.557  0.5183E+01  0.2952E+02
     -0.450  0.5977E+01  0.3016E+02
     -0.342  0.6247E+01  0.3083E+02
     -0.235  0.6340E+01  0.3151E+02
     -0.127  0.6653E+01  0.3223E+02
     -0.020  0.7003E+01  0.3298E+02
      0.087  0.6246E+01  0.3365E+02
      0.195  0.6733E+01  0.3437E+02
      0.302  0.8532E+01  0.3529E+02
      0.410  0.8503E+01  0.3620E+02
      0.517  0.8470E+01  0.3711E+02
      0.624  0.4609E+01  0.3761E+02
      0.732  0.2893E+01  0.3792E+02
      0.839  0.3170E+01  0.3826E+02
      0.947  0.3227E+01  0.3860E+02
      1.054  0.3403E+01  0.3897E+02
      1.161  0.3907E+01  0.3939E+02
      1.269  0.3449E+01  0.3976E+02
      1.376  0.3898E+01  0.4018E+02
      1.484  0.3823E+01  0.4059E+02
      1.591  0.3891E+01  0.4101E+02
      1.698  0.3985E+01  0.4143E+02
      1.806  0.3064E+01  0.4176E+02
      1.913  0.2892E+01  0.4207E+02
      2.021  0.2856E+01  0.4238E+02
      2.128  0.2525E+01  0.4265E+02
      2.235  0.2268E+01  0.4289E+02
      2.343  0.2061E+01  0.4312E+02
      2.450  0.1474E+01  0.4327E+02
      2.558  0.8334E+00  0.4336E+02
      2.665  0.7627E+00  0.4345E+02
      2.772  0.6930E+00  0.4352E+02
      2.880  0.5037E+00  0.4357E+02
      2.987  0.5185E+00  0.4363E+02
      3.095  0.5504E+00  0.4369E+02
      3.202  0.4699E+00  0.4374E+02
      3.309  0.3546E+00  0.4378E+02
      3.417  0.4406E+00  0.4382E+02
      3.524  0.3909E+00  0.4387E+02
      3.632  0.2759E+00  0.4390E+02
      3.739  0.3445E+00  0.4393E+02
      3.846  0.2872E+00  0.4396E+02
      3.954  0.2193E+00  0.4399E+02
      4.061  0.1097E+00  0.4400E+02
      4.169  0.3429E-02  0.4400E+02
      4.276  0.5573E-01  0.4401E+02
      4.383  0.2408E+00  0.4403E+02
      4.491  0.3699E+00  0.4407E+02
      4.598  0.5270E+00  0.4413E+02
      4.706  0.7322E+00  0.4421E+02
      4.813  0.8282E+00  0.4430E+02
      4.920  0.8527E+00  0.4439E+02
      5.028  0.1015E+01  0.4450E+02
      5.135  0.1126E+01  0.4462E+02
      5.242  0.1374E+01  0.4476E+02
      5.350  0.1712E+01  0.4495E+02
      5.457  0.2169E+01  0.4518E+02
      5.565  0.2565E+01  0.4546E+02
      5.672  0.2965E+01  0.4578E+02
      5.779  0.3312E+01  0.4613E+02
      5.887  0.3688E+01  0.4653E+02
      5.994  0.4168E+01  0.4698E+02
      6.102  0.4574E+01  0.4747E+02
      6.209  0.4499E+01  0.4795E+02
      6.316  0.4193E+01  0.4840E+02
      6.424  0.4215E+01  0.4885E+02
      6.531  0.4320E+01  0.4932E+02
      6.639  0.3928E+01  0.4974E+02
      6.746  0.3577E+01  0.5012E+02
      6.853  0.3946E+01  0.5055E+02
      6.961  0.4444E+01  0.5102E+02
      7.068  0.4829E+01  0.5154E+02
      7.176  0.5024E+01  0.5208E+02
      7.283  0.5100E+01  0.5263E+02
      7.390  0.4567E+01  0.5312E+02
      7.498  0.4438E+01  0.5360E+02
      7.605  0.4126E+01  0.5404E+02
      7.713  0.3442E+01  0.5441E+02
      7.820  0.3032E+01  0.5473E+02
      7.927  0.3240E+01  0.5508E+02
      8.035  0.3385E+01  0.5545E+02
      8.142  0.3492E+01  0.5582E+02
      8.250  0.4008E+01  0.5625E+02
      8.357  0.4021E+01  0.5668E+02
      8.464  0.4131E+01  0.5713E+02
      8.572  0.3966E+01  0.5755E+02
      8.679  0.4360E+01  0.5802E+02
      8.787  0.4810E+01  0.5854E+02
      8.894  0.5263E+01  0.5910E+02
      9.001  0.4924E+01  0.5963E+02
      9.109  0.5121E+01  0.6018E+02
      9.216  0.5138E+01  0.6073E+02
      9.324  0.4935E+01  0.6126E+02
      9.431  0.4855E+01  0.6179E+02
      9.538  0.4455E+01  0.6226E+02
      9.646  0.4781E+01  0.6278E+02
      9.753  0.5163E+01  0.6333E+02
      9.861  0.5030E+01  0.6387E+02
      9.968  0.4991E+01  0.6441E+02
     10.075  0.4033E+01  0.6484E+02
     10.183  0.4198E+01  0.6529E+02
     10.290  0.4234E+01  0.6575E+02
     10.398  0.5171E+01  0.6630E+02
     10.505  0.5645E+01  0.6691E+02
     10.612  0.5023E+01  0.6745E+02
     10.720  0.4283E+01  0.6791E+02
     10.827  0.3833E+01  0.6832E+02
     10.935  0.3476E+01  0.6869E+02
     11.042  0.4806E+01  0.6921E+02
     11.149  0.5479E+01  0.6980E+02
     11.257  0.6271E+01  0.7047E+02
     11.364  0.5688E+01  0.7108E+02
     11.471  0.4974E+01  0.7162E+02
     11.579  0.4683E+01  0.7212E+02
     11.686  0.4592E+01  0.7261E+02
     11.794  0.4851E+01  0.7313E+02
     11.901  0.5156E+01  0.7369E+02
     12.008  0.6093E+01  0.7434E+02
     12.116  0.6073E+01  0.7499E+02
     12.223  0.5423E+01  0.7558E+02
     12.331  0.5268E+01  0.7614E+02
     12.438  0.5546E+01  0.7674E+02
     12.545  0.5970E+01  0.7738E+02
     12.653  0.5943E+01  0.7802E+02
     12.760  0.5747E+01  0.7863E+02
     12.868  0.5948E+01  0.7927E+02
     12.975  0.5995E+01  0.7992E+02
     13.082  0.5890E+01  0.8055E+02
     13.190  0.6470E+01  0.8124E+02
     13.297  0.5760E+01  0.8186E+02
     13.405  0.5632E+01  0.8247E+02
     13.512  0.5469E+01  0.8305E+02
     13.619  0.5271E+01  0.8362E+02
     13.727  0.5534E+01  0.8421E+02
     13.834  0.5805E+01  0.8484E+02
     13.942  0.5441E+01  0.8542E+02
     14.049  0.5474E+01  0.8601E+02
     14.156  0.5152E+01  0.8656E+02
     14.264  0.4924E+01  0.8709E+02
     14.371  0.4875E+01  0.8762E+02
     14.479  0.4885E+01  0.8814E+02
     14.586  0.5285E+01  0.8871E+02
     14.693  0.5174E+01  0.8926E+02
     14.801  0.4510E+01  0.8975E+02
     14.908  0.4297E+01  0.9021E+02
     15.016  0.5593E+01  0.9081E+02
     15.123  0.6069E+01  0.9146E+02
     15.230  0.5915E+01  0.9210E+02
     15.338  0.5761E+01  0.9272E+02
     15.445  0.5811E+01  0.9334E+02
     15.553  0.6141E+01  0.9400E+02
     15.660  0.5082E+01  0.9455E+02
     15.767  0.3841E+01  0.9496E+02
     15.875  0.2629E+01  0.9524E+02
     15.982  0.2175E+01  0.9547E+02
     16.090  0.1480E+01  0.9563E+02
     16.197  0.1100E+01  0.9575E+02
     16.304  0.9907E+00  0.9586E+02
     16.412  0.7959E+00  0.9594E+02
     16.519  0.4614E+00  0.9599E+02
     16.627  0.7153E-01  0.9600E+02
     16.734  0.2677E-03  0.9600E+02
     16.841  0.1934E-08  0.9600E+02
     16.949  0.3032E-17  0.9600E+02
     17.056  0.0000E+00  0.9600E+02
     17.163  0.0000E+00  0.9600E+02
     17.271  0.0000E+00  0.9600E+02
     17.378  0.0000E+00  0.9600E+02
     17.486  0.0000E+00  0.9600E+02
     17.593  0.0000E+00  0.9600E+02
     17.700  0.0000E+00  0.9600E+02
     17.808  0.0000E+00  0.9600E+02
     17.915  0.0000E+00  0.9600E+02
     18.023  0.0000E+00  0.9600E+02
