   1   1   0   0
  0.3375000E+04  0.1500000E-08  0.1250000E-08  0.1800000E-08  0.5000000E-15
  1.000000000000000E-004
  CAR 
 Convergence                             
      2.28766104     -9.96687151  301     -3.60671579      1.00000000
     -9.967  0.0000E+00  0.0000E+00
     -9.926  0.0000E+00  0.0000E+00
     -9.885  0.0000E+00  0.0000E+00
     -9.844  0.0000E+00  0.0000E+00
     -9.803  0.0000E+00  0.0000E+00
     -9.763  0.0000E+00  0.0000E+00
     -9.722  0.0000E+00  0.0000E+00
     -9.681  0.4294E-12  0.1754E-13
     -9.640  0.1814E-08  0.7411E-10
     -9.599  0.2073E-05  0.8475E-07
     -9.558  0.6475E-03  0.2653E-04
     -9.518  0.5613E-01  0.2319E-02
     -9.477  0.1380E+01  0.5868E-01
     -9.436  0.9878E+01  0.4622E+00
     -9.395  0.2114E+02  0.1326E+01
     -9.354  0.1369E+02  0.1885E+01
     -9.313  0.2664E+01  0.1994E+01
     -9.272  0.1522E+00  0.2000E+01
     -9.232  0.2481E-02  0.2000E+01
     -9.191  0.1129E-04  0.2000E+01
     -9.150  0.1409E-07  0.2000E+01
     -9.109  0.4767E-11  0.2000E+01
     -9.068  0.0000E+00  0.2000E+01
     -9.027  0.0000E+00  0.2000E+01
     -8.987  0.0000E+00  0.2000E+01
     -8.946  0.0000E+00  0.2000E+01
     -8.905  0.0000E+00  0.2000E+01
     -8.864  0.0000E+00  0.2000E+01
     -8.823  0.0000E+00  0.2000E+01
     -8.782  0.0000E+00  0.2000E+01
     -8.741  0.0000E+00  0.2000E+01
     -8.701  0.0000E+00  0.2000E+01
     -8.660  0.0000E+00  0.2000E+01
     -8.619  0.0000E+00  0.2000E+01
     -8.578  0.0000E+00  0.2000E+01
     -8.537  0.0000E+00  0.2000E+01
     -8.496  0.0000E+00  0.2000E+01
     -8.455  0.0000E+00  0.2000E+01
     -8.415  0.0000E+00  0.2000E+01
     -8.374  0.0000E+00  0.2000E+01
     -8.333  0.0000E+00  0.2000E+01
     -8.292  0.0000E+00  0.2000E+01
     -8.251  0.0000E+00  0.2000E+01
     -8.210  0.0000E+00  0.2000E+01
     -8.170  0.0000E+00  0.2000E+01
     -8.129  0.0000E+00  0.2000E+01
     -8.088  0.0000E+00  0.2000E+01
     -8.047  0.0000E+00  0.2000E+01
     -8.006  0.0000E+00  0.2000E+01
     -7.965  0.0000E+00  0.2000E+01
     -7.924  0.0000E+00  0.2000E+01
     -7.884  0.0000E+00  0.2000E+01
     -7.843  0.0000E+00  0.2000E+01
     -7.802  0.0000E+00  0.2000E+01
     -7.761  0.0000E+00  0.2000E+01
     -7.720  0.0000E+00  0.2000E+01
     -7.679  0.0000E+00  0.2000E+01
     -7.639  0.0000E+00  0.2000E+01
     -7.598  0.0000E+00  0.2000E+01
     -7.557  0.0000E+00  0.2000E+01
     -7.516  0.0000E+00  0.2000E+01
     -7.475  0.0000E+00  0.2000E+01
     -7.434  0.0000E+00  0.2000E+01
     -7.393  0.0000E+00  0.2000E+01
     -7.353  0.0000E+00  0.2000E+01
     -7.312  0.0000E+00  0.2000E+01
     -7.271  0.0000E+00  0.2000E+01
     -7.230  0.0000E+00  0.2000E+01
     -7.189  0.0000E+00  0.2000E+01
     -7.148  0.0000E+00  0.2000E+01
     -7.107  0.0000E+00  0.2000E+01
     -7.067  0.0000E+00  0.2000E+01
     -7.026  0.0000E+00  0.2000E+01
     -6.985  0.0000E+00  0.2000E+01
     -6.944  0.0000E+00  0.2000E+01
     -6.903  0.0000E+00  0.2000E+01
     -6.862  0.0000E+00  0.2000E+01
     -6.822  0.0000E+00  0.2000E+01
     -6.781  0.0000E+00  0.2000E+01
     -6.740  0.0000E+00  0.2000E+01
     -6.699  0.0000E+00  0.2000E+01
     -6.658  0.0000E+00  0.2000E+01
     -6.617  0.0000E+00  0.2000E+01
     -6.576  0.0000E+00  0.2000E+01
     -6.536  0.0000E+00  0.2000E+01
     -6.495  0.0000E+00  0.2000E+01
     -6.454  0.0000E+00  0.2000E+01
     -6.413  0.0000E+00  0.2000E+01
     -6.372  0.0000E+00  0.2000E+01
     -6.331  0.0000E+00  0.2000E+01
     -6.291  0.0000E+00  0.2000E+01
     -6.250  0.0000E+00  0.2000E+01
     -6.209  0.0000E+00  0.2000E+01
     -6.168  0.0000E+00  0.2000E+01
     -6.127  0.0000E+00  0.2000E+01
     -6.086  0.0000E+00  0.2000E+01
     -6.045  0.0000E+00  0.2000E+01
     -6.005  0.0000E+00  0.2000E+01
     -5.964  0.0000E+00  0.2000E+01
     -5.923  0.0000E+00  0.2000E+01
     -5.882  0.0000E+00  0.2000E+01
     -5.841  0.0000E+00  0.2000E+01
     -5.800  0.0000E+00  0.2000E+01
     -5.759  0.0000E+00  0.2000E+01
     -5.719  0.0000E+00  0.2000E+01
     -5.678  0.0000E+00  0.2000E+01
     -5.637  0.0000E+00  0.2000E+01
     -5.596  0.0000E+00  0.2000E+01
     -5.555  0.0000E+00  0.2000E+01
     -5.514  0.0000E+00  0.2000E+01
     -5.474  0.0000E+00  0.2000E+01
     -5.433  0.0000E+00  0.2000E+01
     -5.392  0.0000E+00  0.2000E+01
     -5.351  0.0000E+00  0.2000E+01
     -5.310  0.0000E+00  0.2000E+01
     -5.269  0.0000E+00  0.2000E+01
     -5.228  0.0000E+00  0.2000E+01
     -5.188  0.0000E+00  0.2000E+01
     -5.147  0.0000E+00  0.2000E+01
     -5.106  0.0000E+00  0.2000E+01
     -5.065  0.0000E+00  0.2000E+01
     -5.024  0.0000E+00  0.2000E+01
     -4.983  0.0000E+00  0.2000E+01
     -4.943  0.0000E+00  0.2000E+01
     -4.902  0.0000E+00  0.2000E+01
     -4.861  0.0000E+00  0.2000E+01
     -4.820  0.0000E+00  0.2000E+01
     -4.779  0.0000E+00  0.2000E+01
     -4.738  0.0000E+00  0.2000E+01
     -4.697  0.0000E+00  0.2000E+01
     -4.657  0.0000E+00  0.2000E+01
     -4.616  0.0000E+00  0.2000E+01
     -4.575  0.0000E+00  0.2000E+01
     -4.534  0.0000E+00  0.2000E+01
     -4.493  0.0000E+00  0.2000E+01
     -4.452  0.0000E+00  0.2000E+01
     -4.411  0.0000E+00  0.2000E+01
     -4.371  0.0000E+00  0.2000E+01
     -4.330  0.0000E+00  0.2000E+01
     -4.289  0.0000E+00  0.2000E+01
     -4.248  0.0000E+00  0.2000E+01
     -4.207  0.0000E+00  0.2000E+01
     -4.166  0.0000E+00  0.2000E+01
     -4.126  0.0000E+00  0.2000E+01
     -4.085  0.0000E+00  0.2000E+01
     -4.044  0.0000E+00  0.2000E+01
     -4.003  0.0000E+00  0.2000E+01
     -3.962  0.0000E+00  0.2000E+01
     -3.921  0.0000E+00  0.2000E+01
     -3.880  0.0000E+00  0.2000E+01
     -3.840  0.3085E-11  0.2000E+01
     -3.799  0.1147E-07  0.2000E+01
     -3.758  0.1154E-04  0.2000E+01
     -3.717  0.3178E-02  0.2000E+01
     -3.676  0.2433E+00  0.2010E+01
     -3.635  0.5295E+01  0.2226E+01
     -3.595  0.3366E+02  0.3601E+01
     -3.554  0.6406E+02  0.6218E+01
     -3.513  0.3692E+02  0.7726E+01
     -3.472  0.6380E+01  0.7987E+01
     -3.431  0.3227E+00  0.8000E+01
     -3.390  0.4650E-02  0.8000E+01
     -3.349  0.1865E-04  0.8000E+01
     -3.309  0.2050E-07  0.8000E+01
     -3.268  0.6106E-11  0.8000E+01
     -3.227  0.0000E+00  0.8000E+01
     -3.186  0.0000E+00  0.8000E+01
     -3.145  0.0000E+00  0.8000E+01
     -3.104  0.0000E+00  0.8000E+01
     -3.063  0.0000E+00  0.8000E+01
     -3.023  0.0000E+00  0.8000E+01
     -2.982  0.0000E+00  0.8000E+01
     -2.941  0.0000E+00  0.8000E+01
     -2.900  0.0000E+00  0.8000E+01
     -2.859  0.0000E+00  0.8000E+01
     -2.818  0.0000E+00  0.8000E+01
     -2.778  0.0000E+00  0.8000E+01
     -2.737  0.0000E+00  0.8000E+01
     -2.696  0.0000E+00  0.8000E+01
     -2.655  0.0000E+00  0.8000E+01
     -2.614  0.0000E+00  0.8000E+01
     -2.573  0.0000E+00  0.8000E+01
     -2.532  0.0000E+00  0.8000E+01
     -2.492  0.0000E+00  0.8000E+01
     -2.451  0.0000E+00  0.8000E+01
     -2.410  0.0000E+00  0.8000E+01
     -2.369  0.0000E+00  0.8000E+01
     -2.328  0.0000E+00  0.8000E+01
     -2.287  0.0000E+00  0.8000E+01
     -2.247  0.0000E+00  0.8000E+01
     -2.206  0.0000E+00  0.8000E+01
     -2.165  0.0000E+00  0.8000E+01
     -2.124  0.0000E+00  0.8000E+01
     -2.083  0.0000E+00  0.8000E+01
     -2.042  0.0000E+00  0.8000E+01
     -2.001  0.0000E+00  0.8000E+01
     -1.961  0.0000E+00  0.8000E+01
     -1.920  0.0000E+00  0.8000E+01
     -1.879  0.0000E+00  0.8000E+01
     -1.838  0.0000E+00  0.8000E+01
     -1.797  0.0000E+00  0.8000E+01
     -1.756  0.0000E+00  0.8000E+01
     -1.715  0.0000E+00  0.8000E+01
     -1.675  0.0000E+00  0.8000E+01
     -1.634  0.0000E+00  0.8000E+01
     -1.593  0.0000E+00  0.8000E+01
     -1.552  0.0000E+00  0.8000E+01
     -1.511  0.0000E+00  0.8000E+01
     -1.470  0.0000E+00  0.8000E+01
     -1.430  0.0000E+00  0.8000E+01
     -1.389  0.0000E+00  0.8000E+01
     -1.348  0.0000E+00  0.8000E+01
     -1.307  0.0000E+00  0.8000E+01
     -1.266  0.0000E+00  0.8000E+01
     -1.225  0.0000E+00  0.8000E+01
     -1.184  0.0000E+00  0.8000E+01
     -1.144  0.0000E+00  0.8000E+01
     -1.103  0.0000E+00  0.8000E+01
     -1.062  0.0000E+00  0.8000E+01
     -1.021  0.0000E+00  0.8000E+01
     -0.980  0.0000E+00  0.8000E+01
     -0.939  0.0000E+00  0.8000E+01
     -0.899  0.0000E+00  0.8000E+01
     -0.858  0.0000E+00  0.8000E+01
     -0.817  0.0000E+00  0.8000E+01
     -0.776  0.0000E+00  0.8000E+01
     -0.735  0.0000E+00  0.8000E+01
     -0.694  0.0000E+00  0.8000E+01
     -0.653  0.0000E+00  0.8000E+01
     -0.613  0.0000E+00  0.8000E+01
     -0.572  0.0000E+00  0.8000E+01
     -0.531  0.0000E+00  0.8000E+01
     -0.490  0.2709E-12  0.8000E+01
     -0.449  0.1041E-08  0.8000E+01
     -0.408  0.1085E-05  0.8000E+01
     -0.367  0.3091E-03  0.8000E+01
     -0.327  0.2448E-01  0.8001E+01
     -0.286  0.5509E+00  0.8024E+01
     -0.245  0.3638E+01  0.8172E+01
     -0.204  0.7742E+01  0.8488E+01
     -0.163  0.9622E+01  0.8881E+01
     -0.122  0.1438E+02  0.9469E+01
     -0.082  0.1045E+02  0.9895E+01
     -0.041  0.2395E+01  0.9993E+01
      0.000  0.1623E+00  0.1000E+02
      0.041  0.1021E-01  0.1000E+02
      0.082  0.2359E+00  0.1001E+02
      0.123  0.2289E+01  0.1010E+02
      0.164  0.7017E+01  0.1039E+02
      0.204  0.1119E+02  0.1085E+02
      0.245  0.2113E+02  0.1171E+02
      0.286  0.2772E+02  0.1284E+02
      0.327  0.2766E+02  0.1397E+02
      0.368  0.2261E+02  0.1490E+02
      0.409  0.9262E+01  0.1527E+02
      0.449  0.1869E+01  0.1535E+02
      0.490  0.3627E+01  0.1550E+02
      0.531  0.1000E+02  0.1591E+02
      0.572  0.1907E+02  0.1669E+02
      0.613  0.2990E+02  0.1791E+02
      0.654  0.3255E+02  0.1924E+02
      0.695  0.3161E+02  0.2053E+02
      0.735  0.2763E+02  0.2166E+02
      0.776  0.1756E+02  0.2238E+02
      0.817  0.1181E+02  0.2286E+02
      0.858  0.1329E+02  0.2340E+02
      0.899  0.1514E+02  0.2402E+02
      0.940  0.2469E+02  0.2503E+02
      0.981  0.3530E+02  0.2647E+02
      1.021  0.2766E+02  0.2760E+02
      1.062  0.2986E+02  0.2882E+02
      1.103  0.3559E+02  0.3027E+02
      1.144  0.2835E+02  0.3143E+02
      1.185  0.2109E+02  0.3229E+02
      1.226  0.1914E+02  0.3307E+02
      1.266  0.2794E+02  0.3422E+02
      1.307  0.3389E+02  0.3560E+02
      1.348  0.2604E+02  0.3666E+02
      1.389  0.2773E+02  0.3780E+02
      1.430  0.3422E+02  0.3919E+02
      1.471  0.2573E+02  0.4024E+02
      1.512  0.2534E+02  0.4128E+02
      1.552  0.3179E+02  0.4258E+02
      1.593  0.3444E+02  0.4399E+02
      1.634  0.2454E+02  0.4499E+02
      1.675  0.1515E+02  0.4561E+02
      1.716  0.2387E+02  0.4658E+02
      1.757  0.2459E+02  0.4759E+02
      1.797  0.9001E+01  0.4795E+02
      1.838  0.1084E+01  0.4800E+02
      1.879  0.4063E-01  0.4800E+02
      1.920  0.4492E-03  0.4800E+02
      1.961  0.1408E-05  0.4800E+02
      2.002  0.1220E-08  0.4800E+02
      2.043  0.2863E-12  0.4800E+02
      2.083  0.0000E+00  0.4800E+02
      2.124  0.0000E+00  0.4800E+02
      2.165  0.0000E+00  0.4800E+02
      2.206  0.0000E+00  0.4800E+02
      2.247  0.0000E+00  0.4800E+02
      2.288  0.0000E+00  0.4800E+02
