       N       E                     dE             d eps       ncg     rms          rms(c)
DAV:   1     0.740096564398E+01    0.74010E+01   -0.42032E+02    96   0.421E+01
DAV:   2     0.705627652565E-01   -0.73304E+01   -0.73238E+01   192   0.542E+00
DAV:   3    -0.557739349089E-01   -0.12634E+00   -0.10657E+00    96   0.128E+00
DAV:   4    -0.582411591329E-01   -0.24672E-02   -0.24289E-02    96   0.149E-01
DAV:   5    -0.582720314494E-01   -0.30872E-04   -0.30871E-04   192   0.193E-02    0.736E-03
DAV:   6    -0.582721427146E-01   -0.11127E-06   -0.15957E-07    96   0.122E-03
   1 F= -.58272143E-01 E0= -.31771472E-01  d E =-.530013E-01
