 running   24 mpi-ranks, with    1 threads/rank, on    1 nodes
 distrk:  each k-point on   24 cores,    1 groups
 distr:  one band on    1 cores,   24 groups
 vasp.6.4.3 19Mar24 (build May 31 2024 16:31:43) complex                        
  
 POSCAR found type information on POSCAR B 
 POSCAR found :  1 types and       1 ions
 Reading from existing POTCAR
 scaLAPACK will be used
 Reading from existing POTCAR
 LDA part: xc-table for (Slater+PW92), standard interpolation
 POSCAR, INCAR and KPOINTS ok, starting setup
 FFT: planning ... GRIDC
 FFT: planning ... GRID_SOFT
 FFT: planning ... GRID
 WAVECAR not read
 entering main loop
       N       E                     dE             d eps       ncg     rms          rms(c)
DAV:   1     0.740096564398E+01    0.74010E+01   -0.42032E+02    96   0.421E+01
DAV:   2     0.705627652565E-01   -0.73304E+01   -0.73238E+01   192   0.542E+00
DAV:   3    -0.557739349089E-01   -0.12634E+00   -0.10657E+00    96   0.128E+00
DAV:   4    -0.582411591329E-01   -0.24672E-02   -0.24289E-02    96   0.149E-01
DAV:   5    -0.582720314494E-01   -0.30872E-04   -0.30871E-04   192   0.193E-02    0.736E-03
DAV:   6    -0.582721427146E-01   -0.11127E-06   -0.15957E-07    96   0.122E-03
   1 F= -.58272143E-01 E0= -.31771472E-01  d E =-.530013E-01
