 running   24 mpi-ranks, with    1 threads/rank, on    1 nodes
 distrk:  each k-point on   24 cores,    1 groups
 distr:  one band on    1 cores,   24 groups
 vasp.6.4.3 19Mar24 (build May 31 2024 16:31:43) complex                        
  
 POSCAR found type information on POSCAR B 
 POSCAR found :  1 types and      14 ions
 Reading from existing POTCAR
 scaLAPACK will be used
 Reading from existing POTCAR
 LDA part: xc-table for (Slater+PW92), standard interpolation
 POSCAR, INCAR and KPOINTS ok, starting setup
 FFT: planning ... GRIDC
 FFT: planning ... GRID_SOFT
 FFT: planning ... GRID
 WAVECAR not read
 entering main loop
       N       E                     dE             d eps       ncg     rms          rms(c)
DAV:   1     0.795893742937E+02    0.79589E+02   -0.20030E+04 16800   0.863E+02
DAV:   2    -0.917768302347E+02   -0.17137E+03   -0.16055E+03 23112   0.168E+02
DAV:   3    -0.976029164653E+02   -0.58261E+01   -0.57911E+01 24792   0.275E+01
DAV:   4    -0.976371947351E+02   -0.34278E-01   -0.34276E-01 20112   0.245E+00
DAV:   5    -0.976375754937E+02   -0.38076E-03   -0.38075E-03 24720   0.246E-01    0.123E+01
DAV:   6    -0.922263216139E+02    0.54113E+01   -0.39456E+00 24336   0.658E+00    0.680E+00
DAV:   7    -0.905760376978E+02    0.16503E+01   -0.32186E+00 25176   0.586E+00    0.171E+00
DAV:   8    -0.905884051820E+02   -0.12367E-01   -0.23429E-01 18480   0.167E+00    0.705E-01
DAV:   9    -0.906025715499E+02   -0.14166E-01   -0.16916E-02 23424   0.439E-01    0.198E-01
DAV:  10    -0.906066218686E+02   -0.40503E-02   -0.20981E-03 19104   0.161E-01    0.609E-02
DAV:  11    -0.906076885070E+02   -0.10666E-02   -0.62661E-04 21576   0.869E-02    0.321E-02
DAV:  12    -0.906078039849E+02   -0.11548E-03   -0.92774E-05 20808   0.371E-02    0.429E-03
DAV:  13    -0.906078088450E+02   -0.48601E-05   -0.41164E-06 23352   0.881E-03    0.182E-03
DAV:  14    -0.906078095299E+02   -0.68496E-06   -0.28820E-07 20712   0.231E-03
   1 F= -.90607810E+02 E0= -.90606203E+02  d E =-.321359E-02
