       N       E                     dE             d eps       ncg     rms          rms(c)
DAV:   1     0.136348933387E+03    0.13635E+03   -0.25372E+04120960   0.121E+03
DAV:   2    -0.889816490120E+02   -0.22533E+03   -0.20895E+03161352   0.201E+02
DAV:   3    -0.975949928379E+02   -0.86133E+01   -0.85393E+01180840   0.347E+01
DAV:   4    -0.976480833619E+02   -0.53091E-01   -0.53087E-01135528   0.314E+00
DAV:   5    -0.976486298908E+02   -0.54653E-03   -0.54652E-03180768   0.303E-01    0.123E+01
DAV:   6    -0.922342183633E+02    0.54144E+01   -0.39474E+00174936   0.658E+00    0.679E+00
DAV:   7    -0.905832503513E+02    0.16510E+01   -0.32095E+00180336   0.586E+00    0.172E+00
DAV:   8    -0.905943306880E+02   -0.11080E-01   -0.22974E-01132744   0.166E+00    0.751E-01
DAV:   9    -0.906090019052E+02   -0.14671E-01   -0.17583E-02171000   0.460E-01    0.206E-01
DAV:  10    -0.906133799480E+02   -0.43780E-02   -0.26254E-03133440   0.182E-01    0.665E-02
DAV:  11    -0.906145627170E+02   -0.11828E-02   -0.69203E-04159552   0.935E-02    0.337E-02
DAV:  12    -0.906146626161E+02   -0.99899E-04   -0.69405E-05150888   0.338E-02    0.655E-03
